<event>
 4    1  0.6754235E+001  0.3059100E+02  0.7546771E-02  0.1414529E+00
          2   -1    0    0  502    0  0.00000000000E+00  0.00000000000E+00  0.11161511034E+04  0.11161511034E+04  0.00000000000E+00 0. -1.
         -2   -1    0    0    0  501 -0.00000000000E+00 -0.00000000000E+00 -0.21192341387E+01  0.21192341387E+01  0.00000000000E+00 0.  1.
          1    1    1    2  502    0 -0.10466517973E+02  0.28744764437E+02  0.99169574901E+03  0.99216745970E+03  0.00000000000E+00 0. -1.
         -1    1    1    2    0  501  0.10466517973E+02 -0.28744764437E+02  0.12233612021E+03  0.12610287779E+03  0.00000000000E+00 0.  1.
</event>
<event>
 4    1  0.6754235E+001  0.2182347E+02  0.7546771E-02  0.1507825E+00
          2   -1    0    0  502    0  0.00000000000E+00  0.00000000000E+00  0.14120465645E+01  0.14120465645E+01  0.00000000000E+00 0.  1.
         -2   -1    0    0    0  501 -0.00000000000E+00 -0.00000000000E+00 -0.58942667828E+03  0.58942667828E+03  0.00000000000E+00 0. -1.
          1    1    1    2  502    0 -0.12997506148E+02 -0.17530797063E+02 -0.48722426986E+03  0.48771277731E+03  0.00000000000E+00 0. -1.
         -1    1    1    2    0  501  0.12997506148E+02  0.17530797063E+02 -0.10079036186E+03  0.10312594754E+03  0.00000000000E+00 0.  1.
</event>
<event>
 4    1  0.6754235E+001  0.2222524E+02  0.7546771E-02  0.1502463E+00
          2   -1    0    0  502    0  0.00000000000E+00  0.00000000000E+00  0.14171196180E+04  0.14171196180E+04  0.00000000000E+00 0. -1.
         -2   -1    0    0    0  501 -0.00000000000E+00 -0.00000000000E+00 -0.77353750872E+00  0.77353750872E+00  0.00000000000E+00 0.  1.
          1    1    1    2  502    0  0.21906566760E+02  0.37501658427E+01  0.18269796852E+03  0.18404485625E+03  0.00000000000E+00 0.  1.
         -1    1    1    2    0  501 -0.21906566760E+02 -0.37501658427E+01  0.12336481120E+04  0.12338482993E+04  0.00000000000E+00 0. -1.
</event>
<event>
 4    1  0.6754235E+001  0.2560009E+02  0.7546771E-02  0.1462201E+00
          2   -1    0    0  502    0  0.00000000000E+00  0.00000000000E+00  0.52438640328E+02  0.52438640328E+02  0.00000000000E+00 0.  1.
         -2   -1    0    0    0  501 -0.00000000000E+00 -0.00000000000E+00 -0.15836020211E+02  0.15836020211E+02  0.00000000000E+00 0. -1.
          1    1    1    2  502    0  0.77282522820E+01 -0.24405710271E+02  0.26277439707E+01  0.25734599580E+02  0.00000000000E+00 0. -1.
         -1    1    1    2    0  501 -0.77282522820E+01  0.24405710271E+02  0.33974876147E+02  0.42540060959E+02  0.00000000000E+00 0.  1.
</event>
<event>
 4    1  0.6754235E+001  0.2932253E+02  0.7546771E-02  0.1425576E+00
          2   -1    0    0  502    0  0.00000000000E+00  0.00000000000E+00  0.47340301370E+03  0.47340301370E+03  0.00000000000E+00 0. -1.
         -2   -1    0    0    0  501 -0.00000000000E+00 -0.00000000000E+00 -0.21282584316E+01  0.21282584316E+01  0.00000000000E+00 0.  1.
          1    1    1    2  502    0  0.21565798860E+02  0.19867739834E+02  0.14459763249E+03  0.14754079466E+03  0.00000000000E+00 0.  1.
         -1    1    1    2    0  501 -0.21565798860E+02 -0.19867739834E+02  0.32667712278E+03  0.32799047748E+03  0.00000000000E+00 0. -1.
</event>
<event>
 4    1  0.6754235E+001  0.2695650E+02  0.7546771E-02  0.1448046E+00
          2   -1    0    0  502    0  0.00000000000E+00  0.00000000000E+00  0.94450953524E+02  0.94450953524E+02  0.00000000000E+00 0.  1.
         -2   -1    0    0    0  501 -0.00000000000E+00 -0.00000000000E+00 -0.21478654347E+02  0.21478654347E+02  0.00000000000E+00 0. -1.
          1    1    1    2  502    0 -0.18969311364E+02 -0.19152492114E+02  0.82923518065E+02  0.87194968755E+02  0.00000000000E+00 0.  1.
         -1    1    1    2    0  501  0.18969311364E+02  0.19152492114E+02 -0.99512188880E+01  0.28734639117E+02  0.00000000000E+00 0. -1.
</event>
<event>
 4    1  0.6754235E+001  0.2769318E+02  0.7546771E-02  0.1440767E+00
          2   -1    0    0  502    0  0.00000000000E+00  0.00000000000E+00  0.63784161778E+02  0.63784161778E+02  0.00000000000E+00 0.  1.
         -2   -1    0    0    0  501 -0.00000000000E+00 -0.00000000000E+00 -0.13274785101E+02  0.13274785101E+02  0.00000000000E+00 0. -1.
          1    1    1    2  502    0 -0.27195661704E+02  0.52257147578E+01  0.13425671703E+02  0.30775977173E+02  0.00000000000E+00 0. -1.
         -1    1    1    2    0  501  0.27195661704E+02 -0.52257147578E+01  0.37083704974E+02  0.46282969706E+02  0.00000000000E+00 0.  1.
</event>
<event>
 4    1  0.6754235E+001  0.2586497E+02  0.7546771E-02  0.1459355E+00
          2   -1    0    0  502    0  0.00000000000E+00  0.00000000000E+00  0.24866605097E+02  0.24866605097E+02  0.00000000000E+00 0.  1.
         -2   -1    0    0    0  501 -0.00000000000E+00 -0.00000000000E+00 -0.27141645425E+02  0.27141645425E+02  0.00000000000E+00 0. -1.
          1    1    1    2  502    0  0.25857816648E+02 -0.60831096048E+00  0.12987088128E+01  0.25897555263E+02  0.00000000000E+00 0.  1.
         -1    1    1    2    0  501 -0.25857816648E+02  0.60831096048E+00 -0.35737491401E+01  0.26110695259E+02  0.00000000000E+00 0. -1.
</event>
<event>
 4    1  0.6754235E+001  0.5106703E+02  0.7546771E-02  0.1293611E+00
          2   -1    0    0  502    0  0.00000000000E+00  0.00000000000E+00  0.10927791115E+03  0.10927791115E+03  0.00000000000E+00 0. -1.
         -2   -1    0    0    0  501 -0.00000000000E+00 -0.00000000000E+00 -0.27688185598E+02  0.27688185598E+02  0.00000000000E+00 0.  1.
          1    1    1    2  502    0 -0.48494285759E+02 -0.16004548079E+02  0.66244877844E+02  0.83643440574E+02  0.00000000000E+00 0. -1.
         -1    1    1    2    0  501  0.48494285759E+02  0.16004548079E+02  0.15344847710E+02  0.53322656177E+02  0.00000000000E+00 0.  1.
</event>
<event>
 4    1  0.6754235E+001  0.2084552E+02  0.7546771E-02  0.1521482E+00
          2   -1    0    0  502    0  0.00000000000E+00  0.00000000000E+00  0.17862162128E+04  0.17862162128E+04  0.00000000000E+00 0.  1.
         -2   -1    0    0    0  501 -0.00000000000E+00 -0.00000000000E+00 -0.33710063086E+00  0.33710063086E+00  0.00000000000E+00 0. -1.
          1    1    1    2  502    0  0.13187068306E+02 -0.16144252113E+02  0.42166406394E+03  0.42217901234E+03  0.00000000000E+00 0. -1.
         -1    1    1    2    0  501 -0.13187068306E+02  0.16144252113E+02  0.13642150483E+04  0.13643743011E+04  0.00000000000E+00 0.  1.
</event>
<event>
 4    1  0.6754235E+001  0.3803104E+02  0.7546771E-02  0.1360427E+00
          2   -1    0    0  502    0  0.00000000000E+00  0.00000000000E+00  0.54808289061E+03  0.54808289061E+03  0.00000000000E+00 0. -1.
         -2   -1    0    0    0  501 -0.00000000000E+00 -0.00000000000E+00 -0.46274980114E+01  0.46274980114E+01  0.00000000000E+00 0.  1.
          1    1    1    2  502    0  0.35105166606E+02  0.14628298969E+02  0.45288808656E+03  0.45448209954E+03  0.00000000000E+00 0. -1.
         -1    1    1    2    0  501 -0.35105166606E+02 -0.14628298969E+02  0.90567306045E+02  0.98228289090E+02  0.00000000000E+00 0.  1.
</event>
<event>
 4    1  0.6754235E+001  0.2034272E+02  0.7546771E-02  0.1528859E+00
          2   -1    0    0  502    0  0.00000000000E+00  0.00000000000E+00  0.58975385690E+03  0.58975385690E+03  0.00000000000E+00 0.  1.
         -2   -1    0    0    0  501 -0.00000000000E+00 -0.00000000000E+00 -0.72789426649E+00  0.72789426649E+00  0.00000000000E+00 0. -1.
          1    1    1    2  502    0 -0.20296039668E+02 -0.13773592583E+01  0.35052752268E+03  0.35111731729E+03  0.00000000000E+00 0. -1.
         -1    1    1    2    0  501  0.20296039668E+02  0.13773592583E+01  0.23849843995E+03  0.23936443387E+03  0.00000000000E+00 0.  1.
</event>
<event>
 4    1  0.6754235E+001  0.2432491E+02  0.7546771E-02  0.1476499E+00
          2   -1    0    0  502    0  0.00000000000E+00  0.00000000000E+00  0.71395785523E+03  0.71395785523E+03  0.00000000000E+00 0.  1.
         -2   -1    0    0    0  501 -0.00000000000E+00 -0.00000000000E+00 -0.92660663173E+00  0.92660663173E+00  0.00000000000E+00 0. -1.
          1    1    1    2  502    0  0.15987011345E+02 -0.18333492228E+02  0.24036390603E+03  0.24159161573E+03  0.00000000000E+00 0. -1.
         -1    1    1    2    0  501 -0.15987011345E+02  0.18333492228E+02  0.47266734256E+03  0.47329284613E+03  0.00000000000E+00 0.  1.
</event>
<event>
 4    1  0.6754235E+001  0.2443756E+02  0.7546771E-02  0.1475195E+00
          2   -1    0    0  502    0  0.00000000000E+00  0.00000000000E+00  0.45874998013E+02  0.45874998013E+02  0.00000000000E+00 0.  1.
         -2   -1    0    0    0  501 -0.00000000000E+00 -0.00000000000E+00 -0.13429976370E+02  0.13429976370E+02  0.00000000000E+00 0. -1.
          1    1    1    2  502    0  0.10312170062E+02 -0.22155213221E+02  0.11028137298E+02  0.26810709362E+02  0.00000000000E+00 0.  1.
         -1    1    1    2    0  501 -0.10312170062E+02  0.22155213221E+02  0.21416884345E+02  0.32494265021E+02  0.00000000000E+00 0. -1.
</event>
<event>
 4    1  0.6754235E+001  0.2893485E+02  0.7546771E-02  0.1429084E+00
          2   -1    0    0  502    0  0.00000000000E+00  0.00000000000E+00  0.55538624463E+01  0.55538624463E+01  0.00000000000E+00 0. -1.
         -2   -1    0    0    0  501 -0.00000000000E+00 -0.00000000000E+00 -0.24063858558E+03  0.24063858558E+03  0.00000000000E+00 0.  1.
          1    1    1    2  502    0  0.18428728919E+02 -0.22307120916E+02 -0.42306886731E+02  0.51255227616E+02  0.00000000000E+00 0.  1.
         -1    1    1    2    0  501 -0.18428728919E+02  0.22307120916E+02 -0.19277783640E+03  0.19493722041E+03  0.00000000000E+00 0. -1.
</event>
<event>
 4    1  0.6754235E+001  0.2271035E+02  0.7546771E-02  0.1496168E+00
          2   -1    0    0  502    0  0.00000000000E+00  0.00000000000E+00  0.59323445951E+02  0.59323445951E+02  0.00000000000E+00 0.  1.
         -2   -1    0    0    0  501 -0.00000000000E+00 -0.00000000000E+00 -0.22366361713E+02  0.22366361713E+02  0.00000000000E+00 0. -1.
          1    1    1    2  502    0  0.18832893741E+02 -0.12691808659E+02  0.50413141994E+02  0.55292357333E+02  0.00000000000E+00 0.  1.
         -1    1    1    2    0  501 -0.18832893741E+02  0.12691808659E+02 -0.13456057756E+02  0.26397450332E+02  0.00000000000E+00 0. -1.
</event>
<event>
 4    1  0.6754235E+001  0.2714017E+02  0.7546771E-02  0.1446205E+00
          2   -1    0    0  502    0  0.00000000000E+00  0.00000000000E+00  0.23153698149E+02  0.23153698149E+02  0.00000000000E+00 0.  1.
         -2   -1    0    0    0  501 -0.00000000000E+00 -0.00000000000E+00 -0.32899651961E+02  0.32899651961E+02  0.00000000000E+00 0. -1.
          1    1    1    2  502    0 -0.25609709203E+02  0.89850807872E+01  0.22055132841E+00  0.27141067133E+02  0.00000000000E+00 0. -1.
         -1    1    1    2    0  501  0.25609709203E+02 -0.89850807872E+01 -0.99665051409E+01  0.28912282977E+02  0.00000000000E+00 0.  1.
</event>
<event>
 4    1  0.6754235E+001  0.5687525E+02  0.7546771E-02  0.1270836E+00
          2   -1    0    0  502    0  0.00000000000E+00  0.00000000000E+00  0.57280656525E+01  0.57280656525E+01  0.00000000000E+00 0.  1.
         -2   -1    0    0    0  501 -0.00000000000E+00 -0.00000000000E+00 -0.56794711721E+03  0.56794711721E+03  0.00000000000E+00 0. -1.
          1    1    1    2  502    0 -0.74957625896E+01  0.56379142729E+02 -0.30270724219E+03  0.30800400755E+03  0.00000000000E+00 0. -1.
         -1    1    1    2    0  501  0.74957625896E+01 -0.56379142729E+02 -0.25951180937E+03  0.26567117531E+03  0.00000000000E+00 0.  1.
</event>
<event>
 4    1  0.6754235E+001  0.3517306E+02  0.7546771E-02  0.1379351E+00
          2   -1    0    0  502    0  0.00000000000E+00  0.00000000000E+00  0.28806672629E+03  0.28806672629E+03  0.00000000000E+00 0.  1.
         -2   -1    0    0    0  501 -0.00000000000E+00 -0.00000000000E+00 -0.47148138080E+01  0.47148138080E+01  0.00000000000E+00 0. -1.
          1    1    1    2  502    0  0.41365418908E+00  0.35170628218E+02  0.97974737020E+02  0.10409703787E+03  0.00000000000E+00 0. -1.
         -1    1    1    2    0  501 -0.41365418908E+00 -0.35170628218E+02  0.18537717546E+03  0.18868450222E+03  0.00000000000E+00 0.  1.
</event>
<event>
 4    1  0.6754235E+001  0.2823718E+02  0.7546771E-02  0.1435561E+00
          2   -1    0    0  502    0  0.00000000000E+00  0.00000000000E+00  0.39354789162E+03  0.39354789162E+03  0.00000000000E+00 0. -1.
         -2   -1    0    0    0  501 -0.00000000000E+00 -0.00000000000E+00 -0.21910154389E+01  0.21910154389E+01  0.00000000000E+00 0.  1.
          1    1    1    2  502    0  0.12765304244E+02 -0.25187011358E+02  0.24997635837E+03  0.25156613102E+03  0.00000000000E+00 0. -1.
         -1    1    1    2    0  501 -0.12765304244E+02  0.25187011358E+02  0.14138051781E+03  0.14417277604E+03  0.00000000000E+00 0.  1.
</event>
<event>
 4    1  0.6754235E+001  0.2608438E+02  0.7546771E-02  0.1457029E+00
          2   -1    0    0  502    0  0.00000000000E+00  0.00000000000E+00  0.20785684687E+02  0.20785684687E+02  0.00000000000E+00 0. -1.
         -2   -1    0    0    0  501 -0.00000000000E+00 -0.00000000000E+00 -0.34132290309E+02  0.34132290309E+02  0.00000000000E+00 0.  1.
          1    1    1    2  502    0 -0.24626554155E+02  0.85981238424E+01 -0.11151803046E+01  0.26108208102E+02  0.00000000000E+00 0. -1.
         -1    1    1    2    0  501  0.24626554155E+02 -0.85981238424E+01 -0.12231425318E+02  0.28809766894E+02  0.00000000000E+00 0.  1.
</event>
<event>
 4    1  0.6754235E+001  0.2038003E+02  0.7546771E-02  0.1528303E+00
          2   -1    0    0  502    0  0.00000000000E+00  0.00000000000E+00  0.50056954856E+02  0.50056954856E+02  0.00000000000E+00 0.  1.
         -2   -1    0    0    0  501 -0.00000000000E+00 -0.00000000000E+00 -0.94234059227E+01  0.94234059227E+01  0.00000000000E+00 0. -1.
          1    1    1    2  502    0  0.24369043602E+01  0.20233814584E+02  0.10036664947E+02  0.22717402993E+02  0.00000000000E+00 0. -1.
         -1    1    1    2    0  501 -0.24369043602E+01 -0.20233814584E+02  0.30596883986E+02  0.36762957785E+02  0.00000000000E+00 0.  1.
</event>
<event>
 4    1  0.6754235E+001  0.2279495E+02  0.7546771E-02  0.1495089E+00
          2   -1    0    0  502    0  0.00000000000E+00  0.00000000000E+00  0.85126972742E+01  0.85126972742E+01  0.00000000000E+00 0.  1.
         -2   -1    0    0    0  501 -0.00000000000E+00 -0.00000000000E+00 -0.75035887206E+02  0.75035887206E+02  0.00000000000E+00 0. -1.
          1    1    1    2  502    0  0.14806418549E+02 -0.17331467625E+02 -0.15219608233E+02  0.27408872196E+02  0.00000000000E+00 0.  1.
         -1    1    1    2    0  501 -0.14806418549E+02  0.17331467625E+02 -0.51303581699E+02  0.56139712285E+02  0.00000000000E+00 0. -1.
</event>
<event>
 4    1 -0.6754235E+001  0.3818796E+02  0.7546771E-02  0.1359444E+00
          2   -1    0    0  502    0  0.00000000000E+00  0.00000000000E+00  0.43233699317E+00  0.43233699317E+00  0.00000000000E+00 0. -1.
         -2   -1    0    0    0  501 -0.00000000000E+00 -0.00000000000E+00 -0.35585359451E+04  0.35585359451E+04  0.00000000000E+00 0.  1.
          1    1    1    2  502    0  0.27502030316E+00  0.38186973972E+02 -0.13728492418E+04  0.13733802683E+04  0.00000000000E+00 0.  1.
         -1    1    1    2    0  501 -0.27502030316E+00 -0.38186973972E+02 -0.21852543663E+04  0.21855880138E+04  0.00000000000E+00 0. -1.
</event>
<event>
 4    1  0.6754235E+001  0.2581839E+02  0.7546771E-02  0.1459853E+00
          2   -1    0    0  502    0  0.00000000000E+00  0.00000000000E+00  0.14128199674E+03  0.14128199674E+03  0.00000000000E+00 0. -1.
         -2   -1    0    0    0  501 -0.00000000000E+00 -0.00000000000E+00 -0.47342312388E+01  0.47342312388E+01  0.00000000000E+00 0.  1.
          1    1    1    2  502    0  0.24980031486E+02  0.65259070475E+01  0.72529150504E+02  0.76987447734E+02  0.00000000000E+00 0. -1.
         -1    1    1    2    0  501 -0.24980031486E+02 -0.65259070475E+01  0.64018614994E+02  0.69028780241E+02  0.00000000000E+00 0.  1.
</event>
<event>
 4    1  0.6754235E+001  0.2297566E+02  0.7546771E-02  0.1492804E+00
          2   -1    0    0  502    0  0.00000000000E+00  0.00000000000E+00  0.95820143027E+03  0.95820143027E+03  0.00000000000E+00 0.  1.
         -2   -1    0    0    0  501 -0.00000000000E+00 -0.00000000000E+00 -0.58641853491E+00  0.58641853491E+00  0.00000000000E+00 0. -1.
          1    1    1    2  502    0 -0.14870880446E+02  0.17513931087E+02  0.36083873002E+03  0.36156945384E+03  0.00000000000E+00 0. -1.
         -1    1    1    2    0  501  0.14870880446E+02 -0.17513931087E+02  0.59677628171E+03  0.59721839496E+03  0.00000000000E+00 0.  1.
</event>
<event>
 4    1  0.6754235E+001  0.3239534E+02  0.7546771E-02  0.1399862E+00
          2   -1    0    0  502    0  0.00000000000E+00  0.00000000000E+00  0.31175231818E+03  0.31175231818E+03  0.00000000000E+00 0. -1.
         -2   -1    0    0    0  501 -0.00000000000E+00 -0.00000000000E+00 -0.43187740472E+01  0.43187740472E+01  0.00000000000E+00 0.  1.
          1    1    1    2  502    0  0.18832483400E+02 -0.26358981639E+02  0.22793256825E+03  0.23022318305E+03  0.00000000000E+00 0. -1.
         -1    1    1    2    0  501 -0.18832483400E+02  0.26358981639E+02  0.79500975889E+02  0.85847909184E+02  0.00000000000E+00 0.  1.
</event>
<event>
 4    1  0.6754235E+001  0.2016149E+02  0.7546771E-02  0.1531581E+00
          2   -1    0    0  502    0  0.00000000000E+00  0.00000000000E+00  0.14780754328E+03  0.14780754328E+03  0.00000000000E+00 0.  1.
         -2   -1    0    0    0  501 -0.00000000000E+00 -0.00000000000E+00 -0.60354677935E+01  0.60354677935E+01  0.00000000000E+00 0. -1.
          1    1    1    2  502    0  0.12655518310E+02  0.15694697795E+02  0.14133637420E+02  0.24622050875E+02  0.00000000000E+00 0. -1.
         -1    1    1    2    0  501 -0.12655518310E+02 -0.15694697795E+02  0.12763843807E+03  0.12922096020E+03  0.00000000000E+00 0.  1.
</event>
<event>
 4    1  0.6754235E+001  0.2098171E+02  0.7546771E-02  0.1519526E+00
          2   -1    0    0  502    0  0.00000000000E+00  0.00000000000E+00  0.10556405990E+04  0.10556405990E+04  0.00000000000E+00 0.  1.
         -2   -1    0    0    0  501 -0.00000000000E+00 -0.00000000000E+00 -0.42335903553E+00  0.42335903553E+00  0.00000000000E+00 0. -1.
          1    1    1    2  502    0  0.61726072157E+01 -0.20053208770E+02  0.59217768981E+03  0.59254927944E+03  0.00000000000E+00 0.  1.
         -1    1    1    2    0  501 -0.61726072157E+01  0.20053208770E+02  0.46303955016E+03  0.46351467860E+03  0.00000000000E+00 0. -1.
</event>
<event>
 4    1  0.6754235E+001  0.2375276E+02  0.7546771E-02  0.1483256E+00
          2   -1    0    0  502    0  0.00000000000E+00  0.00000000000E+00  0.33661826284E+02  0.33661826284E+02  0.00000000000E+00 0. -1.
         -2   -1    0    0    0  501 -0.00000000000E+00 -0.00000000000E+00 -0.27949962901E+02  0.27949962901E+02  0.00000000000E+00 0.  1.
          1    1    1    2  502    0 -0.19336852126E+02  0.13794193092E+02  0.22347428481E+02  0.32612898873E+02  0.00000000000E+00 0. -1.
         -1    1    1    2    0  501  0.19336852126E+02 -0.13794193092E+02 -0.16635565097E+02  0.28998890312E+02  0.00000000000E+00 0.  1.
</event>
<event>
 4    1  0.6754235E+001  0.2855447E+02  0.7546771E-02  0.1432588E+00
          2   -1    0    0  502    0  0.00000000000E+00  0.00000000000E+00  0.12820208411E+03  0.12820208411E+03  0.00000000000E+00 0. -1.
         -2   -1    0    0    0  501 -0.00000000000E+00 -0.00000000000E+00 -0.99152670067E+01  0.99152670067E+01  0.00000000000E+00 0.  1.
          1    1    1    2  502    0  0.22643843372E+02 -0.17395813686E+02  0.10049627482E+03  0.10447420366E+03  0.00000000000E+00 0. -1.
         -1    1    1    2    0  501 -0.22643843372E+02  0.17395813686E+02  0.17790542283E+02  0.33643147463E+02  0.00000000000E+00 0.  1.
</event>
<event>
 4    1  0.6754235E+001  0.2255912E+02  0.7546771E-02  0.1498110E+00
          2   -1    0    0  502    0  0.00000000000E+00  0.00000000000E+00  0.60937205879E+01  0.60937205879E+01  0.00000000000E+00 0.  1.
         -2   -1    0    0    0  501 -0.00000000000E+00 -0.00000000000E+00 -0.12058396432E+03  0.12058396432E+03  0.00000000000E+00 0. -1.
          1    1    1    2  502    0  0.22009978384E+02 -0.49472167009E+01 -0.92363417284E+02  0.95078467352E+02  0.00000000000E+00 0. -1.
         -1    1    1    2    0  501 -0.22009978384E+02  0.49472167009E+01 -0.22126826451E+02  0.31599217559E+02  0.00000000000E+00 0.  1.
</event>
<event>
 4    1  0.6754235E+001  0.2265401E+02  0.7546771E-02  0.1496889E+00
          2   -1    0    0  502    0  0.00000000000E+00  0.00000000000E+00  0.57587550535E+02  0.57587550535E+02  0.00000000000E+00 0.  1.
         -2   -1    0    0    0  501 -0.00000000000E+00 -0.00000000000E+00 -0.17320981763E+02  0.17320981763E+02  0.00000000000E+00 0. -1.
          1    1    1    2  502    0  0.16535906716E+02 -0.15484444499E+02 -0.59639164617E+01  0.23425894474E+02  0.00000000000E+00 0. -1.
         -1    1    1    2    0  501 -0.16535906716E+02  0.15484444499E+02  0.46230485234E+02  0.51482637824E+02  0.00000000000E+00 0.  1.
</event>
<event>
 4    1  0.6754235E+001  0.3800833E+02  0.7546771E-02  0.1360569E+00
          2   -1    0    0  502    0  0.00000000000E+00  0.00000000000E+00  0.16075219416E+04  0.16075219416E+04  0.00000000000E+00 0. -1.
         -2   -1    0    0    0  501 -0.00000000000E+00 -0.00000000000E+00 -0.13905613178E+01  0.13905613178E+01  0.00000000000E+00 0.  1.
          1    1    1    2  502    0 -0.82247319203E+01  0.37107773498E+02  0.12815212143E+04  0.12820847304E+04  0.00000000000E+00 0. -1.
         -1    1    1    2    0  501  0.82247319203E+01 -0.37107773498E+02  0.32461016592E+03  0.32682777252E+03  0.00000000000E+00 0.  1.
</event>
<event>
 4    1  0.6754235E+001  0.3361892E+02  0.7546771E-02  0.1390541E+00
          2   -1    0    0  502    0  0.00000000000E+00  0.00000000000E+00  0.13964008096E+03  0.13964008096E+03  0.00000000000E+00 0.  1.
         -2   -1    0    0    0  501 -0.00000000000E+00 -0.00000000000E+00 -0.11278029308E+02  0.11278029308E+02  0.00000000000E+00 0. -1.
          1    1    1    2  502    0  0.31921626759E+02  0.10547095774E+02  0.10427607673E+03  0.10956154281E+03  0.00000000000E+00 0.  1.
         -1    1    1    2    0  501 -0.31921626759E+02 -0.10547095774E+02  0.24085974925E+02  0.41356567463E+02  0.00000000000E+00 0. -1.
</event>
<event>
 4    1  0.6754235E+001  0.2474954E+02  0.7546771E-02  0.1471625E+00
          2   -1    0    0  502    0  0.00000000000E+00  0.00000000000E+00  0.87537456225E+01  0.87537456225E+01  0.00000000000E+00 0.  1.
         -2   -1    0    0    0  501 -0.00000000000E+00 -0.00000000000E+00 -0.70387072280E+02  0.70387072280E+02  0.00000000000E+00 0. -1.
          1    1    1    2  502    0  0.22703563186E+02  0.98533324708E+01 -0.27787547805E+02  0.37211392814E+02  0.00000000000E+00 0.  1.
         -1    1    1    2    0  501 -0.22703563186E+02 -0.98533324708E+01 -0.33845778852E+02  0.41929425088E+02  0.00000000000E+00 0. -1.
</event>
<event>
 4    1  0.6754235E+001  0.2742962E+02  0.7546771E-02  0.1443340E+00
          2   -1    0    0  502    0  0.00000000000E+00  0.00000000000E+00  0.26124756862E+02  0.26124756862E+02  0.00000000000E+00 0. -1.
         -2   -1    0    0    0  501 -0.00000000000E+00 -0.00000000000E+00 -0.47605086856E+02  0.47605086856E+02  0.00000000000E+00 0.  1.
          1    1    1    2  502    0 -0.14806388351E+02 -0.23090150627E+02  0.12429950609E+02  0.30114578930E+02  0.00000000000E+00 0. -1.
         -1    1    1    2    0  501  0.14806388351E+02  0.23090150627E+02 -0.33910280603E+02  0.43615264788E+02  0.00000000000E+00 0.  1.
</event>
<event>
 4    1  0.6754235E+001  0.2049121E+02  0.7546771E-02  0.1526655E+00
          2   -1    0    0  502    0  0.00000000000E+00  0.00000000000E+00  0.18878092907E+03  0.18878092907E+03  0.00000000000E+00 0. -1.
         -2   -1    0    0    0  501 -0.00000000000E+00 -0.00000000000E+00 -0.22258734810E+01  0.22258734810E+01  0.00000000000E+00 0.  1.
          1    1    1    2  502    0 -0.19847159467E+02 -0.50970456635E+01  0.95883428440E+02  0.98048566857E+02  0.00000000000E+00 0. -1.
         -1    1    1    2    0  501  0.19847159467E+02  0.50970456635E+01  0.90671627145E+02  0.92958235689E+02  0.00000000000E+00 0.  1.
</event>
<event>
 4    1  0.6754235E+001  0.3215147E+02  0.7546771E-02  0.1401777E+00
          2   -1    0    0  502    0  0.00000000000E+00  0.00000000000E+00  0.19872580454E+03  0.19872580454E+03  0.00000000000E+00 0.  1.
         -2   -1    0    0    0  501 -0.00000000000E+00 -0.00000000000E+00 -0.57731212191E+01  0.57731212191E+01  0.00000000000E+00 0. -1.
          1    1    1    2  502    0 -0.61444615251E+01 -0.31558879386E+02  0.64308359161E+02  0.71897721337E+02  0.00000000000E+00 0. -1.
         -1    1    1    2    0  501  0.61444615251E+01  0.31558879386E+02  0.12864432416E+03  0.13260120442E+03  0.00000000000E+00 0.  1.
</event>
<event>
 4    1  0.6754235E+001  0.2066771E+02  0.7546771E-02  0.1524062E+00
          2   -1    0    0  502    0  0.00000000000E+00  0.00000000000E+00  0.50131353548E+03  0.50131353548E+03  0.00000000000E+00 0.  1.
         -2   -1    0    0    0  501 -0.00000000000E+00 -0.00000000000E+00 -0.92797416711E+00  0.92797416711E+00  0.00000000000E+00 0. -1.
          1    1    1    2  502    0 -0.19205933658E+02  0.76345543992E+01  0.32201304395E+03  0.32267561852E+03  0.00000000000E+00 0.  1.
         -1    1    1    2    0  501  0.19205933658E+02 -0.76345543992E+01  0.17837251736E+03  0.17956589113E+03  0.00000000000E+00 0. -1.
</event>
<event>
 4    1  0.6754235E+001  0.2897023E+02  0.7546771E-02  0.1428761E+00
          2   -1    0    0  502    0  0.00000000000E+00  0.00000000000E+00  0.88996242649E+03  0.88996242649E+03  0.00000000000E+00 0. -1.
         -2   -1    0    0    0  501 -0.00000000000E+00 -0.00000000000E+00 -0.10539979581E+01  0.10539979581E+01  0.00000000000E+00 0.  1.
          1    1    1    2  502    0 -0.18432437789E+02  0.22349933911E+02  0.58900017126E+03  0.58971219765E+03  0.00000000000E+00 0.  1.
         -1    1    1    2    0  501  0.18432437789E+02 -0.22349933911E+02  0.29990825727E+03  0.30130422680E+03  0.00000000000E+00 0. -1.
</event>
<event>
 4    1  0.6754235E+001  0.2224212E+02  0.7546771E-02  0.1502241E+00
          2   -1    0    0  502    0  0.00000000000E+00  0.00000000000E+00  0.23940272898E+02  0.23940272898E+02  0.00000000000E+00 0.  1.
         -2   -1    0    0    0  501 -0.00000000000E+00 -0.00000000000E+00 -0.23328063242E+02  0.23328063242E+02  0.00000000000E+00 0. -1.
          1    1    1    2  502    0  0.45512613991E+01 -0.21771490959E+02 -0.76800769991E+01  0.23530732705E+02  0.00000000000E+00 0.  1.
         -1    1    1    2    0  501 -0.45512613991E+01  0.21771490959E+02  0.82922866551E+01  0.23737603436E+02  0.00000000000E+00 0. -1.
</event>
<event>
 4    1  0.6754235E+001  0.3100899E+02  0.7546771E-02  0.1411026E+00
          2   -1    0    0  502    0  0.00000000000E+00  0.00000000000E+00  0.42503626470E+03  0.42503626470E+03  0.00000000000E+00 0. -1.
         -2   -1    0    0    0  501 -0.00000000000E+00 -0.00000000000E+00 -0.24700060185E+01  0.24700060185E+01  0.00000000000E+00 0.  1.
          1    1    1    2  502    0 -0.22963284016E+02  0.20838540954E+02  0.27326915382E+03  0.27502288565E+03  0.00000000000E+00 0. -1.
         -1    1    1    2    0  501  0.22963284016E+02 -0.20838540954E+02  0.14929710486E+03  0.15248338507E+03  0.00000000000E+00 0.  1.
</event>
<event>
 4    1  0.6754235E+001  0.2323656E+02  0.7546771E-02  0.1489549E+00
          2   -1    0    0  502    0  0.00000000000E+00  0.00000000000E+00  0.16064565727E+04  0.16064565727E+04  0.00000000000E+00 0. -1.
         -2   -1    0    0    0  501 -0.00000000000E+00 -0.00000000000E+00 -0.80129684691E+00  0.80129684691E+00  0.00000000000E+00 0.  1.
          1    1    1    2  502    0 -0.12458237713E+02 -0.19614539874E+02  0.19051254997E+03  0.19192438500E+03  0.00000000000E+00 0.  1.
         -1    1    1    2    0  501  0.12458237713E+02  0.19614539874E+02  0.14151427259E+04  0.14153334845E+04  0.00000000000E+00 0. -1.
</event>
<event>
 4    1  0.6754235E+001  0.2109037E+02  0.7546771E-02  0.1517978E+00
          2   -1    0    0  502    0  0.00000000000E+00  0.00000000000E+00  0.14128910972E+04  0.14128910972E+04  0.00000000000E+00 0. -1.
         -2   -1    0    0    0  501 -0.00000000000E+00 -0.00000000000E+00 -0.47263049908E+00  0.47263049908E+00  0.00000000000E+00 0.  1.
          1    1    1    2  502    0 -0.17892432519E+02 -0.11165326765E+02  0.11145602695E+04  0.11147597938E+04  0.00000000000E+00 0. -1.
         -1    1    1    2    0  501  0.17892432519E+02  0.11165326765E+02  0.29785819720E+03  0.29860393384E+03  0.00000000000E+00 0.  1.
</event>
<event>
 4    1  0.6754235E+001  0.2555880E+02  0.7546771E-02  0.1462648E+00
          2   -1    0    0  502    0  0.00000000000E+00  0.00000000000E+00  0.22012622825E+02  0.22012622825E+02  0.00000000000E+00 0.  1.
         -2   -1    0    0    0  501 -0.00000000000E+00 -0.00000000000E+00 -0.32490116730E+02  0.32490116730E+02  0.00000000000E+00 0. -1.
          1    1    1    2  502    0  0.15835863772E+02 -0.20061847470E+02  0.27810567233E+01  0.25709659309E+02  0.00000000000E+00 0. -1.
         -1    1    1    2    0  501 -0.15835863772E+02  0.20061847470E+02 -0.13258550629E+02  0.28793080246E+02  0.00000000000E+00 0.  1.
</event>
<event>
 4    1  0.6754235E+001  0.2341975E+02  0.7546771E-02  0.1487294E+00
          2   -1    0    0  502    0  0.00000000000E+00  0.00000000000E+00  0.12760264848E+04  0.12760264848E+04  0.00000000000E+00 0.  1.
         -2   -1    0    0    0  501 -0.00000000000E+00 -0.00000000000E+00 -0.61063560027E+00  0.61063560027E+00  0.00000000000E+00 0. -1.
          1    1    1    2  502    0 -0.13862501606E+02 -0.18876328001E+02  0.98503825394E+03  0.98531662243E+03  0.00000000000E+00 0.  1.
         -1    1    1    2    0  501  0.13862501606E+02  0.18876328001E+02  0.29037759531E+03  0.29132049802E+03  0.00000000000E+00 0. -1.
</event>
<event>
 4    1  0.6754235E+001  0.2045814E+02  0.7546771E-02  0.1527144E+00
          2   -1    0    0  502    0  0.00000000000E+00  0.00000000000E+00  0.32806202860E+02  0.32806202860E+02  0.00000000000E+00 0.  1.
         -2   -1    0    0    0  501 -0.00000000000E+00 -0.00000000000E+00 -0.19984640242E+02  0.19984640242E+02  0.00000000000E+00 0. -1.
          1    1    1    2  502    0 -0.77697996295E+01  0.18925266296E+02  0.22283604905E+02  0.30250529553E+02  0.00000000000E+00 0.  1.
         -1    1    1    2    0  501  0.77697996295E+01 -0.18925266296E+02 -0.94620422870E+01  0.22540313549E+02  0.00000000000E+00 0. -1.
</event>
<event>
 4    1  0.6754235E+001  0.3811127E+02  0.7546771E-02  0.1359924E+00
          2   -1    0    0  502    0  0.00000000000E+00  0.00000000000E+00  0.20270078788E+03  0.20270078788E+03  0.00000000000E+00 0. -1.
         -2   -1    0    0    0  501 -0.00000000000E+00 -0.00000000000E+00 -0.87179166466E+01  0.87179166466E+01  0.00000000000E+00 0.  1.
          1    1    1    2  502    0 -0.31958744095E+02 -0.20763135127E+02  0.14159809907E+03  0.14663727618E+03  0.00000000000E+00 0. -1.
         -1    1    1    2    0  501  0.31958744095E+02  0.20763135127E+02  0.52384772164E+02  0.64781428350E+02  0.00000000000E+00 0.  1.
</event>
<event>
 4    1  0.6754235E+001  0.2229231E+02  0.7546771E-02  0.1501581E+00
          2   -1    0    0  502    0  0.00000000000E+00  0.00000000000E+00  0.30521353341E+03  0.30521353341E+03  0.00000000000E+00 0. -1.
         -2   -1    0    0    0  501 -0.00000000000E+00 -0.00000000000E+00 -0.16850071952E+01  0.16850071952E+01  0.00000000000E+00 0.  1.
          1    1    1    2  502    0  0.20829207874E+01  0.22194783284E+02  0.17994076339E+03  0.18131636797E+03  0.00000000000E+00 0.  1.
         -1    1    1    2    0  501 -0.20829207874E+01 -0.22194783284E+02  0.12358776282E+03  0.12558217263E+03  0.00000000000E+00 0. -1.
</event>
<event>
 4    1  0.6754235E+001  0.4073200E+02  0.7546771E-02  0.1344249E+00
          2   -1    0    0  502    0  0.00000000000E+00  0.00000000000E+00  0.22312099312E+04  0.22312099312E+04  0.00000000000E+00 0.  1.
         -2   -1    0    0    0  501 -0.00000000000E+00 -0.00000000000E+00 -0.30048498190E+01  0.30048498190E+01  0.00000000000E+00 0. -1.
          1    1    1    2  502    0 -0.39478730691E+02 -0.10026253108E+02  0.20831815344E+04  0.20835797084E+04  0.00000000000E+00 0.  1.
         -1    1    1    2    0  501  0.39478730691E+02  0.10026253108E+02  0.14502354697E+03  0.15063507262E+03  0.00000000000E+00 0. -1.
</event>
<event>
 4    1  0.6754235E+001  0.2162961E+02  0.7546771E-02  0.1510462E+00
          2   -1    0    0  502    0  0.00000000000E+00  0.00000000000E+00  0.13884121354E+03  0.13884121354E+03  0.00000000000E+00 0.  1.
         -2   -1    0    0    0  501 -0.00000000000E+00 -0.00000000000E+00 -0.47290632792E+01  0.47290632792E+01  0.00000000000E+00 0. -1.
          1    1    1    2  502    0  0.12773129020E+02 -0.17455294829E+02  0.10554447110E+03  0.10773799479E+03  0.00000000000E+00 0.  1.
         -1    1    1    2    0  501 -0.12773129020E+02  0.17455294829E+02  0.28567679167E+02  0.35832282031E+02  0.00000000000E+00 0. -1.
</event>
<event>
 4    1  0.6754235E+001  0.3631179E+02  0.7546771E-02  0.1371568E+00
          2   -1    0    0  502    0  0.00000000000E+00  0.00000000000E+00  0.42142985783E+03  0.42142985783E+03  0.00000000000E+00 0.  1.
         -2   -1    0    0    0  501 -0.00000000000E+00 -0.00000000000E+00 -0.34102435088E+01  0.34102435088E+01  0.00000000000E+00 0. -1.
          1    1    1    2  502    0  0.26168945654E+02 -0.25174035654E+02  0.14797996082E+03  0.15236999243E+03  0.00000000000E+00 0. -1.
         -1    1    1    2    0  501 -0.26168945654E+02  0.25174035654E+02  0.27003965349E+03  0.27247010891E+03  0.00000000000E+00 0.  1.
</event>
<event>
 4    1  0.6754235E+001  0.2043038E+02  0.7546771E-02  0.1527555E+00
          2   -1    0    0  502    0  0.00000000000E+00  0.00000000000E+00  0.25963003036E+02  0.25963003036E+02  0.00000000000E+00 0.  1.
         -2   -1    0    0    0  501 -0.00000000000E+00 -0.00000000000E+00 -0.18391743127E+02  0.18391743127E+02  0.00000000000E+00 0. -1.
          1    1    1    2  502    0 -0.16217539239E+02  0.12425447066E+02 -0.40825618334E+01  0.20834289642E+02  0.00000000000E+00 0. -1.
         -1    1    1    2    0  501  0.16217539239E+02 -0.12425447066E+02  0.11653821743E+02  0.23520456521E+02  0.00000000000E+00 0.  1.
</event>
<event>
 4    1  0.6754235E+001  0.2175775E+02  0.7546771E-02  0.1508715E+00
          2   -1    0    0  502    0  0.00000000000E+00  0.00000000000E+00  0.48003932874E+01  0.48003932874E+01  0.00000000000E+00 0.  1.
         -2   -1    0    0    0  501 -0.00000000000E+00 -0.00000000000E+00 -0.15075140715E+03  0.15075140715E+03  0.00000000000E+00 0. -1.
          1    1    1    2  502    0  0.20243971213E+02  0.79738021438E+01 -0.27237524086E+02  0.34860903738E+02  0.00000000000E+00 0.  1.
         -1    1    1    2    0  501 -0.20243971213E+02 -0.79738021438E+01 -0.11871348978E+03  0.12069089670E+03  0.00000000000E+00 0. -1.
</event>
<event>
 4    1  0.6754235E+001  0.2777062E+02  0.7546771E-02  0.1440017E+00
          2   -1    0    0  502    0  0.00000000000E+00  0.00000000000E+00  0.84210185429E+01  0.84210185429E+01  0.00000000000E+00 0.  1.
         -2   -1    0    0    0  501 -0.00000000000E+00 -0.00000000000E+00 -0.93087109173E+02  0.93087109173E+02  0.00000000000E+00 0. -1.
          1    1    1    2  502    0  0.13050881148E+02 -0.24512890107E+02 -0.35877686927E+02  0.45369766357E+02  0.00000000000E+00 0.  1.
         -1    1    1    2    0  501 -0.13050881148E+02  0.24512890107E+02 -0.48788403704E+02  0.56138361359E+02  0.00000000000E+00 0. -1.
</event>
<event>
 4    1  0.6754235E+001  0.2015249E+02  0.7546771E-02  0.1531717E+00
          2   -1    0    0  502    0  0.00000000000E+00  0.00000000000E+00  0.99105513617E+03  0.99105513617E+03  0.00000000000E+00 0. -1.
         -2   -1    0    0    0  501 -0.00000000000E+00 -0.00000000000E+00 -0.59398187335E+00  0.59398187335E+00  0.00000000000E+00 0.  1.
          1    1    1    2  502    0  0.16589269582E+02  0.11441980372E+02  0.21912276283E+03  0.22004751298E+03  0.00000000000E+00 0.  1.
         -1    1    1    2    0  501 -0.16589269582E+02 -0.11441980372E+02  0.77133839147E+03  0.77160160507E+03  0.00000000000E+00 0. -1.
</event>
<event>
 4    1  0.6754235E+001  0.2096042E+02  0.7546771E-02  0.1519831E+00
          2   -1    0    0  502    0  0.00000000000E+00  0.00000000000E+00  0.72442417800E+01  0.72442417800E+01  0.00000000000E+00 0.  1.
         -2   -1    0    0    0  501 -0.00000000000E+00 -0.00000000000E+00 -0.63051618426E+02  0.63051618426E+02  0.00000000000E+00 0. -1.
          1    1    1    2  502    0 -0.14868119592E+02 -0.14774248323E+02 -0.21039307584E+02  0.29698347720E+02  0.00000000000E+00 0.  1.
         -1    1    1    2    0  501  0.14868119592E+02  0.14774248323E+02 -0.34768069062E+02  0.40597512486E+02  0.00000000000E+00 0. -1.
</event>
<event>
 4    1  0.6754235E+001  0.2317497E+02  0.7546771E-02  0.1490313E+00
          2   -1    0    0  502    0  0.00000000000E+00  0.00000000000E+00  0.13142362161E+03  0.13142362161E+03  0.00000000000E+00 0. -1.
         -2   -1    0    0    0  501 -0.00000000000E+00 -0.00000000000E+00 -0.43677193931E+01  0.43677193931E+01  0.00000000000E+00 0.  1.
          1    1    1    2  502    0  0.31999067870E+00 -0.23172765311E+02  0.46303772321E+02  0.51779520830E+02  0.00000000000E+00 0. -1.
         -1    1    1    2    0  501 -0.31999067870E+00  0.23172765311E+02  0.80752129901E+02  0.84011820178E+02  0.00000000000E+00 0.  1.
</event>
<event>
 4    1  0.6754235E+001  0.2118953E+02  0.7546771E-02  0.1516576E+00
          2   -1    0    0  502    0  0.00000000000E+00  0.00000000000E+00  0.17437567447E+03  0.17437567447E+03  0.00000000000E+00 0. -1.
         -2   -1    0    0    0  501 -0.00000000000E+00 -0.00000000000E+00 -0.40055208540E+01  0.40055208540E+01  0.00000000000E+00 0.  1.
          1    1    1    2  502    0 -0.15750130850E+02  0.14174963966E+02  0.31881657261E+02  0.38281017423E+02  0.00000000000E+00 0.  1.
         -1    1    1    2    0  501  0.15750130850E+02 -0.14174963966E+02  0.13848849635E+03  0.14010017790E+03  0.00000000000E+00 0. -1.
</event>
<event>
 4    1  0.6754235E+001  0.5896816E+02  0.7546771E-02  0.1263379E+00
          2   -1    0    0  502    0  0.00000000000E+00  0.00000000000E+00  0.96757889913E+03  0.96757889913E+03  0.00000000000E+00 0. -1.
         -2   -1    0    0    0  501 -0.00000000000E+00 -0.00000000000E+00 -0.38336566457E+01  0.38336566457E+01  0.00000000000E+00 0.  1.
          1    1    1    2  502    0 -0.10756841693E+02  0.57978743330E+02  0.36037127482E+03  0.36516393584E+03  0.00000000000E+00 0.  1.
         -1    1    1    2    0  501  0.10756841693E+02 -0.57978743330E+02  0.60337396767E+03  0.60624861994E+03  0.00000000000E+00 0. -1.
</event>
<event>
 4    1  0.6754235E+001  0.2381869E+02  0.7546771E-02  0.1482466E+00
          2   -1    0    0  502    0  0.00000000000E+00  0.00000000000E+00  0.21837556349E+04  0.21837556349E+04  0.00000000000E+00 0. -1.
         -2   -1    0    0    0  501 -0.00000000000E+00 -0.00000000000E+00 -0.26241289803E+00  0.26241289803E+00  0.00000000000E+00 0.  1.
          1    1    1    2  502    0  0.21341530194E+02 -0.10576825925E+02  0.12008047904E+04  0.12010409963E+04  0.00000000000E+00 0.  1.
         -1    1    1    2    0  501 -0.21341530194E+02  0.10576825925E+02  0.98268843161E+03  0.98297705150E+03  0.00000000000E+00 0. -1.
</event>
<event>
 4    1  0.6754235E+001  0.2719422E+02  0.7546771E-02  0.1445667E+00
          2   -1    0    0  502    0  0.00000000000E+00  0.00000000000E+00  0.45857718169E+03  0.45857718169E+03  0.00000000000E+00 0.  1.
         -2   -1    0    0    0  501 -0.00000000000E+00 -0.00000000000E+00 -0.17137158307E+01  0.17137158307E+01  0.00000000000E+00 0. -1.
          1    1    1    2  502    0 -0.23365716079E+02  0.13912914290E+02  0.28432103630E+03  0.28561858755E+03  0.00000000000E+00 0.  1.
         -1    1    1    2    0  501  0.23365716079E+02 -0.13912914290E+02  0.17254242956E+03  0.17467230997E+03  0.00000000000E+00 0. -1.
</event>
<event>
 4    1  0.6754235E+001  0.2652977E+02  0.7546771E-02  0.1452390E+00
          2   -1    0    0  502    0  0.00000000000E+00  0.00000000000E+00  0.46216559235E+03  0.46216559235E+03  0.00000000000E+00 0.  1.
         -2   -1    0    0    0  501 -0.00000000000E+00 -0.00000000000E+00 -0.19817197717E+01  0.19817197717E+01  0.00000000000E+00 0. -1.
          1    1    1    2  502    0 -0.23116729612E+01 -0.26428861212E+02  0.34176008382E+03  0.34278824867E+03  0.00000000000E+00 0.  1.
         -1    1    1    2    0  501  0.23116729612E+01  0.26428861212E+02  0.11842378876E+03  0.12135906345E+03  0.00000000000E+00 0. -1.
</event>
<event>
 4    1  0.6754235E+001  0.2662095E+02  0.7546771E-02  0.1451453E+00
          2   -1    0    0  502    0  0.00000000000E+00  0.00000000000E+00  0.14759474466E+03  0.14759474466E+03  0.00000000000E+00 0.  1.
         -2   -1    0    0    0  501 -0.00000000000E+00 -0.00000000000E+00 -0.93017477250E+01  0.93017477250E+01  0.00000000000E+00 0. -1.
          1    1    1    2  502    0  0.27518186093E+01 -0.26478342195E+02  0.12371217146E+03  0.12654397053E+03  0.00000000000E+00 0.  1.
         -1    1    1    2    0  501 -0.27518186093E+01  0.26478342195E+02  0.14580825469E+02  0.30352521846E+02  0.00000000000E+00 0. -1.
</event>
<event>
 4    1  0.6754235E+001  0.2452830E+02  0.7546771E-02  0.1474150E+00
          2   -1    0    0  502    0  0.00000000000E+00  0.00000000000E+00  0.21870484775E+04  0.21870484775E+04  0.00000000000E+00 0.  1.
         -2   -1    0    0    0  501 -0.00000000000E+00 -0.00000000000E+00 -0.38700499216E+00  0.38700499216E+00  0.00000000000E+00 0. -1.
          1    1    1    2  502    0 -0.15928828665E+02  0.18652349384E+02  0.16814817383E+04  0.16816606299E+04  0.00000000000E+00 0.  1.
         -1    1    1    2    0  501  0.15928828665E+02 -0.18652349384E+02  0.50517973419E+03  0.50577485264E+03  0.00000000000E+00 0. -1.
</event>
<event>
 4    1  0.6754235E+001  0.5694461E+02  0.7546771E-02  0.1270583E+00
          2   -1    0    0  502    0  0.00000000000E+00  0.00000000000E+00  0.15545407634E+04  0.15545407634E+04  0.00000000000E+00 0. -1.
         -2   -1    0    0    0  501 -0.00000000000E+00 -0.00000000000E+00 -0.20918937307E+01  0.20918937307E+01  0.00000000000E+00 0.  1.
          1    1    1    2  502    0 -0.67538479457E+00 -0.56940600980E+02  0.81772554333E+03  0.81970589384E+03  0.00000000000E+00 0.  1.
         -1    1    1    2    0  501  0.67538479457E+00  0.56940600980E+02  0.73472332638E+03  0.73692676333E+03  0.00000000000E+00 0. -1.
</event>
<event>
 4    1  0.6754235E+001  0.2072906E+02  0.7546771E-02  0.1523169E+00
          2   -1    0    0  502    0  0.00000000000E+00  0.00000000000E+00  0.63917720937E+03  0.63917720937E+03  0.00000000000E+00 0. -1.
         -2   -1    0    0    0  501 -0.00000000000E+00 -0.00000000000E+00 -0.72923533188E+00  0.72923533188E+00  0.00000000000E+00 0.  1.
          1    1    1    2  502    0  0.16108356299E+02 -0.13046633241E+02  0.40865600351E+03  0.40918140596E+03  0.00000000000E+00 0. -1.
         -1    1    1    2    0  501 -0.16108356299E+02  0.13046633241E+02  0.22979197053E+03  0.23072503874E+03  0.00000000000E+00 0.  1.
</event>
<event>
 4    1  0.6754235E+001  0.2126585E+02  0.7546771E-02  0.1515503E+00
          2   -1    0    0  502    0  0.00000000000E+00  0.00000000000E+00  0.66153250681E+02  0.66153250681E+02  0.00000000000E+00 0.  1.
         -2   -1    0    0    0  501 -0.00000000000E+00 -0.00000000000E+00 -0.74459122438E+01  0.74459122438E+01  0.00000000000E+00 0. -1.
          1    1    1    2  502    0 -0.15141952202E+02 -0.14931765899E+02  0.18823166895E+02  0.28399788051E+02  0.00000000000E+00 0. -1.
         -1    1    1    2    0  501  0.15141952202E+02  0.14931765899E+02  0.39884171542E+02  0.45199374874E+02  0.00000000000E+00 0.  1.
</event>
<event>
 4    1  0.6754235E+001  0.2576704E+02  0.7546771E-02  0.1460403E+00
          2   -1    0    0  502    0  0.00000000000E+00  0.00000000000E+00  0.64853909282E+01  0.64853909282E+01  0.00000000000E+00 0. -1.
         -2   -1    0    0    0  501 -0.00000000000E+00 -0.00000000000E+00 -0.10552878364E+03  0.10552878364E+03  0.00000000000E+00 0.  1.
          1    1    1    2  502    0  0.24524526851E+02 -0.79049229354E+01 -0.39839113467E+02  0.47445707769E+02  0.00000000000E+00 0. -1.
         -1    1    1    2    0  501 -0.24524526851E+02  0.79049229354E+01 -0.59204279241E+02  0.64568466796E+02  0.00000000000E+00 0.  1.
</event>
<event>
 4    1  0.6754235E+001  0.3188152E+02  0.7546771E-02  0.1403921E+00
          2   -1    0    0  502    0  0.00000000000E+00  0.00000000000E+00  0.40770756344E+03  0.40770756344E+03  0.00000000000E+00 0.  1.
         -2   -1    0    0    0  501 -0.00000000000E+00 -0.00000000000E+00 -0.25011144229E+01  0.25011144229E+01  0.00000000000E+00 0. -1.
          1    1    1    2  502    0 -0.28870454491E+02 -0.13525091376E+02  0.21425696761E+03  0.21661597220E+03  0.00000000000E+00 0. -1.
         -1    1    1    2    0  501  0.28870454491E+02  0.13525091376E+02  0.19094948140E+03  0.19359270566E+03  0.00000000000E+00 0.  1.
</event>
<event>
 4    1  0.6754235E+001  0.2010732E+02  0.7546771E-02  0.1532401E+00
          2   -1    0    0  502    0  0.00000000000E+00  0.00000000000E+00  0.15883223688E+04  0.15883223688E+04  0.00000000000E+00 0. -1.
         -2   -1    0    0    0  501 -0.00000000000E+00 -0.00000000000E+00 -0.38826403281E+00  0.38826403281E+00  0.00000000000E+00 0.  1.
          1    1    1    2  502    0 -0.17160616030E+02  0.10479388637E+02  0.12601355481E+04  0.12602959589E+04  0.00000000000E+00 0. -1.
         -1    1    1    2    0  501  0.17160616030E+02 -0.10479388637E+02  0.32779855658E+03  0.32841467389E+03  0.00000000000E+00 0.  1.
</event>
<event>
 4    1  0.6754235E+001  0.3180422E+02  0.7546771E-02  0.1404540E+00
          2   -1    0    0  502    0  0.00000000000E+00  0.00000000000E+00  0.33824865824E+02  0.33824865824E+02  0.00000000000E+00 0.  1.
         -2   -1    0    0    0  501 -0.00000000000E+00 -0.00000000000E+00 -0.38025735456E+02  0.38025735456E+02  0.00000000000E+00 0. -1.
          1    1    1    2  502    0 -0.14330693130E+02 -0.28392593781E+02 -0.18703131023E+02  0.36896005980E+02  0.00000000000E+00 0. -1.
         -1    1    1    2    0  501  0.14330693130E+02  0.28392593781E+02  0.14502261391E+02  0.34954595300E+02  0.00000000000E+00 0.  1.
</event>
<event>
 4    1  0.6754235E+001  0.2163760E+02  0.7546771E-02  0.1510353E+00
          2   -1    0    0  502    0  0.00000000000E+00  0.00000000000E+00  0.53781761376E+03  0.53781761376E+03  0.00000000000E+00 0. -1.
         -2   -1    0    0    0  501 -0.00000000000E+00 -0.00000000000E+00 -0.87208961727E+00  0.87208961727E+00  0.00000000000E+00 0.  1.
          1    1    1    2  502    0  0.17548356523E+02 -0.12658632229E+02  0.25707846768E+03  0.25798744995E+03  0.00000000000E+00 0. -1.
         -1    1    1    2    0  501 -0.17548356523E+02  0.12658632229E+02  0.27986705646E+03  0.28070225343E+03  0.00000000000E+00 0.  1.
</event>
<event>
 4    1  0.6754235E+001  0.2970349E+02  0.7546771E-02  0.1422191E+00
          2   -1    0    0  502    0  0.00000000000E+00  0.00000000000E+00  0.11471633343E+03  0.11471633343E+03  0.00000000000E+00 0.  1.
         -2   -1    0    0    0  501 -0.00000000000E+00 -0.00000000000E+00 -0.85652863708E+01  0.85652863708E+01  0.00000000000E+00 0. -1.
          1    1    1    2  502    0 -0.28603246856E+02  0.80094557403E+01  0.72767730175E+02  0.78596689923E+02  0.00000000000E+00 0.  1.
         -1    1    1    2    0  501  0.28603246856E+02 -0.80094557403E+01  0.33383316883E+02  0.44684929877E+02  0.00000000000E+00 0. -1.
</event>
<event>
 4    1  0.6754235E+001  0.2114863E+02  0.7546771E-02  0.1517153E+00
          2   -1    0    0  502    0  0.00000000000E+00  0.00000000000E+00  0.61204989607E+03  0.61204989607E+03  0.00000000000E+00 0.  1.
         -2   -1    0    0    0  501 -0.00000000000E+00 -0.00000000000E+00 -0.12745065511E+01  0.12745065511E+01  0.00000000000E+00 0. -1.
          1    1    1    2  502    0 -0.68291979935E+01  0.20015658909E+02  0.50568981018E+03  0.50613184909E+03  0.00000000000E+00 0.  1.
         -1    1    1    2    0  501  0.68291979935E+01 -0.20015658909E+02  0.10508557934E+03  0.10719255353E+03  0.00000000000E+00 0. -1.
</event>
<event>
 4    1  0.6754235E+001  0.2411543E+02  0.7546771E-02  0.1478947E+00
          2   -1    0    0  502    0  0.00000000000E+00  0.00000000000E+00  0.83548955784E+03  0.83548955784E+03  0.00000000000E+00 0.  1.
         -2   -1    0    0    0  501 -0.00000000000E+00 -0.00000000000E+00 -0.75676141422E+00  0.75676141422E+00  0.00000000000E+00 0. -1.
          1    1    1    2  502    0 -0.35791990665E+01  0.23848341518E+02  0.53578241466E+03  0.53632485483E+03  0.00000000000E+00 0. -1.
         -1    1    1    2    0  501  0.35791990665E+01 -0.23848341518E+02  0.29895038177E+03  0.29992146442E+03  0.00000000000E+00 0.  1.
</event>
<event>
 4    1  0.6754235E+001  0.3220168E+02  0.7546771E-02  0.1401381E+00
          2   -1    0    0  502    0  0.00000000000E+00  0.00000000000E+00  0.79596312400E+01  0.79596312400E+01  0.00000000000E+00 0. -1.
         -2   -1    0    0    0  501 -0.00000000000E+00 -0.00000000000E+00 -0.13171810295E+03  0.13171810295E+03  0.00000000000E+00 0.  1.
          1    1    1    2  502    0 -0.30025925582E+02  0.11635801402E+02 -0.54571405785E+02  0.63363920417E+02  0.00000000000E+00 0. -1.
         -1    1    1    2    0  501  0.30025925582E+02 -0.11635801402E+02 -0.69187065928E+02  0.76313813776E+02  0.00000000000E+00 0.  1.
</event>
<event>
 4    1  0.6754235E+001  0.2391461E+02  0.7546771E-02  0.1481322E+00
          2   -1    0    0  502    0  0.00000000000E+00  0.00000000000E+00  0.10659173650E+03  0.10659173650E+03  0.00000000000E+00 0. -1.
         -2   -1    0    0    0  501 -0.00000000000E+00 -0.00000000000E+00 -0.53918850580E+01  0.53918850580E+01  0.00000000000E+00 0.  1.
          1    1    1    2  502    0 -0.46897713151E+01 -0.23450258855E+02  0.46676592135E+02  0.52446285366E+02  0.00000000000E+00 0.  1.
         -1    1    1    2    0  501  0.46897713151E+01  0.23450258855E+02  0.54523259304E+02  0.59537336189E+02  0.00000000000E+00 0. -1.
</event>
<event>
 4    1  0.6754235E+001  0.2003785E+02  0.7546771E-02  0.1533458E+00
          2   -1    0    0  502    0  0.00000000000E+00  0.00000000000E+00  0.12018927804E+04  0.12018927804E+04  0.00000000000E+00 0. -1.
         -2   -1    0    0    0  501 -0.00000000000E+00 -0.00000000000E+00 -0.42781543410E+00  0.42781543410E+00  0.00000000000E+00 0.  1.
          1    1    1    2  502    0 -0.12829510297E+02 -0.15392170087E+02  0.31932267866E+03  0.31995075924E+03  0.00000000000E+00 0.  1.
         -1    1    1    2    0  501  0.12829510297E+02  0.15392170087E+02  0.88214228632E+03  0.88236983660E+03  0.00000000000E+00 0. -1.
</event>
<event>
 4    1  0.6754235E+001  0.2911445E+02  0.7546771E-02  0.1427451E+00
          2   -1    0    0  502    0  0.00000000000E+00  0.00000000000E+00  0.13509366682E+04  0.13509366682E+04  0.00000000000E+00 0. -1.
         -2   -1    0    0    0  501 -0.00000000000E+00 -0.00000000000E+00 -0.63822983302E+00  0.63822983302E+00  0.00000000000E+00 0.  1.
          1    1    1    2  502    0  0.14977936883E+01 -0.29075893874E+02  0.76295870121E+03  0.76351400167E+03  0.00000000000E+00 0. -1.
         -1    1    1    2    0  501 -0.14977936883E+01  0.29075893874E+02  0.58733973720E+03  0.58806089641E+03  0.00000000000E+00 0.  1.
</event>
<event>
 4    1  0.6754235E+001  0.2112785E+02  0.7546771E-02  0.1517447E+00
          2   -1    0    0  502    0  0.00000000000E+00  0.00000000000E+00  0.67741102508E+03  0.67741102508E+03  0.00000000000E+00 0. -1.
         -2   -1    0    0    0  501 -0.00000000000E+00 -0.00000000000E+00 -0.67311976670E+00  0.67311976670E+00  0.00000000000E+00 0.  1.
          1    1    1    2  502    0 -0.20803353343E+02 -0.36887242991E+01  0.38754441085E+03  0.38811989975E+03  0.00000000000E+00 0. -1.
         -1    1    1    2    0  501  0.20803353343E+02  0.36887242991E+01  0.28919349446E+03  0.28996424510E+03  0.00000000000E+00 0.  1.
</event>
<event>
 4    1  0.6754235E+001  0.2248083E+02  0.7546771E-02  0.1499122E+00
          2   -1    0    0  502    0  0.00000000000E+00  0.00000000000E+00  0.12524142137E+02  0.12524142137E+02  0.00000000000E+00 0. -1.
         -2   -1    0    0    0  501 -0.00000000000E+00 -0.00000000000E+00 -0.57358223785E+02  0.57358223785E+02  0.00000000000E+00 0.  1.
          1    1    1    2  502    0  0.38446393860E+01  0.22149635330E+02 -0.33918059936E+01  0.22735257754E+02  0.00000000000E+00 0.  1.
         -1    1    1    2    0  501 -0.38446393860E+01 -0.22149635330E+02 -0.41442275654E+02  0.47147108168E+02  0.00000000000E+00 0. -1.
</event>
<event>
 4    1  0.6754235E+001  0.2242276E+02  0.7546771E-02  0.1499877E+00
          2   -1    0    0  502    0  0.00000000000E+00  0.00000000000E+00  0.23023785324E+02  0.23023785324E+02  0.00000000000E+00 0. -1.
         -2   -1    0    0    0  501 -0.00000000000E+00 -0.00000000000E+00 -0.32842218756E+02  0.32842218756E+02  0.00000000000E+00 0.  1.
          1    1    1    2  502    0  0.14188929169E+02  0.17362441720E+02 -0.21078560723E+02  0.30774759391E+02  0.00000000000E+00 0.  1.
         -1    1    1    2    0  501 -0.14188929169E+02 -0.17362441720E+02  0.11260127291E+02  0.25091244689E+02  0.00000000000E+00 0. -1.
</event>
<event>
 4    1  0.6754235E+001  0.4195645E+02  0.7546771E-02  0.1337387E+00
          2   -1    0    0  502    0  0.00000000000E+00  0.00000000000E+00  0.77540805802E+03  0.77540805802E+03  0.00000000000E+00 0.  1.
         -2   -1    0    0    0  501 -0.00000000000E+00 -0.00000000000E+00 -0.37516462715E+01  0.37516462715E+01  0.00000000000E+00 0. -1.
          1    1    1    2  502    0  0.10322945667E+01  0.41943746634E+02  0.63063654320E+03  0.63203069002E+03  0.00000000000E+00 0.  1.
         -1    1    1    2    0  501 -0.10322945667E+01 -0.41943746634E+02  0.14101986855E+03  0.14712901427E+03  0.00000000000E+00 0. -1.
</event>
<event>
 4    1 -0.6754235E+001  0.5920334E+02  0.7546771E-02  0.1262564E+00
          2   -1    0    0  502    0  0.00000000000E+00  0.00000000000E+00  0.69453730721E+00  0.69453730721E+00  0.00000000000E+00 0. -1.
         -2   -1    0    0    0  501 -0.00000000000E+00 -0.00000000000E+00 -0.50611308255E+04  0.50611308255E+04  0.00000000000E+00 0.  1.
          1    1    1    2  502    0 -0.19598982149E+02 -0.55865153587E+02 -0.23944952864E+04  0.23952270690E+04  0.00000000000E+00 0.  1.
         -1    1    1    2    0  501  0.19598982149E+02  0.55865153587E+02 -0.26659410017E+04  0.26665982938E+04  0.00000000000E+00 0. -1.
</event>
<event>
 4    1  0.6754235E+001  0.2278798E+02  0.7546771E-02  0.1495178E+00
          2   -1    0    0  502    0  0.00000000000E+00  0.00000000000E+00  0.85713026013E+03  0.85713026013E+03  0.00000000000E+00 0. -1.
         -2   -1    0    0    0  501 -0.00000000000E+00 -0.00000000000E+00 -0.78358038935E+00  0.78358038935E+00  0.00000000000E+00 0.  1.
          1    1    1    2  502    0 -0.18373594484E+02  0.13479733429E+02  0.63246611261E+03  0.63287650911E+03  0.00000000000E+00 0. -1.
         -1    1    1    2    0  501  0.18373594484E+02 -0.13479733429E+02  0.22388056714E+03  0.22503733141E+03  0.00000000000E+00 0.  1.
</event>
<event>
 4    1  0.6754235E+001  0.2523773E+02  0.7546771E-02  0.1466161E+00
          2   -1    0    0  502    0  0.00000000000E+00  0.00000000000E+00  0.50253892398E+03  0.50253892398E+03  0.00000000000E+00 0. -1.
         -2   -1    0    0    0  501 -0.00000000000E+00 -0.00000000000E+00 -0.13245929805E+01  0.13245929805E+01  0.00000000000E+00 0.  1.
          1    1    1    2  502    0  0.24913481873E+02  0.40325734067E+01  0.19828073497E+03  0.19988044698E+03  0.00000000000E+00 0. -1.
         -1    1    1    2    0  501 -0.24913481873E+02 -0.40325734067E+01  0.30293359604E+03  0.30398306998E+03  0.00000000000E+00 0.  1.
</event>
<event>
 4    1  0.6754235E+001  0.3164254E+02  0.7546771E-02  0.1405840E+00
          2   -1    0    0  502    0  0.00000000000E+00  0.00000000000E+00  0.50049124248E+03  0.50049124248E+03  0.00000000000E+00 0.  1.
         -2   -1    0    0    0  501 -0.00000000000E+00 -0.00000000000E+00 -0.25703049846E+01  0.25703049846E+01  0.00000000000E+00 0. -1.
          1    1    1    2  502    0 -0.31351005970E+02 -0.42854176195E+01  0.13053408152E+03  0.13431454433E+03  0.00000000000E+00 0. -1.
         -1    1    1    2    0  501  0.31351005970E+02  0.42854176195E+01  0.36738685598E+03  0.36874700314E+03  0.00000000000E+00 0.  1.
</event>
<event>
 4    1  0.6754235E+001  0.4472129E+02  0.7546771E-02  0.1322839E+00
          2   -1    0    0  502    0  0.00000000000E+00  0.00000000000E+00  0.13910071743E+03  0.13910071743E+03  0.00000000000E+00 0. -1.
         -2   -1    0    0    0  501 -0.00000000000E+00 -0.00000000000E+00 -0.14378417520E+02  0.14378417520E+02  0.00000000000E+00 0.  1.
          1    1    1    2  502    0 -0.11061640461E+02 -0.43331676868E+02  0.61962099122E+02  0.76415285366E+02  0.00000000000E+00 0.  1.
         -1    1    1    2    0  501  0.11061640461E+02  0.43331676868E+02  0.62760200789E+02  0.77063849586E+02  0.00000000000E+00 0. -1.
</event>
<event>
 4    1  0.6754235E+001  0.3866980E+02  0.7546771E-02  0.1356462E+00
          2   -1    0    0  502    0  0.00000000000E+00  0.00000000000E+00  0.34309735182E+02  0.34309735182E+02  0.00000000000E+00 0. -1.
         -2   -1    0    0    0  501 -0.00000000000E+00 -0.00000000000E+00 -0.45229396049E+02  0.45229396049E+02  0.00000000000E+00 0.  1.
          1    1    1    2  502    0  0.21991171219E+01  0.38607213669E+02 -0.13045344944E+02  0.40810955491E+02  0.00000000000E+00 0.  1.
         -1    1    1    2    0  501 -0.21991171219E+01 -0.38607213669E+02  0.21256840770E+01  0.38728175740E+02  0.00000000000E+00 0. -1.
</event>
<event>
 4    1  0.6754235E+001  0.3511330E+02  0.7546771E-02  0.1379768E+00
          2   -1    0    0  502    0  0.00000000000E+00  0.00000000000E+00  0.15848522220E+02  0.15848522220E+02  0.00000000000E+00 0. -1.
         -2   -1    0    0    0  501 -0.00000000000E+00 -0.00000000000E+00 -0.96996572339E+02  0.96996572339E+02  0.00000000000E+00 0.  1.
          1    1    1    2  502    0 -0.31904919422E+00  0.35111854414E+02 -0.65677679618E+02  0.74474839461E+02  0.00000000000E+00 0.  1.
         -1    1    1    2    0  501  0.31904919422E+00 -0.35111854414E+02 -0.15470370502E+02  0.38370255098E+02  0.00000000000E+00 0. -1.
</event>
<event>
 4    1  0.6754235E+001  0.2198028E+02  0.7546771E-02  0.1505716E+00
          2   -1    0    0  502    0  0.00000000000E+00  0.00000000000E+00  0.21669008802E+01  0.21669008802E+01  0.00000000000E+00 0.  1.
         -2   -1    0    0    0  501 -0.00000000000E+00 -0.00000000000E+00 -0.25842064730E+03  0.25842064730E+03  0.00000000000E+00 0. -1.
          1    1    1    2  502    0 -0.18037531732E+02 -0.12561065043E+02 -0.17639177764E+03  0.17775599041E+03  0.00000000000E+00 0. -1.
         -1    1    1    2    0  501  0.18037531732E+02  0.12561065043E+02 -0.79861968776E+02  0.82831557771E+02  0.00000000000E+00 0.  1.
</event>
<event>
 4    1  0.6754235E+001  0.2033392E+02  0.7546771E-02  0.1528991E+00
          2   -1    0    0  502    0  0.00000000000E+00  0.00000000000E+00  0.66492899992E+03  0.66492899992E+03  0.00000000000E+00 0.  1.
         -2   -1    0    0    0  501 -0.00000000000E+00 -0.00000000000E+00 -0.10293226299E+01  0.10293226299E+01  0.00000000000E+00 0. -1.
          1    1    1    2  502    0 -0.69199359625E+01  0.19120217913E+02  0.54145987044E+03  0.54184154468E+03  0.00000000000E+00 0.  1.
         -1    1    1    2    0  501  0.69199359625E+01 -0.19120217913E+02  0.12243980685E+03  0.12411677787E+03  0.00000000000E+00 0. -1.
</event>
<event>
 4    1  0.6754235E+001  0.2583088E+02  0.7546771E-02  0.1459719E+00
          2   -1    0    0  502    0  0.00000000000E+00  0.00000000000E+00  0.39102062308E+03  0.39102062308E+03  0.00000000000E+00 0. -1.
         -2   -1    0    0    0  501 -0.00000000000E+00 -0.00000000000E+00 -0.17233972283E+01  0.17233972283E+01  0.00000000000E+00 0.  1.
          1    1    1    2  502    0 -0.16136484252E+02 -0.20170473652E+02  0.21415554433E+03  0.21570774510E+03  0.00000000000E+00 0. -1.
         -1    1    1    2    0  501  0.16136484252E+02  0.20170473652E+02  0.17514168153E+03  0.17703627521E+03  0.00000000000E+00 0.  1.
</event>
<event>
 4    1  0.6754235E+001  0.2574702E+02  0.7546771E-02  0.1460617E+00
          2   -1    0    0  502    0  0.00000000000E+00  0.00000000000E+00  0.31061711899E+01  0.31061711899E+01  0.00000000000E+00 0.  1.
         -2   -1    0    0    0  501 -0.00000000000E+00 -0.00000000000E+00 -0.25580869206E+03  0.25580869206E+03  0.00000000000E+00 0. -1.
          1    1    1    2  502    0  0.23826931243E+02  0.97563629275E+01 -0.73651276399E+02  0.78021918620E+02  0.00000000000E+00 0.  1.
         -1    1    1    2    0  501 -0.23826931243E+02 -0.97563629275E+01 -0.17905124447E+03  0.18089294463E+03  0.00000000000E+00 0. -1.
</event>
<event>
 4    1  0.6754235E+001  0.2325172E+02  0.7546771E-02  0.1489361E+00
          2   -1    0    0  502    0  0.00000000000E+00  0.00000000000E+00  0.10243738888E+04  0.10243738888E+04  0.00000000000E+00 0. -1.
         -2   -1    0    0    0  501 -0.00000000000E+00 -0.00000000000E+00 -0.54691101809E+00  0.54691101809E+00  0.00000000000E+00 0.  1.
          1    1    1    2  502    0 -0.10287242938E+02 -0.20852221671E+02  0.41606439198E+03  0.41671359564E+03  0.00000000000E+00 0.  1.
         -1    1    1    2    0  501  0.10287242938E+02  0.20852221671E+02  0.60776258576E+03  0.60820720414E+03  0.00000000000E+00 0. -1.
</event>
<event>
 4    1  0.6754235E+001  0.2031151E+02  0.7546771E-02  0.1529326E+00
          2   -1    0    0  502    0  0.00000000000E+00  0.00000000000E+00  0.86503264904E+03  0.86503264904E+03  0.00000000000E+00 0. -1.
         -2   -1    0    0    0  501 -0.00000000000E+00 -0.00000000000E+00 -0.81286978393E+00  0.81286978393E+00  0.00000000000E+00 0.  1.
          1    1    1    2  502    0  0.19949956968E+02 -0.38153235793E+01  0.71042228439E+03  0.71071258582E+03  0.00000000000E+00 0. -1.
         -1    1    1    2    0  501 -0.19949956968E+02  0.38153235793E+01  0.15379749486E+03  0.15513293300E+03  0.00000000000E+00 0.  1.
</event>
<event>
 4    1  0.6754235E+001  0.2339532E+02  0.7546771E-02  0.1487593E+00
          2   -1    0    0  502    0  0.00000000000E+00  0.00000000000E+00  0.26473842257E+02  0.26473842257E+02  0.00000000000E+00 0. -1.
         -2   -1    0    0    0  501 -0.00000000000E+00 -0.00000000000E+00 -0.20876320320E+02  0.20876320320E+02  0.00000000000E+00 0.  1.
          1    1    1    2  502    0  0.20945828641E+02  0.10421767934E+02  0.51249263895E+01  0.23950070038E+02  0.00000000000E+00 0. -1.
         -1    1    1    2    0  501 -0.20945828641E+02 -0.10421767934E+02  0.47259554745E+00  0.23400092540E+02  0.00000000000E+00 0.  1.
</event>
<event>
 4    1  0.6754235E+001  0.2796793E+02  0.7546771E-02  0.1438120E+00
          2   -1    0    0  502    0  0.00000000000E+00  0.00000000000E+00  0.72682881922E+03  0.72682881922E+03  0.00000000000E+00 0. -1.
         -2   -1    0    0    0  501 -0.00000000000E+00 -0.00000000000E+00 -0.49266102003E+01  0.49266102003E+01  0.00000000000E+00 0.  1.
          1    1    1    2  502    0  0.15226498774E+01  0.27926454937E+02  0.68440766482E+03  0.68497887340E+03  0.00000000000E+00 0. -1.
         -1    1    1    2    0  501 -0.15226498774E+01 -0.27926454937E+02  0.37494544209E+02  0.46776556023E+02  0.00000000000E+00 0.  1.
</event>
<event>
 4    1  0.6754235E+001  0.2570164E+02  0.7546771E-02  0.1461105E+00
          2   -1    0    0  502    0  0.00000000000E+00  0.00000000000E+00  0.99999029417E+02  0.99999029417E+02  0.00000000000E+00 0. -1.
         -2   -1    0    0    0  501 -0.00000000000E+00 -0.00000000000E+00 -0.66093067481E+01  0.66093067481E+01  0.00000000000E+00 0.  1.
          1    1    1    2  502    0  0.20325827950E+02  0.15730071173E+02  0.47921225337E+02  0.54378472384E+02  0.00000000000E+00 0.  1.
         -1    1    1    2    0  501 -0.20325827950E+02 -0.15730071173E+02  0.45468497332E+02  0.52229863781E+02  0.00000000000E+00 0. -1.
</event>
<event>
 4    1  0.6754235E+001  0.2104199E+02  0.7546771E-02  0.1518666E+00
          2   -1    0    0  502    0  0.00000000000E+00  0.00000000000E+00  0.46338944514E+01  0.46338944514E+01  0.00000000000E+00 0. -1.
         -2   -1    0    0    0  501 -0.00000000000E+00 -0.00000000000E+00 -0.11834943952E+03  0.11834943952E+03  0.00000000000E+00 0.  1.
          1    1    1    2  502    0  0.10912327195E+02  0.17991288128E+02 -0.83847717171E+02  0.86447700999E+02  0.00000000000E+00 0.  1.
         -1    1    1    2    0  501 -0.10912327195E+02 -0.17991288128E+02 -0.29867827897E+02  0.36535632971E+02  0.00000000000E+00 0. -1.
</event>
<event>
 4    1  0.6754235E+001  0.4018180E+02  0.7546771E-02  0.1347424E+00
          2   -1    0    0  502    0  0.00000000000E+00  0.00000000000E+00  0.24685461878E+03  0.24685461878E+03  0.00000000000E+00 0.  1.
         -2   -1    0    0    0  501 -0.00000000000E+00 -0.00000000000E+00 -0.66351317624E+01  0.66351317624E+01  0.00000000000E+00 0. -1.
          1    1    1    2  502    0 -0.81394805608E+01 -0.39348770551E+02  0.10498115087E+03  0.11240826894E+03  0.00000000000E+00 0.  1.
         -1    1    1    2    0  501  0.81394805608E+01  0.39348770551E+02  0.13523833615E+03  0.14108148161E+03  0.00000000000E+00 0. -1.
</event>
<event>
 4    1  0.6754235E+001  0.2351400E+02  0.7546771E-02  0.1486143E+00
          2   -1    0    0  502    0  0.00000000000E+00  0.00000000000E+00  0.28560451068E+04  0.28560451068E+04  0.00000000000E+00 0. -1.
         -2   -1    0    0    0  501 -0.00000000000E+00 -0.00000000000E+00 -0.19359898852E+00  0.19359898852E+00  0.00000000000E+00 0.  1.
          1    1    1    2  502    0 -0.20512084568E+02  0.11496191657E+02  0.14363867162E+04  0.14365791682E+04  0.00000000000E+00 0. -1.
         -1    1    1    2    0  501  0.20512084568E+02 -0.11496191657E+02  0.14194647917E+04  0.14196595377E+04  0.00000000000E+00 0.  1.
</event>
<event>
 4    1  0.6754235E+001  0.2044750E+02  0.7546771E-02  0.1527301E+00
          2   -1    0    0  502    0  0.00000000000E+00  0.00000000000E+00  0.36268844323E+03  0.36268844323E+03  0.00000000000E+00 0. -1.
         -2   -1    0    0    0  501 -0.00000000000E+00 -0.00000000000E+00 -0.12006054493E+01  0.12006054493E+01  0.00000000000E+00 0.  1.
          1    1    1    2  502    0 -0.14984439136E+02 -0.13912827968E+02  0.14443062233E+03  0.14587084995E+03  0.00000000000E+00 0.  1.
         -1    1    1    2    0  501  0.14984439136E+02  0.13912827968E+02  0.21705721546E+03  0.21801819874E+03  0.00000000000E+00 0. -1.
</event>
<event>
 4    1  0.6754235E+001  0.2196161E+02  0.7546771E-02  0.1505966E+00
          2   -1    0    0  502    0  0.00000000000E+00  0.00000000000E+00  0.11201885071E+01  0.11201885071E+01  0.00000000000E+00 0.  1.
         -2   -1    0    0    0  501 -0.00000000000E+00 -0.00000000000E+00 -0.44645780123E+03  0.44645780123E+03  0.00000000000E+00 0. -1.
          1    1    1    2  502    0 -0.17904448580E+02 -0.12717819291E+02 -0.18044375502E+03  0.18177530341E+03  0.00000000000E+00 0.  1.
         -1    1    1    2    0  501  0.17904448580E+02  0.12717819291E+02 -0.26489385770E+03  0.26580268632E+03  0.00000000000E+00 0. -1.
</event>
<event>
 4    1  0.6754235E+001  0.3191323E+02  0.7546771E-02  0.1403668E+00
          2   -1    0    0  502    0  0.00000000000E+00  0.00000000000E+00  0.54162157359E+01  0.54162157359E+01  0.00000000000E+00 0.  1.
         -2   -1    0    0    0  501 -0.00000000000E+00 -0.00000000000E+00 -0.19228152750E+03  0.19228152750E+03  0.00000000000E+00 0. -1.
          1    1    1    2  502    0  0.29350418921E+02  0.12530259819E+02 -0.78747950409E+02  0.84968783654E+02  0.00000000000E+00 0. -1.
         -1    1    1    2    0  501 -0.29350418921E+02 -0.12530259819E+02 -0.10811736135E+03  0.11272895958E+03  0.00000000000E+00 0.  1.
</event>
<event>
 4    1  0.6754235E+001  0.2495587E+02  0.7546771E-02  0.1469298E+00
          2   -1    0    0  502    0  0.00000000000E+00  0.00000000000E+00  0.15877485101E+04  0.15877485101E+04  0.00000000000E+00 0. -1.
         -2   -1    0    0    0  501 -0.00000000000E+00 -0.00000000000E+00 -0.52309384991E+00  0.52309384991E+00  0.00000000000E+00 0.  1.
          1    1    1    2  502    0 -0.24955778195E+02 -0.67497500482E-01  0.39643898374E+03  0.39722369422E+03  0.00000000000E+00 0.  1.
         -1    1    1    2    0  501  0.24955778195E+02  0.67497500482E-01  0.11907864325E+04  0.11910479098E+04  0.00000000000E+00 0. -1.
</event>
<event>
 4    1  0.6754235E+001  0.2251690E+02  0.7546771E-02  0.1498655E+00
          2   -1    0    0  502    0  0.00000000000E+00  0.00000000000E+00  0.11557976039E+04  0.11557976039E+04  0.00000000000E+00 0.  1.
         -2   -1    0    0    0  501 -0.00000000000E+00 -0.00000000000E+00 -0.43870415220E+00  0.43870415220E+00  0.00000000000E+00 0. -1.
          1    1    1    2  502    0 -0.16345911778E+02 -0.15486185594E+02  0.58296799070E+03  0.58340268165E+03  0.00000000000E+00 0. -1.
         -1    1    1    2    0  501  0.16345911778E+02  0.15486185594E+02  0.57239090908E+03  0.57283362644E+03  0.00000000000E+00 0.  1.
</event>
<event>
 4    1  0.6754235E+001  0.2281977E+02  0.7546771E-02  0.1494774E+00
          2   -1    0    0  502    0  0.00000000000E+00  0.00000000000E+00  0.57229694225E+03  0.57229694225E+03  0.00000000000E+00 0.  1.
         -2   -1    0    0    0  501 -0.00000000000E+00 -0.00000000000E+00 -0.10379600698E+01  0.10379600698E+01  0.00000000000E+00 0. -1.
          1    1    1    2  502    0  0.15321371743E+02 -0.16911465440E+02  0.38631522540E+03  0.38698862447E+03  0.00000000000E+00 0. -1.
         -1    1    1    2    0  501 -0.15321371743E+02  0.16911465440E+02  0.18494375678E+03  0.18634627784E+03  0.00000000000E+00 0.  1.
</event>
<event>
 4    1  0.6754235E+001  0.2770939E+02  0.7546771E-02  0.1440609E+00
          2   -1    0    0  502    0  0.00000000000E+00  0.00000000000E+00  0.19189736134E+04  0.19189736134E+04  0.00000000000E+00 0.  1.
         -2   -1    0    0    0  501 -0.00000000000E+00 -0.00000000000E+00 -0.41454935827E+00  0.41454935827E+00  0.00000000000E+00 0. -1.
          1    1    1    2  502    0 -0.21379466447E+02 -0.17627500541E+02  0.11383572709E+04  0.11386944659E+04  0.00000000000E+00 0. -1.
         -1    1    1    2    0  501  0.21379466447E+02  0.17627500541E+02  0.78020179309E+03  0.78069369685E+03  0.00000000000E+00 0.  1.
</event>
<event>
 4    1  0.6754235E+001  0.2044451E+02  0.7546771E-02  0.1527346E+00
          2   -1    0    0  502    0  0.00000000000E+00  0.00000000000E+00  0.47195234289E+03  0.47195234289E+03  0.00000000000E+00 0.  1.
         -2   -1    0    0    0  501 -0.00000000000E+00 -0.00000000000E+00 -0.24041605811E+01  0.24041605811E+01  0.00000000000E+00 0. -1.
          1    1    1    2  502    0 -0.19463862635E+02 -0.62558661564E+01  0.42327093972E+03  0.42376439942E+03  0.00000000000E+00 0.  1.
         -1    1    1    2    0  501  0.19463862635E+02  0.62558661564E+01  0.46277242594E+02  0.50592104049E+02  0.00000000000E+00 0. -1.
</event>
<event>
 4    1  0.6754235E+001  0.2862026E+02  0.7546771E-02  0.1431978E+00
          2   -1    0    0  502    0  0.00000000000E+00  0.00000000000E+00  0.89351948019E+01  0.89351948019E+01  0.00000000000E+00 0.  1.
         -2   -1    0    0    0  501 -0.00000000000E+00 -0.00000000000E+00 -0.91684600085E+02  0.91684600085E+02  0.00000000000E+00 0. -1.
          1    1    1    2  502    0 -0.27173174281E+02  0.89854293382E+01 -0.40817688966E+02  0.49851811135E+02  0.00000000000E+00 0. -1.
         -1    1    1    2    0  501  0.27173174281E+02 -0.89854293382E+01 -0.41931716317E+02  0.50767983752E+02  0.00000000000E+00 0.  1.
</event>
<event>
 4    1  0.6754235E+001  0.2029904E+02  0.7546771E-02  0.1529512E+00
          2   -1    0    0  502    0  0.00000000000E+00  0.00000000000E+00  0.96138324744E+03  0.96138324744E+03  0.00000000000E+00 0.  1.
         -2   -1    0    0    0  501 -0.00000000000E+00 -0.00000000000E+00 -0.76579312573E+00  0.76579312573E+00  0.00000000000E+00 0. -1.
          1    1    1    2  502    0 -0.12525959177E+02  0.15973458173E+02  0.79953199073E+03  0.79978963185E+03  0.00000000000E+00 0.  1.
         -1    1    1    2    0  501  0.12525959177E+02 -0.15973458173E+02  0.16108546358E+03  0.16235940871E+03  0.00000000000E+00 0. -1.
</event>
<event>
 4    1  0.6754235E+001  0.2164375E+02  0.7546771E-02  0.1510269E+00
          2   -1    0    0  502    0  0.00000000000E+00  0.00000000000E+00  0.73683405164E+02  0.73683405164E+02  0.00000000000E+00 0. -1.
         -2   -1    0    0    0  501 -0.00000000000E+00 -0.00000000000E+00 -0.80640261434E+01  0.80640261434E+01  0.00000000000E+00 0.  1.
          1    1    1    2  502    0 -0.95793484617E+01 -0.19408450802E+02  0.14007518607E+02  0.25781048408E+02  0.00000000000E+00 0.  1.
         -1    1    1    2    0  501  0.95793484617E+01  0.19408450802E+02  0.51611860414E+02  0.55966382900E+02  0.00000000000E+00 0. -1.
</event>
<event>
 4    1  0.6754235E+001  0.3385877E+02  0.7546771E-02  0.1388769E+00
          2   -1    0    0  502    0  0.00000000000E+00  0.00000000000E+00  0.98122443003E+03  0.98122443003E+03  0.00000000000E+00 0.  1.
         -2   -1    0    0    0  501 -0.00000000000E+00 -0.00000000000E+00 -0.13607595484E+01  0.13607595484E+01  0.00000000000E+00 0. -1.
          1    1    1    2  502    0  0.13121175579E+02  0.31212992898E+02  0.30519230735E+03  0.30706474991E+03  0.00000000000E+00 0. -1.
         -1    1    1    2    0  501 -0.13121175579E+02 -0.31212992898E+02  0.67467136313E+03  0.67552043967E+03  0.00000000000E+00 0.  1.
</event>
<event>
 4    1  0.6754235E+001  0.3010078E+02  0.7546771E-02  0.1418723E+00
          2   -1    0    0  502    0  0.00000000000E+00  0.00000000000E+00  0.10970713095E+04  0.10970713095E+04  0.00000000000E+00 0.  1.
         -2   -1    0    0    0  501 -0.00000000000E+00 -0.00000000000E+00 -0.87043795490E+00  0.87043795490E+00  0.00000000000E+00 0. -1.
          1    1    1    2  502    0 -0.28156988113E+02  0.10641476650E+02  0.42390415786E+03  0.42497151911E+03  0.00000000000E+00 0. -1.
         -1    1    1    2    0  501  0.28156988113E+02 -0.10641476650E+02  0.67229671368E+03  0.67297022834E+03  0.00000000000E+00 0.  1.
</event>
<event>
 4    1  0.6754235E+001  0.3150187E+02  0.7546771E-02  0.1406979E+00
          2   -1    0    0  502    0  0.00000000000E+00  0.00000000000E+00  0.17750723431E+01  0.17750723431E+01  0.00000000000E+00 0. -1.
         -2   -1    0    0    0  501 -0.00000000000E+00 -0.00000000000E+00 -0.71294742112E+03  0.71294742112E+03  0.00000000000E+00 0.  1.
          1    1    1    2  502    0  0.23675397289E+02  0.20780836205E+02 -0.52161508769E+03  0.52256546699E+03  0.00000000000E+00 0.  1.
         -1    1    1    2    0  501 -0.23675397289E+02 -0.20780836205E+02 -0.18955726109E+03  0.19215702647E+03  0.00000000000E+00 0. -1.
</event>
<event>
 4    1  0.6754235E+001  0.2272814E+02  0.7546771E-02  0.1495940E+00
          2   -1    0    0  502    0  0.00000000000E+00  0.00000000000E+00  0.28283202834E+03  0.28283202834E+03  0.00000000000E+00 0.  1.
         -2   -1    0    0    0  501 -0.00000000000E+00 -0.00000000000E+00 -0.18754710224E+01  0.18754710224E+01  0.00000000000E+00 0. -1.
          1    1    1    2  502    0 -0.12096655683E+02  0.19241598272E+02  0.11745499037E+03  0.11963378681E+03  0.00000000000E+00 0. -1.
         -1    1    1    2    0  501  0.12096655683E+02 -0.19241598272E+02  0.16350156695E+03  0.16507371256E+03  0.00000000000E+00 0.  1.
</event>
<event>
 4    1  0.6754235E+001  0.2032579E+02  0.7546771E-02  0.1529112E+00
          2   -1    0    0  502    0  0.00000000000E+00  0.00000000000E+00  0.23540590775E+04  0.23540590775E+04  0.00000000000E+00 0.  1.
         -2   -1    0    0    0  501 -0.00000000000E+00 -0.00000000000E+00 -0.18901479002E+00  0.18901479002E+00  0.00000000000E+00 0. -1.
          1    1    1    2  502    0  0.12093577454E+02 -0.16336552011E+02  0.86217631478E+03  0.86241587145E+03  0.00000000000E+00 0. -1.
         -1    1    1    2    0  501 -0.12093577454E+02  0.16336552011E+02  0.14916937479E+04  0.14918322208E+04  0.00000000000E+00 0.  1.
</event>
<event>
 4    1  0.6754235E+001  0.3419359E+02  0.7546771E-02  0.1386323E+00
          2   -1    0    0  502    0  0.00000000000E+00  0.00000000000E+00  0.77792146587E+03  0.77792146587E+03  0.00000000000E+00 0.  1.
         -2   -1    0    0    0  501 -0.00000000000E+00 -0.00000000000E+00 -0.19269490832E+01  0.19269490832E+01  0.00000000000E+00 0. -1.
          1    1    1    2  502    0  0.33882370949E+02 -0.46028976053E+01  0.57089624604E+03  0.57191933475E+03  0.00000000000E+00 0.  1.
         -1    1    1    2    0  501 -0.33882370949E+02  0.46028976053E+01  0.20509827075E+03  0.20792908020E+03  0.00000000000E+00 0. -1.
</event>
<event>
 4    1  0.6754235E+001  0.2382282E+02  0.7546771E-02  0.1482417E+00
          2   -1    0    0  502    0  0.00000000000E+00  0.00000000000E+00  0.20766033064E+02  0.20766033064E+02  0.00000000000E+00 0.  1.
         -2   -1    0    0    0  501 -0.00000000000E+00 -0.00000000000E+00 -0.38468434319E+02  0.38468434319E+02  0.00000000000E+00 0. -1.
          1    1    1    2  502    0  0.19056992370E+02 -0.14295374291E+02  0.70860264032E+01  0.24854344781E+02  0.00000000000E+00 0.  1.
         -1    1    1    2    0  501 -0.19056992370E+02  0.14295374291E+02 -0.24788427658E+02  0.34380122601E+02  0.00000000000E+00 0. -1.
</event>
<event>
 4    1  0.6754235E+001  0.3049654E+02  0.7546771E-02  0.1415330E+00
          2   -1    0    0  502    0  0.00000000000E+00  0.00000000000E+00  0.85493012244E+03  0.85493012244E+03  0.00000000000E+00 0. -1.
         -2   -1    0    0    0  501 -0.00000000000E+00 -0.00000000000E+00 -0.30190307054E+01  0.30190307054E+01  0.00000000000E+00 0.  1.
          1    1    1    2  502    0 -0.27352525878E+02  0.13486217847E+02  0.82864921583E+02  0.88298550230E+02  0.00000000000E+00 0.  1.
         -1    1    1    2    0  501  0.27352525878E+02 -0.13486217847E+02  0.76904617015E+03  0.76965060291E+03  0.00000000000E+00 0. -1.
</event>
<event>
 4    1  0.6754235E+001  0.2415567E+02  0.7546771E-02  0.1478475E+00
          2   -1    0    0  502    0  0.00000000000E+00  0.00000000000E+00  0.67674405701E+02  0.67674405701E+02  0.00000000000E+00 0.  1.
         -2   -1    0    0    0  501 -0.00000000000E+00 -0.00000000000E+00 -0.88066628659E+01  0.88066628659E+01  0.00000000000E+00 0. -1.
          1    1    1    2  502    0 -0.10915707164E+02 -0.21548640011E+02  0.34969565376E+02  0.42501377057E+02  0.00000000000E+00 0. -1.
         -1    1    1    2    0  501  0.10915707164E+02  0.21548640011E+02  0.23898177459E+02  0.33979691510E+02  0.00000000000E+00 0.  1.
</event>
<event>
 4    1  0.6754235E+001  0.2951149E+02  0.7546771E-02  0.1423890E+00
          2   -1    0    0  502    0  0.00000000000E+00  0.00000000000E+00  0.93385621686E+00  0.93385621686E+00  0.00000000000E+00 0.  1.
         -2   -1    0    0    0  501 -0.00000000000E+00 -0.00000000000E+00 -0.96319986986E+03  0.96319986986E+03  0.00000000000E+00 0. -1.
          1    1    1    2  502    0 -0.68641256454E+01  0.28702122883E+02 -0.56703518791E+03  0.56780263508E+03  0.00000000000E+00 0. -1.
         -1    1    1    2    0  501  0.68641256454E+01 -0.28702122883E+02 -0.39523082573E+03  0.39633109099E+03  0.00000000000E+00 0.  1.
</event>
<event>
 4    1  0.6754235E+001  0.2484987E+02  0.7546771E-02  0.1470490E+00
          2   -1    0    0  502    0  0.00000000000E+00  0.00000000000E+00  0.59794059707E+02  0.59794059707E+02  0.00000000000E+00 0.  1.
         -2   -1    0    0    0  501 -0.00000000000E+00 -0.00000000000E+00 -0.13752970608E+02  0.13752970608E+02  0.00000000000E+00 0. -1.
          1    1    1    2  502    0 -0.24349772110E+02  0.49602819924E+01  0.46676400067E+01  0.25284435182E+02  0.00000000000E+00 0. -1.
         -1    1    1    2    0  501  0.24349772110E+02 -0.49602819924E+01  0.41373449092E+02  0.48262595133E+02  0.00000000000E+00 0.  1.
</event>
<event>
 4    1  0.6754235E+001  0.2035381E+02  0.7546771E-02  0.1528694E+00
          2   -1    0    0  502    0  0.00000000000E+00  0.00000000000E+00  0.96268229617E+02  0.96268229617E+02  0.00000000000E+00 0.  1.
         -2   -1    0    0    0  501 -0.00000000000E+00 -0.00000000000E+00 -0.60377352628E+01  0.60377352628E+01  0.00000000000E+00 0. -1.
          1    1    1    2  502    0 -0.19102018117E+02 -0.70278306888E+01  0.17699214160E+02  0.26972943522E+02  0.00000000000E+00 0. -1.
         -1    1    1    2    0  501  0.19102018117E+02  0.70278306888E+01  0.72531280194E+02  0.75333021358E+02  0.00000000000E+00 0.  1.
</event>
<event>
 4    1  0.6754235E+001  0.2349637E+02  0.7546771E-02  0.1486358E+00
          2   -1    0    0  502    0  0.00000000000E+00  0.00000000000E+00  0.35442279009E+02  0.35442279009E+02  0.00000000000E+00 0.  1.
         -2   -1    0    0    0  501 -0.00000000000E+00 -0.00000000000E+00 -0.15614559217E+02  0.15614559217E+02  0.00000000000E+00 0. -1.
          1    1    1    2  502    0  0.71139110206E+01  0.22393558989E+02  0.11168324372E+02  0.26015585396E+02  0.00000000000E+00 0. -1.
         -1    1    1    2    0  501 -0.71139110206E+01 -0.22393558989E+02  0.86593954196E+01  0.25041252829E+02  0.00000000000E+00 0.  1.
</event>
<event>
 4    1  0.6754235E+001  0.2097611E+02  0.7546771E-02  0.1519606E+00
          2   -1    0    0  502    0  0.00000000000E+00  0.00000000000E+00  0.10129608369E+03  0.10129608369E+03  0.00000000000E+00 0.  1.
         -2   -1    0    0    0  501 -0.00000000000E+00 -0.00000000000E+00 -0.50693749821E+01  0.50693749821E+01  0.00000000000E+00 0. -1.
          1    1    1    2  502    0  0.13484121197E+02  0.16067839508E+02  0.27991278463E+02  0.34978688668E+02  0.00000000000E+00 0. -1.
         -1    1    1    2    0  501 -0.13484121197E+02 -0.16067839508E+02  0.68235430246E+02  0.71386770005E+02  0.00000000000E+00 0.  1.
</event>
<event>
 4    1  0.6754235E+001  0.2086320E+02  0.7546771E-02  0.1521227E+00
          2   -1    0    0  502    0  0.00000000000E+00  0.00000000000E+00  0.10280254750E+04  0.10280254750E+04  0.00000000000E+00 0. -1.
         -2   -1    0    0    0  501 -0.00000000000E+00 -0.00000000000E+00 -0.66235900849E+00  0.66235900849E+00  0.00000000000E+00 0.  1.
          1    1    1    2  502    0 -0.14644087095E+02 -0.14860145858E+02  0.20475005878E+03  0.20581025191E+03  0.00000000000E+00 0.  1.
         -1    1    1    2    0  501  0.14644087095E+02  0.14860145858E+02  0.82261305724E+03  0.82287758212E+03  0.00000000000E+00 0. -1.
</event>
<event>
 4    1  0.6754235E+001  0.2705553E+02  0.7546771E-02  0.1447051E+00
          2   -1    0    0  502    0  0.00000000000E+00  0.00000000000E+00  0.91119165511E+02  0.91119165511E+02  0.00000000000E+00 0. -1.
         -2   -1    0    0    0  501 -0.00000000000E+00 -0.00000000000E+00 -0.11571125499E+02  0.11571125499E+02  0.00000000000E+00 0.  1.
          1    1    1    2  502    0 -0.24434884644E+02 -0.11616288949E+02  0.11383702503E+02  0.29352860835E+02  0.00000000000E+00 0.  1.
         -1    1    1    2    0  501  0.24434884644E+02  0.11616288949E+02  0.68164337509E+02  0.73337430174E+02  0.00000000000E+00 0. -1.
</event>
<event>
 4    1  0.6754235E+001  0.2014836E+02  0.7546771E-02  0.1531780E+00
          2   -1    0    0  502    0  0.00000000000E+00  0.00000000000E+00  0.75402200720E+03  0.75402200720E+03  0.00000000000E+00 0. -1.
         -2   -1    0    0    0  501 -0.00000000000E+00 -0.00000000000E+00 -0.22625060229E+01  0.22625060229E+01  0.00000000000E+00 0.  1.
          1    1    1    2  502    0  0.17730937002E+02 -0.95692386155E+01  0.70597846002E+03  0.70626591484E+03  0.00000000000E+00 0. -1.
         -1    1    1    2    0  501 -0.17730937002E+02  0.95692386155E+01  0.45781041164E+02  0.50018598389E+02  0.00000000000E+00 0.  1.
</event>
<event>
 4    1  0.6754235E+001  0.2085411E+02  0.7546771E-02  0.1521358E+00
          2   -1    0    0  502    0  0.00000000000E+00  0.00000000000E+00  0.89849649740E+03  0.89849649740E+03  0.00000000000E+00 0.  1.
         -2   -1    0    0    0  501 -0.00000000000E+00 -0.00000000000E+00 -0.48886440367E+00  0.48886440367E+00  0.00000000000E+00 0. -1.
          1    1    1    2  502    0 -0.10445932959E+02 -0.18049271285E+02  0.49373157804E+03  0.49417179691E+03  0.00000000000E+00 0.  1.
         -1    1    1    2    0  501  0.10445932959E+02  0.18049271285E+02  0.40427605495E+03  0.40481356489E+03  0.00000000000E+00 0. -1.
</event>
<event>
 4    1  0.6754235E+001  0.2041986E+02  0.7546771E-02  0.1527711E+00
          2   -1    0    0  502    0  0.00000000000E+00  0.00000000000E+00  0.87752940224E+02  0.87752940224E+02  0.00000000000E+00 0. -1.
         -2   -1    0    0    0  501 -0.00000000000E+00 -0.00000000000E+00 -0.98450258437E+01  0.98450258437E+01  0.00000000000E+00 0.  1.
          1    1    1    2  502    0  0.16070418233E+02  0.12598101451E+02  0.38540821264E+01  0.20780386219E+02  0.00000000000E+00 0.  1.
         -1    1    1    2    0  501 -0.16070418233E+02 -0.12598101451E+02  0.74053832254E+02  0.76817579849E+02  0.00000000000E+00 0. -1.
</event>
<event>
 4    1  0.6754235E+001  0.3429622E+02  0.7546771E-02  0.1385580E+00
          2   -1    0    0  502    0  0.00000000000E+00  0.00000000000E+00  0.12900655165E+04  0.12900655165E+04  0.00000000000E+00 0.  1.
         -2   -1    0    0    0  501 -0.00000000000E+00 -0.00000000000E+00 -0.17062624636E+01  0.17062624636E+01  0.00000000000E+00 0. -1.
          1    1    1    2  502    0  0.28450415569E+02 -0.19152149373E+02  0.10849174531E+04  0.10854594009E+04  0.00000000000E+00 0.  1.
         -1    1    1    2    0  501 -0.28450415569E+02  0.19152149373E+02  0.20344180088E+03  0.20631237800E+03  0.00000000000E+00 0. -1.
</event>
<event>
 4    1  0.6754235E+001  0.2260717E+02  0.7546771E-02  0.1497491E+00
          2   -1    0    0  502    0  0.00000000000E+00  0.00000000000E+00  0.45358822820E+03  0.45358822820E+03  0.00000000000E+00 0. -1.
         -2   -1    0    0    0  501 -0.00000000000E+00 -0.00000000000E+00 -0.13017541577E+01  0.13017541577E+01  0.00000000000E+00 0.  1.
          1    1    1    2  502    0 -0.18065146212E+02 -0.13591719977E+02  0.14275100187E+03  0.14453004150E+03  0.00000000000E+00 0. -1.
         -1    1    1    2    0  501  0.18065146212E+02  0.13591719977E+02  0.30953547217E+03  0.31035994086E+03  0.00000000000E+00 0.  1.
</event>
<event>
 4    1  0.6754235E+001  0.3622273E+02  0.7546771E-02  0.1372165E+00
          2   -1    0    0  502    0  0.00000000000E+00  0.00000000000E+00  0.34437659913E+03  0.34437659913E+03  0.00000000000E+00 0.  1.
         -2   -1    0    0    0  501 -0.00000000000E+00 -0.00000000000E+00 -0.38135764719E+01  0.38135764719E+01  0.00000000000E+00 0. -1.
          1    1    1    2  502    0 -0.19603821156E+02 -0.30459426199E+02  0.16497521049E+03  0.16890502220E+03  0.00000000000E+00 0. -1.
         -1    1    1    2    0  501  0.19603821156E+02  0.30459426199E+02  0.17558781218E+03  0.17928515341E+03  0.00000000000E+00 0.  1.
</event>
<event>
 4    1  0.6754235E+001  0.2346652E+02  0.7546771E-02  0.1486722E+00
          2   -1    0    0  502    0  0.00000000000E+00  0.00000000000E+00  0.20160961672E+03  0.20160961672E+03  0.00000000000E+00 0. -1.
         -2   -1    0    0    0  501 -0.00000000000E+00 -0.00000000000E+00 -0.29403711096E+01  0.29403711096E+01  0.00000000000E+00 0.  1.
          1    1    1    2  502    0  0.20345916389E+02 -0.11692779023E+02  0.72069532727E+02  0.75793765855E+02  0.00000000000E+00 0.  1.
         -1    1    1    2    0  501 -0.20345916389E+02  0.11692779023E+02  0.12659971289E+03  0.12875622198E+03  0.00000000000E+00 0. -1.
</event>
<event>
 4    1  0.6754235E+001  0.2767127E+02  0.7546771E-02  0.1440979E+00
          2   -1    0    0  502    0  0.00000000000E+00  0.00000000000E+00  0.22516362150E+03  0.22516362150E+03  0.00000000000E+00 0. -1.
         -2   -1    0    0    0  501 -0.00000000000E+00 -0.00000000000E+00 -0.59627770080E+01  0.59627770080E+01  0.00000000000E+00 0.  1.
          1    1    1    2  502    0 -0.27666872715E+02  0.49312598475E+00  0.18535292285E+03  0.18740705704E+03  0.00000000000E+00 0. -1.
         -1    1    1    2    0  501  0.27666872715E+02 -0.49312598475E+00  0.33847921644E+02  0.43719341471E+02  0.00000000000E+00 0.  1.
</event>
<event>
 4    1  0.6754235E+001  0.2352716E+02  0.7546771E-02  0.1485983E+00
          2   -1    0    0  502    0  0.00000000000E+00  0.00000000000E+00  0.12562364923E+04  0.12562364923E+04  0.00000000000E+00 0. -1.
         -2   -1    0    0    0  501 -0.00000000000E+00 -0.00000000000E+00 -0.45063055257E+00  0.45063055257E+00  0.00000000000E+00 0.  1.
          1    1    1    2  502    0  0.14088222182E+02  0.18842747381E+02  0.72152899981E+03  0.72191247717E+03  0.00000000000E+00 0.  1.
         -1    1    1    2    0  501 -0.14088222182E+02 -0.18842747381E+02  0.53425686194E+03  0.53477464568E+03  0.00000000000E+00 0. -1.
</event>
<event>
 4    1  0.6754235E+001  0.2473893E+02  0.7546771E-02  0.1471745E+00
          2   -1    0    0  502    0  0.00000000000E+00  0.00000000000E+00  0.14176830002E+04  0.14176830002E+04  0.00000000000E+00 0. -1.
         -2   -1    0    0    0  501 -0.00000000000E+00 -0.00000000000E+00 -0.43907205573E+00  0.43907205573E+00  0.00000000000E+00 0.  1.
          1    1    1    2  502    0  0.20632543989E+02  0.13649635121E+02  0.80049674789E+03  0.80087892829E+03  0.00000000000E+00 0.  1.
         -1    1    1    2    0  501 -0.20632543989E+02 -0.13649635121E+02  0.61674718026E+03  0.61724314396E+03  0.00000000000E+00 0. -1.
</event>
<event>
 4    1  0.6754235E+001  0.2124252E+02  0.7546771E-02  0.1515830E+00
          2   -1    0    0  502    0  0.00000000000E+00  0.00000000000E+00  0.59957329605E+01  0.59957329605E+01  0.00000000000E+00 0. -1.
         -2   -1    0    0    0  501 -0.00000000000E+00 -0.00000000000E+00 -0.92169913008E+02  0.92169913008E+02  0.00000000000E+00 0.  1.
          1    1    1    2  502    0  0.19519510580E+02 -0.83805464465E+01 -0.64109998651E+02  0.67537669334E+02  0.00000000000E+00 0.  1.
         -1    1    1    2    0  501 -0.19519510580E+02  0.83805464465E+01 -0.22064181397E+02  0.30627976635E+02  0.00000000000E+00 0. -1.
</event>
<event>
 4    1  0.6754235E+001  0.3603149E+02  0.7546771E-02  0.1373453E+00
          2   -1    0    0  502    0  0.00000000000E+00  0.00000000000E+00  0.22515357377E+04  0.22515357377E+04  0.00000000000E+00 0. -1.
         -2   -1    0    0    0  501 -0.00000000000E+00 -0.00000000000E+00 -0.59702549903E+00  0.59702549903E+00  0.00000000000E+00 0.  1.
          1    1    1    2  502    0  0.35068409481E+02 -0.82749606528E+01  0.13336780742E+04  0.13341647102E+04  0.00000000000E+00 0.  1.
         -1    1    1    2    0  501 -0.35068409481E+02  0.82749606528E+01  0.91726063796E+03  0.91796805297E+03  0.00000000000E+00 0. -1.
</event>
<event>
 4    1  0.6754235E+001  0.2095244E+02  0.7546771E-02  0.1519945E+00
          2   -1    0    0  502    0  0.00000000000E+00  0.00000000000E+00  0.66585768152E+03  0.66585768152E+03  0.00000000000E+00 0. -1.
         -2   -1    0    0    0  501 -0.00000000000E+00 -0.00000000000E+00 -0.10202173227E+01  0.10202173227E+01  0.00000000000E+00 0.  1.
          1    1    1    2  502    0 -0.14719992734E+02 -0.14910619221E+02  0.13409735717E+03  0.13572437493E+03  0.00000000000E+00 0.  1.
         -1    1    1    2    0  501  0.14719992734E+02  0.14910619221E+02  0.53074010703E+03  0.53115352391E+03  0.00000000000E+00 0. -1.
</event>
<event>
 4    1  0.6754235E+001  0.2287724E+02  0.7546771E-02  0.1494045E+00
          2   -1    0    0  502    0  0.00000000000E+00  0.00000000000E+00  0.37467739057E+03  0.37467739057E+03  0.00000000000E+00 0. -1.
         -2   -1    0    0    0  501 -0.00000000000E+00 -0.00000000000E+00 -0.19858206741E+01  0.19858206741E+01  0.00000000000E+00 0.  1.
          1    1    1    2  502    0  0.22400797322E+02  0.46446028335E+01  0.83780571872E+02  0.86847868594E+02  0.00000000000E+00 0.  1.
         -1    1    1    2    0  501 -0.22400797322E+02 -0.46446028335E+01  0.28891099802E+03  0.28981534265E+03  0.00000000000E+00 0. -1.
</event>
<event>
 4    1  0.6754235E+001  0.6397955E+02  0.7546771E-02  0.1246880E+00
          2   -1    0    0  502    0  0.00000000000E+00  0.00000000000E+00  0.10206536071E+04  0.10206536071E+04  0.00000000000E+00 0. -1.
         -2   -1    0    0    0  501 -0.00000000000E+00 -0.00000000000E+00 -0.42168648277E+01  0.42168648277E+01  0.00000000000E+00 0.  1.
          1    1    1    2  502    0 -0.15404714925E+02  0.62097318961E+02  0.62156521390E+03  0.62484933976E+03  0.00000000000E+00 0. -1.
         -1    1    1    2    0  501  0.15404714925E+02 -0.62097318961E+02  0.39487152836E+03  0.40002113216E+03  0.00000000000E+00 0.  1.
</event>
<event>
 4    1  0.6754235E+001  0.2470751E+02  0.7546771E-02  0.1472102E+00
          2   -1    0    0  502    0  0.00000000000E+00  0.00000000000E+00  0.25986024975E+03  0.25986024975E+03  0.00000000000E+00 0. -1.
         -2   -1    0    0    0  501 -0.00000000000E+00 -0.00000000000E+00 -0.23491904876E+01  0.23491904876E+01  0.00000000000E+00 0.  1.
          1    1    1    2  502    0  0.24697341911E+02  0.70859599603E+00  0.12886441027E+03  0.13121164979E+03  0.00000000000E+00 0. -1.
         -1    1    1    2    0  501 -0.24697341911E+02 -0.70859599603E+00  0.12864664900E+03  0.13099779045E+03  0.00000000000E+00 0.  1.
</event>
<event>
 4    1  0.6754235E+001  0.2458928E+02  0.7546771E-02  0.1473451E+00
          2   -1    0    0  502    0  0.00000000000E+00  0.00000000000E+00  0.69268052531E+03  0.69268052531E+03  0.00000000000E+00 0.  1.
         -2   -1    0    0    0  501 -0.00000000000E+00 -0.00000000000E+00 -0.10426233125E+01  0.10426233125E+01  0.00000000000E+00 0. -1.
          1    1    1    2  502    0 -0.67790853339E+01  0.23636347132E+02  0.20586735172E+03  0.20733065236E+03  0.00000000000E+00 0. -1.
         -1    1    1    2    0  501  0.67790853339E+01 -0.23636347132E+02  0.48577055027E+03  0.48639249626E+03  0.00000000000E+00 0.  1.
</event>
<event>
 4    1  0.6754235E+001  0.2472589E+02  0.7546771E-02  0.1471893E+00
          2   -1    0    0  502    0  0.00000000000E+00  0.00000000000E+00  0.41108719769E+02  0.41108719769E+02  0.00000000000E+00 0. -1.
         -2   -1    0    0    0  501 -0.00000000000E+00 -0.00000000000E+00 -0.26804146533E+02  0.26804146533E+02  0.00000000000E+00 0.  1.
          1    1    1    2  502    0  0.21175464215E+02  0.12765947378E+02 -0.15503544598E+02  0.29184406663E+02  0.00000000000E+00 0.  1.
         -1    1    1    2    0  501 -0.21175464215E+02 -0.12765947378E+02  0.29808117834E+02  0.38728459639E+02  0.00000000000E+00 0. -1.
</event>
<event>
 4    1  0.6754235E+001  0.2228166E+02  0.7546771E-02  0.1501721E+00
          2   -1    0    0  502    0  0.00000000000E+00  0.00000000000E+00  0.22427322909E+03  0.22427322909E+03  0.00000000000E+00 0.  1.
         -2   -1    0    0    0  501 -0.00000000000E+00 -0.00000000000E+00 -0.35664095450E+01  0.35664095450E+01  0.00000000000E+00 0. -1.
          1    1    1    2  502    0  0.20665414474E+02 -0.83314477924E+01  0.40193848160E+02  0.45956694916E+02  0.00000000000E+00 0. -1.
         -1    1    1    2    0  501 -0.20665414474E+02  0.83314477924E+01  0.18051297138E+03  0.18188294372E+03  0.00000000000E+00 0.  1.
</event>
<event>
 4    1  0.6754235E+001  0.2253532E+02  0.7546771E-02  0.1498417E+00
          2   -1    0    0  502    0  0.00000000000E+00  0.00000000000E+00  0.27787342457E+03  0.27787342457E+03  0.00000000000E+00 0. -1.
         -2   -1    0    0    0  501 -0.00000000000E+00 -0.00000000000E+00 -0.21435552922E+01  0.21435552922E+01  0.00000000000E+00 0.  1.
          1    1    1    2  502    0  0.11185802860E+02  0.19563188510E+02  0.19161786802E+03  0.19293845619E+03  0.00000000000E+00 0.  1.
         -1    1    1    2    0  501 -0.11185802860E+02 -0.19563188510E+02  0.84112001254E+02  0.87078523674E+02  0.00000000000E+00 0. -1.
</event>
<event>
 4    1  0.6754235E+001  0.2568467E+02  0.7546771E-02  0.1461288E+00
          2   -1    0    0  502    0  0.00000000000E+00  0.00000000000E+00  0.23786776804E+04  0.23786776804E+04  0.00000000000E+00 0.  1.
         -2   -1    0    0    0  501 -0.00000000000E+00 -0.00000000000E+00 -0.27950895244E+00  0.27950895244E+00  0.00000000000E+00 0. -1.
          1    1    1    2  502    0  0.74629196487E+01  0.24576551299E+02  0.12939846961E+04  0.12942395821E+04  0.00000000000E+00 0.  1.
         -1    1    1    2    0  501 -0.74629196487E+01 -0.24576551299E+02  0.10844134753E+04  0.10847176072E+04  0.00000000000E+00 0. -1.
</event>
<event>
 4    1  0.6754235E+001  0.4995081E+02  0.7546771E-02  0.1298386E+00
          2   -1    0    0  502    0  0.00000000000E+00  0.00000000000E+00  0.25562898425E+04  0.25562898425E+04  0.00000000000E+00 0.  1.
         -2   -1    0    0    0  501 -0.00000000000E+00 -0.00000000000E+00 -0.97779167603E+00  0.97779167603E+00  0.00000000000E+00 0. -1.
          1    1    1    2  502    0 -0.48972798868E+02 -0.98360988261E+01  0.12237958523E+04  0.12248148317E+04  0.00000000000E+00 0. -1.
         -1    1    1    2    0  501  0.48972798868E+02  0.98360988261E+01  0.13315161985E+04  0.13324528024E+04  0.00000000000E+00 0.  1.
</event>
<event>
 4    1  0.6754235E+001  0.2686812E+02  0.7546771E-02  0.1448937E+00
          2   -1    0    0  502    0  0.00000000000E+00  0.00000000000E+00  0.23966876666E+02  0.23966876666E+02  0.00000000000E+00 0. -1.
         -2   -1    0    0    0  501 -0.00000000000E+00 -0.00000000000E+00 -0.31762997345E+02  0.31762997345E+02  0.00000000000E+00 0.  1.
          1    1    1    2  502    0 -0.26617803962E+02 -0.36589945084E+01 -0.10234449346E+02  0.28751342264E+02  0.00000000000E+00 0.  1.
         -1    1    1    2    0  501  0.26617803962E+02  0.36589945084E+01  0.24383286672E+01  0.26978531747E+02  0.00000000000E+00 0. -1.
</event>
<event>
 4    1  0.6754235E+001  0.2141417E+02  0.7546771E-02  0.1513433E+00
          2   -1    0    0  502    0  0.00000000000E+00  0.00000000000E+00  0.15884615622E+04  0.15884615622E+04  0.00000000000E+00 0. -1.
         -2   -1    0    0    0  501 -0.00000000000E+00 -0.00000000000E+00 -0.34338354499E+00  0.34338354499E+00  0.00000000000E+00 0.  1.
          1    1    1    2  502    0  0.20586367562E+02  0.58964435191E+01  0.11111142758E+04  0.11113206110E+04  0.00000000000E+00 0. -1.
         -1    1    1    2    0  501 -0.20586367562E+02 -0.58964435191E+01  0.47700390281E+03  0.47748433469E+03  0.00000000000E+00 0.  1.
</event>
<event>
 4    1  0.6754235E+001  0.2227387E+02  0.7546771E-02  0.1501823E+00
          2   -1    0    0  502    0  0.00000000000E+00  0.00000000000E+00  0.89084193981E+03  0.89084193981E+03  0.00000000000E+00 0.  1.
         -2   -1    0    0    0  501 -0.00000000000E+00 -0.00000000000E+00 -0.12165511779E+01  0.12165511779E+01  0.00000000000E+00 0. -1.
          1    1    1    2  502    0 -0.16534358462E+02  0.14924482408E+02  0.11637752325E+03  0.11848988608E+03  0.00000000000E+00 0. -1.
         -1    1    1    2    0  501  0.16534358462E+02 -0.14924482408E+02  0.77324786538E+03  0.77356860491E+03  0.00000000000E+00 0.  1.
</event>
<event>
 4    1  0.6754235E+001  0.2773756E+02  0.7546771E-02  0.1440337E+00
          2   -1    0    0  502    0  0.00000000000E+00  0.00000000000E+00  0.14230570704E+02  0.14230570704E+02  0.00000000000E+00 0. -1.
         -2   -1    0    0    0  501 -0.00000000000E+00 -0.00000000000E+00 -0.85685367145E+02  0.85685367145E+02  0.00000000000E+00 0.  1.
          1    1    1    2  502    0 -0.27332087983E+02  0.47253648407E+01 -0.53789365854E+01  0.28254292863E+02  0.00000000000E+00 0. -1.
         -1    1    1    2    0  501  0.27332087983E+02 -0.47253648407E+01 -0.66075859856E+02  0.71661644986E+02  0.00000000000E+00 0.  1.
</event>
<event>
 4    1  0.6754235E+001  0.6985018E+02  0.7546771E-02  0.1229600E+00
          2   -1    0    0  502    0  0.00000000000E+00  0.00000000000E+00  0.83148170943E+02  0.83148170943E+02  0.00000000000E+00 0. -1.
         -2   -1    0    0    0  501 -0.00000000000E+00 -0.00000000000E+00 -0.59564358370E+02  0.59564358370E+02  0.00000000000E+00 0.  1.
          1    1    1    2  502    0 -0.62009459164E+02  0.32153930165E+02  0.20491682342E+02  0.72793937221E+02  0.00000000000E+00 0.  1.
         -1    1    1    2    0  501  0.62009459164E+02 -0.32153930165E+02  0.30921302314E+01  0.69918592093E+02  0.00000000000E+00 0. -1.
</event>
<event>
 4    1  0.6754235E+001  0.2365094E+02  0.7546771E-02  0.1484482E+00
          2   -1    0    0  502    0  0.00000000000E+00  0.00000000000E+00  0.30684745275E+02  0.30684745275E+02  0.00000000000E+00 0. -1.
         -2   -1    0    0    0  501 -0.00000000000E+00 -0.00000000000E+00 -0.19042247299E+02  0.19042247299E+02  0.00000000000E+00 0.  1.
          1    1    1    2  502    0 -0.31291260510E+01 -0.23443028908E+02  0.68453389538E+00  0.23660845735E+02  0.00000000000E+00 0.  1.
         -1    1    1    2    0  501  0.31291260510E+01  0.23443028908E+02  0.10957964081E+02  0.26066146839E+02  0.00000000000E+00 0. -1.
</event>
<event>
 4    1  0.6754235E+001  0.4041087E+02  0.7546771E-02  0.1346095E+00
          2   -1    0    0  502    0  0.00000000000E+00  0.00000000000E+00  0.41420680399E+03  0.41420680399E+03  0.00000000000E+00 0.  1.
         -2   -1    0    0    0  501 -0.00000000000E+00 -0.00000000000E+00 -0.47592530826E+01  0.47592530826E+01  0.00000000000E+00 0. -1.
          1    1    1    2  502    0  0.22022534296E+02  0.33882839076E+02  0.11794639088E+03  0.12467714274E+03  0.00000000000E+00 0. -1.
         -1    1    1    2    0  501 -0.22022534296E+02 -0.33882839076E+02  0.29150116003E+03  0.29428891433E+03  0.00000000000E+00 0.  1.
</event>
<event>
 4    1  0.6754235E+001  0.2123447E+02  0.7546771E-02  0.1515943E+00
          2   -1    0    0  502    0  0.00000000000E+00  0.00000000000E+00  0.27085085932E+02  0.27085085932E+02  0.00000000000E+00 0. -1.
         -2   -1    0    0    0  501 -0.00000000000E+00 -0.00000000000E+00 -0.45144096630E+02  0.45144096630E+02  0.00000000000E+00 0.  1.
          1    1    1    2  502    0  0.14136624489E+02 -0.15844831315E+02 -0.37722615883E+02  0.43288550222E+02  0.00000000000E+00 0.  1.
         -1    1    1    2    0  501 -0.14136624489E+02  0.15844831315E+02  0.19663605185E+02  0.28940632339E+02  0.00000000000E+00 0. -1.
</event>
<event>
 4    1  0.6754235E+001  0.3063096E+02  0.7546771E-02  0.1414191E+00
          2   -1    0    0  502    0  0.00000000000E+00  0.00000000000E+00  0.38034919663E+03  0.38034919663E+03  0.00000000000E+00 0. -1.
         -2   -1    0    0    0  501 -0.00000000000E+00 -0.00000000000E+00 -0.27444944993E+01  0.27444944993E+01  0.00000000000E+00 0.  1.
          1    1    1    2  502    0  0.13045430522E+02 -0.27714115379E+02  0.12787577161E+03  0.13149322573E+03  0.00000000000E+00 0.  1.
         -1    1    1    2    0  501 -0.13045430522E+02  0.27714115379E+02  0.24972893052E+03  0.25160046540E+03  0.00000000000E+00 0. -1.
</event>
<event>
 4    1  0.6754235E+001  0.5216223E+02  0.7546771E-02  0.1289060E+00
          2   -1    0    0  502    0  0.00000000000E+00  0.00000000000E+00  0.13570157336E+03  0.13570157336E+03  0.00000000000E+00 0.  1.
         -2   -1    0    0    0  501 -0.00000000000E+00 -0.00000000000E+00 -0.21066216175E+02  0.21066216175E+02  0.00000000000E+00 0. -1.
          1    1    1    2  502    0 -0.30893304691E+02 -0.42029772619E+02  0.40106990790E+02  0.65798698858E+02  0.00000000000E+00 0. -1.
         -1    1    1    2    0  501  0.30893304691E+02  0.42029772619E+02  0.74528366395E+02  0.90969090677E+02  0.00000000000E+00 0.  1.
</event>
<event>
 4    1  0.6754235E+001  0.2060802E+02  0.7546771E-02  0.1524936E+00
          2   -1    0    0  502    0  0.00000000000E+00  0.00000000000E+00  0.93715184147E+02  0.93715184147E+02  0.00000000000E+00 0.  1.
         -2   -1    0    0    0  501 -0.00000000000E+00 -0.00000000000E+00 -0.54004561339E+01  0.54004561339E+01  0.00000000000E+00 0. -1.
          1    1    1    2  502    0  0.20591229871E+02  0.83174312617E+00  0.64033962439E+02  0.67268409301E+02  0.00000000000E+00 0.  1.
         -1    1    1    2    0  501 -0.20591229871E+02 -0.83174312617E+00  0.24280765574E+02  0.31847230980E+02  0.00000000000E+00 0. -1.
</event>
<event>
 4    1  0.6754235E+001  0.4533212E+02  0.7546771E-02  0.1319787E+00
          2   -1    0    0  502    0  0.00000000000E+00  0.00000000000E+00  0.25095912849E+04  0.25095912849E+04  0.00000000000E+00 0.  1.
         -2   -1    0    0    0  501 -0.00000000000E+00 -0.00000000000E+00 -0.89184276819E+00  0.89184276819E+00  0.00000000000E+00 0. -1.
          1    1    1    2  502    0  0.44023301740E+02  0.10814335679E+02  0.89526506519E+03  0.89641203579E+03  0.00000000000E+00 0.  1.
         -1    1    1    2    0  501 -0.44023301740E+02 -0.10814335679E+02  0.16134343769E+04  0.16140710919E+04  0.00000000000E+00 0. -1.
</event>
<event>
 4    1  0.6754235E+001  0.2913811E+02  0.7546771E-02  0.1427237E+00
          2   -1    0    0  502    0  0.00000000000E+00  0.00000000000E+00  0.17280994632E+03  0.17280994632E+03  0.00000000000E+00 0. -1.
         -2   -1    0    0    0  501 -0.00000000000E+00 -0.00000000000E+00 -0.57876499882E+01  0.57876499882E+01  0.00000000000E+00 0.  1.
          1    1    1    2  502    0  0.27448806425E+02  0.97771275370E+01  0.48798190625E+02  0.56835663147E+02  0.00000000000E+00 0.  1.
         -1    1    1    2    0  501 -0.27448806425E+02 -0.97771275370E+01  0.11822410571E+03  0.12176193316E+03  0.00000000000E+00 0. -1.
</event>
<event>
 4    1  0.6754235E+001  0.2919014E+02  0.7546771E-02  0.1426767E+00
          2   -1    0    0  502    0  0.00000000000E+00  0.00000000000E+00  0.76645578594E+03  0.76645578594E+03  0.00000000000E+00 0. -1.
         -2   -1    0    0    0  501 -0.00000000000E+00 -0.00000000000E+00 -0.12230217827E+01  0.12230217827E+01  0.00000000000E+00 0.  1.
          1    1    1    2  502    0  0.26749295473E+02  0.11685019258E+02  0.49842310421E+03  0.49927713275E+03  0.00000000000E+00 0. -1.
         -1    1    1    2    0  501 -0.26749295473E+02 -0.11685019258E+02  0.26680965995E+03  0.26840167497E+03  0.00000000000E+00 0.  1.
</event>
<event>
 4    1  0.6754235E+001  0.2965040E+02  0.7546771E-02  0.1422659E+00
          2   -1    0    0  502    0  0.00000000000E+00  0.00000000000E+00  0.47299103370E+03  0.47299103370E+03  0.00000000000E+00 0. -1.
         -2   -1    0    0    0  501 -0.00000000000E+00 -0.00000000000E+00 -0.24976224046E+01  0.24976224046E+01  0.00000000000E+00 0.  1.
          1    1    1    2  502    0  0.24205456867E+01  0.29551428226E+02  0.35549325334E+03  0.35672762596E+03  0.00000000000E+00 0. -1.
         -1    1    1    2    0  501 -0.24205456867E+01 -0.29551428226E+02  0.11500015796E+03  0.11876103015E+03  0.00000000000E+00 0.  1.
</event>
<event>
 4    1  0.6754235E+001  0.2751402E+02  0.7546771E-02  0.1442512E+00
          2   -1    0    0  502    0  0.00000000000E+00  0.00000000000E+00  0.24007338329E+01  0.24007338329E+01  0.00000000000E+00 0.  1.
         -2   -1    0    0    0  501 -0.00000000000E+00 -0.00000000000E+00 -0.34818918956E+03  0.34818918956E+03  0.00000000000E+00 0. -1.
          1    1    1    2  502    0  0.27492515171E+02 -0.10875995165E+01 -0.22674551607E+03  0.22840873521E+03  0.00000000000E+00 0. -1.
         -1    1    1    2    0  501 -0.27492515171E+02  0.10875995165E+01 -0.11904293965E+03  0.12218118818E+03  0.00000000000E+00 0.  1.
</event>
<event>
 4    1  0.6754235E+001  0.3495840E+02  0.7546771E-02  0.1380856E+00
          2   -1    0    0  502    0  0.00000000000E+00  0.00000000000E+00  0.67486482972E+02  0.67486482972E+02  0.00000000000E+00 0.  1.
         -2   -1    0    0    0  501 -0.00000000000E+00 -0.00000000000E+00 -0.23083775226E+02  0.23083775226E+02  0.00000000000E+00 0. -1.
          1    1    1    2  502    0  0.11336540973E+02 -0.33069211794E+02  0.43224788232E+02  0.55592016042E+02  0.00000000000E+00 0.  1.
         -1    1    1    2    0  501 -0.11336540973E+02  0.33069211794E+02  0.11779195143E+01  0.34978242156E+02  0.00000000000E+00 0. -1.
</event>
<event>
 4    1  0.6754235E+001  0.2164559E+02  0.7546771E-02  0.1510244E+00
          2   -1    0    0  502    0  0.00000000000E+00  0.00000000000E+00  0.20677191459E+04  0.20677191459E+04  0.00000000000E+00 0.  1.
         -2   -1    0    0    0  501 -0.00000000000E+00 -0.00000000000E+00 -0.22804470119E+00  0.22804470119E+00  0.00000000000E+00 0. -1.
          1    1    1    2  502    0 -0.11490343861E+02  0.18344029280E+02  0.11162325322E+04  0.11164423843E+04  0.00000000000E+00 0.  1.
         -1    1    1    2    0  501  0.11490343861E+02 -0.18344029280E+02  0.95125856897E+03  0.95150480632E+03  0.00000000000E+00 0. -1.
</event>
<event>
 4    1  0.6754235E+001  0.2095776E+02  0.7546771E-02  0.1519869E+00
          2   -1    0    0  502    0  0.00000000000E+00  0.00000000000E+00  0.24468154597E+03  0.24468154597E+03  0.00000000000E+00 0.  1.
         -2   -1    0    0    0  501 -0.00000000000E+00 -0.00000000000E+00 -0.32737842729E+01  0.32737842729E+01  0.00000000000E+00 0. -1.
          1    1    1    2  502    0 -0.10118759025E+02 -0.18353154291E+02  0.20402523563E+03  0.20509881601E+03  0.00000000000E+00 0.  1.
         -1    1    1    2    0  501  0.10118759025E+02  0.18353154291E+02  0.37382526067E+02  0.42856514228E+02  0.00000000000E+00 0. -1.
</event>
<event>
 4    1  0.6754235E+001  0.3608639E+02  0.7546771E-02  0.1373082E+00
          2   -1    0    0  502    0  0.00000000000E+00  0.00000000000E+00  0.89202321748E+03  0.89202321748E+03  0.00000000000E+00 0. -1.
         -2   -1    0    0    0  501 -0.00000000000E+00 -0.00000000000E+00 -0.24001924353E+01  0.24001924353E+01  0.00000000000E+00 0.  1.
          1    1    1    2  502    0  0.65526702816E+01  0.35486480272E+02  0.72472972817E+03  0.72562759503E+03  0.00000000000E+00 0. -1.
         -1    1    1    2    0  501 -0.65526702816E+01 -0.35486480272E+02  0.16489329687E+03  0.16879581488E+03  0.00000000000E+00 0.  1.
</event>
<event>
 4    1  0.6754235E+001  0.5278306E+02  0.7546771E-02  0.1286537E+00
          2   -1    0    0  502    0  0.00000000000E+00  0.00000000000E+00  0.57212928900E+03  0.57212928900E+03  0.00000000000E+00 0. -1.
         -2   -1    0    0    0  501 -0.00000000000E+00 -0.00000000000E+00 -0.51237627040E+01  0.51237627040E+01  0.00000000000E+00 0.  1.
          1    1    1    2  502    0  0.41230538423E+02 -0.32955937771E+02  0.34778369987E+03  0.35176633300E+03  0.00000000000E+00 0. -1.
         -1    1    1    2    0  501 -0.41230538423E+02  0.32955937771E+02  0.21922182643E+03  0.22548671871E+03  0.00000000000E+00 0.  1.
</event>
<event>
 4    1  0.6754235E+001  0.3689777E+02  0.7546771E-02  0.1367691E+00
          2   -1    0    0  502    0  0.00000000000E+00  0.00000000000E+00  0.90595543861E+03  0.90595543861E+03  0.00000000000E+00 0.  1.
         -2   -1    0    0    0  501 -0.00000000000E+00 -0.00000000000E+00 -0.39291301310E+01  0.39291301310E+01  0.00000000000E+00 0. -1.
          1    1    1    2  502    0 -0.36862583634E+02 -0.16110181707E+01  0.93505411565E+02  0.10052217389E+03  0.00000000000E+00 0. -1.
         -1    1    1    2    0  501  0.36862583634E+02  0.16110181707E+01  0.80852089691E+03  0.80936239485E+03  0.00000000000E+00 0.  1.
</event>
<event>
 4    1  0.6754235E+001  0.2478832E+02  0.7546771E-02  0.1471185E+00
          2   -1    0    0  502    0  0.00000000000E+00  0.00000000000E+00  0.60409397002E+03  0.60409397002E+03  0.00000000000E+00 0.  1.
         -2   -1    0    0    0  501 -0.00000000000E+00 -0.00000000000E+00 -0.13437723356E+01  0.13437723356E+01  0.00000000000E+00 0. -1.
          1    1    1    2  502    0  0.50502921123E+01 -0.24268406276E+02  0.15213274492E+03  0.15413900568E+03  0.00000000000E+00 0. -1.
         -1    1    1    2    0  501 -0.50502921123E+01  0.24268406276E+02  0.45061745276E+03  0.45129873667E+03  0.00000000000E+00 0.  1.
</event>
<event>
 4    1  0.6754235E+001  0.2318720E+02  0.7546771E-02  0.1490161E+00
          2   -1    0    0  502    0  0.00000000000E+00  0.00000000000E+00  0.21958497702E+04  0.21958497702E+04  0.00000000000E+00 0.  1.
         -2   -1    0    0    0  501 -0.00000000000E+00 -0.00000000000E+00 -0.34070535924E+00  0.34070535924E+00  0.00000000000E+00 0. -1.
          1    1    1    2  502    0 -0.14536402993E+01  0.23141589636E+02  0.51529395007E+03  0.51581537513E+03  0.00000000000E+00 0. -1.
         -1    1    1    2    0  501  0.14536402993E+01 -0.23141589636E+02  0.16802151148E+04  0.16803751004E+04  0.00000000000E+00 0.  1.
</event>
<event>
 4    1  0.6754235E+001  0.2534129E+02  0.7546771E-02  0.1465021E+00
          2   -1    0    0  502    0  0.00000000000E+00  0.00000000000E+00  0.13204308986E+03  0.13204308986E+03  0.00000000000E+00 0.  1.
         -2   -1    0    0    0  501 -0.00000000000E+00 -0.00000000000E+00 -0.55006222562E+01  0.55006222562E+01  0.00000000000E+00 0. -1.
          1    1    1    2  502    0 -0.15837937025E+02  0.19782333501E+02  0.39864351013E+02  0.47237140575E+02  0.00000000000E+00 0. -1.
         -1    1    1    2    0  501  0.15837937025E+02 -0.19782333501E+02  0.86678116595E+02  0.90306571546E+02  0.00000000000E+00 0.  1.
</event>
<event>
 4    1  0.6754235E+001  0.2073922E+02  0.7546771E-02  0.1523021E+00
          2   -1    0    0  502    0  0.00000000000E+00  0.00000000000E+00  0.27965027714E+03  0.27965027714E+03  0.00000000000E+00 0. -1.
         -2   -1    0    0    0  501 -0.00000000000E+00 -0.00000000000E+00 -0.15772177150E+01  0.15772177150E+01  0.00000000000E+00 0.  1.
          1    1    1    2  502    0 -0.19756201457E+02  0.63093366754E+01  0.11687684431E+03  0.11870261986E+03  0.00000000000E+00 0. -1.
         -1    1    1    2    0  501  0.19756201457E+02 -0.63093366754E+01  0.16119621511E+03  0.16252487499E+03  0.00000000000E+00 0.  1.
</event>
<event>
 4    1  0.6754235E+001  0.4090783E+02  0.7546771E-02  0.1343247E+00
          2   -1    0    0  502    0  0.00000000000E+00  0.00000000000E+00  0.62467404409E+03  0.62467404409E+03  0.00000000000E+00 0.  1.
         -2   -1    0    0    0  501 -0.00000000000E+00 -0.00000000000E+00 -0.26837324522E+01  0.26837324522E+01  0.00000000000E+00 0. -1.
          1    1    1    2  502    0 -0.39488152474E+02  0.10683469393E+02  0.32428063840E+03  0.32685070467E+03  0.00000000000E+00 0.  1.
         -1    1    1    2    0  501  0.39488152474E+02 -0.10683469393E+02  0.29770967323E+03  0.30050707186E+03  0.00000000000E+00 0. -1.
</event>
<event>
 4    1  0.6754235E+001  0.2323439E+02  0.7546771E-02  0.1489576E+00
          2   -1    0    0  502    0  0.00000000000E+00  0.00000000000E+00  0.18083196973E+03  0.18083196973E+03  0.00000000000E+00 0. -1.
         -2   -1    0    0    0  501 -0.00000000000E+00 -0.00000000000E+00 -0.85943286400E+01  0.85943286400E+01  0.00000000000E+00 0.  1.
          1    1    1    2  502    0  0.19963628303E+02 -0.11886564544E+02  0.16263412318E+03  0.16428540682E+03  0.00000000000E+00 0. -1.
         -1    1    1    2    0  501 -0.19963628303E+02  0.11886564544E+02  0.96035179109E+01  0.25140891550E+02  0.00000000000E+00 0.  1.
</event>
<event>
 4    1  0.6754235E+001  0.9790770E+02  0.7546771E-02  0.1167484E+00
          2   -1    0    0  502    0  0.00000000000E+00  0.00000000000E+00  0.16686645497E+04  0.16686645497E+04  0.00000000000E+00 0.  1.
         -2   -1    0    0    0  501 -0.00000000000E+00 -0.00000000000E+00 -0.59207520165E+01  0.59207520165E+01  0.00000000000E+00 0. -1.
          1    1    1    2  502    0 -0.22717977879E+02  0.95235561251E+02  0.97576706384E+03  0.98066675355E+03  0.00000000000E+00 0.  1.
         -1    1    1    2    0  501  0.22717977879E+02 -0.95235561251E+02  0.68697673386E+03  0.69391854818E+03  0.00000000000E+00 0. -1.
</event>
<event>
 4    1  0.6754235E+001  0.2758690E+02  0.7546771E-02  0.1441800E+00
          2   -1    0    0  502    0  0.00000000000E+00  0.00000000000E+00  0.15880631144E+02  0.15880631144E+02  0.00000000000E+00 0.  1.
         -2   -1    0    0    0  501 -0.00000000000E+00 -0.00000000000E+00 -0.48125934261E+02  0.48125934261E+02  0.00000000000E+00 0. -1.
          1    1    1    2  502    0  0.26678863336E+02 -0.70196424788E+01 -0.18204165659E+02  0.33051910335E+02  0.00000000000E+00 0.  1.
         -1    1    1    2    0  501 -0.26678863336E+02  0.70196424788E+01 -0.14041137458E+02  0.30954655070E+02  0.00000000000E+00 0. -1.
</event>
<event>
 4    1  0.6754235E+001  0.2051135E+02  0.7546771E-02  0.1526357E+00
          2   -1    0    0  502    0  0.00000000000E+00  0.00000000000E+00  0.85434077885E+02  0.85434077885E+02  0.00000000000E+00 0. -1.
         -2   -1    0    0    0  501 -0.00000000000E+00 -0.00000000000E+00 -0.80509022889E+01  0.80509022889E+01  0.00000000000E+00 0.  1.
          1    1    1    2  502    0  0.11899928061E+02 -0.16706500967E+02  0.95632447722E+01  0.22631197781E+02  0.00000000000E+00 0.  1.
         -1    1    1    2    0  501 -0.11899928061E+02  0.16706500967E+02  0.67819930824E+02  0.70853782393E+02  0.00000000000E+00 0. -1.
</event>
<event>
 4    1  0.6754235E+001  0.2525493E+02  0.7546771E-02  0.1465972E+00
          2   -1    0    0  502    0  0.00000000000E+00  0.00000000000E+00  0.40581628146E+02  0.40581628146E+02  0.00000000000E+00 0. -1.
         -2   -1    0    0    0  501 -0.00000000000E+00 -0.00000000000E+00 -0.20243293774E+02  0.20243293774E+02  0.00000000000E+00 0.  1.
          1    1    1    2  502    0  0.90977621927E+01  0.23559330467E+02  0.24550340115E+02  0.35221165919E+02  0.00000000000E+00 0. -1.
         -1    1    1    2    0  501 -0.90977621927E+01 -0.23559330467E+02 -0.42120057438E+01  0.25603756001E+02  0.00000000000E+00 0.  1.
</event>
<event>
 4    1  0.6754235E+001  0.2702855E+02  0.7546771E-02  0.1447322E+00
          2   -1    0    0  502    0  0.00000000000E+00  0.00000000000E+00  0.46314131026E+03  0.46314131026E+03  0.00000000000E+00 0.  1.
         -2   -1    0    0    0  501 -0.00000000000E+00 -0.00000000000E+00 -0.20122131853E+01  0.20122131853E+01  0.00000000000E+00 0. -1.
          1    1    1    2  502    0  0.23383443822E+02 -0.13555707090E+02  0.12244644281E+03  0.12539407480E+03  0.00000000000E+00 0. -1.
         -1    1    1    2    0  501 -0.23383443822E+02  0.13555707090E+02  0.33868265427E+03  0.33975944864E+03  0.00000000000E+00 0.  1.
</event>
<event>
 4    1  0.6754235E+001  0.2098783E+02  0.7546771E-02  0.1519439E+00
          2   -1    0    0  502    0  0.00000000000E+00  0.00000000000E+00  0.51891021400E+03  0.51891021400E+03  0.00000000000E+00 0.  1.
         -2   -1    0    0    0  501 -0.00000000000E+00 -0.00000000000E+00 -0.22081856781E+01  0.22081856781E+01  0.00000000000E+00 0. -1.
          1    1    1    2  502    0  0.11783560011E+02  0.17367689874E+02  0.46278273307E+03  0.46325840193E+03  0.00000000000E+00 0.  1.
         -1    1    1    2    0  501 -0.11783560011E+02 -0.17367689874E+02  0.53919295258E+02  0.57859997746E+02  0.00000000000E+00 0. -1.
</event>
<event>
 4    1  0.6754235E+001  0.2485975E+02  0.7546771E-02  0.1470379E+00
          2   -1    0    0  502    0  0.00000000000E+00  0.00000000000E+00  0.13794679323E+03  0.13794679323E+03  0.00000000000E+00 0.  1.
         -2   -1    0    0    0  501 -0.00000000000E+00 -0.00000000000E+00 -0.54816086529E+01  0.54816086529E+01  0.00000000000E+00 0. -1.
          1    1    1    2  502    0  0.41172980992E+01 -0.24516420454E+02  0.96886915057E+02  0.10002540340E+03  0.00000000000E+00 0.  1.
         -1    1    1    2    0  501 -0.41172980992E+01  0.24516420454E+02  0.35578269522E+02  0.43402998488E+02  0.00000000000E+00 0. -1.
</event>
<event>
 4    1  0.6754235E+001  0.3254492E+02  0.7546771E-02  0.1398697E+00
          2   -1    0    0  502    0  0.00000000000E+00  0.00000000000E+00  0.12714314380E+02  0.12714314380E+02  0.00000000000E+00 0. -1.
         -2   -1    0    0    0  501 -0.00000000000E+00 -0.00000000000E+00 -0.21651300983E+03  0.21651300983E+03  0.00000000000E+00 0.  1.
          1    1    1    2  502    0  0.36493490133E+01 -0.32339668635E+02 -0.19179916247E+03  0.19454071718E+03  0.00000000000E+00 0.  1.
         -1    1    1    2    0  501 -0.36493490133E+01  0.32339668635E+02 -0.11999532978E+02  0.34686607031E+02  0.00000000000E+00 0. -1.
</event>
<event>
 4    1  0.6754235E+001  0.4084588E+02  0.7546771E-02  0.1343599E+00
          2   -1    0    0  502    0  0.00000000000E+00  0.00000000000E+00  0.22028491179E+04  0.22028491179E+04  0.00000000000E+00 0.  1.
         -2   -1    0    0    0  501 -0.00000000000E+00 -0.00000000000E+00 -0.16641322588E+01  0.16641322588E+01  0.00000000000E+00 0. -1.
          1    1    1    2  502    0 -0.24612510316E+02  0.32597706279E+02  0.19142356256E+04  0.19146713599E+04  0.00000000000E+00 0.  1.
         -1    1    1    2    0  501  0.24612510316E+02 -0.32597706279E+02  0.28694936005E+03  0.28984189026E+03  0.00000000000E+00 0. -1.
</event>
<event>
 4    1  0.6754235E+001  0.2188857E+02  0.7546771E-02  0.1506947E+00
          2   -1    0    0  502    0  0.00000000000E+00  0.00000000000E+00  0.71449849027E+03  0.71449849027E+03  0.00000000000E+00 0.  1.
         -2   -1    0    0    0  501 -0.00000000000E+00 -0.00000000000E+00 -0.13190570467E+01  0.13190570467E+01  0.00000000000E+00 0. -1.
          1    1    1    2  502    0 -0.21217509989E+02 -0.53783659381E+01  0.10563423143E+03  0.10787817388E+03  0.00000000000E+00 0. -1.
         -1    1    1    2    0  501  0.21217509989E+02  0.53783659381E+01  0.60754520179E+03  0.60793937344E+03  0.00000000000E+00 0.  1.
</event>
<event>
 4    1  0.6754235E+001  0.2167907E+02  0.7546771E-02  0.1509786E+00
          2   -1    0    0  502    0  0.00000000000E+00  0.00000000000E+00  0.65497768706E+03  0.65497768706E+03  0.00000000000E+00 0.  1.
         -2   -1    0    0    0  501 -0.00000000000E+00 -0.00000000000E+00 -0.97188878360E+00  0.97188878360E+00  0.00000000000E+00 0. -1.
          1    1    1    2  502    0  0.18146069584E+02  0.11861793692E+02  0.15922494936E+03  0.16069401510E+03  0.00000000000E+00 0. -1.
         -1    1    1    2    0  501 -0.18146069584E+02 -0.11861793692E+02  0.49478084891E+03  0.49525556074E+03  0.00000000000E+00 0.  1.
</event>
<event>
 4    1  0.6754235E+001  0.2079213E+02  0.7546771E-02  0.1522254E+00
          2   -1    0    0  502    0  0.00000000000E+00  0.00000000000E+00  0.17197334588E+02  0.17197334588E+02  0.00000000000E+00 0.  1.
         -2   -1    0    0    0  501 -0.00000000000E+00 -0.00000000000E+00 -0.33578862612E+02  0.33578862612E+02  0.00000000000E+00 0. -1.
          1    1    1    2  502    0 -0.18965942380E+02  0.85208863199E+01  0.45378702953E+01  0.21281558704E+02  0.00000000000E+00 0.  1.
         -1    1    1    2    0  501  0.18965942380E+02 -0.85208863199E+01 -0.20919398319E+02  0.29494638497E+02  0.00000000000E+00 0. -1.
</event>
<event>
 4    1  0.6754235E+001  0.2058639E+02  0.7546771E-02  0.1525253E+00
          2   -1    0    0  502    0  0.00000000000E+00  0.00000000000E+00  0.18675011772E+02  0.18675011772E+02  0.00000000000E+00 0. -1.
         -2   -1    0    0    0  501 -0.00000000000E+00 -0.00000000000E+00 -0.39391484875E+02  0.39391484875E+02  0.00000000000E+00 0.  1.
          1    1    1    2  502    0 -0.18175195649E+02 -0.96675638628E+01  0.85446345889E+01  0.22289241983E+02  0.00000000000E+00 0. -1.
         -1    1    1    2    0  501  0.18175195649E+02  0.96675638628E+01 -0.29261107692E+02  0.35777254664E+02  0.00000000000E+00 0.  1.
</event>
<event>
 4    1  0.6754235E+001  0.2203729E+02  0.7546771E-02  0.1504954E+00
          2   -1    0    0  502    0  0.00000000000E+00  0.00000000000E+00  0.72552517138E+03  0.72552517138E+03  0.00000000000E+00 0.  1.
         -2   -1    0    0    0  501 -0.00000000000E+00 -0.00000000000E+00 -0.68789103682E+00  0.68789103682E+00  0.00000000000E+00 0. -1.
          1    1    1    2  502    0 -0.21613824144E+02 -0.42994073113E+01  0.42200502846E+03  0.42258003543E+03  0.00000000000E+00 0.  1.
         -1    1    1    2    0  501  0.21613824144E+02  0.42994073113E+01  0.30283225188E+03  0.30363302699E+03  0.00000000000E+00 0. -1.
</event>
<event>
 4    1  0.6754235E+001  0.2326469E+02  0.7546771E-02  0.1489201E+00
          2   -1    0    0  502    0  0.00000000000E+00  0.00000000000E+00  0.16906117653E+03  0.16906117653E+03  0.00000000000E+00 0. -1.
         -2   -1    0    0    0  501 -0.00000000000E+00 -0.00000000000E+00 -0.54201085793E+01  0.54201085793E+01  0.00000000000E+00 0.  1.
          1    1    1    2  502    0 -0.88730347581E+01  0.21506162019E+02  0.13763635199E+03  0.13958872139E+03  0.00000000000E+00 0. -1.
         -1    1    1    2    0  501  0.88730347581E+01 -0.21506162019E+02  0.26004715960E+02  0.34892563717E+02  0.00000000000E+00 0.  1.
</event>
<event>
 4    1  0.6754235E+001  0.2837222E+02  0.7546771E-02  0.1434290E+00
          2   -1    0    0  502    0  0.00000000000E+00  0.00000000000E+00  0.11398546386E+03  0.11398546386E+03  0.00000000000E+00 0.  1.
         -2   -1    0    0    0  501 -0.00000000000E+00 -0.00000000000E+00 -0.80277041325E+01  0.80277041325E+01  0.00000000000E+00 0. -1.
          1    1    1    2  502    0  0.25838503359E+02 -0.11719829423E+02  0.74136602536E+02  0.79380214746E+02  0.00000000000E+00 0.  1.
         -1    1    1    2    0  501 -0.25838503359E+02  0.11719829423E+02  0.31821157190E+02  0.42632953245E+02  0.00000000000E+00 0. -1.
</event>
<event>
 4    1  0.6754235E+001  0.4348886E+02  0.7546771E-02  0.1329171E+00
          2   -1    0    0  502    0  0.00000000000E+00  0.00000000000E+00  0.12391797925E+04  0.12391797925E+04  0.00000000000E+00 0. -1.
         -2   -1    0    0    0  501 -0.00000000000E+00 -0.00000000000E+00 -0.16373324880E+01  0.16373324880E+01  0.00000000000E+00 0.  1.
          1    1    1    2  502    0  0.40065473021E+02 -0.16912689505E+02  0.78037775853E+03  0.78158859204E+03  0.00000000000E+00 0. -1.
         -1    1    1    2    0  501 -0.40065473021E+02  0.16912689505E+02  0.45716470146E+03  0.45922853293E+03  0.00000000000E+00 0.  1.
</event>
<event>
 4    1  0.6754235E+001  0.4237777E+02  0.7546771E-02  0.1335088E+00
          2   -1    0    0  502    0  0.00000000000E+00  0.00000000000E+00  0.49864470178E+01  0.49864470178E+01  0.00000000000E+00 0.  1.
         -2   -1    0    0    0  501 -0.00000000000E+00 -0.00000000000E+00 -0.52523700224E+03  0.52523700224E+03  0.00000000000E+00 0. -1.
          1    1    1    2  502    0  0.49138903491E+01 -0.42091915910E+02 -0.11149546772E+03  0.11927747074E+03  0.00000000000E+00 0.  1.
         -1    1    1    2    0  501 -0.49138903491E+01  0.42091915910E+02 -0.40875508750E+03  0.41094597852E+03  0.00000000000E+00 0. -1.
</event>
<event>
 4    1  0.6754235E+001  0.3932990E+02  0.7546771E-02  0.1352458E+00
          2   -1    0    0  502    0  0.00000000000E+00  0.00000000000E+00  0.48540948427E+03  0.48540948427E+03  0.00000000000E+00 0.  1.
         -2   -1    0    0    0  501 -0.00000000000E+00 -0.00000000000E+00 -0.36877492586E+02  0.36877492586E+02  0.00000000000E+00 0. -1.
          1    1    1    2  502    0 -0.56794179933E+01 -0.38917673554E+02 -0.25339589774E+02  0.46786065378E+02  0.00000000000E+00 0. -1.
         -1    1    1    2    0  501  0.56794179933E+01  0.38917673554E+02  0.47387158146E+03  0.47550091148E+03  0.00000000000E+00 0.  1.
</event>
<event>
 4    1  0.6754235E+001  0.3241547E+02  0.7546771E-02  0.1399704E+00
          2   -1    0    0  502    0  0.00000000000E+00  0.00000000000E+00  0.38728417223E+04  0.38728417223E+04  0.00000000000E+00 0.  1.
         -2   -1    0    0    0  501 -0.00000000000E+00 -0.00000000000E+00 -0.27722849642E+00  0.27722849642E+00  0.00000000000E+00 0. -1.
          1    1    1    2  502    0 -0.26777649600E+02  0.18268002489E+02  0.22191031442E+04  0.22193398854E+04  0.00000000000E+00 0.  1.
         -1    1    1    2    0  501  0.26777649600E+02 -0.18268002489E+02  0.16534613497E+04  0.16537790655E+04  0.00000000000E+00 0. -1.
</event>
<event>
 4    1  0.6754235E+001  0.3091690E+02  0.7546771E-02  0.1411792E+00
          2   -1    0    0  502    0  0.00000000000E+00  0.00000000000E+00  0.38278195059E+03  0.38278195059E+03  0.00000000000E+00 0. -1.
         -2   -1    0    0    0  501 -0.00000000000E+00 -0.00000000000E+00 -0.24973644545E+01  0.24973644545E+01  0.00000000000E+00 0.  1.
          1    1    1    2  502    0 -0.90281297528E+01  0.29569369132E+02  0.18825946432E+03  0.19078123761E+03  0.00000000000E+00 0. -1.
         -1    1    1    2    0  501  0.90281297528E+01 -0.29569369132E+02  0.19202512182E+03  0.19449807744E+03  0.00000000000E+00 0.  1.
</event>
<event>
 4    1  0.6754235E+001  0.6168466E+02  0.7546771E-02  0.1254214E+00
          2   -1    0    0  502    0  0.00000000000E+00  0.00000000000E+00  0.32202566535E+03  0.32202566535E+03  0.00000000000E+00 0.  1.
         -2   -1    0    0    0  501 -0.00000000000E+00 -0.00000000000E+00 -0.11993790726E+02  0.11993790726E+02  0.00000000000E+00 0. -1.
          1    1    1    2  502    0  0.59166335581E+02 -0.17445384839E+02  0.13467176552E+03  0.14812657137E+03  0.00000000000E+00 0. -1.
         -1    1    1    2    0  501 -0.59166335581E+02  0.17445384839E+02  0.17536010910E+03  0.18589288470E+03  0.00000000000E+00 0.  1.
</event>
<event>
 4    1  0.6754235E+001  0.4388300E+02  0.7546771E-02  0.1327120E+00
          2   -1    0    0  502    0  0.00000000000E+00  0.00000000000E+00  0.24195141344E+04  0.24195141344E+04  0.00000000000E+00 0.  1.
         -2   -1    0    0    0  501 -0.00000000000E+00 -0.00000000000E+00 -0.94234079376E+00  0.94234079376E+00  0.00000000000E+00 0. -1.
          1    1    1    2  502    0  0.11370693417E+02 -0.42384252263E+02  0.16863516703E+04  0.16869225452E+04  0.00000000000E+00 0.  1.
         -1    1    1    2    0  501 -0.11370693417E+02  0.42384252263E+02  0.73222012331E+03  0.73353393002E+03  0.00000000000E+00 0. -1.
</event>
<event>
 4    1  0.6754235E+001  0.2488303E+02  0.7546771E-02  0.1470116E+00
          2   -1    0    0  502    0  0.00000000000E+00  0.00000000000E+00  0.47418171327E+03  0.47418171327E+03  0.00000000000E+00 0.  1.
         -2   -1    0    0    0  501 -0.00000000000E+00 -0.00000000000E+00 -0.14517135916E+01  0.14517135916E+01  0.00000000000E+00 0. -1.
          1    1    1    2  502    0  0.23297121616E+02  0.87412533544E+01  0.16095725173E+03  0.16286927970E+03  0.00000000000E+00 0. -1.
         -1    1    1    2    0  501 -0.23297121616E+02 -0.87412533544E+01  0.31177274794E+03  0.31276414715E+03  0.00000000000E+00 0.  1.
</event>
<event>
 4    1  0.6754235E+001  0.3552695E+02  0.7546771E-02  0.1376896E+00
          2   -1    0    0  502    0  0.00000000000E+00  0.00000000000E+00  0.18475680215E+02  0.18475680215E+02  0.00000000000E+00 0. -1.
         -2   -1    0    0    0  501 -0.00000000000E+00 -0.00000000000E+00 -0.70940952304E+02  0.70940952304E+02  0.00000000000E+00 0.  1.
          1    1    1    2  502    0  0.50172193297E+01  0.35170887556E+02 -0.17630755731E+02  0.39661156929E+02  0.00000000000E+00 0. -1.
         -1    1    1    2    0  501 -0.50172193297E+01 -0.35170887556E+02 -0.34834516358E+02  0.49755475590E+02  0.00000000000E+00 0.  1.
</event>
<event>
 4    1  0.6754235E+001  0.3780172E+02  0.7546771E-02  0.1361872E+00
          2   -1    0    0  502    0  0.00000000000E+00  0.00000000000E+00  0.11384382673E+04  0.11384382673E+04  0.00000000000E+00 0. -1.
         -2   -1    0    0    0  501 -0.00000000000E+00 -0.00000000000E+00 -0.13613921808E+01  0.13613921808E+01  0.00000000000E+00 0.  1.
          1    1    1    2  502    0 -0.53880689212E+01  0.37415758429E+02  0.40937306635E+03  0.41111467709E+03  0.00000000000E+00 0. -1.
         -1    1    1    2    0  501  0.53880689212E+01 -0.37415758429E+02  0.72770380874E+03  0.72868498236E+03  0.00000000000E+00 0.  1.
</event>
<event>
 4    1  0.6754235E+001  0.2230096E+02  0.7546771E-02  0.1501468E+00
          2   -1    0    0  502    0  0.00000000000E+00  0.00000000000E+00  0.22796080102E+03  0.22796080102E+03  0.00000000000E+00 0. -1.
         -2   -1    0    0    0  501 -0.00000000000E+00 -0.00000000000E+00 -0.67055674028E+01  0.67055674028E+01  0.00000000000E+00 0.  1.
          1    1    1    2  502    0 -0.22115671155E+02  0.28687836107E+01  0.14253597495E+02  0.26466920327E+02  0.00000000000E+00 0.  1.
         -1    1    1    2    0  501  0.22115671155E+02 -0.28687836107E+01  0.20700163612E+03  0.20819944810E+03  0.00000000000E+00 0. -1.
</event>
<event>
 4    1  0.6754235E+001  0.2743923E+02  0.7546771E-02  0.1443245E+00
          2   -1    0    0  502    0  0.00000000000E+00  0.00000000000E+00  0.13416835937E+04  0.13416835937E+04  0.00000000000E+00 0. -1.
         -2   -1    0    0    0  501 -0.00000000000E+00 -0.00000000000E+00 -0.79746044196E+00  0.79746044196E+00  0.00000000000E+00 0.  1.
          1    1    1    2  502    0  0.25964253121E+02 -0.88751784981E+01  0.10358254432E+04  0.10361888149E+04  0.00000000000E+00 0. -1.
         -1    1    1    2    0  501 -0.25964253121E+02  0.88751784981E+01  0.30506069001E+03  0.30629223924E+03  0.00000000000E+00 0.  1.
</event>
<event>
 4    1  0.6754235E+001  0.2646893E+02  0.7546771E-02  0.1453017E+00
          2   -1    0    0  502    0  0.00000000000E+00  0.00000000000E+00  0.14459246505E+02  0.14459246505E+02  0.00000000000E+00 0.  1.
         -2   -1    0    0    0  501 -0.00000000000E+00 -0.00000000000E+00 -0.76996830851E+02  0.76996830851E+02  0.00000000000E+00 0. -1.
          1    1    1    2  502    0  0.19196440337E+02 -0.18223631862E+02 -0.34270179349E+01  0.26689858220E+02  0.00000000000E+00 0.  1.
         -1    1    1    2    0  501 -0.19196440337E+02  0.18223631862E+02 -0.59110566410E+02  0.64766219136E+02  0.00000000000E+00 0. -1.
</event>
<event>
 4    1  0.6754235E+001  0.2740561E+02  0.7546771E-02  0.1443576E+00
          2   -1    0    0  502    0  0.00000000000E+00  0.00000000000E+00  0.31206921173E+02  0.31206921173E+02  0.00000000000E+00 0. -1.
         -2   -1    0    0    0  501 -0.00000000000E+00 -0.00000000000E+00 -0.31596428946E+02  0.31596428946E+02  0.00000000000E+00 0.  1.
          1    1    1    2  502    0 -0.26824101408E+02 -0.56155895852E+01 -0.15523453858E+02  0.31496743997E+02  0.00000000000E+00 0.  1.
         -1    1    1    2    0  501  0.26824101408E+02  0.56155895852E+01  0.15133946085E+02  0.31306606122E+02  0.00000000000E+00 0. -1.
</event>
<event>
 4    1  0.6754235E+001  0.3383689E+02  0.7546771E-02  0.1388930E+00
          2   -1    0    0  502    0  0.00000000000E+00  0.00000000000E+00  0.13071102149E+04  0.13071102149E+04  0.00000000000E+00 0. -1.
         -2   -1    0    0    0  501 -0.00000000000E+00 -0.00000000000E+00 -0.91964748804E+00  0.91964748804E+00  0.00000000000E+00 0.  1.
          1    1    1    2  502    0  0.41354992759E+01 -0.33583225452E+02  0.51049811784E+03  0.51161827930E+03  0.00000000000E+00 0.  1.
         -1    1    1    2    0  501 -0.41354992759E+01  0.33583225452E+02  0.79569244958E+03  0.79641158310E+03  0.00000000000E+00 0. -1.
</event>
<event>
 4    1  0.6754235E+001  0.2167001E+02  0.7546771E-02  0.1509910E+00
          2   -1    0    0  502    0  0.00000000000E+00  0.00000000000E+00  0.65507896846E+03  0.65507896846E+03  0.00000000000E+00 0. -1.
         -2   -1    0    0    0  501 -0.00000000000E+00 -0.00000000000E+00 -0.88913048671E+00  0.88913048671E+00  0.00000000000E+00 0.  1.
          1    1    1    2  502    0  0.18836521801E+02  0.10713301535E+02  0.47147113871E+03  0.47196888035E+03  0.00000000000E+00 0. -1.
         -1    1    1    2    0  501 -0.18836521801E+02 -0.10713301535E+02  0.18271869926E+03  0.18399921859E+03  0.00000000000E+00 0.  1.
</event>
<event>
 4    1  0.6754235E+001  0.2032839E+02  0.7546771E-02  0.1529073E+00
          2   -1    0    0  502    0  0.00000000000E+00  0.00000000000E+00  0.84166937812E+01  0.84166937812E+01  0.00000000000E+00 0. -1.
         -2   -1    0    0    0  501 -0.00000000000E+00 -0.00000000000E+00 -0.68451667299E+02  0.68451667299E+02  0.00000000000E+00 0.  1.
          1    1    1    2  502    0  0.84213032360E+01 -0.18502034587E+02 -0.50453970705E+02  0.54395282810E+02  0.00000000000E+00 0. -1.
         -1    1    1    2    0  501 -0.84213032360E+01  0.18502034587E+02 -0.95810028120E+01  0.22473078270E+02  0.00000000000E+00 0.  1.
</event>
<event>
 4    1  0.6754235E+001  0.2651618E+02  0.7546771E-02  0.1452530E+00
          2   -1    0    0  502    0  0.00000000000E+00  0.00000000000E+00  0.18496681758E+04  0.18496681758E+04  0.00000000000E+00 0.  1.
         -2   -1    0    0    0  501 -0.00000000000E+00 -0.00000000000E+00 -0.61721127320E+00  0.61721127320E+00  0.00000000000E+00 0. -1.
          1    1    1    2  502    0  0.14259232176E+02  0.22355802528E+02  0.14979071039E+04  0.14981417822E+04  0.00000000000E+00 0.  1.
         -1    1    1    2    0  501 -0.14259232176E+02 -0.22355802528E+02  0.35114386058E+03  0.35214360484E+03  0.00000000000E+00 0. -1.
</event>
<event>
 4    1  0.6754235E+001  0.3464331E+02  0.7546771E-02  0.1383088E+00
          2   -1    0    0  502    0  0.00000000000E+00  0.00000000000E+00  0.97317105609E+02  0.97317105609E+02  0.00000000000E+00 0.  1.
         -2   -1    0    0    0  501 -0.00000000000E+00 -0.00000000000E+00 -0.12566649978E+02  0.12566649978E+02  0.00000000000E+00 0. -1.
          1    1    1    2  502    0 -0.13875706057E+02 -0.31743087018E+02  0.34874855040E+02  0.49157037198E+02  0.00000000000E+00 0. -1.
         -1    1    1    2    0  501  0.13875706057E+02  0.31743087018E+02  0.49875600592E+02  0.60726718390E+02  0.00000000000E+00 0.  1.
</event>
<event>
 4    1  0.6754235E+001  0.2677349E+02  0.7546771E-02  0.1449897E+00
          2   -1    0    0  502    0  0.00000000000E+00  0.00000000000E+00  0.11147540247E+02  0.11147540247E+02  0.00000000000E+00 0.  1.
         -2   -1    0    0    0  501 -0.00000000000E+00 -0.00000000000E+00 -0.68337986400E+02  0.68337986400E+02  0.00000000000E+00 0. -1.
          1    1    1    2  502    0  0.61420230102E+01 -0.26059455916E+02 -0.38252415016E+02  0.46691187004E+02  0.00000000000E+00 0. -1.
         -1    1    1    2    0  501 -0.61420230102E+01  0.26059455916E+02 -0.18938031137E+02  0.32794339643E+02  0.00000000000E+00 0.  1.
</event>
<event>
 4    1  0.6754235E+001  0.2669044E+02  0.7546771E-02  0.1450743E+00
          2   -1    0    0  502    0  0.00000000000E+00  0.00000000000E+00  0.19799475880E+02  0.19799475880E+02  0.00000000000E+00 0. -1.
         -2   -1    0    0    0  501 -0.00000000000E+00 -0.00000000000E+00 -0.39500264084E+02  0.39500264084E+02  0.00000000000E+00 0.  1.
          1    1    1    2  502    0 -0.15997513980E+02  0.21364906195E+02 -0.18702109928E+02  0.32590621136E+02  0.00000000000E+00 0.  1.
         -1    1    1    2    0  501  0.15997513980E+02 -0.21364906195E+02 -0.99867827492E+00  0.26709118828E+02  0.00000000000E+00 0. -1.
</event>
<event>
 4    1  0.6754235E+001  0.2425215E+02  0.7546771E-02  0.1477346E+00
          2   -1    0    0  502    0  0.00000000000E+00  0.00000000000E+00  0.28175022217E+02  0.28175022217E+02  0.00000000000E+00 0. -1.
         -2   -1    0    0    0  501 -0.00000000000E+00 -0.00000000000E+00 -0.22928409747E+02  0.22928409747E+02  0.00000000000E+00 0.  1.
          1    1    1    2  502    0 -0.23581628219E+02  0.56633499384E+01 -0.50224705589E+01  0.24766750544E+02  0.00000000000E+00 0.  1.
         -1    1    1    2    0  501  0.23581628219E+02 -0.56633499384E+01  0.10269083029E+02  0.26336681421E+02  0.00000000000E+00 0. -1.
</event>
<event>
 4    1  0.6754235E+001  0.2338202E+02  0.7546771E-02  0.1487756E+00
          2   -1    0    0  502    0  0.00000000000E+00  0.00000000000E+00  0.35146115576E+03  0.35146115576E+03  0.00000000000E+00 0. -1.
         -2   -1    0    0    0  501 -0.00000000000E+00 -0.00000000000E+00 -0.15598454040E+01  0.15598454040E+01  0.00000000000E+00 0.  1.
          1    1    1    2  502    0  0.12032958657E+02  0.20048110518E+02  0.18420270712E+03  0.18568079099E+03  0.00000000000E+00 0.  1.
         -1    1    1    2    0  501 -0.12032958657E+02 -0.20048110518E+02  0.16569860323E+03  0.16734021018E+03  0.00000000000E+00 0. -1.
</event>
<event>
 4    1  0.6754235E+001  0.2991266E+02  0.7546771E-02  0.1420357E+00
          2   -1    0    0  502    0  0.00000000000E+00  0.00000000000E+00  0.84728936635E+00  0.84728936635E+00  0.00000000000E+00 0. -1.
         -2   -1    0    0    0  501 -0.00000000000E+00 -0.00000000000E+00 -0.10883167277E+04  0.10883167277E+04  0.00000000000E+00 0.  1.
          1    1    1    2  502    0 -0.39865255724E+01  0.29645825946E+02 -0.44994337018E+03  0.45093658507E+03  0.00000000000E+00 0. -1.
         -1    1    1    2    0  501  0.39865255724E+01 -0.29645825946E+02 -0.63752606814E+03  0.63822743199E+03  0.00000000000E+00 0.  1.
</event>
<event>
 4    1  0.6754235E+001  0.4547166E+02  0.7546771E-02  0.1319098E+00
          2   -1    0    0  502    0  0.00000000000E+00  0.00000000000E+00  0.32370665718E+03  0.32370665718E+03  0.00000000000E+00 0. -1.
         -2   -1    0    0    0  501 -0.00000000000E+00 -0.00000000000E+00 -0.15970625260E+02  0.15970625260E+02  0.00000000000E+00 0.  1.
          1    1    1    2  502    0  0.32434874114E+01  0.45355835057E+02  0.28542970168E+03  0.28902904108E+03  0.00000000000E+00 0. -1.
         -1    1    1    2    0  501 -0.32434874114E+01 -0.45355835057E+02  0.22306330238E+02  0.50648241362E+02  0.00000000000E+00 0.  1.
</event>
<event>
 4    1  0.6754235E+001  0.3238332E+02  0.7546771E-02  0.1399956E+00
          2   -1    0    0  502    0  0.00000000000E+00  0.00000000000E+00  0.10505884189E+03  0.10505884189E+03  0.00000000000E+00 0.  1.
         -2   -1    0    0    0  501 -0.00000000000E+00 -0.00000000000E+00 -0.10771403106E+02  0.10771403106E+02  0.00000000000E+00 0. -1.
          1    1    1    2  502    0 -0.32300446218E+02 -0.23152521735E+01  0.62823960980E+02  0.70679058368E+02  0.00000000000E+00 0.  1.
         -1    1    1    2    0  501  0.32300446218E+02  0.23152521735E+01  0.31463477808E+02  0.45151186632E+02  0.00000000000E+00 0. -1.
</event>
<event>
 4    1  0.6754235E+001  0.2414373E+02  0.7546771E-02  0.1478615E+00
          2   -1    0    0  502    0  0.00000000000E+00  0.00000000000E+00  0.13937364560E+03  0.13937364560E+03  0.00000000000E+00 0. -1.
         -2   -1    0    0    0  501 -0.00000000000E+00 -0.00000000000E+00 -0.42295279282E+01  0.42295279282E+01  0.00000000000E+00 0.  1.
          1    1    1    2  502    0  0.13073650460E+02 -0.20297765975E+02  0.59994697599E+02  0.64670575843E+02  0.00000000000E+00 0. -1.
         -1    1    1    2    0  501 -0.13073650460E+02  0.20297765975E+02  0.75149420072E+02  0.78932597684E+02  0.00000000000E+00 0.  1.
</event>
<event>
 4    1  0.6754235E+001  0.3582792E+02  0.7546771E-02  0.1374834E+00
          2   -1    0    0  502    0  0.00000000000E+00  0.00000000000E+00  0.12118278296E+04  0.12118278296E+04  0.00000000000E+00 0. -1.
         -2   -1    0    0    0  501 -0.00000000000E+00 -0.00000000000E+00 -0.14567127020E+01  0.14567127020E+01  0.00000000000E+00 0.  1.
          1    1    1    2  502    0 -0.34021923313E+02  0.11231577720E+02  0.28830984285E+03  0.29052746013E+03  0.00000000000E+00 0.  1.
         -1    1    1    2    0  501  0.34021923313E+02 -0.11231577720E+02  0.92206127400E+03  0.92275708213E+03  0.00000000000E+00 0. -1.
</event>
<event>
 4    1  0.6754235E+001  0.5217529E+02  0.7546771E-02  0.1289007E+00
          2   -1    0    0  502    0  0.00000000000E+00  0.00000000000E+00  0.18111187553E+03  0.18111187553E+03  0.00000000000E+00 0. -1.
         -2   -1    0    0    0  501 -0.00000000000E+00 -0.00000000000E+00 -0.21644156855E+02  0.21644156855E+02  0.00000000000E+00 0.  1.
          1    1    1    2  502    0 -0.27208910233E+02  0.44518938389E+02  0.23695726952E+02  0.57303997654E+02  0.00000000000E+00 0.  1.
         -1    1    1    2    0  501  0.27208910233E+02 -0.44518938389E+02  0.13577199173E+03  0.14545203474E+03  0.00000000000E+00 0. -1.
</event>
<event>
 4    1  0.6754235E+001  0.5302158E+02  0.7546771E-02  0.1285578E+00
          2   -1    0    0  502    0  0.00000000000E+00  0.00000000000E+00  0.23751066229E+03  0.23751066229E+03  0.00000000000E+00 0. -1.
         -2   -1    0    0    0  501 -0.00000000000E+00 -0.00000000000E+00 -0.22531253611E+02  0.22531253611E+02  0.00000000000E+00 0.  1.
          1    1    1    2  502    0  0.40423182525E+02  0.34311138996E+02  0.19706880015E+03  0.20407694612E+03  0.00000000000E+00 0. -1.
         -1    1    1    2    0  501 -0.40423182525E+02 -0.34311138996E+02  0.17910608527E+02  0.55964969780E+02  0.00000000000E+00 0.  1.
</event>
<event>
 4    1  0.6754235E+001  0.2599528E+02  0.7546771E-02  0.1457970E+00
          2   -1    0    0  502    0  0.00000000000E+00  0.00000000000E+00  0.86792454603E+03  0.86792454603E+03  0.00000000000E+00 0.  1.
         -2   -1    0    0    0  501 -0.00000000000E+00 -0.00000000000E+00 -0.82415752624E+00  0.82415752624E+00  0.00000000000E+00 0. -1.
          1    1    1    2  502    0  0.22991383086E+02  0.12130573475E+02  0.33140862968E+03  0.33242658488E+03  0.00000000000E+00 0. -1.
         -1    1    1    2    0  501 -0.22991383086E+02 -0.12130573475E+02  0.53569175883E+03  0.53632211868E+03  0.00000000000E+00 0.  1.
</event>
<event>
 4    1  0.6754235E+001  0.6133465E+02  0.7546771E-02  0.1255364E+00
          2   -1    0    0  502    0  0.00000000000E+00  0.00000000000E+00  0.43341650995E+02  0.43341650995E+02  0.00000000000E+00 0. -1.
         -2   -1    0    0    0  501 -0.00000000000E+00 -0.00000000000E+00 -0.87701963816E+02  0.87701963816E+02  0.00000000000E+00 0.  1.
          1    1    1    2  502    0 -0.61325596276E+02  0.10537902591E+01 -0.15525593020E+02  0.63269133637E+02  0.00000000000E+00 0. -1.
         -1    1    1    2    0  501  0.61325596276E+02 -0.10537902591E+01 -0.28834719800E+02  0.67774481174E+02  0.00000000000E+00 0.  1.
</event>
<event>
 4    1  0.6754235E+001  0.2014964E+02  0.7546771E-02  0.1531760E+00
          2   -1    0    0  502    0  0.00000000000E+00  0.00000000000E+00  0.77281902650E+03  0.77281902650E+03  0.00000000000E+00 0. -1.
         -2   -1    0    0    0  501 -0.00000000000E+00 -0.00000000000E+00 -0.70426948451E+00  0.70426948451E+00  0.00000000000E+00 0.  1.
          1    1    1    2  502    0  0.19475038046E+02  0.51701905442E+01  0.58099290913E+03  0.58134221284E+03  0.00000000000E+00 0. -1.
         -1    1    1    2    0  501 -0.19475038046E+02 -0.51701905442E+01  0.19112184788E+03  0.19218108314E+03  0.00000000000E+00 0.  1.
</event>
<event>
 4    1  0.6754235E+001  0.2149781E+02  0.7546771E-02  0.1512275E+00
          2   -1    0    0  502    0  0.00000000000E+00  0.00000000000E+00  0.78857386921E+03  0.78857386921E+03  0.00000000000E+00 0. -1.
         -2   -1    0    0    0  501 -0.00000000000E+00 -0.00000000000E+00 -0.58956364016E+00  0.58956364016E+00  0.00000000000E+00 0.  1.
          1    1    1    2  502    0 -0.11060953962E+02 -0.18433968449E+02  0.36359774752E+03  0.36423272491E+03  0.00000000000E+00 0.  1.
         -1    1    1    2    0  501  0.11060953962E+02  0.18433968449E+02  0.42438655806E+03  0.42493070795E+03  0.00000000000E+00 0. -1.
</event>
<event>
 4    1  0.6754235E+001  0.3388019E+02  0.7546771E-02  0.1388611E+00
          2   -1    0    0  502    0  0.00000000000E+00  0.00000000000E+00  0.93616520848E+03  0.93616520848E+03  0.00000000000E+00 0. -1.
         -2   -1    0    0    0  501 -0.00000000000E+00 -0.00000000000E+00 -0.12269225905E+01  0.12269225905E+01  0.00000000000E+00 0.  1.
          1    1    1    2  502    0  0.33880187148E+02 -0.10855858088E-01  0.47932582198E+03  0.48052170692E+03  0.00000000000E+00 0.  1.
         -1    1    1    2    0  501 -0.33880187148E+02  0.10855858088E-01  0.45561246390E+03  0.45687042415E+03  0.00000000000E+00 0. -1.
</event>
<event>
 4    1  0.6754235E+001  0.2191673E+02  0.7546771E-02  0.1506568E+00
          2   -1    0    0  502    0  0.00000000000E+00  0.00000000000E+00  0.19759608034E+04  0.19759608034E+04  0.00000000000E+00 0.  1.
         -2   -1    0    0    0  501 -0.00000000000E+00 -0.00000000000E+00 -0.27010650100E+00  0.27010650100E+00  0.00000000000E+00 0. -1.
          1    1    1    2  502    0  0.12319473552E+02 -0.18126602582E+02  0.13003287169E+04  0.13005134044E+04  0.00000000000E+00 0.  1.
         -1    1    1    2    0  501 -0.12319473552E+02  0.18126602582E+02  0.67536198005E+03  0.67571750551E+03  0.00000000000E+00 0. -1.
</event>
<event>
 4    1  0.6754235E+001  0.3577755E+02  0.7546771E-02  0.1375178E+00
          2   -1    0    0  502    0  0.00000000000E+00  0.00000000000E+00  0.70712862464E+03  0.70712862464E+03  0.00000000000E+00 0. -1.
         -2   -1    0    0    0  501 -0.00000000000E+00 -0.00000000000E+00 -0.18114551896E+01  0.18114551896E+01  0.00000000000E+00 0.  1.
          1    1    1    2  502    0 -0.35618443250E+02 -0.33703730108E+01  0.36204874372E+03  0.36381221220E+03  0.00000000000E+00 0. -1.
         -1    1    1    2    0  501  0.35618443250E+02  0.33703730108E+01  0.34326842573E+03  0.34512786763E+03  0.00000000000E+00 0.  1.
</event>
<event>
 4    1  0.6754235E+001  0.3684777E+02  0.7546771E-02  0.1368018E+00
          2   -1    0    0  502    0  0.00000000000E+00  0.00000000000E+00  0.51657473067E+02  0.51657473067E+02  0.00000000000E+00 0.  1.
         -2   -1    0    0    0  501 -0.00000000000E+00 -0.00000000000E+00 -0.30746300910E+02  0.30746300910E+02  0.00000000000E+00 0. -1.
          1    1    1    2  502    0  0.90008189780E+01  0.35731546761E+02 -0.52410484087E+01  0.37218634643E+02  0.00000000000E+00 0. -1.
         -1    1    1    2    0  501 -0.90008189780E+01 -0.35731546761E+02  0.26152220566E+02  0.45185139335E+02  0.00000000000E+00 0.  1.
</event>
<event>
 4    1  0.6754235E+001  0.2407226E+02  0.7546771E-02  0.1479455E+00
          2   -1    0    0  502    0  0.00000000000E+00  0.00000000000E+00  0.18752429501E+03  0.18752429501E+03  0.00000000000E+00 0.  1.
         -2   -1    0    0    0  501 -0.00000000000E+00 -0.00000000000E+00 -0.75750794238E+01  0.75750794238E+01  0.00000000000E+00 0. -1.
          1    1    1    2  502    0 -0.97728970323E+01 -0.21999187166E+02  0.16503507112E+03  0.16678143917E+03  0.00000000000E+00 0.  1.
         -1    1    1    2    0  501  0.97728970323E+01  0.21999187166E+02  0.14914144466E+02  0.28317935263E+02  0.00000000000E+00 0. -1.
</event>
<event>
 4    1  0.6754235E+001  0.2442736E+02  0.7546771E-02  0.1475312E+00
          2   -1    0    0  502    0  0.00000000000E+00  0.00000000000E+00  0.55811728596E+03  0.55811728596E+03  0.00000000000E+00 0.  1.
         -2   -1    0    0    0  501 -0.00000000000E+00 -0.00000000000E+00 -0.14827296919E+01  0.14827296919E+01  0.00000000000E+00 0. -1.
          1    1    1    2  502    0  0.16733548174E+02 -0.17795626300E+02  0.13053900711E+03  0.13280485054E+03  0.00000000000E+00 0. -1.
         -1    1    1    2    0  501 -0.16733548174E+02  0.17795626300E+02  0.42609554916E+03  0.42679516511E+03  0.00000000000E+00 0.  1.
</event>
<event>
 4    1  0.6754235E+001  0.3010042E+02  0.7546771E-02  0.1418726E+00
          2   -1    0    0  502    0  0.00000000000E+00  0.00000000000E+00  0.19444567770E+04  0.19444567770E+04  0.00000000000E+00 0. -1.
         -2   -1    0    0    0  501 -0.00000000000E+00 -0.00000000000E+00 -0.47718272358E+00  0.47718272358E+00  0.00000000000E+00 0.  1.
          1    1    1    2  502    0  0.28531849562E+02  0.95900491043E+01  0.11211378015E+04  0.11215417983E+04  0.00000000000E+00 0. -1.
         -1    1    1    2    0  501 -0.28531849562E+02 -0.95900491043E+01  0.82284179284E+03  0.82339216144E+03  0.00000000000E+00 0.  1.
</event>
<event>
 4    1  0.6754235E+001  0.2055293E+02  0.7546771E-02  0.1525744E+00
          2   -1    0    0  502    0  0.00000000000E+00  0.00000000000E+00  0.51047750192E+03  0.51047750192E+03  0.00000000000E+00 0.  1.
         -2   -1    0    0    0  501 -0.00000000000E+00 -0.00000000000E+00 -0.19194772151E+01  0.19194772151E+01  0.00000000000E+00 0. -1.
          1    1    1    2  502    0 -0.17905543739E+02  0.10090321690E+02  0.61041818851E+02  0.64409057881E+02  0.00000000000E+00 0. -1.
         -1    1    1    2    0  501  0.17905543739E+02 -0.10090321690E+02  0.44751620585E+03  0.44798792125E+03  0.00000000000E+00 0.  1.
</event>
<event>
 4    1  0.6754235E+001  0.3651092E+02  0.7546771E-02  0.1370241E+00
          2   -1    0    0  502    0  0.00000000000E+00  0.00000000000E+00  0.25278247498E+04  0.25278247498E+04  0.00000000000E+00 0.  1.
         -2   -1    0    0    0  501 -0.00000000000E+00 -0.00000000000E+00 -0.58010855887E+00  0.58010855887E+00  0.00000000000E+00 0. -1.
          1    1    1    2  502    0 -0.32196902321E+02  0.17216465705E+02  0.16448727603E+04  0.16452779233E+04  0.00000000000E+00 0. -1.
         -1    1    1    2    0  501  0.32196902321E+02 -0.17216465705E+02  0.88237188092E+03  0.88312693507E+03  0.00000000000E+00 0.  1.
</event>
<event>
 4    1  0.6754235E+001  0.3095578E+02  0.7546771E-02  0.1411468E+00
          2   -1    0    0  502    0  0.00000000000E+00  0.00000000000E+00  0.17072288011E+04  0.17072288011E+04  0.00000000000E+00 0.  1.
         -2   -1    0    0    0  501 -0.00000000000E+00 -0.00000000000E+00 -0.66815144691E+00  0.66815144691E+00  0.00000000000E+00 0. -1.
          1    1    1    2  502    0  0.15225322818E+02 -0.26952738463E+02  0.11947818915E+04  0.11951828433E+04  0.00000000000E+00 0.  1.
         -1    1    1    2    0  501 -0.15225322818E+02  0.26952738463E+02  0.51177875807E+03  0.51271410921E+03  0.00000000000E+00 0. -1.
</event>
<event>
 4    1  0.6754235E+001  0.9837236E+02  0.7546771E-02  0.1166659E+00
          2   -1    0    0  502    0  0.00000000000E+00  0.00000000000E+00  0.13318777407E+04  0.13318777407E+04  0.00000000000E+00 0. -1.
         -2   -1    0    0    0  501 -0.00000000000E+00 -0.00000000000E+00 -0.75362270624E+01  0.75362270624E+01  0.00000000000E+00 0.  1.
          1    1    1    2  502    0  0.30612364702E+02  0.93487993893E+02  0.53530212244E+03  0.54426600497E+03  0.00000000000E+00 0.  1.
         -1    1    1    2    0  501 -0.30612364702E+02 -0.93487993893E+02  0.78903939119E+03  0.79514796279E+03  0.00000000000E+00 0. -1.
</event>
<event>
 4    1  0.6754235E+001  0.2281457E+02  0.7546771E-02  0.1494840E+00
          2   -1    0    0  502    0  0.00000000000E+00  0.00000000000E+00  0.65575411501E+02  0.65575411501E+02  0.00000000000E+00 0. -1.
         -2   -1    0    0    0  501 -0.00000000000E+00 -0.00000000000E+00 -0.83348226234E+01  0.83348226234E+01  0.00000000000E+00 0.  1.
          1    1    1    2  502    0 -0.22811711750E+02 -0.36135424022E+00  0.36688901010E+02  0.43203937635E+02  0.00000000000E+00 0.  1.
         -1    1    1    2    0  501  0.22811711750E+02  0.36135424022E+00  0.20551687868E+02  0.30706296490E+02  0.00000000000E+00 0. -1.
</event>
<event>
 4    1  0.6754235E+001  0.2351724E+02  0.7546771E-02  0.1486103E+00
          2   -1    0    0  502    0  0.00000000000E+00  0.00000000000E+00  0.75190913472E+02  0.75190913472E+02  0.00000000000E+00 0. -1.
         -2   -1    0    0    0  501 -0.00000000000E+00 -0.00000000000E+00 -0.74063609254E+01  0.74063609254E+01  0.00000000000E+00 0.  1.
          1    1    1    2  502    0 -0.23022173163E+02  0.48000338754E+01  0.30467242986E+02  0.38487838047E+02  0.00000000000E+00 0.  1.
         -1    1    1    2    0  501  0.23022173163E+02 -0.48000338754E+01  0.37317309561E+02  0.44109436351E+02  0.00000000000E+00 0. -1.
</event>
<event>
 4    1  0.6754235E+001  0.2403604E+02  0.7546771E-02  0.1479883E+00
          2   -1    0    0  502    0  0.00000000000E+00  0.00000000000E+00  0.18524503358E+03  0.18524503358E+03  0.00000000000E+00 0. -1.
         -2   -1    0    0    0  501 -0.00000000000E+00 -0.00000000000E+00 -0.33274814319E+01  0.33274814319E+01  0.00000000000E+00 0.  1.
          1    1    1    2  502    0  0.38359974146E+01  0.23727968925E+02  0.11457406596E+03  0.11706813391E+03  0.00000000000E+00 0. -1.
         -1    1    1    2    0  501 -0.38359974146E+01 -0.23727968925E+02  0.67343486192E+02  0.71504381111E+02  0.00000000000E+00 0.  1.
</event>
<event>
 4    1  0.6754235E+001  0.2220958E+02  0.7546771E-02  0.1502669E+00
          2   -1    0    0  502    0  0.00000000000E+00  0.00000000000E+00  0.30592114551E+02  0.30592114551E+02  0.00000000000E+00 0. -1.
         -2   -1    0    0    0  501 -0.00000000000E+00 -0.00000000000E+00 -0.18312396206E+02  0.18312396206E+02  0.00000000000E+00 0.  1.
          1    1    1    2  502    0 -0.22207419660E+02 -0.30955373922E+00 -0.23132332100E+01  0.22329719196E+02  0.00000000000E+00 0.  1.
         -1    1    1    2    0  501  0.22207419660E+02  0.30955373922E+00  0.14592951555E+02  0.26574791562E+02  0.00000000000E+00 0. -1.
</event>
<event>
 4    1  0.6754235E+001  0.2086759E+02  0.7546771E-02  0.1521164E+00
          2   -1    0    0  502    0  0.00000000000E+00  0.00000000000E+00  0.14754042950E+04  0.14754042950E+04  0.00000000000E+00 0.  1.
         -2   -1    0    0    0  501 -0.00000000000E+00 -0.00000000000E+00 -0.31798916897E+00  0.31798916897E+00  0.00000000000E+00 0. -1.
          1    1    1    2  502    0 -0.19225692996E+02  0.81135209058E+01  0.53977008003E+03  0.54017330162E+03  0.00000000000E+00 0. -1.
         -1    1    1    2    0  501  0.19225692996E+02 -0.81135209058E+01  0.93531622578E+03  0.93554898253E+03  0.00000000000E+00 0.  1.
</event>
<event>
 4    1  0.6754235E+001  0.2232130E+02  0.7546771E-02  0.1501201E+00
          2   -1    0    0  502    0  0.00000000000E+00  0.00000000000E+00  0.11467419321E+04  0.11467419321E+04  0.00000000000E+00 0. -1.
         -2   -1    0    0    0  501 -0.00000000000E+00 -0.00000000000E+00 -0.59903429922E+00  0.59903429922E+00  0.00000000000E+00 0.  1.
          1    1    1    2  502    0  0.13991341054E+02  0.17392028641E+02  0.87373919796E+03  0.87402427102E+03  0.00000000000E+00 0. -1.
         -1    1    1    2    0  501 -0.13991341054E+02 -0.17392028641E+02  0.27240369987E+03  0.27331669540E+03  0.00000000000E+00 0.  1.
</event>
<event>
 4    1  0.6754235E+001  0.2496101E+02  0.7546771E-02  0.1469240E+00
          2   -1    0    0  502    0  0.00000000000E+00  0.00000000000E+00  0.11526080153E+04  0.11526080153E+04  0.00000000000E+00 0. -1.
         -2   -1    0    0    0  501 -0.00000000000E+00 -0.00000000000E+00 -0.54102838636E+00  0.54102838636E+00  0.00000000000E+00 0.  1.
          1    1    1    2  502    0  0.70597527213E+01  0.23941846648E+02  0.59302429844E+03  0.59354938351E+03  0.00000000000E+00 0. -1.
         -1    1    1    2    0  501 -0.70597527213E+01 -0.23941846648E+02  0.55904268848E+03  0.55959966017E+03  0.00000000000E+00 0.  1.
</event>
<event>
 4    1  0.6754235E+001  0.2292873E+02  0.7546771E-02  0.1493395E+00
          2   -1    0    0  502    0  0.00000000000E+00  0.00000000000E+00  0.43545870812E+01  0.43545870812E+01  0.00000000000E+00 0.  1.
         -2   -1    0    0    0  501 -0.00000000000E+00 -0.00000000000E+00 -0.12082045499E+03  0.12082045499E+03  0.00000000000E+00 0. -1.
          1    1    1    2  502    0 -0.17096839615E+02  0.15278236965E+02 -0.59951628087E+02  0.64186635368E+02  0.00000000000E+00 0.  1.
         -1    1    1    2    0  501  0.17096839615E+02 -0.15278236965E+02 -0.56514239825E+02  0.60988406706E+02  0.00000000000E+00 0. -1.
</event>
<event>
 4    1  0.6754235E+001  0.2637321E+02  0.7546771E-02  0.1454008E+00
          2   -1    0    0  502    0  0.00000000000E+00  0.00000000000E+00  0.22380036513E+04  0.22380036513E+04  0.00000000000E+00 0. -1.
         -2   -1    0    0    0  501 -0.00000000000E+00 -0.00000000000E+00 -0.31134568418E+00  0.31134568418E+00  0.00000000000E+00 0.  1.
          1    1    1    2  502    0 -0.24483065083E+02  0.98043663038E+01  0.11661853607E+04  0.11664835368E+04  0.00000000000E+00 0. -1.
         -1    1    1    2    0  501  0.24483065083E+02 -0.98043663038E+01  0.10715069450E+04  0.10718314603E+04  0.00000000000E+00 0.  1.
</event>
<event>
 4    1  0.6754235E+001  0.2594463E+02  0.7546771E-02  0.1458507E+00
          2   -1    0    0  502    0  0.00000000000E+00  0.00000000000E+00  0.48428930366E+03  0.48428930366E+03  0.00000000000E+00 0.  1.
         -2   -1    0    0    0  501 -0.00000000000E+00 -0.00000000000E+00 -0.14491093732E+01  0.14491093732E+01  0.00000000000E+00 0. -1.
          1    1    1    2  502    0  0.21889081720E+02  0.13928101907E+02  0.29050407018E+03  0.29166031391E+03  0.00000000000E+00 0.  1.
         -1    1    1    2    0  501 -0.21889081720E+02 -0.13928101907E+02  0.19233612411E+03  0.19407809912E+03  0.00000000000E+00 0. -1.
</event>
<event>
 4    1  0.6754235E+001  0.5170012E+02  0.7546771E-02  0.1290965E+00
          2   -1    0    0  502    0  0.00000000000E+00  0.00000000000E+00  0.35962263968E+03  0.35962263968E+03  0.00000000000E+00 0.  1.
         -2   -1    0    0    0  501 -0.00000000000E+00 -0.00000000000E+00 -0.94995846298E+01  0.94995846298E+01  0.00000000000E+00 0. -1.
          1    1    1    2  502    0 -0.36066498941E+02  0.37042008918E+02  0.88969124879E+02  0.10289999005E+03  0.00000000000E+00 0. -1.
         -1    1    1    2    0  501  0.36066498941E+02 -0.37042008918E+02  0.26115393017E+03  0.26622223426E+03  0.00000000000E+00 0.  1.
</event>
<event>
 4    1  0.6754235E+001  0.2345896E+02  0.7546771E-02  0.1486814E+00
          2   -1    0    0  502    0  0.00000000000E+00  0.00000000000E+00  0.39797825301E+03  0.39797825301E+03  0.00000000000E+00 0.  1.
         -2   -1    0    0    0  501 -0.00000000000E+00 -0.00000000000E+00 -0.42891690696E+01  0.42891690696E+01  0.00000000000E+00 0. -1.
          1    1    1    2  502    0  0.17032348467E+02  0.16131399595E+02  0.36241159727E+03  0.36317005491E+03  0.00000000000E+00 0.  1.
         -1    1    1    2    0  501 -0.17032348467E+02 -0.16131399595E+02  0.31277486669E+02  0.39097367169E+02  0.00000000000E+00 0. -1.
</event>
<event>
 4    1  0.6754235E+001  0.2008677E+02  0.7546771E-02  0.1532713E+00
          2   -1    0    0  502    0  0.00000000000E+00  0.00000000000E+00  0.15096474161E+04  0.15096474161E+04  0.00000000000E+00 0.  1.
         -2   -1    0    0    0  501 -0.00000000000E+00 -0.00000000000E+00 -0.35240509497E+00  0.35240509497E+00  0.00000000000E+00 0. -1.
          1    1    1    2  502    0 -0.14448845636E+02 -0.13953817770E+02  0.11257458938E+04  0.11259250844E+04  0.00000000000E+00 0.  1.
         -1    1    1    2    0  501  0.14448845636E+02  0.13953817770E+02  0.38354911725E+03  0.38407473688E+03  0.00000000000E+00 0. -1.
</event>
<event>
 4    1  0.6754235E+001  0.2120816E+02  0.7546771E-02  0.1516314E+00
          2   -1    0    0  502    0  0.00000000000E+00  0.00000000000E+00  0.48774432409E+03  0.48774432409E+03  0.00000000000E+00 0. -1.
         -2   -1    0    0    0  501 -0.00000000000E+00 -0.00000000000E+00 -0.11861947394E+01  0.11861947394E+01  0.00000000000E+00 0.  1.
          1    1    1    2  502    0  0.71370371235E+01  0.19971195760E+02  0.35861291343E+03  0.35923948508E+03  0.00000000000E+00 0. -1.
         -1    1    1    2    0  501 -0.71370371235E+01 -0.19971195760E+02  0.12794521592E+03  0.12969103375E+03  0.00000000000E+00 0.  1.
</event>
<event>
 4    1  0.6754235E+001  0.3032864E+02  0.7546771E-02  0.1416762E+00
          2   -1    0    0  502    0  0.00000000000E+00  0.00000000000E+00  0.25906185937E+03  0.25906185937E+03  0.00000000000E+00 0. -1.
         -2   -1    0    0    0  501 -0.00000000000E+00 -0.00000000000E+00 -0.38880491868E+01  0.38880491868E+01  0.00000000000E+00 0.  1.
          1    1    1    2  502    0 -0.30328017410E+02  0.19388942450E+00  0.16631965906E+03  0.16906228208E+03  0.00000000000E+00 0. -1.
         -1    1    1    2    0  501  0.30328017410E+02 -0.19388942450E+00  0.88854151127E+02  0.93887626478E+02  0.00000000000E+00 0.  1.
</event>
<event>
 4    1  0.6754235E+001  0.4720968E+02  0.7546771E-02  0.1310746E+00
          2   -1    0    0  502    0  0.00000000000E+00  0.00000000000E+00  0.39317756234E+02  0.39317756234E+02  0.00000000000E+00 0. -1.
         -2   -1    0    0    0  501 -0.00000000000E+00 -0.00000000000E+00 -0.59494189286E+02  0.59494189286E+02  0.00000000000E+00 0.  1.
          1    1    1    2  502    0 -0.24762431064E+02 -0.40194221404E+02 -0.20822689918E+02  0.51597847260E+02  0.00000000000E+00 0.  1.
         -1    1    1    2    0  501  0.24762431064E+02  0.40194221404E+02  0.64625686595E+00  0.47214098259E+02  0.00000000000E+00 0. -1.
</event>
<event>
 4    1  0.6754235E+001  0.2618550E+02  0.7546771E-02  0.1455966E+00
          2   -1    0    0  502    0  0.00000000000E+00  0.00000000000E+00  0.32775236804E+02  0.32775236804E+02  0.00000000000E+00 0.  1.
         -2   -1    0    0    0  501 -0.00000000000E+00 -0.00000000000E+00 -0.21083378355E+02  0.21083378355E+02  0.00000000000E+00 0. -1.
          1    1    1    2  502    0  0.22468557944E+02  0.13447844772E+02  0.34803852293E+01  0.26415785175E+02  0.00000000000E+00 0.  1.
         -1    1    1    2    0  501 -0.22468557944E+02 -0.13447844772E+02  0.82114732193E+01  0.27442829984E+02  0.00000000000E+00 0. -1.
</event>
<event>
 4    1  0.6754235E+001  0.2533124E+02  0.7546771E-02  0.1465132E+00
          2   -1    0    0  502    0  0.00000000000E+00  0.00000000000E+00  0.23194561030E+03  0.23194561030E+03  0.00000000000E+00 0. -1.
         -2   -1    0    0    0  501 -0.00000000000E+00 -0.00000000000E+00 -0.34417089992E+01  0.34417089992E+01  0.00000000000E+00 0.  1.
          1    1    1    2  502    0  0.25023027031E+02  0.39395222868E+01  0.16638260361E+03  0.16829985889E+03  0.00000000000E+00 0. -1.
         -1    1    1    2    0  501 -0.25023027031E+02 -0.39395222868E+01  0.62121297689E+02  0.67087460410E+02  0.00000000000E+00 0.  1.
</event>
<event>
 4    1  0.6754235E+001  0.3758231E+02  0.7546771E-02  0.1363267E+00
          2   -1    0    0  502    0  0.00000000000E+00  0.00000000000E+00  0.65121310461E+03  0.65121310461E+03  0.00000000000E+00 0.  1.
         -2   -1    0    0    0  501 -0.00000000000E+00 -0.00000000000E+00 -0.40293304428E+01  0.40293304428E+01  0.00000000000E+00 0. -1.
          1    1    1    2  502    0 -0.36202604190E+02  0.10089682689E+02  0.54620962271E+03  0.54750103396E+03  0.00000000000E+00 0.  1.
         -1    1    1    2    0  501  0.36202604190E+02 -0.10089682689E+02  0.10097415146E+03  0.10774140110E+03  0.00000000000E+00 0. -1.
</event>
<event>
 4    1  0.6754235E+001  0.2194497E+02  0.7546771E-02  0.1506189E+00
          2   -1    0    0  502    0  0.00000000000E+00  0.00000000000E+00  0.20037696377E+02  0.20037696377E+02  0.00000000000E+00 0. -1.
         -2   -1    0    0    0  501 -0.00000000000E+00 -0.00000000000E+00 -0.25865778100E+02  0.25865778100E+02  0.00000000000E+00 0.  1.
          1    1    1    2  502    0  0.13055097375E+02  0.17639332437E+02  0.31941854895E+01  0.22176213321E+02  0.00000000000E+00 0. -1.
         -1    1    1    2    0  501 -0.13055097375E+02 -0.17639332437E+02 -0.90222672132E+01  0.23727261156E+02  0.00000000000E+00 0.  1.
</event>
<event>
 4    1  0.6754235E+001  0.2113930E+02  0.7546771E-02  0.1517285E+00
          2   -1    0    0  502    0  0.00000000000E+00  0.00000000000E+00  0.19870938873E+04  0.19870938873E+04  0.00000000000E+00 0.  1.
         -2   -1    0    0    0  501 -0.00000000000E+00 -0.00000000000E+00 -0.25840272538E+00  0.25840272538E+00  0.00000000000E+00 0. -1.
          1    1    1    2  502    0 -0.18422110598E+02 -0.10368019131E+02  0.63554727644E+03  0.63589874239E+03  0.00000000000E+00 0. -1.
         -1    1    1    2    0  501  0.18422110598E+02  0.10368019131E+02  0.13512882081E+04  0.13514535476E+04  0.00000000000E+00 0.  1.
</event>
<event>
 4    1  0.6754235E+001  0.6121217E+02  0.7546771E-02  0.1255769E+00
          2   -1    0    0  502    0  0.00000000000E+00  0.00000000000E+00  0.27868134573E+04  0.27868134573E+04  0.00000000000E+00 0.  1.
         -2   -1    0    0    0  501 -0.00000000000E+00 -0.00000000000E+00 -0.13668122847E+01  0.13668122847E+01  0.00000000000E+00 0. -1.
          1    1    1    2  502    0  0.13436726736E+02 -0.59719206038E+02  0.12146888750E+04  0.12162302382E+04  0.00000000000E+00 0. -1.
         -1    1    1    2    0  501 -0.13436726736E+02  0.59719206038E+02  0.15707577700E+04  0.15719500314E+04  0.00000000000E+00 0.  1.
</event>
<event>
 4    1  0.6754235E+001  0.6182621E+02  0.7546771E-02  0.1253751E+00
          2   -1    0    0  502    0  0.00000000000E+00  0.00000000000E+00  0.92710393960E+03  0.92710393960E+03  0.00000000000E+00 0.  1.
         -2   -1    0    0    0  501 -0.00000000000E+00 -0.00000000000E+00 -0.71546422341E+01  0.71546422341E+01  0.00000000000E+00 0. -1.
          1    1    1    2  502    0 -0.45571535174E+02  0.41781763652E+02  0.76404894806E+03  0.76654632973E+03  0.00000000000E+00 0.  1.
         -1    1    1    2    0  501  0.45571535174E+02 -0.41781763652E+02  0.15590034931E+03  0.16771225211E+03  0.00000000000E+00 0. -1.
</event>
<event>
 4    1  0.6754235E+001  0.2427610E+02  0.7546771E-02  0.1477067E+00
          2   -1    0    0  502    0  0.00000000000E+00  0.00000000000E+00  0.53209694228E+02  0.53209694228E+02  0.00000000000E+00 0.  1.
         -2   -1    0    0    0  501 -0.00000000000E+00 -0.00000000000E+00 -0.11174550565E+02  0.11174550565E+02  0.00000000000E+00 0. -1.
          1    1    1    2  502    0 -0.19068247038E+02  0.15024344416E+02  0.24046973627E+02  0.34169956260E+02  0.00000000000E+00 0.  1.
         -1    1    1    2    0  501  0.19068247038E+02 -0.15024344416E+02  0.17988170037E+02  0.30214288532E+02  0.00000000000E+00 0. -1.
</event>
<event>
 4    1  0.6754235E+001  0.2195537E+02  0.7546771E-02  0.1506049E+00
          2   -1    0    0  502    0  0.00000000000E+00  0.00000000000E+00  0.18691142969E+03  0.18691142969E+03  0.00000000000E+00 0. -1.
         -2   -1    0    0    0  501 -0.00000000000E+00 -0.00000000000E+00 -0.30867343476E+01  0.30867343476E+01  0.00000000000E+00 0.  1.
          1    1    1    2  502    0 -0.38156927014E+01 -0.21621252219E+02  0.13044269898E+03  0.13227749535E+03  0.00000000000E+00 0. -1.
         -1    1    1    2    0  501  0.38156927014E+01  0.21621252219E+02  0.53381996358E+02  0.57720668685E+02  0.00000000000E+00 0.  1.
</event>
<event>
 4    1  0.6754235E+001  0.2548373E+02  0.7546771E-02  0.1463464E+00
          2   -1    0    0  502    0  0.00000000000E+00  0.00000000000E+00  0.57465504487E+00  0.57465504487E+00  0.00000000000E+00 0. -1.
         -2   -1    0    0    0  501 -0.00000000000E+00 -0.00000000000E+00 -0.11314550302E+04  0.11314550302E+04  0.00000000000E+00 0.  1.
          1    1    1    2  502    0  0.23375385874E+02  0.10149471567E+02 -0.58499300554E+03  0.58554780930E+03  0.00000000000E+00 0. -1.
         -1    1    1    2    0  501 -0.23375385874E+02 -0.10149471567E+02 -0.54588736963E+03  0.54648187596E+03  0.00000000000E+00 0.  1.
</event>
<event>
 4    1  0.6754235E+001  0.3223010E+02  0.7546771E-02  0.1401157E+00
          2   -1    0    0  502    0  0.00000000000E+00  0.00000000000E+00  0.27777414771E+03  0.27777414771E+03  0.00000000000E+00 0. -1.
         -2   -1    0    0    0  501 -0.00000000000E+00 -0.00000000000E+00 -0.50706903891E+01  0.50706903891E+01  0.00000000000E+00 0.  1.
          1    1    1    2  502    0  0.21742774563E+02 -0.23791402146E+02  0.20880863076E+03  0.21128138428E+03  0.00000000000E+00 0. -1.
         -1    1    1    2    0  501 -0.21742774563E+02  0.23791402146E+02  0.63894826558E+02  0.71563453820E+02  0.00000000000E+00 0.  1.
</event>
<event>
 4    1  0.6754235E+001  0.2530377E+02  0.7546771E-02  0.1465434E+00
          2   -1    0    0  502    0  0.00000000000E+00  0.00000000000E+00  0.23102052665E+03  0.23102052665E+03  0.00000000000E+00 0. -1.
         -2   -1    0    0    0  501 -0.00000000000E+00 -0.00000000000E+00 -0.27875151250E+01  0.27875151250E+01  0.00000000000E+00 0.  1.
          1    1    1    2  502    0  0.18634149469E+02  0.17118674404E+02  0.12296900587E+03  0.12554543776E+03  0.00000000000E+00 0. -1.
         -1    1    1    2    0  501 -0.18634149469E+02 -0.17118674404E+02  0.10526400566E+03  0.10826260401E+03  0.00000000000E+00 0.  1.
</event>
<event>
 4    1  0.6754235E+001  0.7140143E+02  0.7546771E-02  0.1225353E+00
          2   -1    0    0  502    0  0.00000000000E+00  0.00000000000E+00  0.10874560931E+04  0.10874560931E+04  0.00000000000E+00 0. -1.
         -2   -1    0    0    0  501 -0.00000000000E+00 -0.00000000000E+00 -0.51787987569E+01  0.51787987569E+01  0.00000000000E+00 0.  1.
          1    1    1    2  502    0  0.39395535702E+01  0.71292663591E+02  0.70929496309E+03  0.71287972943E+03  0.00000000000E+00 0. -1.
         -1    1    1    2    0  501 -0.39395535702E+01 -0.71292663591E+02  0.37298233124E+03  0.37975516241E+03  0.00000000000E+00 0.  1.
</event>
<event>
 4    1  0.6754235E+001  0.2096190E+02  0.7546771E-02  0.1519809E+00
          2   -1    0    0  502    0  0.00000000000E+00  0.00000000000E+00  0.45215896883E+01  0.45215896883E+01  0.00000000000E+00 0. -1.
         -2   -1    0    0    0  501 -0.00000000000E+00 -0.00000000000E+00 -0.22125631385E+03  0.22125631385E+03  0.00000000000E+00 0.  1.
          1    1    1    2  502    0  0.20771900706E+02  0.28159193785E+01 -0.19290511252E+03  0.19404067537E+03  0.00000000000E+00 0.  1.
         -1    1    1    2    0  501 -0.20771900706E+02 -0.28159193785E+01 -0.23829611639E+02  0.31737228167E+02  0.00000000000E+00 0. -1.
</event>
<event>
 4    1  0.6754235E+001  0.2035789E+02  0.7546771E-02  0.1528633E+00
          2   -1    0    0  502    0  0.00000000000E+00  0.00000000000E+00  0.11736422380E+03  0.11736422380E+03  0.00000000000E+00 0.  1.
         -2   -1    0    0    0  501 -0.00000000000E+00 -0.00000000000E+00 -0.35669428126E+01  0.35669428126E+01  0.00000000000E+00 0. -1.
          1    1    1    2  502    0  0.20292084792E+02 -0.16354826657E+01  0.62946391074E+02  0.66156569273E+02  0.00000000000E+00 0. -1.
         -1    1    1    2    0  501 -0.20292084792E+02  0.16354826657E+01  0.50850889917E+02  0.54774597343E+02  0.00000000000E+00 0.  1.
</event>
<event>
 4    1  0.6754235E+001  0.2054808E+02  0.7546771E-02  0.1525816E+00
          2   -1    0    0  502    0  0.00000000000E+00  0.00000000000E+00  0.50204664040E+02  0.50204664040E+02  0.00000000000E+00 0. -1.
         -2   -1    0    0    0  501 -0.00000000000E+00 -0.00000000000E+00 -0.47727702931E+02  0.47727702931E+02  0.00000000000E+00 0.  1.
          1    1    1    2  502    0 -0.12800017238E+01  0.20508172337E+02 -0.43204666418E+02  0.47842102142E+02  0.00000000000E+00 0.  1.
         -1    1    1    2    0  501  0.12800017238E+01 -0.20508172337E+02  0.45681627527E+02  0.50090264828E+02  0.00000000000E+00 0. -1.
</event>
<event>
 4    1  0.6754235E+001  0.2443692E+02  0.7546771E-02  0.1475202E+00
          2   -1    0    0  502    0  0.00000000000E+00  0.00000000000E+00  0.11320576202E+04  0.11320576202E+04  0.00000000000E+00 0. -1.
         -2   -1    0    0    0  501 -0.00000000000E+00 -0.00000000000E+00 -0.86465171736E+00  0.86465171736E+00  0.00000000000E+00 0.  1.
          1    1    1    2  502    0 -0.16479251707E+02 -0.18044318732E+02  0.21187566612E+03  0.21328024069E+03  0.00000000000E+00 0.  1.
         -1    1    1    2    0  501  0.16479251707E+02  0.18044318732E+02  0.91931730239E+03  0.91964203125E+03  0.00000000000E+00 0. -1.
</event>
<event>
 4    1  0.6754235E+001  0.3066120E+02  0.7546771E-02  0.1413936E+00
          2   -1    0    0  502    0  0.00000000000E+00  0.00000000000E+00  0.21889395489E+04  0.21889395489E+04  0.00000000000E+00 0.  1.
         -2   -1    0    0    0  501 -0.00000000000E+00 -0.00000000000E+00 -0.43010158210E+00  0.43010158210E+00  0.00000000000E+00 0. -1.
          1    1    1    2  502    0  0.72638390469E+01 -0.29788347758E+02  0.10526893646E+04  0.10531357972E+04  0.00000000000E+00 0. -1.
         -1    1    1    2    0  501 -0.72638390469E+01  0.29788347758E+02  0.11358200827E+04  0.11362338532E+04  0.00000000000E+00 0.  1.
</event>
<event>
 4    1  0.6754235E+001  0.2470900E+02  0.7546771E-02  0.1472085E+00
          2   -1    0    0  502    0  0.00000000000E+00  0.00000000000E+00  0.40510953135E+01  0.40510953135E+01  0.00000000000E+00 0. -1.
         -2   -1    0    0    0  501 -0.00000000000E+00 -0.00000000000E+00 -0.15115791746E+03  0.15115791746E+03  0.00000000000E+00 0.  1.
          1    1    1    2  502    0  0.58983497124E+01  0.23994665773E+02 -0.77784912145E+02  0.81615115465E+02  0.00000000000E+00 0. -1.
         -1    1    1    2    0  501 -0.58983497124E+01 -0.23994665773E+02 -0.69321910001E+02  0.73593897308E+02  0.00000000000E+00 0.  1.
</event>
<event>
 4    1  0.6754235E+001  0.2592689E+02  0.7546771E-02  0.1458696E+00
          2   -1    0    0  502    0  0.00000000000E+00  0.00000000000E+00  0.28814042204E+02  0.28814042204E+02  0.00000000000E+00 0. -1.
         -2   -1    0    0    0  501 -0.00000000000E+00 -0.00000000000E+00 -0.25264444242E+02  0.25264444242E+02  0.00000000000E+00 0.  1.
          1    1    1    2  502    0  0.30550585352E+01  0.25746268164E+02 -0.57090742323E+01  0.26548017546E+02  0.00000000000E+00 0.  1.
         -1    1    1    2    0  501 -0.30550585352E+01 -0.25746268164E+02  0.92586721940E+01  0.27530468900E+02  0.00000000000E+00 0. -1.
</event>
<event>
 4    1  0.6754235E+001  0.2492208E+02  0.7546771E-02  0.1469677E+00
          2   -1    0    0  502    0  0.00000000000E+00  0.00000000000E+00  0.14706727874E+03  0.14706727874E+03  0.00000000000E+00 0. -1.
         -2   -1    0    0    0  501 -0.00000000000E+00 -0.00000000000E+00 -0.47426702293E+01  0.47426702293E+01  0.00000000000E+00 0.  1.
          1    1    1    2  502    0  0.24738815086E+02 -0.30167685462E+01  0.96280909499E+02  0.99454127105E+02  0.00000000000E+00 0. -1.
         -1    1    1    2    0  501 -0.24738815086E+02  0.30167685462E+01  0.46043699007E+02  0.52355821860E+02  0.00000000000E+00 0.  1.
</event>
<event>
 4    1  0.6754235E+001  0.2970437E+02  0.7546771E-02  0.1422183E+00
          2   -1    0    0  502    0  0.00000000000E+00  0.00000000000E+00  0.44040756863E+01  0.44040756863E+01  0.00000000000E+00 0.  1.
         -2   -1    0    0    0  501 -0.00000000000E+00 -0.00000000000E+00 -0.20894088047E+03  0.20894088047E+03  0.00000000000E+00 0. -1.
          1    1    1    2  502    0  0.15357890145E+02  0.25426064510E+02 -0.80636247461E+02  0.85933427435E+02  0.00000000000E+00 0.  1.
         -1    1    1    2    0  501 -0.15357890145E+02 -0.25426064510E+02 -0.12390055732E+03  0.12741152872E+03  0.00000000000E+00 0. -1.
</event>
<event>
 4    1  0.6754235E+001  0.3143446E+02  0.7546771E-02  0.1407527E+00
          2   -1    0    0  502    0  0.00000000000E+00  0.00000000000E+00  0.93120098989E+03  0.93120098989E+03  0.00000000000E+00 0. -1.
         -2   -1    0    0    0  501 -0.00000000000E+00 -0.00000000000E+00 -0.11028918091E+01  0.11028918091E+01  0.00000000000E+00 0.  1.
          1    1    1    2  502    0 -0.74213018193E+01 -0.30545862412E+02  0.37434012905E+03  0.37565763356E+03  0.00000000000E+00 0.  1.
         -1    1    1    2    0  501  0.74213018193E+01  0.30545862412E+02  0.55575796903E+03  0.55664624815E+03  0.00000000000E+00 0. -1.
</event>
<event>
 4    1  0.6754235E+001  0.2879974E+02  0.7546771E-02  0.1430321E+00
          2   -1    0    0  502    0  0.00000000000E+00  0.00000000000E+00  0.66468854716E+02  0.66468854716E+02  0.00000000000E+00 0. -1.
         -2   -1    0    0    0  501 -0.00000000000E+00 -0.00000000000E+00 -0.12607538241E+02  0.12607538241E+02  0.00000000000E+00 0.  1.
          1    1    1    2  502    0 -0.28511267618E+02 -0.40660227195E+01  0.30932224573E+02  0.42263784011E+02  0.00000000000E+00 0. -1.
         -1    1    1    2    0  501  0.28511267618E+02  0.40660227195E+01  0.22929091903E+02  0.36812608946E+02  0.00000000000E+00 0.  1.
</event>
<event>
 4    1  0.6754235E+001  0.3760139E+02  0.7546771E-02  0.1363145E+00
          2   -1    0    0  502    0  0.00000000000E+00  0.00000000000E+00  0.99357732834E+01  0.99357732834E+01  0.00000000000E+00 0.  1.
         -2   -1    0    0    0  501 -0.00000000000E+00 -0.00000000000E+00 -0.14707340333E+03  0.14707340333E+03  0.00000000000E+00 0. -1.
          1    1    1    2  502    0 -0.20850371335E+02 -0.31290992547E+02 -0.54426344839E+02  0.66152031049E+02  0.00000000000E+00 0.  1.
         -1    1    1    2    0  501  0.20850371335E+02  0.31290992547E+02 -0.82711285205E+02  0.90857145562E+02  0.00000000000E+00 0. -1.
</event>
<event>
 4    1  0.6754235E+001  0.2319823E+02  0.7546771E-02  0.1490024E+00
          2   -1    0    0  502    0  0.00000000000E+00  0.00000000000E+00  0.37080688972E+02  0.37080688972E+02  0.00000000000E+00 0. -1.
         -2   -1    0    0    0  501 -0.00000000000E+00 -0.00000000000E+00 -0.18519453316E+02  0.18519453316E+02  0.00000000000E+00 0.  1.
          1    1    1    2  502    0 -0.62068871454E+01 -0.22352458487E+02 -0.36495266590E+01  0.23483545160E+02  0.00000000000E+00 0.  1.
         -1    1    1    2    0  501  0.62068871454E+01  0.22352458487E+02  0.22210762315E+02  0.32116597128E+02  0.00000000000E+00 0. -1.
</event>
<event>
 4    1  0.6754235E+001  0.2121325E+02  0.7546771E-02  0.1516242E+00
          2   -1    0    0  502    0  0.00000000000E+00  0.00000000000E+00  0.16846086888E+03  0.16846086888E+03  0.00000000000E+00 0.  1.
         -2   -1    0    0    0  501 -0.00000000000E+00 -0.00000000000E+00 -0.27061781556E+01  0.27061781556E+01  0.00000000000E+00 0. -1.
          1    1    1    2  502    0 -0.11214912370E+02  0.18006323468E+02  0.92599633528E+02  0.94998389849E+02  0.00000000000E+00 0.  1.
         -1    1    1    2    0  501  0.11214912370E+02 -0.18006323468E+02  0.73155057198E+02  0.76168657188E+02  0.00000000000E+00 0. -1.
</event>
<event>
 4    1  0.6754235E+001  0.2032834E+02  0.7546771E-02  0.1529074E+00
          2   -1    0    0  502    0  0.00000000000E+00  0.00000000000E+00  0.55218733094E+01  0.55218733094E+01  0.00000000000E+00 0.  1.
         -2   -1    0    0    0  501 -0.00000000000E+00 -0.00000000000E+00 -0.75021634981E+02  0.75021634981E+02  0.00000000000E+00 0. -1.
          1    1    1    2  502    0  0.13289085816E+02  0.15383153489E+02 -0.36746972676E+02  0.41995014156E+02  0.00000000000E+00 0.  1.
         -1    1    1    2    0  501 -0.13289085816E+02 -0.15383153489E+02 -0.32752788995E+02  0.38548494134E+02  0.00000000000E+00 0. -1.
</event>
<event>
 4    1  0.6754235E+001  0.2435948E+02  0.7546771E-02  0.1476098E+00
          2   -1    0    0  502    0  0.00000000000E+00  0.00000000000E+00  0.85223322951E+02  0.85223322951E+02  0.00000000000E+00 0. -1.
         -2   -1    0    0    0  501 -0.00000000000E+00 -0.00000000000E+00 -0.82458638938E+02  0.82458638938E+02  0.00000000000E+00 0.  1.
          1    1    1    2  502    0  0.24008159170E+02 -0.41222058916E+01  0.81605558387E+02  0.85163674461E+02  0.00000000000E+00 0. -1.
         -1    1    1    2    0  501 -0.24008159170E+02  0.41222058916E+01 -0.78840874373E+02  0.82518287428E+02  0.00000000000E+00 0.  1.
</event>
<event>
 4    1  0.6754235E+001  0.2273425E+02  0.7546771E-02  0.1495862E+00
          2   -1    0    0  502    0  0.00000000000E+00  0.00000000000E+00  0.10041242887E+02  0.10041242887E+02  0.00000000000E+00 0. -1.
         -2   -1    0    0    0  501 -0.00000000000E+00 -0.00000000000E+00 -0.53202551350E+02  0.53202551350E+02  0.00000000000E+00 0.  1.
          1    1    1    2  502    0  0.82765629912E+01 -0.21174153478E+02 -0.15878076181E+02  0.27730120333E+02  0.00000000000E+00 0.  1.
         -1    1    1    2    0  501 -0.82765629912E+01  0.21174153478E+02 -0.27283232282E+02  0.35513673905E+02  0.00000000000E+00 0. -1.
</event>
<event>
 4    1  0.6754235E+001  0.2401925E+02  0.7546771E-02  0.1480081E+00
          2   -1    0    0  502    0  0.00000000000E+00  0.00000000000E+00  0.20303995641E+02  0.20303995641E+02  0.00000000000E+00 0.  1.
         -2   -1    0    0    0  501 -0.00000000000E+00 -0.00000000000E+00 -0.32168146478E+02  0.32168146478E+02  0.00000000000E+00 0. -1.
          1    1    1    2  502    0  0.20291841614E+00 -0.24018390081E+02 -0.14894445064E+02  0.28262496912E+02  0.00000000000E+00 0. -1.
         -1    1    1    2    0  501 -0.20291841614E+00  0.24018390081E+02  0.30302942271E+01  0.24209645207E+02  0.00000000000E+00 0.  1.
</event>
<event>
 4    1  0.6754235E+001  0.2115046E+02  0.7546771E-02  0.1517127E+00
          2   -1    0    0  502    0  0.00000000000E+00  0.00000000000E+00  0.21875185609E+03  0.21875185609E+03  0.00000000000E+00 0. -1.
         -2   -1    0    0    0  501 -0.00000000000E+00 -0.00000000000E+00 -0.92437615494E+01  0.92437615494E+01  0.00000000000E+00 0.  1.
          1    1    1    2  502    0 -0.19044052585E+02  0.92014241800E+01  0.41531682393E+01  0.21554371998E+02  0.00000000000E+00 0.  1.
         -1    1    1    2    0  501  0.19044052585E+02 -0.92014241800E+01  0.20535492630E+03  0.20644124564E+03  0.00000000000E+00 0. -1.
</event>
<event>
 4    1  0.6754235E+001  0.2214581E+02  0.7546771E-02  0.1503512E+00
          2   -1    0    0  502    0  0.00000000000E+00  0.00000000000E+00  0.63638391428E+03  0.63638391428E+03  0.00000000000E+00 0. -1.
         -2   -1    0    0    0  501 -0.00000000000E+00 -0.00000000000E+00 -0.80367151252E+00  0.80367151252E+00  0.00000000000E+00 0.  1.
          1    1    1    2  502    0 -0.92575277201E+01  0.20118028804E+02  0.25322208859E+03  0.25418863675E+03  0.00000000000E+00 0.  1.
         -1    1    1    2    0  501  0.92575277201E+01 -0.20118028804E+02  0.38235815418E+03  0.38299894904E+03  0.00000000000E+00 0. -1.
</event>
<event>
 4    1  0.6754235E+001  0.2343720E+02  0.7546771E-02  0.1487080E+00
          2   -1    0    0  502    0  0.00000000000E+00  0.00000000000E+00  0.14408687651E+03  0.14408687651E+03  0.00000000000E+00 0. -1.
         -2   -1    0    0    0  501 -0.00000000000E+00 -0.00000000000E+00 -0.38133350066E+01  0.38133350066E+01  0.00000000000E+00 0.  1.
          1    1    1    2  502    0  0.18772879249E+02 -0.14031442142E+02  0.68918315814E+02  0.72794482061E+02  0.00000000000E+00 0. -1.
         -1    1    1    2    0  501 -0.18772879249E+02  0.14031442142E+02  0.71355225691E+02  0.75105729457E+02  0.00000000000E+00 0.  1.
</event>
<event>
 4    1  0.6754235E+001  0.2810657E+02  0.7546771E-02  0.1436798E+00
          2   -1    0    0  502    0  0.00000000000E+00  0.00000000000E+00  0.12462708264E+02  0.12462708264E+02  0.00000000000E+00 0.  1.
         -2   -1    0    0    0  501 -0.00000000000E+00 -0.00000000000E+00 -0.89931744848E+02  0.89931744848E+02  0.00000000000E+00 0. -1.
          1    1    1    2  502    0  0.24506151925E+02  0.13763287229E+02 -0.10919756136E+02  0.30153285585E+02  0.00000000000E+00 0.  1.
         -1    1    1    2    0  501 -0.24506151925E+02 -0.13763287229E+02 -0.66549280448E+02  0.72241167527E+02  0.00000000000E+00 0. -1.
</event>
<event>
 4    1  0.6754235E+001  0.3848441E+02  0.7546771E-02  0.1357603E+00
          2   -1    0    0  502    0  0.00000000000E+00  0.00000000000E+00  0.13235432694E+01  0.13235432694E+01  0.00000000000E+00 0. -1.
         -2   -1    0    0    0  501 -0.00000000000E+00 -0.00000000000E+00 -0.11635291797E+04  0.11635291797E+04  0.00000000000E+00 0.  1.
          1    1    1    2  502    0 -0.23587155106E+02  0.30408819495E+02 -0.69503733404E+03  0.69610196516E+03  0.00000000000E+00 0.  1.
         -1    1    1    2    0  501  0.23587155106E+02 -0.30408819495E+02 -0.46716830239E+03  0.46875075781E+03  0.00000000000E+00 0. -1.
</event>
<event>
 4    1  0.6754235E+001  0.2099918E+02  0.7546771E-02  0.1519276E+00
          2   -1    0    0  502    0  0.00000000000E+00  0.00000000000E+00  0.15959097205E+03  0.15959097205E+03  0.00000000000E+00 0.  1.
         -2   -1    0    0    0  501 -0.00000000000E+00 -0.00000000000E+00 -0.57026782987E+01  0.57026782987E+01  0.00000000000E+00 0. -1.
          1    1    1    2  502    0  0.18917923733E+02 -0.91146998172E+01  0.17606631321E+02  0.27403632197E+02  0.00000000000E+00 0. -1.
         -1    1    1    2    0  501 -0.18917923733E+02  0.91146998172E+01  0.13628166243E+03  0.13789001815E+03  0.00000000000E+00 0.  1.
</event>
<event>
 4    1  0.6754235E+001  0.2667969E+02  0.7546771E-02  0.1450852E+00
          2   -1    0    0  502    0  0.00000000000E+00  0.00000000000E+00  0.11402017964E+04  0.11402017964E+04  0.00000000000E+00 0.  1.
         -2   -1    0    0    0  501 -0.00000000000E+00 -0.00000000000E+00 -0.25373988824E+01  0.25373988824E+01  0.00000000000E+00 0. -1.
          1    1    1    2  502    0  0.13801567783E+01 -0.26643969108E+02  0.10649601105E+04  0.10652942518E+04  0.00000000000E+00 0.  1.
         -1    1    1    2    0  501 -0.13801567783E+01  0.26643969108E+02  0.72704286958E+02  0.77444943441E+02  0.00000000000E+00 0. -1.
</event>
<event>
 4    1  0.6754235E+001  0.2284023E+02  0.7546771E-02  0.1494514E+00
          2   -1    0    0  502    0  0.00000000000E+00  0.00000000000E+00  0.57044300732E+02  0.57044300732E+02  0.00000000000E+00 0.  1.
         -2   -1    0    0    0  501 -0.00000000000E+00 -0.00000000000E+00 -0.10106876381E+02  0.10106876381E+02  0.00000000000E+00 0. -1.
          1    1    1    2  502    0 -0.21631950554E+02  0.73303953772E+01  0.13111291131E+02  0.26335943808E+02  0.00000000000E+00 0.  1.
         -1    1    1    2    0  501  0.21631950554E+02 -0.73303953772E+01  0.33826133219E+02  0.40815233304E+02  0.00000000000E+00 0. -1.
</event>
<event>
 4    1  0.6754235E+001  0.2675944E+02  0.7546771E-02  0.1450040E+00
          2   -1    0    0  502    0  0.00000000000E+00  0.00000000000E+00  0.30920052478E+04  0.30920052478E+04  0.00000000000E+00 0.  1.
         -2   -1    0    0    0  501 -0.00000000000E+00 -0.00000000000E+00 -0.23839230941E+00  0.23839230941E+00  0.00000000000E+00 0. -1.
          1    1    1    2  502    0  0.18567338904E+02  0.19269705497E+02  0.12846506484E+04  0.12849293194E+04  0.00000000000E+00 0.  1.
         -1    1    1    2    0  501 -0.18567338904E+02 -0.19269705497E+02  0.18071162071E+04  0.18073143206E+04  0.00000000000E+00 0. -1.
</event>
<event>
 4    1  0.6754235E+001  0.5288082E+02  0.7546771E-02  0.1286143E+00
          2   -1    0    0  502    0  0.00000000000E+00  0.00000000000E+00  0.13926433164E+02  0.13926433164E+02  0.00000000000E+00 0.  1.
         -2   -1    0    0    0  501 -0.00000000000E+00 -0.00000000000E+00 -0.21838994057E+03  0.21838994057E+03  0.00000000000E+00 0. -1.
          1    1    1    2  502    0 -0.14824865619E+02  0.50760267263E+02 -0.13520083366E+03  0.14517453907E+03  0.00000000000E+00 0. -1.
         -1    1    1    2    0  501  0.14824865619E+02 -0.50760267263E+02 -0.69262673749E+02  0.87141834661E+02  0.00000000000E+00 0.  1.
</event>
<event>
 4    1  0.6754235E+001  0.2083523E+02  0.7546771E-02  0.1521630E+00
          2   -1    0    0  502    0  0.00000000000E+00  0.00000000000E+00  0.19841394998E+03  0.19841394998E+03  0.00000000000E+00 0. -1.
         -2   -1    0    0    0  501 -0.00000000000E+00 -0.00000000000E+00 -0.36696446410E+01  0.36696446410E+01  0.00000000000E+00 0.  1.
          1    1    1    2  502    0  0.15323386943E+02  0.14117381897E+02  0.33165782238E+02  0.39167279335E+02  0.00000000000E+00 0.  1.
         -1    1    1    2    0  501 -0.15323386943E+02 -0.14117381897E+02  0.16157852310E+03  0.16291631529E+03  0.00000000000E+00 0. -1.
</event>
<event>
 4    1  0.6754235E+001  0.2962148E+02  0.7546771E-02  0.1422915E+00
          2   -1    0    0  502    0  0.00000000000E+00  0.00000000000E+00  0.32419376651E+03  0.32419376651E+03  0.00000000000E+00 0.  1.
         -2   -1    0    0    0  501 -0.00000000000E+00 -0.00000000000E+00 -0.17337945781E+02  0.17337945781E+02  0.00000000000E+00 0. -1.
          1    1    1    2  502    0 -0.12904295914E+02  0.26662913296E+02 -0.34442140839E+01  0.29821039706E+02  0.00000000000E+00 0. -1.
         -1    1    1    2    0  501  0.12904295914E+02 -0.26662913296E+02  0.31030003481E+03  0.31171067259E+03  0.00000000000E+00 0.  1.
</event>
<event>
 4    1  0.6754235E+001  0.2187427E+02  0.7546771E-02  0.1507139E+00
          2   -1    0    0  502    0  0.00000000000E+00  0.00000000000E+00  0.41763379472E+02  0.41763379472E+02  0.00000000000E+00 0.  1.
         -2   -1    0    0    0  501 -0.00000000000E+00 -0.00000000000E+00 -0.16571922750E+02  0.16571922750E+02  0.00000000000E+00 0. -1.
          1    1    1    2  502    0 -0.20819841921E+02  0.67095414946E+01 -0.36087034587E+01  0.22169945993E+02  0.00000000000E+00 0. -1.
         -1    1    1    2    0  501  0.20819841921E+02 -0.67095414946E+01  0.28800160180E+02  0.36165356228E+02  0.00000000000E+00 0.  1.
</event>
<event>
 4    1  0.6754235E+001  0.2287689E+02  0.7546771E-02  0.1494050E+00
          2   -1    0    0  502    0  0.00000000000E+00  0.00000000000E+00  0.12885532178E+04  0.12885532178E+04  0.00000000000E+00 0.  1.
         -2   -1    0    0    0  501 -0.00000000000E+00 -0.00000000000E+00 -0.67792488677E+00  0.67792488677E+00  0.00000000000E+00 0. -1.
          1    1    1    2  502    0 -0.21862766313E+02  0.67358379663E+01  0.10520792219E+04  0.10523279152E+04  0.00000000000E+00 0.  1.
         -1    1    1    2    0  501  0.21862766313E+02 -0.67358379663E+01  0.23579607103E+03  0.23690322745E+03  0.00000000000E+00 0. -1.
</event>
<event>
 4    1  0.6754235E+001  0.2083890E+02  0.7546771E-02  0.1521577E+00
          2   -1    0    0  502    0  0.00000000000E+00  0.00000000000E+00  0.15066513782E+04  0.15066513782E+04  0.00000000000E+00 0.  1.
         -2   -1    0    0    0  501 -0.00000000000E+00 -0.00000000000E+00 -0.35843605554E+00  0.35843605554E+00  0.00000000000E+00 0. -1.
          1    1    1    2  502    0 -0.20122603296E+02  0.54167014484E+01  0.41966457164E+03  0.42018164228E+03  0.00000000000E+00 0. -1.
         -1    1    1    2    0  501  0.20122603296E+02 -0.54167014484E+01  0.10866283705E+04  0.10868281720E+04  0.00000000000E+00 0.  1.
</event>
<event>
 4    1  0.6754235E+001  0.4965663E+02  0.7546771E-02  0.1299668E+00
          2   -1    0    0  502    0  0.00000000000E+00  0.00000000000E+00  0.63252739868E+03  0.63252739868E+03  0.00000000000E+00 0. -1.
         -2   -1    0    0    0  501 -0.00000000000E+00 -0.00000000000E+00 -0.39008222671E+01  0.39008222671E+01  0.00000000000E+00 0.  1.
          1    1    1    2  502    0 -0.20347691765E+02  0.45296268150E+02  0.30621887881E+03  0.31021892626E+03  0.00000000000E+00 0.  1.
         -1    1    1    2    0  501  0.20347691765E+02 -0.45296268150E+02  0.32240769760E+03  0.32620929469E+03  0.00000000000E+00 0. -1.
</event>
<event>
 4    1  0.6754235E+001  0.2014858E+02  0.7546771E-02  0.1531776E+00
          2   -1    0    0  502    0  0.00000000000E+00  0.00000000000E+00  0.57902398283E+03  0.57902398283E+03  0.00000000000E+00 0. -1.
         -2   -1    0    0    0  501 -0.00000000000E+00 -0.00000000000E+00 -0.21209563074E+01  0.21209563074E+01  0.00000000000E+00 0.  1.
          1    1    1    2  502    0 -0.20091527776E+02  0.15152030336E+01  0.52619451038E+03  0.52658012504E+03  0.00000000000E+00 0. -1.
         -1    1    1    2    0  501  0.20091527776E+02 -0.15152030336E+01  0.50708516147E+02  0.54564814106E+02  0.00000000000E+00 0.  1.
</event>
<event>
 4    1  0.6754235E+001  0.2443859E+02  0.7546771E-02  0.1475183E+00
          2   -1    0    0  502    0  0.00000000000E+00  0.00000000000E+00  0.25491535261E+02  0.25491535261E+02  0.00000000000E+00 0. -1.
         -2   -1    0    0    0  501 -0.00000000000E+00 -0.00000000000E+00 -0.36561940923E+02  0.36561940923E+02  0.00000000000E+00 0.  1.
          1    1    1    2  502    0  0.24312144115E+02  0.24827828738E+01 -0.24130379105E+02  0.34344137171E+02  0.00000000000E+00 0.  1.
         -1    1    1    2    0  501 -0.24312144115E+02 -0.24827828738E+01  0.13059973442E+02  0.27709339014E+02  0.00000000000E+00 0. -1.
</event>
<event>
 4    1  0.6754235E+001  0.2128837E+02  0.7546771E-02  0.1515187E+00
          2   -1    0    0  502    0  0.00000000000E+00  0.00000000000E+00  0.11922951690E+01  0.11922951690E+01  0.00000000000E+00 0.  1.
         -2   -1    0    0    0  501 -0.00000000000E+00 -0.00000000000E+00 -0.74854866012E+03  0.74854866012E+03  0.00000000000E+00 0. -1.
          1    1    1    2  502    0  0.15951649598E+02  0.14097503421E+02 -0.11067678042E+03  0.11270556531E+03  0.00000000000E+00 0.  1.
         -1    1    1    2    0  501 -0.15951649598E+02 -0.14097503421E+02 -0.63667958453E+03  0.63703538998E+03  0.00000000000E+00 0. -1.
</event>
<event>
 4    1  0.6754235E+001  0.3141623E+02  0.7546771E-02  0.1407676E+00
          2   -1    0    0  502    0  0.00000000000E+00  0.00000000000E+00  0.15626288473E+03  0.15626288473E+03  0.00000000000E+00 0.  1.
         -2   -1    0    0    0  501 -0.00000000000E+00 -0.00000000000E+00 -0.63168053227E+01  0.63168053227E+01  0.00000000000E+00 0. -1.
          1    1    1    2  502    0  0.80791216876E+00  0.31405844643E+02  0.74144989445E+02  0.80526140226E+02  0.00000000000E+00 0.  1.
         -1    1    1    2    0  501 -0.80791216876E+00 -0.31405844643E+02  0.75801089960E+02  0.82053549825E+02  0.00000000000E+00 0. -1.
</event>
<event>
 4    1  0.6754235E+001  0.3329677E+02  0.7546771E-02  0.1392950E+00
          2   -1    0    0  502    0  0.00000000000E+00  0.00000000000E+00  0.12506948914E+04  0.12506948914E+04  0.00000000000E+00 0.  1.
         -2   -1    0    0    0  501 -0.00000000000E+00 -0.00000000000E+00 -0.11012013260E+01  0.11012013260E+01  0.00000000000E+00 0. -1.
          1    1    1    2  502    0  0.38210120934E+01 -0.33076798430E+02  0.34839483372E+03  0.34998233512E+03  0.00000000000E+00 0. -1.
         -1    1    1    2    0  501 -0.38210120934E+01  0.33076798430E+02  0.90119885637E+03  0.90181375763E+03  0.00000000000E+00 0.  1.
</event>
<event>
 4    1  0.6754235E+001  0.2094661E+02  0.7546771E-02  0.1520028E+00
          2   -1    0    0  502    0  0.00000000000E+00  0.00000000000E+00  0.67109513195E+03  0.67109513195E+03  0.00000000000E+00 0.  1.
         -2   -1    0    0    0  501 -0.00000000000E+00 -0.00000000000E+00 -0.71285311312E+00  0.71285311312E+00  0.00000000000E+00 0. -1.
          1    1    1    2  502    0  0.15040615199E+01  0.20892545003E+02  0.43187277489E+03  0.43238045091E+03  0.00000000000E+00 0.  1.
         -1    1    1    2    0  501 -0.15040615199E+01 -0.20892545003E+02  0.23850950395E+03  0.23942753415E+03  0.00000000000E+00 0. -1.
</event>
<event>
 4    1  0.6754235E+001  0.5837391E+02  0.7546771E-02  0.1265460E+00
          2   -1    0    0  502    0  0.00000000000E+00  0.00000000000E+00  0.33546790577E+02  0.33546790577E+02  0.00000000000E+00 0.  1.
         -2   -1    0    0    0  501 -0.00000000000E+00 -0.00000000000E+00 -0.17173914649E+03  0.17173914649E+03  0.00000000000E+00 0. -1.
          1    1    1    2  502    0 -0.48499651704E+02 -0.32485334716E+02 -0.34888473848E+01  0.58478074892E+02  0.00000000000E+00 0.  1.
         -1    1    1    2    0  501  0.48499651704E+02  0.32485334716E+02 -0.13470350853E+03  0.14680786218E+03  0.00000000000E+00 0. -1.
</event>
<event>
 4    1  0.6754235E+001  0.2101821E+02  0.7546771E-02  0.1519005E+00
          2   -1    0    0  502    0  0.00000000000E+00  0.00000000000E+00  0.34077730478E+01  0.34077730478E+01  0.00000000000E+00 0.  1.
         -2   -1    0    0    0  501 -0.00000000000E+00 -0.00000000000E+00 -0.24833983351E+03  0.24833983351E+03  0.00000000000E+00 0. -1.
          1    1    1    2  502    0 -0.56579173582E+01 -0.20242360170E+02 -0.35440403315E+02  0.41204215333E+02  0.00000000000E+00 0.  1.
         -1    1    1    2    0  501  0.56579173582E+01  0.20242360170E+02 -0.20949165714E+03  0.21054339122E+03  0.00000000000E+00 0. -1.
</event>
<event>
 4    1  0.6754235E+001  0.2220878E+02  0.7546771E-02  0.1502680E+00
          2   -1    0    0  502    0  0.00000000000E+00  0.00000000000E+00  0.67352210712E+03  0.67352210712E+03  0.00000000000E+00 0.  1.
         -2   -1    0    0    0  501 -0.00000000000E+00 -0.00000000000E+00 -0.15292979273E+01  0.15292979273E+01  0.00000000000E+00 0. -1.
          1    1    1    2  502    0 -0.19155247757E+02  0.11238614115E+02  0.57965709024E+03  0.58008238400E+03  0.00000000000E+00 0.  1.
         -1    1    1    2    0  501  0.19155247757E+02 -0.11238614115E+02  0.92335718955E+02  0.94969021048E+02  0.00000000000E+00 0. -1.
</event>
<event>
 4    1  0.6754235E+001  0.2193688E+02  0.7546771E-02  0.1506297E+00
          2   -1    0    0  502    0  0.00000000000E+00  0.00000000000E+00  0.17888185802E+02  0.17888185802E+02  0.00000000000E+00 0. -1.
         -2   -1    0    0    0  501 -0.00000000000E+00 -0.00000000000E+00 -0.27942967425E+02  0.27942967425E+02  0.00000000000E+00 0.  1.
          1    1    1    2  502    0  0.28033570562E+01 -0.21757016919E+02 -0.60426623612E+00  0.21945198420E+02  0.00000000000E+00 0. -1.
         -1    1    1    2    0  501 -0.28033570562E+01  0.21757016919E+02 -0.94505153863E+01  0.23885954808E+02  0.00000000000E+00 0.  1.
</event>
<event>
 4    1  0.6754235E+001  0.4645703E+02  0.7546771E-02  0.1314310E+00
          2   -1    0    0  502    0  0.00000000000E+00  0.00000000000E+00  0.17711408362E+04  0.17711408362E+04  0.00000000000E+00 0.  1.
         -2   -1    0    0    0  501 -0.00000000000E+00 -0.00000000000E+00 -0.15004899781E+01  0.15004899781E+01  0.00000000000E+00 0. -1.
          1    1    1    2  502    0  0.14957569883E+02  0.43983255036E+02  0.50063662811E+03  0.50278751877E+03  0.00000000000E+00 0. -1.
         -1    1    1    2    0  501 -0.14957569883E+02 -0.43983255036E+02  0.12690037181E+04  0.12698538074E+04  0.00000000000E+00 0.  1.
</event>
<event>
 4    1  0.6754235E+001  0.2222153E+02  0.7546771E-02  0.1502512E+00
          2   -1    0    0  502    0  0.00000000000E+00  0.00000000000E+00  0.20778242943E+04  0.20778242943E+04  0.00000000000E+00 0. -1.
         -2   -1    0    0    0  501 -0.00000000000E+00 -0.00000000000E+00 -0.25376676416E+00  0.25376676416E+00  0.00000000000E+00 0.  1.
          1    1    1    2  502    0  0.14552497283E+02 -0.16793491321E+02  0.13006295745E+04  0.13008193905E+04  0.00000000000E+00 0. -1.
         -1    1    1    2    0  501 -0.14552497283E+02  0.16793491321E+02  0.77694095304E+03  0.77725867061E+03  0.00000000000E+00 0.  1.
</event>
<event>
 4    1  0.6754235E+001  0.3260716E+02  0.7546771E-02  0.1398214E+00
          2   -1    0    0  502    0  0.00000000000E+00  0.00000000000E+00  0.22599215933E+03  0.22599215933E+03  0.00000000000E+00 0. -1.
         -2   -1    0    0    0  501 -0.00000000000E+00 -0.00000000000E+00 -0.54557805395E+01  0.54557805395E+01  0.00000000000E+00 0.  1.
          1    1    1    2  502    0  0.23323423216E+02 -0.22786950746E+02  0.15320558749E+03  0.15663709405E+03  0.00000000000E+00 0.  1.
         -1    1    1    2    0  501 -0.23323423216E+02  0.22786950746E+02  0.67330791299E+02  0.74810845816E+02  0.00000000000E+00 0. -1.
</event>
<event>
 4    1  0.6754235E+001  0.4182260E+02  0.7546771E-02  0.1338124E+00
          2   -1    0    0  502    0  0.00000000000E+00  0.00000000000E+00  0.14664987051E+04  0.14664987051E+04  0.00000000000E+00 0. -1.
         -2   -1    0    0    0  501 -0.00000000000E+00 -0.00000000000E+00 -0.15145112397E+01  0.15145112397E+01  0.00000000000E+00 0.  1.
          1    1    1    2  502    0 -0.40717575713E+02 -0.95503282532E+01  0.39415671283E+03  0.39636932779E+03  0.00000000000E+00 0.  1.
         -1    1    1    2    0  501  0.40717575713E+02  0.95503282532E+01  0.10708274810E+04  0.10716438885E+04  0.00000000000E+00 0. -1.
</event>
<event>
 4    1  0.6754235E+001  0.3116144E+02  0.7546771E-02  0.1409765E+00
          2   -1    0    0  502    0  0.00000000000E+00  0.00000000000E+00  0.49291961307E+03  0.49291961307E+03  0.00000000000E+00 0. -1.
         -2   -1    0    0    0  501 -0.00000000000E+00 -0.00000000000E+00 -0.21145872544E+01  0.21145872544E+01  0.00000000000E+00 0.  1.
          1    1    1    2  502    0  0.31097702011E+02 -0.19920358583E+01  0.18067226792E+03  0.18333985838E+03  0.00000000000E+00 0. -1.
         -1    1    1    2    0  501 -0.31097702011E+02  0.19920358583E+01  0.31013275790E+03  0.31169434194E+03  0.00000000000E+00 0.  1.
</event>
<event>
 4    1  0.6754235E+001  0.4463672E+02  0.7546771E-02  0.1323266E+00
          2   -1    0    0  502    0  0.00000000000E+00  0.00000000000E+00  0.75070173590E+03  0.75070173590E+03  0.00000000000E+00 0. -1.
         -2   -1    0    0    0  501 -0.00000000000E+00 -0.00000000000E+00 -0.29608608796E+01  0.29608608796E+01  0.00000000000E+00 0.  1.
          1    1    1    2  502    0 -0.43994534138E+02 -0.75443574883E+01  0.49516434939E+03  0.49717217266E+03  0.00000000000E+00 0. -1.
         -1    1    1    2    0  501  0.43994534138E+02  0.75443574883E+01  0.25257652564E+03  0.25649042412E+03  0.00000000000E+00 0.  1.
</event>
<event>
 4    1  0.6754235E+001  0.3030441E+02  0.7546771E-02  0.1416969E+00
          2   -1    0    0  502    0  0.00000000000E+00  0.00000000000E+00  0.38008553730E+02  0.38008553730E+02  0.00000000000E+00 0. -1.
         -2   -1    0    0    0  501 -0.00000000000E+00 -0.00000000000E+00 -0.27114566970E+02  0.27114566970E+02  0.00000000000E+00 0.  1.
          1    1    1    2  502    0 -0.29849802220E+02 -0.52293959719E+01  0.16192185861E+02  0.34359047684E+02  0.00000000000E+00 0. -1.
         -1    1    1    2    0  501  0.29849802220E+02  0.52293959719E+01 -0.52981991004E+01  0.30764073016E+02  0.00000000000E+00 0.  1.
</event>
<event>
 4    1  0.6754235E+001  0.2056997E+02  0.7546771E-02  0.1525494E+00
          2   -1    0    0  502    0  0.00000000000E+00  0.00000000000E+00  0.32990468026E+02  0.32990468026E+02  0.00000000000E+00 0. -1.
         -2   -1    0    0    0  501 -0.00000000000E+00 -0.00000000000E+00 -0.29664765481E+02  0.29664765481E+02  0.00000000000E+00 0.  1.
          1    1    1    2  502    0 -0.11020360159E+01 -0.20540430571E+02  0.25265823820E+02  0.32580448504E+02  0.00000000000E+00 0. -1.
         -1    1    1    2    0  501  0.11020360159E+01  0.20540430571E+02 -0.21940121275E+02  0.30074785003E+02  0.00000000000E+00 0.  1.
</event>
<event>
 4    1  0.6754235E+001  0.3200420E+02  0.7546771E-02  0.1402944E+00
          2   -1    0    0  502    0  0.00000000000E+00  0.00000000000E+00  0.27644666472E+03  0.27644666472E+03  0.00000000000E+00 0. -1.
         -2   -1    0    0    0  501 -0.00000000000E+00 -0.00000000000E+00 -0.42337720197E+01  0.42337720197E+01  0.00000000000E+00 0.  1.
          1    1    1    2  502    0 -0.27118557147E+02  0.16995671408E+02  0.18569734654E+03  0.18843506441E+03  0.00000000000E+00 0. -1.
         -1    1    1    2    0  501  0.27118557147E+02 -0.16995671408E+02  0.86515546165E+02  0.92245372331E+02  0.00000000000E+00 0.  1.
</event>
<event>
 4    1  0.6754235E+001  0.2052389E+02  0.7546771E-02  0.1526172E+00
          2   -1    0    0  502    0  0.00000000000E+00  0.00000000000E+00  0.19858691197E+02  0.19858691197E+02  0.00000000000E+00 0. -1.
         -2   -1    0    0    0  501 -0.00000000000E+00 -0.00000000000E+00 -0.47273581412E+02  0.47273581412E+02  0.00000000000E+00 0.  1.
          1    1    1    2  502    0 -0.61227507885E+01  0.19589334356E+02 -0.38630295551E+02  0.43743911944E+02  0.00000000000E+00 0.  1.
         -1    1    1    2    0  501  0.61227507885E+01 -0.19589334356E+02  0.11215405336E+02  0.23388360665E+02  0.00000000000E+00 0. -1.
</event>
<event>
 4    1  0.6754235E+001  0.2658128E+02  0.7546771E-02  0.1451860E+00
          2   -1    0    0  502    0  0.00000000000E+00  0.00000000000E+00  0.80536380530E+02  0.80536380530E+02  0.00000000000E+00 0.  1.
         -2   -1    0    0    0  501 -0.00000000000E+00 -0.00000000000E+00 -0.94881734037E+01  0.94881734037E+01  0.00000000000E+00 0. -1.
          1    1    1    2  502    0 -0.16053507424E+02  0.21186061275E+02  0.23168182686E+02  0.35260870408E+02  0.00000000000E+00 0. -1.
         -1    1    1    2    0  501  0.16053507424E+02 -0.21186061275E+02  0.47880024440E+02  0.54763683526E+02  0.00000000000E+00 0.  1.
</event>
<event>
 4    1  0.6754235E+001  0.2215032E+02  0.7546771E-02  0.1503452E+00
          2   -1    0    0  502    0  0.00000000000E+00  0.00000000000E+00  0.80307806112E+02  0.80307806112E+02  0.00000000000E+00 0. -1.
         -2   -1    0    0    0  501 -0.00000000000E+00 -0.00000000000E+00 -0.67240916044E+01  0.67240916044E+01  0.00000000000E+00 0.  1.
          1    1    1    2  502    0  0.86515340045E+01  0.20390870123E+02  0.49948412346E+02  0.54639550884E+02  0.00000000000E+00 0. -1.
         -1    1    1    2    0  501 -0.86515340045E+01 -0.20390870123E+02  0.23635302162E+02  0.32392346832E+02  0.00000000000E+00 0.  1.
</event>
<event>
 4    1  0.6754235E+001  0.2553698E+02  0.7546771E-02  0.1462885E+00
          2   -1    0    0  502    0  0.00000000000E+00  0.00000000000E+00  0.10963668691E+02  0.10963668691E+02  0.00000000000E+00 0. -1.
         -2   -1    0    0    0  501 -0.00000000000E+00 -0.00000000000E+00 -0.62203067985E+02  0.62203067985E+02  0.00000000000E+00 0.  1.
          1    1    1    2  502    0 -0.22282134898E+02  0.12475720133E+02 -0.17967694864E+02  0.31224592667E+02  0.00000000000E+00 0. -1.
         -1    1    1    2    0  501  0.22282134898E+02 -0.12475720133E+02 -0.33271704430E+02  0.41942144010E+02  0.00000000000E+00 0.  1.
</event>
<event>
 4    1  0.6754235E+001  0.2039345E+02  0.7546771E-02  0.1528104E+00
          2   -1    0    0  502    0  0.00000000000E+00  0.00000000000E+00  0.80482103644E+03  0.80482103644E+03  0.00000000000E+00 0. -1.
         -2   -1    0    0    0  501 -0.00000000000E+00 -0.00000000000E+00 -0.56618184527E+00  0.56618184527E+00  0.00000000000E+00 0.  1.
          1    1    1    2  502    0 -0.17784041709E+02 -0.99810172414E+01  0.52111225528E+03  0.52151114604E+03  0.00000000000E+00 0. -1.
         -1    1    1    2    0  501  0.17784041709E+02  0.99810172414E+01  0.28314259932E+03  0.28387607224E+03  0.00000000000E+00 0.  1.
</event>
<event>
 4    1  0.6754235E+001  0.2031092E+02  0.7546771E-02  0.1529335E+00
          2   -1    0    0  502    0  0.00000000000E+00  0.00000000000E+00  0.31652558473E+03  0.31652558473E+03  0.00000000000E+00 0.  1.
         -2   -1    0    0    0  501 -0.00000000000E+00 -0.00000000000E+00 -0.60728514005E+01  0.60728514005E+01  0.00000000000E+00 0. -1.
          1    1    1    2  502    0 -0.18830824360E+02  0.76114067589E+01  0.12279747964E+02  0.23734482699E+02  0.00000000000E+00 0. -1.
         -1    1    1    2    0  501  0.18830824360E+02 -0.76114067589E+01  0.29817298537E+03  0.29886395343E+03  0.00000000000E+00 0.  1.
</event>
<event>
 4    1  0.6754235E+001  0.4052749E+02  0.7546771E-02  0.1345422E+00
          2   -1    0    0  502    0  0.00000000000E+00  0.00000000000E+00  0.41176897158E+03  0.41176897158E+03  0.00000000000E+00 0. -1.
         -2   -1    0    0    0  501 -0.00000000000E+00 -0.00000000000E+00 -0.66989843237E+01  0.66989843237E+01  0.00000000000E+00 0.  1.
          1    1    1    2  502    0 -0.57262750286E+01  0.40120911126E+02  0.69451409860E+02  0.80411293155E+02  0.00000000000E+00 0.  1.
         -1    1    1    2    0  501  0.57262750286E+01 -0.40120911126E+02  0.33561857740E+03  0.33805666275E+03  0.00000000000E+00 0. -1.
</event>
<event>
 4    1  0.6754235E+001  0.2196324E+02  0.7546771E-02  0.1505944E+00
          2   -1    0    0  502    0  0.00000000000E+00  0.00000000000E+00  0.16742990000E+03  0.16742990000E+03  0.00000000000E+00 0. -1.
         -2   -1    0    0    0  501 -0.00000000000E+00 -0.00000000000E+00 -0.28895944083E+01  0.28895944083E+01  0.00000000000E+00 0.  1.
          1    1    1    2  502    0  0.21956254558E+02  0.55405528099E+00  0.86884459681E+02  0.89617483928E+02  0.00000000000E+00 0. -1.
         -1    1    1    2    0  501 -0.21956254558E+02 -0.55405528099E+00  0.77655845908E+02  0.80702010478E+02  0.00000000000E+00 0.  1.
</event>
<event>
 4    1  0.6754235E+001  0.3705237E+02  0.7546771E-02  0.1366682E+00
          2   -1    0    0  502    0  0.00000000000E+00  0.00000000000E+00  0.12994226914E+04  0.12994226914E+04  0.00000000000E+00 0.  1.
         -2   -1    0    0    0  501 -0.00000000000E+00 -0.00000000000E+00 -0.14793855149E+01  0.14793855149E+01  0.00000000000E+00 0. -1.
          1    1    1    2  502    0 -0.90534478762E+01  0.35929275885E+02  0.99672429051E+03  0.99741274760E+03  0.00000000000E+00 0.  1.
         -1    1    1    2    0  501  0.90534478762E+01 -0.35929275885E+02  0.30121901539E+03  0.30348932933E+03  0.00000000000E+00 0. -1.
</event>
<event>
 4    1  0.6754235E+001  0.2018535E+02  0.7546771E-02  0.1531221E+00
          2   -1    0    0  502    0  0.00000000000E+00  0.00000000000E+00  0.14911186024E+04  0.14911186024E+04  0.00000000000E+00 0.  1.
         -2   -1    0    0    0  501 -0.00000000000E+00 -0.00000000000E+00 -0.64813217322E+00  0.64813217322E+00  0.00000000000E+00 0. -1.
          1    1    1    2  502    0 -0.77918590210E+01 -0.18620832486E+02  0.17796968980E+03  0.17911074495E+03  0.00000000000E+00 0. -1.
         -1    1    1    2    0  501  0.77918590210E+01  0.18620832486E+02  0.13125007804E+04  0.13126559896E+04  0.00000000000E+00 0.  1.
</event>
<event>
 4    1  0.6754235E+001  0.6086600E+02  0.7546771E-02  0.1256918E+00
          2   -1    0    0  502    0  0.00000000000E+00  0.00000000000E+00  0.19327145369E+04  0.19327145369E+04  0.00000000000E+00 0.  1.
         -2   -1    0    0    0  501 -0.00000000000E+00 -0.00000000000E+00 -0.23051420992E+01  0.23051420992E+01  0.00000000000E+00 0. -1.
          1    1    1    2  502    0  0.13776019258E+02 -0.59286522438E+02  0.56810343277E+03  0.57135468912E+03  0.00000000000E+00 0. -1.
         -1    1    1    2    0  501 -0.13776019258E+02  0.59286522438E+02  0.13623059620E+04  0.13636649899E+04  0.00000000000E+00 0.  1.
</event>
<event>
 4    1  0.6754235E+001  0.2923328E+02  0.7546771E-02  0.1426378E+00
          2   -1    0    0  502    0  0.00000000000E+00  0.00000000000E+00  0.18872166114E+02  0.18872166114E+02  0.00000000000E+00 0. -1.
         -2   -1    0    0    0  501 -0.00000000000E+00 -0.00000000000E+00 -0.59329888382E+02  0.59329888382E+02  0.00000000000E+00 0.  1.
          1    1    1    2  502    0 -0.54247539582E+01  0.28725537085E+02 -0.12029865085E+01  0.29258017925E+02  0.00000000000E+00 0. -1.
         -1    1    1    2    0  501  0.54247539582E+01 -0.28725537085E+02 -0.39254735759E+02  0.48944036571E+02  0.00000000000E+00 0.  1.
</event>
<event>
 4    1  0.6754235E+001  0.6415260E+02  0.7546771E-02  0.1246341E+00
          2   -1    0    0  502    0  0.00000000000E+00  0.00000000000E+00  0.41197966381E+02  0.41197966381E+02  0.00000000000E+00 0.  1.
         -2   -1    0    0    0  501 -0.00000000000E+00 -0.00000000000E+00 -0.12306906792E+03  0.12306906792E+03  0.00000000000E+00 0. -1.
          1    1    1    2  502    0  0.64111432278E+02  0.22978559773E+01 -0.52963660833E+01  0.64370858193E+02  0.00000000000E+00 0.  1.
         -1    1    1    2    0  501 -0.64111432278E+02 -0.22978559773E+01 -0.76574735459E+02  0.99896176111E+02  0.00000000000E+00 0. -1.
</event>
<event>
 4    1  0.6754235E+001  0.3215445E+02  0.7546771E-02  0.1401754E+00
          2   -1    0    0  502    0  0.00000000000E+00  0.00000000000E+00  0.38014079046E+03  0.38014079046E+03  0.00000000000E+00 0.  1.
         -2   -1    0    0    0  501 -0.00000000000E+00 -0.00000000000E+00 -0.27570218173E+01  0.27570218173E+01  0.00000000000E+00 0. -1.
          1    1    1    2  502    0 -0.25587199035E+02  0.19473152344E+02  0.16644810215E+03  0.16952545274E+03  0.00000000000E+00 0.  1.
         -1    1    1    2    0  501  0.25587199035E+02 -0.19473152344E+02  0.21093566649E+03  0.21337235954E+03  0.00000000000E+00 0. -1.
</event>
<event>
 4    1  0.6754235E+001  0.3315689E+02  0.7546771E-02  0.1394005E+00
          2   -1    0    0  502    0  0.00000000000E+00  0.00000000000E+00  0.49844767957E+03  0.49844767957E+03  0.00000000000E+00 0. -1.
         -2   -1    0    0    0  501 -0.00000000000E+00 -0.00000000000E+00 -0.29855893318E+01  0.29855893318E+01  0.00000000000E+00 0.  1.
          1    1    1    2  502    0  0.25990295254E+02 -0.20588438675E+02  0.11958336729E+03  0.12409496762E+03  0.00000000000E+00 0.  1.
         -1    1    1    2    0  501 -0.25990295254E+02  0.20588438675E+02  0.37587872294E+03  0.37733830129E+03  0.00000000000E+00 0. -1.
</event>
<event>
 4    1  0.6754235E+001  0.3336980E+02  0.7546771E-02  0.1392401E+00
          2   -1    0    0  502    0  0.00000000000E+00  0.00000000000E+00  0.11929772906E+04  0.11929772906E+04  0.00000000000E+00 0.  1.
         -2   -1    0    0    0  501 -0.00000000000E+00 -0.00000000000E+00 -0.93501699093E+00  0.93501699093E+00  0.00000000000E+00 0. -1.
          1    1    1    2  502    0 -0.33357476172E+02  0.90698457116E+00  0.57131778464E+03  0.57229149468E+03  0.00000000000E+00 0. -1.
         -1    1    1    2    0  501  0.33357476172E+02 -0.90698457116E+00  0.62072448895E+03  0.62162081289E+03  0.00000000000E+00 0.  1.
</event>
<event>
 4    1  0.6754235E+001  0.4272884E+02  0.7546771E-02  0.1333196E+00
          2   -1    0    0  502    0  0.00000000000E+00  0.00000000000E+00  0.15996011571E+03  0.15996011571E+03  0.00000000000E+00 0.  1.
         -2   -1    0    0    0  501 -0.00000000000E+00 -0.00000000000E+00 -0.11432579792E+02  0.11432579792E+02  0.00000000000E+00 0. -1.
          1    1    1    2  502    0  0.40771073939E+02  0.12785680051E+02  0.70791282434E+02  0.82687119633E+02  0.00000000000E+00 0.  1.
         -1    1    1    2    0  501 -0.40771073939E+02 -0.12785680051E+02  0.77736253482E+02  0.88705575867E+02  0.00000000000E+00 0. -1.
</event>
<event>
 4    1  0.6754235E+001  0.2130172E+02  0.7546771E-02  0.1515000E+00
          2   -1    0    0  502    0  0.00000000000E+00  0.00000000000E+00  0.43075661222E+03  0.43075661222E+03  0.00000000000E+00 0. -1.
         -2   -1    0    0    0  501 -0.00000000000E+00 -0.00000000000E+00 -0.17893507942E+01  0.17893507942E+01  0.00000000000E+00 0.  1.
          1    1    1    2  502    0  0.67477349631E+01  0.20204733090E+02  0.75783756260E+02  0.78720650907E+02  0.00000000000E+00 0.  1.
         -1    1    1    2    0  501 -0.67477349631E+01 -0.20204733090E+02  0.35318350516E+03  0.35382531210E+03  0.00000000000E+00 0. -1.
</event>
<event>
 4    1  0.6754235E+001  0.3162811E+02  0.7546771E-02  0.1405957E+00
          2   -1    0    0  502    0  0.00000000000E+00  0.00000000000E+00  0.24051044775E+03  0.24051044775E+03  0.00000000000E+00 0. -1.
         -2   -1    0    0    0  501 -0.00000000000E+00 -0.00000000000E+00 -0.81909491105E+01  0.81909491105E+01  0.00000000000E+00 0.  1.
          1    1    1    2  502    0  0.26734099705E+02 -0.16900460557E+02  0.20340190468E+03  0.20584623504E+03  0.00000000000E+00 0. -1.
         -1    1    1    2    0  501 -0.26734099705E+02  0.16900460557E+02  0.28917593964E+02  0.42855161822E+02  0.00000000000E+00 0.  1.
</event>
<event>
 4    1  0.6754235E+001  0.2782731E+02  0.7546771E-02  0.1439470E+00
          2   -1    0    0  502    0  0.00000000000E+00  0.00000000000E+00  0.59636254965E+03  0.59636254965E+03  0.00000000000E+00 0. -1.
         -2   -1    0    0    0  501 -0.00000000000E+00 -0.00000000000E+00 -0.15035921780E+01  0.15035921780E+01  0.00000000000E+00 0.  1.
          1    1    1    2  502    0  0.22337544568E+02 -0.16594983063E+02  0.40784099950E+03  0.40878923694E+03  0.00000000000E+00 0. -1.
         -1    1    1    2    0  501 -0.22337544568E+02  0.16594983063E+02  0.18701795797E+03  0.18907690489E+03  0.00000000000E+00 0.  1.
</event>
<event>
 4    1  0.6754235E+001  0.2973293E+02  0.7546771E-02  0.1421932E+00
          2   -1    0    0  502    0  0.00000000000E+00  0.00000000000E+00  0.19608956638E+03  0.19608956638E+03  0.00000000000E+00 0.  1.
         -2   -1    0    0    0  501 -0.00000000000E+00 -0.00000000000E+00 -0.61549030453E+01  0.61549030453E+01  0.00000000000E+00 0. -1.
          1    1    1    2  502    0 -0.13106583733E+02 -0.26688286557E+02  0.42665204313E+02  0.52003527146E+02  0.00000000000E+00 0. -1.
         -1    1    1    2    0  501  0.13106583733E+02  0.26688286557E+02  0.14726945903E+03  0.15024094228E+03  0.00000000000E+00 0.  1.
</event>
<event>
 4    1  0.6754235E+001  0.2312580E+02  0.7546771E-02  0.1490925E+00
          2   -1    0    0  502    0  0.00000000000E+00  0.00000000000E+00  0.48115771128E+03  0.48115771128E+03  0.00000000000E+00 0. -1.
         -2   -1    0    0    0  501 -0.00000000000E+00 -0.00000000000E+00 -0.13579976615E+01  0.13579976615E+01  0.00000000000E+00 0.  1.
          1    1    1    2  502    0 -0.14474509783E+02 -0.18035825827E+02  0.34268877964E+03  0.34346819669E+03  0.00000000000E+00 0. -1.
         -1    1    1    2    0  501  0.14474509783E+02  0.18035825827E+02  0.13711093398E+03  0.13904751226E+03  0.00000000000E+00 0.  1.
</event>
<event>
 4    1  0.6754235E+001  0.2146743E+02  0.7546771E-02  0.1512695E+00
          2   -1    0    0  502    0  0.00000000000E+00  0.00000000000E+00  0.59673514559E+03  0.59673514559E+03  0.00000000000E+00 0.  1.
         -2   -1    0    0    0  501 -0.00000000000E+00 -0.00000000000E+00 -0.78696054577E+00  0.78696054577E+00  0.00000000000E+00 0. -1.
          1    1    1    2  502    0  0.19918697895E+02 -0.80060013945E+01  0.33877034543E+03  0.33944984538E+03  0.00000000000E+00 0.  1.
         -1    1    1    2    0  501 -0.19918697895E+02  0.80060013945E+01  0.25717783961E+03  0.25807226076E+03  0.00000000000E+00 0. -1.
</event>
<event>
 4    1  0.6754235E+001  0.2307302E+02  0.7546771E-02  0.1491583E+00
          2   -1    0    0  502    0  0.00000000000E+00  0.00000000000E+00  0.15057581512E+02  0.15057581512E+02  0.00000000000E+00 0.  1.
         -2   -1    0    0    0  501 -0.00000000000E+00 -0.00000000000E+00 -0.37883677241E+02  0.37883677241E+02  0.00000000000E+00 0. -1.
          1    1    1    2  502    0 -0.97736111822E+01 -0.20900731466E+02 -0.45744616304E+01  0.23522111950E+02  0.00000000000E+00 0. -1.
         -1    1    1    2    0  501  0.97736111822E+01  0.20900731466E+02 -0.18251634099E+02  0.29419146803E+02  0.00000000000E+00 0.  1.
</event>
<event>
 4    1  0.6754235E+001  0.5492259E+02  0.7546771E-02  0.1278133E+00
          2   -1    0    0  502    0  0.00000000000E+00  0.00000000000E+00  0.16059329018E+04  0.16059329018E+04  0.00000000000E+00 0. -1.
         -2   -1    0    0    0  501 -0.00000000000E+00 -0.00000000000E+00 -0.20019055310E+01  0.20019055310E+01  0.00000000000E+00 0.  1.
          1    1    1    2  502    0  0.45857655099E+02 -0.30225255874E+02  0.60222668850E+03  0.60472595029E+03  0.00000000000E+00 0.  1.
         -1    1    1    2    0  501 -0.45857655099E+02  0.30225255874E+02  0.10017043077E+04  0.10032088570E+04  0.00000000000E+00 0. -1.
</event>
<event>
 4    1  0.6754235E+001  0.2040524E+02  0.7546771E-02  0.1527928E+00
          2   -1    0    0  502    0  0.00000000000E+00  0.00000000000E+00  0.10736334342E+04  0.10736334342E+04  0.00000000000E+00 0. -1.
         -2   -1    0    0    0  501 -0.00000000000E+00 -0.00000000000E+00 -0.19559564589E+01  0.19559564589E+01  0.00000000000E+00 0.  1.
          1    1    1    2  502    0 -0.69018369364E+01 -0.19202562001E+02  0.10173752337E+04  0.10175798445E+04  0.00000000000E+00 0. -1.
         -1    1    1    2    0  501  0.69018369364E+01  0.19202562001E+02  0.54302244070E+02  0.58009546210E+02  0.00000000000E+00 0.  1.
</event>
<event>
 4    1  0.6754235E+001  0.2547664E+02  0.7546771E-02  0.1463541E+00
          2   -1    0    0  502    0  0.00000000000E+00  0.00000000000E+00  0.20416235828E+02  0.20416235828E+02  0.00000000000E+00 0. -1.
         -2   -1    0    0    0  501 -0.00000000000E+00 -0.00000000000E+00 -0.48087230153E+02  0.48087230153E+02  0.00000000000E+00 0.  1.
          1    1    1    2  502    0  0.25403609245E+02 -0.19275864102E+01 -0.33774666749E+02  0.42305875078E+02  0.00000000000E+00 0.  1.
         -1    1    1    2    0  501 -0.25403609245E+02  0.19275864102E+01  0.61036724247E+01  0.26197590903E+02  0.00000000000E+00 0. -1.
</event>
<event>
 4    1  0.6754235E+001  0.2269512E+02  0.7546771E-02  0.1496362E+00
          2   -1    0    0  502    0  0.00000000000E+00  0.00000000000E+00  0.12253895656E+04  0.12253895656E+04  0.00000000000E+00 0.  1.
         -2   -1    0    0    0  501 -0.00000000000E+00 -0.00000000000E+00 -0.45608949220E+00  0.45608949220E+00  0.00000000000E+00 0. -1.
          1    1    1    2  502    0 -0.72605295804E+01 -0.21502399603E+02  0.78408916703E+03  0.78441754846E+03  0.00000000000E+00 0.  1.
         -1    1    1    2    0  501  0.72605295804E+01  0.21502399603E+02  0.44084430907E+03  0.44142810663E+03  0.00000000000E+00 0. -1.
</event>
<event>
 4    1  0.6754235E+001  0.2093003E+02  0.7546771E-02  0.1520266E+00
          2   -1    0    0  502    0  0.00000000000E+00  0.00000000000E+00  0.21811352989E+02  0.21811352989E+02  0.00000000000E+00 0.  1.
         -2   -1    0    0    0  501 -0.00000000000E+00 -0.00000000000E+00 -0.29207572511E+02  0.29207572511E+02  0.00000000000E+00 0. -1.
          1    1    1    2  502    0  0.50389589357E+01 -0.20314401237E+02  0.10558906122E+02  0.23442621510E+02  0.00000000000E+00 0.  1.
         -1    1    1    2    0  501 -0.50389589357E+01  0.20314401237E+02 -0.17955125644E+02  0.27576303989E+02  0.00000000000E+00 0. -1.
</event>
<event>
 4    1  0.6754235E+001  0.2100627E+02  0.7546771E-02  0.1519175E+00
          2   -1    0    0  502    0  0.00000000000E+00  0.00000000000E+00  0.57349180110E+02  0.57349180110E+02  0.00000000000E+00 0.  1.
         -2   -1    0    0    0  501 -0.00000000000E+00 -0.00000000000E+00 -0.81266333733E+01  0.81266333733E+01  0.00000000000E+00 0. -1.
          1    1    1    2  502    0 -0.19786361248E+02  0.70543198817E+01  0.32162019273E+02  0.38414307284E+02  0.00000000000E+00 0. -1.
         -1    1    1    2    0  501  0.19786361248E+02 -0.70543198817E+01  0.17060527463E+02  0.27061506199E+02  0.00000000000E+00 0.  1.
</event>
<event>
 4    1  0.6754235E+001  0.5942765E+02  0.7546771E-02  0.1261790E+00
          2   -1    0    0  502    0  0.00000000000E+00  0.00000000000E+00  0.37794069925E+04  0.37794069925E+04  0.00000000000E+00 0. -1.
         -2   -1    0    0    0  501 -0.00000000000E+00 -0.00000000000E+00 -0.11193299250E+01  0.11193299250E+01  0.00000000000E+00 0.  1.
          1    1    1    2  502    0  0.53727709096E+02 -0.25396425298E+02  0.26573801622E+04  0.26580445767E+04  0.00000000000E+00 0.  1.
         -1    1    1    2    0  501 -0.53727709096E+02  0.25396425298E+02  0.11209075004E+04  0.11224817457E+04  0.00000000000E+00 0. -1.
</event>
<event>
 4    1  0.6754235E+001  0.6835403E+02  0.7546771E-02  0.1233817E+00
          2   -1    0    0  502    0  0.00000000000E+00  0.00000000000E+00  0.27071500222E+03  0.27071500222E+03  0.00000000000E+00 0.  1.
         -2   -1    0    0    0  501 -0.00000000000E+00 -0.00000000000E+00 -0.19706783735E+02  0.19706783735E+02  0.00000000000E+00 0. -1.
          1    1    1    2  502    0 -0.59568439831E+02  0.33524237139E+02  0.17668133852E+03  0.18944278524E+03  0.00000000000E+00 0.  1.
         -1    1    1    2    0  501  0.59568439831E+02 -0.33524237139E+02  0.74326879970E+02  0.10097900072E+03  0.00000000000E+00 0. -1.
</event>
<event>
 4    1  0.6754235E+001  0.2172876E+02  0.7546771E-02  0.1509109E+00
          2   -1    0    0  502    0  0.00000000000E+00  0.00000000000E+00  0.82779369693E+01  0.82779369693E+01  0.00000000000E+00 0.  1.
         -2   -1    0    0    0  501 -0.00000000000E+00 -0.00000000000E+00 -0.87945681810E+02  0.87945681810E+02  0.00000000000E+00 0. -1.
          1    1    1    2  502    0  0.11780437274E+02 -0.18258160048E+02 -0.68356714832E+02  0.71727118813E+02  0.00000000000E+00 0. -1.
         -1    1    1    2    0  501 -0.11780437274E+02  0.18258160048E+02 -0.11311030010E+02  0.24496499966E+02  0.00000000000E+00 0.  1.
</event>
<event>
 4    1  0.6754235E+001  0.2511584E+02  0.7546771E-02  0.1467512E+00
          2   -1    0    0  502    0  0.00000000000E+00  0.00000000000E+00  0.97385224995E+03  0.97385224995E+03  0.00000000000E+00 0. -1.
         -2   -1    0    0    0  501 -0.00000000000E+00 -0.00000000000E+00 -0.12422710529E+01  0.12422710529E+01  0.00000000000E+00 0.  1.
          1    1    1    2  502    0 -0.24914538204E+02 -0.31735092873E+01  0.82358836811E+03  0.82397124068E+03  0.00000000000E+00 0. -1.
         -1    1    1    2    0  501  0.24914538204E+02  0.31735092873E+01  0.14902161078E+03  0.15112328032E+03  0.00000000000E+00 0.  1.
</event>
<event>
 4    1  0.6754235E+001  0.3239590E+02  0.7546771E-02  0.1399857E+00
          2   -1    0    0  502    0  0.00000000000E+00  0.00000000000E+00  0.25471437026E+02  0.25471437026E+02  0.00000000000E+00 0. -1.
         -2   -1    0    0    0  501 -0.00000000000E+00 -0.00000000000E+00 -0.90076800680E+02  0.90076800680E+02  0.00000000000E+00 0.  1.
          1    1    1    2  502    0  0.13738293016E+02 -0.29338602379E+02 -0.74859175819E+02  0.81568317923E+02  0.00000000000E+00 0.  1.
         -1    1    1    2    0  501 -0.13738293016E+02  0.29338602379E+02  0.10253812164E+02  0.33979919783E+02  0.00000000000E+00 0. -1.
</event>
<event>
 4    1  0.6754235E+001  0.5372127E+02  0.7546771E-02  0.1282797E+00
          2   -1    0    0  502    0  0.00000000000E+00  0.00000000000E+00  0.32603313294E+03  0.32603313294E+03  0.00000000000E+00 0.  1.
         -2   -1    0    0    0  501 -0.00000000000E+00 -0.00000000000E+00 -0.88624827843E+01  0.88624827843E+01  0.00000000000E+00 0. -1.
          1    1    1    2  502    0 -0.46727263388E+02 -0.26505421443E+02  0.16440356190E+03  0.17295810381E+03  0.00000000000E+00 0. -1.
         -1    1    1    2    0  501  0.46727263388E+02  0.26505421443E+02  0.15276708826E+03  0.16193751192E+03  0.00000000000E+00 0.  1.
</event>
<event>
 4    1  0.6754235E+001  0.2223355E+02  0.7546771E-02  0.1502353E+00
          2   -1    0    0  502    0  0.00000000000E+00  0.00000000000E+00  0.47725362313E+01  0.47725362313E+01  0.00000000000E+00 0.  1.
         -2   -1    0    0    0  501 -0.00000000000E+00 -0.00000000000E+00 -0.13327429940E+03  0.13327429940E+03  0.00000000000E+00 0. -1.
          1    1    1    2  502    0  0.13731258569E+02  0.17486659822E+02 -0.31669242566E+02  0.38694594691E+02  0.00000000000E+00 0.  1.
         -1    1    1    2    0  501 -0.13731258569E+02 -0.17486659822E+02 -0.96832520604E+02  0.99352240942E+02  0.00000000000E+00 0. -1.
</event>
<event>
 4    1  0.6754235E+001  0.2090819E+02  0.7546771E-02  0.1520580E+00
          2   -1    0    0  502    0  0.00000000000E+00  0.00000000000E+00  0.75905199444E+02  0.75905199444E+02  0.00000000000E+00 0. -1.
         -2   -1    0    0    0  501 -0.00000000000E+00 -0.00000000000E+00 -0.58740463496E+01  0.58740463496E+01  0.00000000000E+00 0.  1.
          1    1    1    2  502    0 -0.20895150729E+02 -0.73838806234E+00  0.40733259221E+02  0.45785925214E+02  0.00000000000E+00 0. -1.
         -1    1    1    2    0  501  0.20895150729E+02  0.73838806234E+00  0.29297893873E+02  0.35993320580E+02  0.00000000000E+00 0.  1.
</event>
<event>
 4    1  0.6754235E+001  0.2116662E+02  0.7546771E-02  0.1516899E+00
          2   -1    0    0  502    0  0.00000000000E+00  0.00000000000E+00  0.11510594109E+03  0.11510594109E+03  0.00000000000E+00 0. -1.
         -2   -1    0    0    0  501 -0.00000000000E+00 -0.00000000000E+00 -0.42784114917E+01  0.42784114917E+01  0.00000000000E+00 0.  1.
          1    1    1    2  502    0  0.14364685247E+02  0.15546115767E+02  0.37481416086E+02  0.43045121088E+02  0.00000000000E+00 0.  1.
         -1    1    1    2    0  501 -0.14364685247E+02 -0.15546115767E+02  0.73346113508E+02  0.76339231489E+02  0.00000000000E+00 0. -1.
</event>
<event>
 4    1  0.6754235E+001  0.2897680E+02  0.7546771E-02  0.1428701E+00
          2   -1    0    0  502    0  0.00000000000E+00  0.00000000000E+00  0.46372861008E+02  0.46372861008E+02  0.00000000000E+00 0.  1.
         -2   -1    0    0    0  501 -0.00000000000E+00 -0.00000000000E+00 -0.51321145529E+02  0.51321145529E+02  0.00000000000E+00 0. -1.
          1    1    1    2  502    0 -0.12852270970E+02 -0.25970637944E+02  0.36822360656E+02  0.46856601974E+02  0.00000000000E+00 0.  1.
         -1    1    1    2    0  501  0.12852270970E+02  0.25970637944E+02 -0.41770645176E+02  0.50837404563E+02  0.00000000000E+00 0. -1.
</event>
<event>
 4    1  0.6754235E+001  0.6790613E+02  0.7546771E-02  0.1235103E+00
          2   -1    0    0  502    0  0.00000000000E+00  0.00000000000E+00  0.10348928798E+02  0.10348928798E+02  0.00000000000E+00 0.  1.
         -2   -1    0    0    0  501 -0.00000000000E+00 -0.00000000000E+00 -0.45557965683E+03  0.45557965683E+03  0.00000000000E+00 0. -1.
          1    1    1    2  502    0  0.43410024772E+02 -0.52218888536E+02 -0.18809548708E+03  0.19997788585E+03  0.00000000000E+00 0.  1.
         -1    1    1    2    0  501 -0.43410024772E+02  0.52218888536E+02 -0.25713524095E+03  0.26595069977E+03  0.00000000000E+00 0. -1.
</event>
<event>
 4    1  0.6754235E+001  0.2471953E+02  0.7546771E-02  0.1471965E+00
          2   -1    0    0  502    0  0.00000000000E+00  0.00000000000E+00  0.66753622417E+03  0.66753622417E+03  0.00000000000E+00 0. -1.
         -2   -1    0    0    0  501 -0.00000000000E+00 -0.00000000000E+00 -0.11610055756E+01  0.11610055756E+01  0.00000000000E+00 0.  1.
          1    1    1    2  502    0 -0.13872369048E+02  0.20460027935E+02  0.48697160694E+03  0.48759860678E+03  0.00000000000E+00 0. -1.
         -1    1    1    2    0  501  0.13872369048E+02 -0.20460027935E+02  0.17940361165E+03  0.18109862296E+03  0.00000000000E+00 0.  1.
</event>
<event>
 4    1  0.6754235E+001  0.2060304E+02  0.7546771E-02  0.1525009E+00
          2   -1    0    0  502    0  0.00000000000E+00  0.00000000000E+00  0.79239782919E+03  0.79239782919E+03  0.00000000000E+00 0.  1.
         -2   -1    0    0    0  501 -0.00000000000E+00 -0.00000000000E+00 -0.28073042875E+01  0.28073042875E+01  0.00000000000E+00 0. -1.
          1    1    1    2  502    0  0.13826887967E+02 -0.15274245083E+02  0.37134720014E+02  0.42467314775E+02  0.00000000000E+00 0. -1.
         -1    1    1    2    0  501 -0.13826887967E+02  0.15274245083E+02  0.75245580489E+03  0.75273781871E+03  0.00000000000E+00 0.  1.
</event>
<event>
 4    1  0.6754235E+001  0.4405583E+02  0.7546771E-02  0.1326229E+00
          2   -1    0    0  502    0  0.00000000000E+00  0.00000000000E+00  0.31303176007E+02  0.31303176007E+02  0.00000000000E+00 0.  1.
         -2   -1    0    0    0  501 -0.00000000000E+00 -0.00000000000E+00 -0.62826458088E+02  0.62826458088E+02  0.00000000000E+00 0. -1.
          1    1    1    2  502    0  0.41684478105E+02  0.14259034733E+02 -0.10376024463E+02  0.45261215958E+02  0.00000000000E+00 0. -1.
         -1    1    1    2    0  501 -0.41684478105E+02 -0.14259034733E+02 -0.21147257618E+02  0.48868418136E+02  0.00000000000E+00 0.  1.
</event>
<event>
 4    1  0.6754235E+001  0.2163613E+02  0.7546771E-02  0.1510373E+00
          2   -1    0    0  502    0  0.00000000000E+00  0.00000000000E+00  0.59838269431E+01  0.59838269431E+01  0.00000000000E+00 0.  1.
         -2   -1    0    0    0  501 -0.00000000000E+00 -0.00000000000E+00 -0.97709932304E+02  0.97709932304E+02  0.00000000000E+00 0. -1.
          1    1    1    2  502    0 -0.21616848985E+02  0.91328834853E+00 -0.22714008399E+02  0.31369546271E+02  0.00000000000E+00 0.  1.
         -1    1    1    2    0  501  0.21616848985E+02 -0.91328834853E+00 -0.69012096961E+02  0.72324212976E+02  0.00000000000E+00 0. -1.
</event>
<event>
 4    1  0.6754235E+001  0.2351635E+02  0.7546771E-02  0.1486114E+00
          2   -1    0    0  502    0  0.00000000000E+00  0.00000000000E+00  0.21937828523E+03  0.21937828523E+03  0.00000000000E+00 0.  1.
         -2   -1    0    0    0  501 -0.00000000000E+00 -0.00000000000E+00 -0.25257552950E+01  0.25257552950E+01  0.00000000000E+00 0. -1.
          1    1    1    2  502    0 -0.16381084194E+02 -0.16872420845E+02  0.10353384894E+03  0.10617097711E+03  0.00000000000E+00 0. -1.
         -1    1    1    2    0  501  0.16381084194E+02  0.16872420845E+02  0.11331868100E+03  0.11573306341E+03  0.00000000000E+00 0.  1.
</event>
<event>
 4    1  0.6754235E+001  0.3435110E+02  0.7546771E-02  0.1385183E+00
          2   -1    0    0  502    0  0.00000000000E+00  0.00000000000E+00  0.20342523627E+02  0.20342523627E+02  0.00000000000E+00 0.  1.
         -2   -1    0    0    0  501 -0.00000000000E+00 -0.00000000000E+00 -0.70454901725E+02  0.70454901725E+02  0.00000000000E+00 0. -1.
          1    1    1    2  502    0  0.30752862351E+02 -0.15305530094E+02 -0.44139134865E+02  0.55930859290E+02  0.00000000000E+00 0. -1.
         -1    1    1    2    0  501 -0.30752862351E+02  0.15305530094E+02 -0.59732432322E+01  0.34866566062E+02  0.00000000000E+00 0.  1.
</event>
<event>
 4    1  0.6754235E+001  0.2049935E+02  0.7546771E-02  0.1526534E+00
          2   -1    0    0  502    0  0.00000000000E+00  0.00000000000E+00  0.19293321439E+04  0.19293321439E+04  0.00000000000E+00 0.  1.
         -2   -1    0    0    0  501 -0.00000000000E+00 -0.00000000000E+00 -0.27377902713E+00  0.27377902713E+00  0.00000000000E+00 0. -1.
          1    1    1    2  502    0  0.20407350513E+02 -0.19399151972E+01  0.14007653665E+04  0.14009153562E+04  0.00000000000E+00 0.  1.
         -1    1    1    2    0  501 -0.20407350513E+02  0.19399151972E+01  0.52829299836E+03  0.52869056673E+03  0.00000000000E+00 0. -1.
</event>
<event>
 4    1  0.6754235E+001  0.2271502E+02  0.7546771E-02  0.1496108E+00
          2   -1    0    0  502    0  0.00000000000E+00  0.00000000000E+00  0.80158307359E+02  0.80158307359E+02  0.00000000000E+00 0. -1.
         -2   -1    0    0    0  501 -0.00000000000E+00 -0.00000000000E+00 -0.91346180120E+01  0.91346180120E+01  0.00000000000E+00 0.  1.
          1    1    1    2  502    0 -0.16080698973E+02  0.16043164976E+02  0.59774544126E+02  0.63945040053E+02  0.00000000000E+00 0. -1.
         -1    1    1    2    0  501  0.16080698973E+02 -0.16043164976E+02  0.11249145221E+02  0.25347885318E+02  0.00000000000E+00 0.  1.
</event>
<event>
 4    1  0.6754235E+001  0.2115353E+02  0.7546771E-02  0.1517084E+00
          2   -1    0    0  502    0  0.00000000000E+00  0.00000000000E+00  0.11545737217E+04  0.11545737217E+04  0.00000000000E+00 0. -1.
         -2   -1    0    0    0  501 -0.00000000000E+00 -0.00000000000E+00 -0.40746001427E+00  0.40746001427E+00  0.00000000000E+00 0.  1.
          1    1    1    2  502    0 -0.34047226137E+01 -0.20877731442E+02  0.44947456757E+03  0.44997206435E+03  0.00000000000E+00 0.  1.
         -1    1    1    2    0  501  0.34047226137E+01  0.20877731442E+02  0.70469169414E+03  0.70500911739E+03  0.00000000000E+00 0. -1.
</event>
<event>
 4    1  0.6754235E+001  0.3432597E+02  0.7546771E-02  0.1385365E+00
          2   -1    0    0  502    0  0.00000000000E+00  0.00000000000E+00  0.22352839039E+03  0.22352839039E+03  0.00000000000E+00 0.  1.
         -2   -1    0    0    0  501 -0.00000000000E+00 -0.00000000000E+00 -0.53470536633E+01  0.53470536633E+01  0.00000000000E+00 0. -1.
          1    1    1    2  502    0  0.88397523646E+01  0.33168221818E+02  0.12271706294E+03  0.12742742914E+03  0.00000000000E+00 0. -1.
         -1    1    1    2    0  501 -0.88397523646E+01 -0.33168221818E+02  0.95464273790E+02  0.10144801492E+03  0.00000000000E+00 0.  1.
</event>
<event>
 4    1  0.6754235E+001  0.2595353E+02  0.7546771E-02  0.1458413E+00
          2   -1    0    0  502    0  0.00000000000E+00  0.00000000000E+00  0.10056453977E+04  0.10056453977E+04  0.00000000000E+00 0.  1.
         -2   -1    0    0    0  501 -0.00000000000E+00 -0.00000000000E+00 -0.18215121878E+01  0.18215121878E+01  0.00000000000E+00 0. -1.
          1    1    1    2  502    0 -0.25040297552E+02  0.68241719121E+01  0.90246115799E+03  0.90283427467E+03  0.00000000000E+00 0.  1.
         -1    1    1    2    0  501  0.25040297552E+02 -0.68241719121E+01  0.10136272755E+03  0.10463263526E+03  0.00000000000E+00 0. -1.
</event>
<event>
 4    1  0.6754235E+001  0.2023049E+02  0.7546771E-02  0.1530541E+00
          2   -1    0    0  502    0  0.00000000000E+00  0.00000000000E+00  0.10101026211E+04  0.10101026211E+04  0.00000000000E+00 0.  1.
         -2   -1    0    0    0  501 -0.00000000000E+00 -0.00000000000E+00 -0.43599022741E+00  0.43599022741E+00  0.00000000000E+00 0. -1.
          1    1    1    2  502    0  0.43523626406E+01 -0.19756757868E+02  0.63915243543E+03  0.63947252345E+03  0.00000000000E+00 0. -1.
         -1    1    1    2    0  501 -0.43523626406E+01  0.19756757868E+02  0.37051419545E+03  0.37106608787E+03  0.00000000000E+00 0.  1.
</event>
<event>
 4    1  0.6754235E+001  0.4267388E+02  0.7546771E-02  0.1333491E+00
          2   -1    0    0  502    0  0.00000000000E+00  0.00000000000E+00  0.14392622057E+02  0.14392622057E+02  0.00000000000E+00 0.  1.
         -2   -1    0    0    0  501 -0.00000000000E+00 -0.00000000000E+00 -0.12698859795E+03  0.12698859795E+03  0.00000000000E+00 0. -1.
          1    1    1    2  502    0 -0.41106177165E+02  0.11460479021E+02 -0.60558334110E+02  0.74083548853E+02  0.00000000000E+00 0. -1.
         -1    1    1    2    0  501  0.41106177165E+02 -0.11460479021E+02 -0.52037641784E+02  0.67297671155E+02  0.00000000000E+00 0.  1.
</event>
<event>
 4    1  0.6754235E+001  0.2735880E+02  0.7546771E-02  0.1444037E+00
          2   -1    0    0  502    0  0.00000000000E+00  0.00000000000E+00  0.63070562424E+03  0.63070562424E+03  0.00000000000E+00 0.  1.
         -2   -1    0    0    0  501 -0.00000000000E+00 -0.00000000000E+00 -0.11978934192E+01  0.11978934192E+01  0.00000000000E+00 0. -1.
          1    1    1    2  502    0 -0.26203014359E+02  0.78680427099E+01  0.34519655695E+03  0.34627903054E+03  0.00000000000E+00 0. -1.
         -1    1    1    2    0  501  0.26203014359E+02 -0.78680427099E+01  0.28431117386E+03  0.28562448712E+03  0.00000000000E+00 0.  1.
</event>
<event>
 4    1  0.6754235E+001  0.2137120E+02  0.7546771E-02  0.1514031E+00
          2   -1    0    0  502    0  0.00000000000E+00  0.00000000000E+00  0.34223273501E+02  0.34223273501E+02  0.00000000000E+00 0. -1.
         -2   -1    0    0    0  501 -0.00000000000E+00 -0.00000000000E+00 -0.14616202889E+02  0.14616202889E+02  0.00000000000E+00 0.  1.
          1    1    1    2  502    0  0.12555707023E+02 -0.17293994069E+02  0.26034246086E+01  0.21529185526E+02  0.00000000000E+00 0.  1.
         -1    1    1    2    0  501 -0.12555707023E+02  0.17293994069E+02  0.17003646003E+02  0.27310290865E+02  0.00000000000E+00 0. -1.
</event>
<event>
 4    1  0.6754235E+001  0.3019743E+02  0.7546771E-02  0.1417888E+00
          2   -1    0    0  502    0  0.00000000000E+00  0.00000000000E+00  0.69628895129E+02  0.69628895129E+02  0.00000000000E+00 0. -1.
         -2   -1    0    0    0  501 -0.00000000000E+00 -0.00000000000E+00 -0.20510760400E+02  0.20510760400E+02  0.00000000000E+00 0.  1.
          1    1    1    2  502    0 -0.28049491666E+02  0.11185305429E+02 -0.25386713556E+01  0.30303958364E+02  0.00000000000E+00 0.  1.
         -1    1    1    2    0  501  0.28049491666E+02 -0.11185305429E+02  0.51656806085E+02  0.59835697164E+02  0.00000000000E+00 0. -1.
</event>
<event>
 4    1  0.6754235E+001  0.2556746E+02  0.7546771E-02  0.1462554E+00
          2   -1    0    0  502    0  0.00000000000E+00  0.00000000000E+00  0.15862896379E+04  0.15862896379E+04  0.00000000000E+00 0. -1.
         -2   -1    0    0    0  501 -0.00000000000E+00 -0.00000000000E+00 -0.66794623028E+00  0.66794623028E+00  0.00000000000E+00 0.  1.
          1    1    1    2  502    0  0.17408074443E+02  0.18725752184E+02  0.30171962877E+03  0.30280097298E+03  0.00000000000E+00 0.  1.
         -1    1    1    2    0  501 -0.17408074443E+02 -0.18725752184E+02  0.12839020629E+04  0.12841566111E+04  0.00000000000E+00 0. -1.
</event>
<event>
 4    1  0.6754235E+001  0.2846973E+02  0.7546771E-02  0.1433378E+00
          2   -1    0    0  502    0  0.00000000000E+00  0.00000000000E+00  0.10779445917E+03  0.10779445917E+03  0.00000000000E+00 0. -1.
         -2   -1    0    0    0  501 -0.00000000000E+00 -0.00000000000E+00 -0.76162999644E+01  0.76162999644E+01  0.00000000000E+00 0.  1.
          1    1    1    2  502    0  0.28059025738E+02  0.48183875529E+01  0.56605390659E+02  0.63361629048E+02  0.00000000000E+00 0. -1.
         -1    1    1    2    0  501 -0.28059025738E+02 -0.48183875529E+01  0.43572768550E+02  0.52049130090E+02  0.00000000000E+00 0.  1.
</event>
<event>
 4    1  0.6754235E+001  0.3630369E+02  0.7546771E-02  0.1371622E+00
          2   -1    0    0  502    0  0.00000000000E+00  0.00000000000E+00  0.89099853360E+02  0.89099853360E+02  0.00000000000E+00 0.  1.
         -2   -1    0    0    0  501 -0.00000000000E+00 -0.00000000000E+00 -0.41900656488E+02  0.41900656488E+02  0.00000000000E+00 0. -1.
          1    1    1    2  502    0 -0.23222314625E+02  0.27904879487E+02  0.76284623163E+02  0.84482553979E+02  0.00000000000E+00 0.  1.
         -1    1    1    2    0  501  0.23222314625E+02 -0.27904879487E+02 -0.29085426290E+02  0.46517955869E+02  0.00000000000E+00 0. -1.
</event>
<event>
 4    1  0.6754235E+001  0.3186585E+02  0.7546771E-02  0.1404046E+00
          2   -1    0    0  502    0  0.00000000000E+00  0.00000000000E+00  0.55832299196E+01  0.55832299196E+01  0.00000000000E+00 0. -1.
         -2   -1    0    0    0  501 -0.00000000000E+00 -0.00000000000E+00 -0.19621985311E+03  0.19621985311E+03  0.00000000000E+00 0.  1.
          1    1    1    2  502    0 -0.12035961634E+02  0.29505385693E+02 -0.12260322585E+03  0.12667668746E+03  0.00000000000E+00 0. -1.
         -1    1    1    2    0  501  0.12035961634E+02 -0.29505385693E+02 -0.68033397339E+02  0.75126395567E+02  0.00000000000E+00 0.  1.
</event>
<event>
 4    1  0.6754235E+001  0.2310732E+02  0.7546771E-02  0.1491155E+00
          2   -1    0    0  502    0  0.00000000000E+00  0.00000000000E+00  0.82403342735E+00  0.82403342735E+00  0.00000000000E+00 0.  1.
         -2   -1    0    0    0  501 -0.00000000000E+00 -0.00000000000E+00 -0.66887368211E+03  0.66887368211E+03  0.00000000000E+00 0. -1.
          1    1    1    2  502    0  0.78949589082E+01 -0.21716764393E+02 -0.39322146881E+03  0.39389982453E+03  0.00000000000E+00 0. -1.
         -1    1    1    2    0  501 -0.78949589082E+01  0.21716764393E+02 -0.27482817988E+03  0.27579789101E+03  0.00000000000E+00 0.  1.
</event>
<event>
 4    1  0.6754235E+001  0.2435399E+02  0.7546771E-02  0.1476162E+00
          2   -1    0    0  502    0  0.00000000000E+00  0.00000000000E+00  0.76233160504E+02  0.76233160504E+02  0.00000000000E+00 0.  1.
         -2   -1    0    0    0  501 -0.00000000000E+00 -0.00000000000E+00 -0.78593489429E+01  0.78593489429E+01  0.00000000000E+00 0. -1.
          1    1    1    2  502    0  0.22483842947E+02 -0.93591411275E+01  0.29970065093E+02  0.38617632216E+02  0.00000000000E+00 0.  1.
         -1    1    1    2    0  501 -0.22483842947E+02  0.93591411275E+01  0.38403746468E+02  0.45474877231E+02  0.00000000000E+00 0. -1.
</event>
<event>
 4    1  0.6754235E+001  0.2001453E+02  0.7546771E-02  0.1533814E+00
          2   -1    0    0  502    0  0.00000000000E+00  0.00000000000E+00  0.45259225293E+03  0.45259225293E+03  0.00000000000E+00 0. -1.
         -2   -1    0    0    0  501 -0.00000000000E+00 -0.00000000000E+00 -0.15254248741E+01  0.15254248741E+01  0.00000000000E+00 0.  1.
          1    1    1    2  502    0  0.60378443499E+01  0.19082085153E+02  0.37264574610E+03  0.37318284208E+03  0.00000000000E+00 0. -1.
         -1    1    1    2    0  501 -0.60378443499E+01 -0.19082085153E+02  0.78421081955E+02  0.80934835721E+02  0.00000000000E+00 0.  1.
</event>
<event>
 4    1  0.6754235E+001  0.2916414E+02  0.7546771E-02  0.1427002E+00
          2   -1    0    0  502    0  0.00000000000E+00  0.00000000000E+00  0.15415455011E+01  0.15415455011E+01  0.00000000000E+00 0.  1.
         -2   -1    0    0    0  501 -0.00000000000E+00 -0.00000000000E+00 -0.69865822131E+03  0.69865822131E+03  0.00000000000E+00 0. -1.
          1    1    1    2  502    0 -0.28625192697E+02  0.55807983079E+01 -0.18801829986E+03  0.19026672869E+03  0.00000000000E+00 0.  1.
         -1    1    1    2    0  501  0.28625192697E+02 -0.55807983079E+01 -0.50909837595E+03  0.50993303812E+03  0.00000000000E+00 0. -1.
</event>
<event>
 4    1  0.6754235E+001  0.2708263E+02  0.7546771E-02  0.1446780E+00
          2   -1    0    0  502    0  0.00000000000E+00  0.00000000000E+00  0.19163504780E+03  0.19163504780E+03  0.00000000000E+00 0. -1.
         -2   -1    0    0    0  501 -0.00000000000E+00 -0.00000000000E+00 -0.50042703025E+01  0.50042703025E+01  0.00000000000E+00 0.  1.
          1    1    1    2  502    0 -0.20116346573E+02  0.18132890017E+02  0.14099463247E+03  0.14357212642E+03  0.00000000000E+00 0.  1.
         -1    1    1    2    0  501  0.20116346573E+02 -0.18132890017E+02  0.45636145020E+02  0.53067191674E+02  0.00000000000E+00 0. -1.
</event>
<event>
 4    1  0.6754235E+001  0.3010342E+02  0.7546771E-02  0.1418700E+00
          2   -1    0    0  502    0  0.00000000000E+00  0.00000000000E+00  0.24693331926E+01  0.24693331926E+01  0.00000000000E+00 0.  1.
         -2   -1    0    0    0  501 -0.00000000000E+00 -0.00000000000E+00 -0.57083221394E+03  0.57083221394E+03  0.00000000000E+00 0. -1.
          1    1    1    2  502    0  0.25465567347E+02  0.16053691500E+02 -0.11288518551E+03  0.11683013841E+03  0.00000000000E+00 0. -1.
         -1    1    1    2    0  501 -0.25465567347E+02 -0.16053691500E+02 -0.45547769523E+03  0.45647140872E+03  0.00000000000E+00 0.  1.
</event>
<event>
 4    1  0.6754235E+001  0.3713619E+02  0.7546771E-02  0.1366137E+00
          2   -1    0    0  502    0  0.00000000000E+00  0.00000000000E+00  0.28794870304E+03  0.28794870304E+03  0.00000000000E+00 0.  1.
         -2   -1    0    0    0  501 -0.00000000000E+00 -0.00000000000E+00 -0.53380479151E+01  0.53380479151E+01  0.00000000000E+00 0. -1.
          1    1    1    2  502    0  0.22782572831E+02 -0.29326630693E+02  0.94291626720E+02  0.10134104678E+03  0.00000000000E+00 0.  1.
         -1    1    1    2    0  501 -0.22782572831E+02  0.29326630693E+02  0.18831902841E+03  0.19194570418E+03  0.00000000000E+00 0. -1.
</event>
<event>
 4    1  0.6754235E+001  0.2429684E+02  0.7546771E-02  0.1476826E+00
          2   -1    0    0  502    0  0.00000000000E+00  0.00000000000E+00  0.64872857617E+01  0.64872857617E+01  0.00000000000E+00 0. -1.
         -2   -1    0    0    0  501 -0.00000000000E+00 -0.00000000000E+00 -0.92387703755E+02  0.92387703755E+02  0.00000000000E+00 0.  1.
          1    1    1    2  502    0 -0.57182715568E+01  0.23614353343E+02 -0.36889002486E+02  0.44171651745E+02  0.00000000000E+00 0.  1.
         -1    1    1    2    0  501  0.57182715568E+01 -0.23614353343E+02 -0.49011415507E+02  0.54703337772E+02  0.00000000000E+00 0. -1.
</event>
<event>
 4    1  0.6754235E+001  0.2371353E+02  0.7546771E-02  0.1483728E+00
          2   -1    0    0  502    0  0.00000000000E+00  0.00000000000E+00  0.10240941302E+02  0.10240941302E+02  0.00000000000E+00 0. -1.
         -2   -1    0    0    0  501 -0.00000000000E+00 -0.00000000000E+00 -0.55001877448E+02  0.55001877448E+02  0.00000000000E+00 0.  1.
          1    1    1    2  502    0 -0.21573349322E+02  0.98449063301E+01 -0.21048256534E+02  0.31707423181E+02  0.00000000000E+00 0.  1.
         -1    1    1    2    0  501  0.21573349322E+02 -0.98449063301E+01 -0.23712679612E+02  0.33535395569E+02  0.00000000000E+00 0. -1.
</event>
<event>
 4    1  0.6754235E+001  0.2399510E+02  0.7546771E-02  0.1480367E+00
          2   -1    0    0  502    0  0.00000000000E+00  0.00000000000E+00  0.61020334273E+01  0.61020334273E+01  0.00000000000E+00 0.  1.
         -2   -1    0    0    0  501 -0.00000000000E+00 -0.00000000000E+00 -0.94374919476E+02  0.94374919476E+02  0.00000000000E+00 0. -1.
          1    1    1    2  502    0  0.17355872492E+02  0.16569204418E+02 -0.44843498378E+02  0.50859651903E+02  0.00000000000E+00 0. -1.
         -1    1    1    2    0  501 -0.17355872492E+02 -0.16569204418E+02 -0.43429387672E+02  0.49617301000E+02  0.00000000000E+00 0.  1.
</event>
<event>
 4    1  0.6754235E+001  0.2439747E+02  0.7546771E-02  0.1475658E+00
          2   -1    0    0  502    0  0.00000000000E+00  0.00000000000E+00  0.14112092668E+04  0.14112092668E+04  0.00000000000E+00 0. -1.
         -2   -1    0    0    0  501 -0.00000000000E+00 -0.00000000000E+00 -0.44794911781E+00  0.44794911781E+00  0.00000000000E+00 0.  1.
          1    1    1    2  502    0  0.23740403523E+02 -0.56240363361E+01  0.53481906719E+03  0.53537526201E+03  0.00000000000E+00 0.  1.
         -1    1    1    2    0  501 -0.23740403523E+02  0.56240363361E+01  0.87594225045E+03  0.87628195386E+03  0.00000000000E+00 0. -1.
</event>
<event>
 4    1  0.6754235E+001  0.4579802E+02  0.7546771E-02  0.1317497E+00
          2   -1    0    0  502    0  0.00000000000E+00  0.00000000000E+00  0.10833507593E+02  0.10833507593E+02  0.00000000000E+00 0. -1.
         -2   -1    0    0    0  501 -0.00000000000E+00 -0.00000000000E+00 -0.20565647299E+03  0.20565647299E+03  0.00000000000E+00 0.  1.
          1    1    1    2  502    0  0.43003528197E+01 -0.45595679973E+02 -0.12361102797E+03  0.13182240061E+03  0.00000000000E+00 0.  1.
         -1    1    1    2    0  501 -0.43003528197E+01  0.45595679973E+02 -0.71211937427E+02  0.84667579974E+02  0.00000000000E+00 0. -1.
</event>
<event>
 4    1  0.6754235E+001  0.2010879E+02  0.7546771E-02  0.1532379E+00
          2   -1    0    0  502    0  0.00000000000E+00  0.00000000000E+00  0.28746049802E+02  0.28746049802E+02  0.00000000000E+00 0.  1.
         -2   -1    0    0    0  501 -0.00000000000E+00 -0.00000000000E+00 -0.14796199325E+02  0.14796199325E+02  0.00000000000E+00 0. -1.
          1    1    1    2  502    0 -0.13256799117E+02 -0.15120209021E+02  0.11808894471E+02  0.23319807724E+02  0.00000000000E+00 0. -1.
         -1    1    1    2    0  501  0.13256799117E+02  0.15120209021E+02  0.21409560060E+01  0.20222441403E+02  0.00000000000E+00 0.  1.
</event>
<event>
 4    1  0.6754235E+001  0.2768162E+02  0.7546771E-02  0.1440879E+00
          2   -1    0    0  502    0  0.00000000000E+00  0.00000000000E+00  0.69103689185E+03  0.69103689185E+03  0.00000000000E+00 0. -1.
         -2   -1    0    0    0  501 -0.00000000000E+00 -0.00000000000E+00 -0.37272970310E+01  0.37272970310E+01  0.00000000000E+00 0.  1.
          1    1    1    2  502    0  0.24602952221E+02  0.12687280642E+02  0.63481391403E+03  0.63541716832E+03  0.00000000000E+00 0. -1.
         -1    1    1    2    0  501 -0.24602952221E+02 -0.12687280642E+02  0.52495680786E+02  0.59347020559E+02  0.00000000000E+00 0.  1.
</event>
<event>
 4    1  0.6754235E+001  0.2654297E+02  0.7546771E-02  0.1452254E+00
          2   -1    0    0  502    0  0.00000000000E+00  0.00000000000E+00  0.84675021448E+03  0.84675021448E+03  0.00000000000E+00 0. -1.
         -2   -1    0    0    0  501 -0.00000000000E+00 -0.00000000000E+00 -0.88661577719E+00  0.88661577719E+00  0.00000000000E+00 0.  1.
          1    1    1    2  502    0  0.25847308760E+02 -0.60370619809E+01  0.31778048732E+03  0.31888707658E+03  0.00000000000E+00 0. -1.
         -1    1    1    2    0  501 -0.25847308760E+02  0.60370619809E+01  0.52808311138E+03  0.52874975368E+03  0.00000000000E+00 0.  1.
</event>
<event>
 4    1  0.6754235E+001  0.2115479E+02  0.7546771E-02  0.1517066E+00
          2   -1    0    0  502    0  0.00000000000E+00  0.00000000000E+00  0.40000813148E+03  0.40000813148E+03  0.00000000000E+00 0.  1.
         -2   -1    0    0    0  501 -0.00000000000E+00 -0.00000000000E+00 -0.11234110705E+01  0.11234110705E+01  0.00000000000E+00 0. -1.
          1    1    1    2  502    0  0.10846655030E+02  0.18162469868E+02  0.18657935762E+03  0.18777481707E+03  0.00000000000E+00 0. -1.
         -1    1    1    2    0  501 -0.10846655030E+02 -0.18162469868E+02  0.21230536279E+03  0.21335672548E+03  0.00000000000E+00 0.  1.
</event>
<event>
 4    1  0.6754235E+001  0.2255888E+02  0.7546771E-02  0.1498113E+00
          2   -1    0    0  502    0  0.00000000000E+00  0.00000000000E+00  0.28160010525E+02  0.28160010525E+02  0.00000000000E+00 0.  1.
         -2   -1    0    0    0  501 -0.00000000000E+00 -0.00000000000E+00 -0.21396999276E+02  0.21396999276E+02  0.00000000000E+00 0. -1.
          1    1    1    2  502    0  0.87271420235E+01 -0.20802401431E+02 -0.63864924288E+01  0.23445472884E+02  0.00000000000E+00 0. -1.
         -1    1    1    2    0  501 -0.87271420235E+01  0.20802401431E+02  0.13149503678E+02  0.26111536917E+02  0.00000000000E+00 0.  1.
</event>
<event>
 4    1  0.6754235E+001  0.4148290E+02  0.7546771E-02  0.1340009E+00
          2   -1    0    0  502    0  0.00000000000E+00  0.00000000000E+00  0.33726270977E+04  0.33726270977E+04  0.00000000000E+00 0. -1.
         -2   -1    0    0    0  501 -0.00000000000E+00 -0.00000000000E+00 -0.79454150657E+00  0.79454150657E+00  0.00000000000E+00 0.  1.
          1    1    1    2  502    0  0.38287529154E+02 -0.15965462181E+02  0.67695133035E+03  0.67822115459E+03  0.00000000000E+00 0.  1.
         -1    1    1    2    0  501 -0.38287529154E+02  0.15965462181E+02  0.26948812258E+04  0.26952004846E+04  0.00000000000E+00 0. -1.
</event>
<event>
 4    1  0.6754235E+001  0.2115580E+02  0.7546771E-02  0.1517052E+00
          2   -1    0    0  502    0  0.00000000000E+00  0.00000000000E+00  0.37840834938E+03  0.37840834938E+03  0.00000000000E+00 0. -1.
         -2   -1    0    0    0  501 -0.00000000000E+00 -0.00000000000E+00 -0.11831253894E+01  0.11831253894E+01  0.00000000000E+00 0.  1.
          1    1    1    2  502    0  0.21885955520E+01  0.21042292468E+02  0.18529854175E+03  0.18650232599E+03  0.00000000000E+00 0.  1.
         -1    1    1    2    0  501 -0.21885955520E+01 -0.21042292468E+02  0.19192668224E+03  0.19308914879E+03  0.00000000000E+00 0. -1.
</event>
<event>
 4    1  0.6754235E+001  0.2294372E+02  0.7546771E-02  0.1493206E+00
          2   -1    0    0  502    0  0.00000000000E+00  0.00000000000E+00  0.29900654132E+02  0.29900654132E+02  0.00000000000E+00 0. -1.
         -2   -1    0    0    0  501 -0.00000000000E+00 -0.00000000000E+00 -0.17619463745E+02  0.17619463745E+02  0.00000000000E+00 0.  1.
          1    1    1    2  502    0 -0.26322072384E+01  0.22792227724E+02  0.54702635000E+01  0.23586817130E+02  0.00000000000E+00 0.  1.
         -1    1    1    2    0  501  0.26322072384E+01 -0.22792227724E+02  0.68109268864E+01  0.23933300747E+02  0.00000000000E+00 0. -1.
</event>
<event>
 4    1  0.6754235E+001  0.2660611E+02  0.7546771E-02  0.1451605E+00
          2   -1    0    0  502    0  0.00000000000E+00  0.00000000000E+00  0.22761783569E+01  0.22761783569E+01  0.00000000000E+00 0. -1.
         -2   -1    0    0    0  501 -0.00000000000E+00 -0.00000000000E+00 -0.31108412208E+03  0.31108412208E+03  0.00000000000E+00 0.  1.
          1    1    1    2  502    0 -0.20689526122E+02  0.16728078764E+02 -0.15702290316E+03  0.15926103486E+03  0.00000000000E+00 0.  1.
         -1    1    1    2    0  501  0.20689526122E+02 -0.16728078764E+02 -0.15178504057E+03  0.15409926557E+03  0.00000000000E+00 0. -1.
</event>
<event>
 4    1  0.6754235E+001  0.2245053E+02  0.7546771E-02  0.1499516E+00
          2   -1    0    0  502    0  0.00000000000E+00  0.00000000000E+00  0.19091578385E+02  0.19091578385E+02  0.00000000000E+00 0. -1.
         -2   -1    0    0    0  501 -0.00000000000E+00 -0.00000000000E+00 -0.27214554128E+02  0.27214554128E+02  0.00000000000E+00 0.  1.
          1    1    1    2  502    0 -0.14618316372E+02  0.17039106129E+02 -0.80659775067E+01  0.23855529849E+02  0.00000000000E+00 0. -1.
         -1    1    1    2    0  501  0.14618316372E+02 -0.17039106129E+02 -0.56998236181E-01  0.22450602665E+02  0.00000000000E+00 0.  1.
</event>
<event>
 4    1  0.6754235E+001  0.4982103E+02  0.7546771E-02  0.1298950E+00
          2   -1    0    0  502    0  0.00000000000E+00  0.00000000000E+00  0.35767839898E+03  0.35767839898E+03  0.00000000000E+00 0. -1.
         -2   -1    0    0    0  501 -0.00000000000E+00 -0.00000000000E+00 -0.97961242378E+01  0.97961242378E+01  0.00000000000E+00 0.  1.
          1    1    1    2  502    0  0.90195925028E+01 -0.48997770792E+02  0.74722954289E+02  0.89808988911E+02  0.00000000000E+00 0.  1.
         -1    1    1    2    0  501 -0.90195925028E+01  0.48997770792E+02  0.27315932045E+03  0.27766553430E+03  0.00000000000E+00 0. -1.
</event>
<event>
 4    1  0.6754235E+001  0.2368195E+02  0.7546771E-02  0.1484108E+00
          2   -1    0    0  502    0  0.00000000000E+00  0.00000000000E+00  0.22366137423E+01  0.22366137423E+01  0.00000000000E+00 0.  1.
         -2   -1    0    0    0  501 -0.00000000000E+00 -0.00000000000E+00 -0.87792341237E+03  0.87792341237E+03  0.00000000000E+00 0. -1.
          1    1    1    2  502    0 -0.13329947259E+02 -0.19574145853E+02 -0.65883121703E+02  0.70010145016E+02  0.00000000000E+00 0.  1.
         -1    1    1    2    0  501  0.13329947259E+02  0.19574145853E+02 -0.80980367692E+03  0.81014988109E+03  0.00000000000E+00 0. -1.
</event>
<event>
 4    1  0.6754235E+001  0.5708627E+02  0.7546771E-02  0.1270067E+00
          2   -1    0    0  502    0  0.00000000000E+00  0.00000000000E+00  0.14967354892E+03  0.14967354892E+03  0.00000000000E+00 0. -1.
         -2   -1    0    0    0  501 -0.00000000000E+00 -0.00000000000E+00 -0.26523788232E+02  0.26523788232E+02  0.00000000000E+00 0.  1.
          1    1    1    2  502    0  0.46778272802E+02 -0.32720561305E+02  0.24289851871E+02  0.62039010650E+02  0.00000000000E+00 0.  1.
         -1    1    1    2    0  501 -0.46778272802E+02  0.32720561305E+02  0.98859908818E+02  0.11415832650E+03  0.00000000000E+00 0. -1.
</event>
<event>
 4    1  0.6754235E+001  0.2398565E+02  0.7546771E-02  0.1480479E+00
          2   -1    0    0  502    0  0.00000000000E+00  0.00000000000E+00  0.13242632908E+04  0.13242632908E+04  0.00000000000E+00 0.  1.
         -2   -1    0    0    0  501 -0.00000000000E+00 -0.00000000000E+00 -0.12065003039E+01  0.12065003039E+01  0.00000000000E+00 0. -1.
          1    1    1    2  502    0 -0.21843847810E+02 -0.99074613873E+01  0.11916823967E+04  0.11919237585E+04  0.00000000000E+00 0.  1.
         -1    1    1    2    0  501  0.21843847810E+02  0.99074613873E+01  0.13137439381E+03  0.13354603262E+03  0.00000000000E+00 0. -1.
</event>
<event>
 4    1  0.6754235E+001  0.2058690E+02  0.7546771E-02  0.1525245E+00
          2   -1    0    0  502    0  0.00000000000E+00  0.00000000000E+00  0.11547218648E+02  0.11547218648E+02  0.00000000000E+00 0.  1.
         -2   -1    0    0    0  501 -0.00000000000E+00 -0.00000000000E+00 -0.37760568202E+02  0.37760568202E+02  0.00000000000E+00 0. -1.
          1    1    1    2  502    0 -0.66160780729E+01  0.19494817211E+02 -0.89812347627E+01  0.22460698231E+02  0.00000000000E+00 0. -1.
         -1    1    1    2    0  501  0.66160780729E+01 -0.19494817211E+02 -0.17232114791E+02  0.26847088620E+02  0.00000000000E+00 0.  1.
</event>
<event>
 4    1  0.6754235E+001  0.2276946E+02  0.7546771E-02  0.1495413E+00
          2   -1    0    0  502    0  0.00000000000E+00  0.00000000000E+00  0.23489211413E+03  0.23489211413E+03  0.00000000000E+00 0.  1.
         -2   -1    0    0    0  501 -0.00000000000E+00 -0.00000000000E+00 -0.46452874697E+01  0.46452874697E+01  0.00000000000E+00 0. -1.
          1    1    1    2  502    0 -0.68930694643E+01  0.21701016244E+02  0.20189223809E+03  0.20317215438E+03  0.00000000000E+00 0.  1.
         -1    1    1    2    0  501  0.68930694643E+01 -0.21701016244E+02  0.28354588570E+02  0.36365247223E+02  0.00000000000E+00 0. -1.
</event>
<event>
 4    1  0.6754235E+001  0.5297937E+02  0.7546771E-02  0.1285747E+00
          2   -1    0    0  502    0  0.00000000000E+00  0.00000000000E+00  0.18936895925E+04  0.18936895925E+04  0.00000000000E+00 0. -1.
         -2   -1    0    0    0  501 -0.00000000000E+00 -0.00000000000E+00 -0.14928471196E+01  0.14928471196E+01  0.00000000000E+00 0.  1.
          1    1    1    2  502    0  0.39535518026E+02 -0.35266927845E+02  0.10261505095E+04  0.10275172415E+04  0.00000000000E+00 0.  1.
         -1    1    1    2    0  501 -0.39535518026E+02  0.35266927845E+02  0.86604623581E+03  0.86766519807E+03  0.00000000000E+00 0. -1.
</event>
<event>
 4    1  0.6754235E+001  0.5788272E+02  0.7546771E-02  0.1267201E+00
          2   -1    0    0  502    0  0.00000000000E+00  0.00000000000E+00  0.12997939482E+02  0.12997939482E+02  0.00000000000E+00 0.  1.
         -2   -1    0    0    0  501 -0.00000000000E+00 -0.00000000000E+00 -0.28205466329E+03  0.28205466329E+03  0.00000000000E+00 0. -1.
          1    1    1    2  502    0 -0.53635551478E+02  0.21763188405E+02 -0.17782130195E+03  0.18700487742E+03  0.00000000000E+00 0.  1.
         -1    1    1    2    0  501  0.53635551478E+02 -0.21763188405E+02 -0.91235421854E+02  0.10804772535E+03  0.00000000000E+00 0. -1.
</event>
<event>
 4    1  0.6754235E+001  0.3273191E+02  0.7546771E-02  0.1397250E+00
          2   -1    0    0  502    0  0.00000000000E+00  0.00000000000E+00  0.19203892041E+03  0.19203892041E+03  0.00000000000E+00 0. -1.
         -2   -1    0    0    0  501 -0.00000000000E+00 -0.00000000000E+00 -0.60742977630E+01  0.60742977630E+01  0.00000000000E+00 0.  1.
          1    1    1    2  502    0 -0.27776456992E+02 -0.17316071912E+02  0.64695427869E+02  0.72504319159E+02  0.00000000000E+00 0.  1.
         -1    1    1    2    0  501  0.27776456992E+02  0.17316071912E+02  0.12126919478E+03  0.12560889901E+03  0.00000000000E+00 0. -1.
</event>
<event>
 4    1  0.6754235E+001  0.2714999E+02  0.7546771E-02  0.1446107E+00
          2   -1    0    0  502    0  0.00000000000E+00  0.00000000000E+00  0.14395552711E+04  0.14395552711E+04  0.00000000000E+00 0.  1.
         -2   -1    0    0    0  501 -0.00000000000E+00 -0.00000000000E+00 -0.51260008061E+00  0.51260008061E+00  0.00000000000E+00 0. -1.
          1    1    1    2  502    0  0.27131345816E+02  0.10059204999E+01  0.69589728487E+03  0.69642670318E+03  0.00000000000E+00 0. -1.
         -1    1    1    2    0  501 -0.27131345816E+02 -0.10059204999E+01  0.74314538613E+03  0.74364116798E+03  0.00000000000E+00 0.  1.
</event>
<event>
 4    1  0.6754235E+001  0.2058095E+02  0.7546771E-02  0.1525333E+00
          2   -1    0    0  502    0  0.00000000000E+00  0.00000000000E+00  0.14637560652E+03  0.14637560652E+03  0.00000000000E+00 0.  1.
         -2   -1    0    0    0  501 -0.00000000000E+00 -0.00000000000E+00 -0.68241743167E+01  0.68241743167E+01  0.00000000000E+00 0. -1.
          1    1    1    2  502    0  0.17819057774E+02  0.10298388823E+02  0.12790866456E+03  0.12955385792E+03  0.00000000000E+00 0.  1.
         -1    1    1    2    0  501 -0.17819057774E+02 -0.10298388823E+02  0.11642767646E+02  0.23645922920E+02  0.00000000000E+00 0. -1.
</event>
<event>
 4    1  0.6754235E+001  0.2287313E+02  0.7546771E-02  0.1494097E+00
          2   -1    0    0  502    0  0.00000000000E+00  0.00000000000E+00  0.92627163339E+02  0.92627163339E+02  0.00000000000E+00 0.  1.
         -2   -1    0    0    0  501 -0.00000000000E+00 -0.00000000000E+00 -0.56674968762E+01  0.56674968762E+01  0.00000000000E+00 0. -1.
          1    1    1    2  502    0  0.18657230484E+02 -0.13232081096E+02  0.40614829738E+02  0.46612708718E+02  0.00000000000E+00 0.  1.
         -1    1    1    2    0  501 -0.18657230484E+02  0.13232081096E+02  0.46344836725E+02  0.51681951496E+02  0.00000000000E+00 0. -1.
</event>
<event>
 4    1  0.6754235E+001  0.3684595E+02  0.7546771E-02  0.1368030E+00
          2   -1    0    0  502    0  0.00000000000E+00  0.00000000000E+00  0.43625496532E+03  0.43625496532E+03  0.00000000000E+00 0.  1.
         -2   -1    0    0    0  501 -0.00000000000E+00 -0.00000000000E+00 -0.42119357893E+01  0.42119357893E+01  0.00000000000E+00 0. -1.
          1    1    1    2  502    0  0.96678085390E+01  0.35554994949E+02  0.32856663024E+03  0.33062615549E+03  0.00000000000E+00 0.  1.
         -1    1    1    2    0  501 -0.96678085390E+01 -0.35554994949E+02  0.10347639929E+03  0.10984074562E+03  0.00000000000E+00 0. -1.
</event>
<event>
 4    1  0.6754235E+001  0.2160049E+02  0.7546771E-02  0.1510862E+00
          2   -1    0    0  502    0  0.00000000000E+00  0.00000000000E+00  0.38011920361E+01  0.38011920361E+01  0.00000000000E+00 0.  1.
         -2   -1    0    0    0  501 -0.00000000000E+00 -0.00000000000E+00 -0.12292353336E+03  0.12292353336E+03  0.00000000000E+00 0. -1.
          1    1    1    2  502    0 -0.15333391408E+02 -0.15214075636E+02 -0.57152956777E+02  0.61098620753E+02  0.00000000000E+00 0.  1.
         -1    1    1    2    0  501  0.15333391408E+02  0.15214075636E+02 -0.61969384548E+02  0.65626104645E+02  0.00000000000E+00 0. -1.
</event>
<event>
 4    1  0.6754235E+001  0.2091179E+02  0.7546771E-02  0.1520528E+00
          2   -1    0    0  502    0  0.00000000000E+00  0.00000000000E+00  0.10610432636E+03  0.10610432636E+03  0.00000000000E+00 0. -1.
         -2   -1    0    0    0  501 -0.00000000000E+00 -0.00000000000E+00 -0.42402300031E+01  0.42402300031E+01  0.00000000000E+00 0.  1.
          1    1    1    2  502    0 -0.13628654705E+01 -0.20867330241E+02  0.60166512281E+02  0.63697033477E+02  0.00000000000E+00 0. -1.
         -1    1    1    2    0  501  0.13628654705E+01  0.20867330241E+02  0.41697584080E+02  0.46647522890E+02  0.00000000000E+00 0.  1.
</event>
<event>
 4    1  0.6754235E+001  0.3050920E+02  0.7546771E-02  0.1415222E+00
          2   -1    0    0  502    0  0.00000000000E+00  0.00000000000E+00  0.20504825166E+03  0.20504825166E+03  0.00000000000E+00 0.  1.
         -2   -1    0    0    0  501 -0.00000000000E+00 -0.00000000000E+00 -0.10224432892E+02  0.10224432892E+02  0.00000000000E+00 0. -1.
          1    1    1    2  502    0 -0.22535467407E+02  0.20566091689E+02  0.17151209672E+02  0.34999648739E+02  0.00000000000E+00 0. -1.
         -1    1    1    2    0  501  0.22535467407E+02 -0.20566091689E+02  0.17767260909E+03  0.18027303581E+03  0.00000000000E+00 0.  1.
</event>
<event>
 4    1  0.6754235E+001  0.2009035E+02  0.7546771E-02  0.1532659E+00
          2   -1    0    0  502    0  0.00000000000E+00  0.00000000000E+00  0.41850260328E+03  0.41850260328E+03  0.00000000000E+00 0.  1.
         -2   -1    0    0    0  501 -0.00000000000E+00 -0.00000000000E+00 -0.21217650686E+01  0.21217650686E+01  0.00000000000E+00 0. -1.
          1    1    1    2  502    0  0.11946451955E+02  0.16152536256E+02  0.52864905688E+02  0.56553694797E+02  0.00000000000E+00 0. -1.
         -1    1    1    2    0  501 -0.11946451955E+02 -0.16152536256E+02  0.36351593252E+03  0.36407067355E+03  0.00000000000E+00 0.  1.
</event>
<event>
 4    1  0.6754235E+001  0.2086431E+02  0.7546771E-02  0.1521211E+00
          2   -1    0    0  502    0  0.00000000000E+00  0.00000000000E+00  0.16961346799E+04  0.16961346799E+04  0.00000000000E+00 0.  1.
         -2   -1    0    0    0  501 -0.00000000000E+00 -0.00000000000E+00 -0.26119565471E+00  0.26119565471E+00  0.00000000000E+00 0. -1.
          1    1    1    2  502    0 -0.20525327326E+02 -0.37457339286E+01  0.95978416043E+03  0.96001091358E+03  0.00000000000E+00 0.  1.
         -1    1    1    2    0  501  0.20525327326E+02  0.37457339286E+01  0.73608932385E+03  0.73638496201E+03  0.00000000000E+00 0. -1.
</event>
<event>
 4    1  0.6754235E+001  0.2944875E+02  0.7546771E-02  0.1424448E+00
          2   -1    0    0  502    0  0.00000000000E+00  0.00000000000E+00  0.17296879702E+04  0.17296879702E+04  0.00000000000E+00 0. -1.
         -2   -1    0    0    0  501 -0.00000000000E+00 -0.00000000000E+00 -0.54818697111E+00  0.54818697111E+00  0.00000000000E+00 0.  1.
          1    1    1    2  502    0  0.26424362938E+02  0.12999303209E+02  0.61177285889E+03  0.61248123214E+03  0.00000000000E+00 0.  1.
         -1    1    1    2    0  501 -0.26424362938E+02 -0.12999303209E+02  0.11173669244E+04  0.11177549251E+04  0.00000000000E+00 0. -1.
</event>
<event>
 4    1  0.6754235E+001  0.2283422E+02  0.7546771E-02  0.1494590E+00
          2   -1    0    0  502    0  0.00000000000E+00  0.00000000000E+00  0.57768151828E+03  0.57768151828E+03  0.00000000000E+00 0.  1.
         -2   -1    0    0    0  501 -0.00000000000E+00 -0.00000000000E+00 -0.11178977708E+01  0.11178977708E+01  0.00000000000E+00 0. -1.
          1    1    1    2  502    0 -0.22833975184E+02  0.10549983317E+00  0.16127094424E+03  0.16287946159E+03  0.00000000000E+00 0. -1.
         -1    1    1    2    0  501  0.22833975184E+02 -0.10549983317E+00  0.41529267627E+03  0.41591995446E+03  0.00000000000E+00 0.  1.
</event>
<event>
 4    1  0.6754235E+001  0.2328676E+02  0.7546771E-02  0.1488928E+00
          2   -1    0    0  502    0  0.00000000000E+00  0.00000000000E+00  0.56854551543E+03  0.56854551543E+03  0.00000000000E+00 0.  1.
         -2   -1    0    0    0  501 -0.00000000000E+00 -0.00000000000E+00 -0.45933765539E+01  0.45933765539E+01  0.00000000000E+00 0. -1.
          1    1    1    2  502    0 -0.21622706860E+02 -0.86447631535E+01  0.53706396337E+03  0.53756857621E+03  0.00000000000E+00 0.  1.
         -1    1    1    2    0  501  0.21622706860E+02  0.86447631535E+01  0.26888175506E+02  0.35570315770E+02  0.00000000000E+00 0. -1.
</event>
<event>
 4    1  0.6754235E+001  0.3101850E+02  0.7546771E-02  0.1410947E+00
          2   -1    0    0  502    0  0.00000000000E+00  0.00000000000E+00  0.99084964801E+03  0.99084964801E+03  0.00000000000E+00 0. -1.
         -2   -1    0    0    0  501 -0.00000000000E+00 -0.00000000000E+00 -0.97104438695E+00  0.97104438695E+00  0.00000000000E+00 0.  1.
          1    1    1    2  502    0 -0.23721646804E+02 -0.19985771878E+02  0.49323347900E+03  0.49420786357E+03  0.00000000000E+00 0.  1.
         -1    1    1    2    0  501  0.23721646804E+02  0.19985771878E+02  0.49664512462E+03  0.49761282883E+03  0.00000000000E+00 0. -1.
</event>
<event>
 4    1  0.6754235E+001  0.3163760E+02  0.7546771E-02  0.1405880E+00
          2   -1    0    0  502    0  0.00000000000E+00  0.00000000000E+00  0.10336239632E+04  0.10336239632E+04  0.00000000000E+00 0. -1.
         -2   -1    0    0    0  501 -0.00000000000E+00 -0.00000000000E+00 -0.56189092205E+01  0.56189092205E+01  0.00000000000E+00 0.  1.
          1    1    1    2  502    0 -0.13490610343E+02 -0.28617152405E+02  0.98673165846E+03  0.98723872685E+03  0.00000000000E+00 0. -1.
         -1    1    1    2    0  501  0.13490610343E+02  0.28617152405E+02  0.41273395523E+02  0.52004145577E+02  0.00000000000E+00 0.  1.
</event>
<event>
 4    1  0.6754235E+001  0.2135868E+02  0.7546771E-02  0.1514205E+00
          2   -1    0    0  502    0  0.00000000000E+00  0.00000000000E+00  0.47313043449E+03  0.47313043449E+03  0.00000000000E+00 0.  1.
         -2   -1    0    0    0  501 -0.00000000000E+00 -0.00000000000E+00 -0.98879979768E+00  0.98879979768E+00  0.00000000000E+00 0. -1.
          1    1    1    2  502    0  0.11709237196E+01 -0.21326555545E+02  0.19868071249E+03  0.19982547022E+03  0.00000000000E+00 0. -1.
         -1    1    1    2    0  501 -0.11709237196E+01  0.21326555545E+02  0.27346092221E+03  0.27429376407E+03  0.00000000000E+00 0.  1.
</event>
<event>
 4    1  0.6754235E+001  0.1224212E+03  0.7546771E-02  0.1129792E+00
          2   -1    0    0  502    0  0.00000000000E+00  0.00000000000E+00  0.97917549670E+03  0.97917549670E+03  0.00000000000E+00 0. -1.
         -2   -1    0    0    0  501 -0.00000000000E+00 -0.00000000000E+00 -0.39134064476E+02  0.39134064476E+02  0.00000000000E+00 0.  1.
          1    1    1    2  502    0 -0.90741376706E+02  0.82176366280E+02  0.72719775585E+02  0.14239072436E+03  0.00000000000E+00 0.  1.
         -1    1    1    2    0  501  0.90741376706E+02 -0.82176366280E+02  0.86732165664E+03  0.87591883682E+03  0.00000000000E+00 0. -1.
</event>
<event>
 4    1  0.6754235E+001  0.7852459E+02  0.7546771E-02  0.1207315E+00
          2   -1    0    0  502    0  0.00000000000E+00  0.00000000000E+00  0.32733317972E+04  0.32733317972E+04  0.00000000000E+00 0.  1.
         -2   -1    0    0    0  501 -0.00000000000E+00 -0.00000000000E+00 -0.32042314496E+01  0.32042314496E+01  0.00000000000E+00 0. -1.
          1    1    1    2  502    0  0.71049436439E+02  0.33437837302E+02  0.26867605553E+04  0.26879078096E+04  0.00000000000E+00 0.  1.
         -1    1    1    2    0  501 -0.71049436439E+02 -0.33437837302E+02  0.58336701041E+03  0.58862821901E+03  0.00000000000E+00 0. -1.
</event>
<event>
 4    1  0.6754235E+001  0.5507643E+02  0.7546771E-02  0.1277546E+00
          2   -1    0    0  502    0  0.00000000000E+00  0.00000000000E+00  0.89625318198E+03  0.89625318198E+03  0.00000000000E+00 0. -1.
         -2   -1    0    0    0  501 -0.00000000000E+00 -0.00000000000E+00 -0.38696724459E+01  0.38696724459E+01  0.00000000000E+00 0.  1.
          1    1    1    2  502    0 -0.64865748843E+01 -0.54693119470E+02  0.60554493776E+03  0.60804447585E+03  0.00000000000E+00 0. -1.
         -1    1    1    2    0  501  0.64865748843E+01  0.54693119470E+02  0.28683857178E+03  0.29207837857E+03  0.00000000000E+00 0.  1.
</event>
<event>
 4    1  0.6754235E+001  0.2842748E+02  0.7546771E-02  0.1433773E+00
          2   -1    0    0  502    0  0.00000000000E+00  0.00000000000E+00  0.17393842604E+04  0.17393842604E+04  0.00000000000E+00 0.  1.
         -2   -1    0    0    0  501 -0.00000000000E+00 -0.00000000000E+00 -0.50759317556E+00  0.50759317556E+00  0.00000000000E+00 0. -1.
          1    1    1    2  502    0  0.24736280830E+02 -0.14008490906E+02  0.11226152060E+04  0.11229750764E+04  0.00000000000E+00 0.  1.
         -1    1    1    2    0  501 -0.24736280830E+02  0.14008490906E+02  0.61626146127E+03  0.61691677725E+03  0.00000000000E+00 0. -1.
</event>
<event>
 4    1  0.6754235E+001  0.2351081E+02  0.7546771E-02  0.1486182E+00
          2   -1    0    0  502    0  0.00000000000E+00  0.00000000000E+00  0.19457917369E+02  0.19457917369E+02  0.00000000000E+00 0. -1.
         -2   -1    0    0    0  501 -0.00000000000E+00 -0.00000000000E+00 -0.94404039269E+02  0.94404039269E+02  0.00000000000E+00 0.  1.
          1    1    1    2  502    0 -0.28077031803E+01  0.23342557685E+02  0.10127567545E+02  0.25599332429E+02  0.00000000000E+00 0. -1.
         -1    1    1    2    0  501  0.28077031803E+01 -0.23342557685E+02 -0.85073689445E+02  0.88262624209E+02  0.00000000000E+00 0.  1.
</event>
<event>
 4    1  0.6754235E+001  0.4914803E+02  0.7546771E-02  0.1301909E+00
          2   -1    0    0  502    0  0.00000000000E+00  0.00000000000E+00  0.21454741985E+03  0.21454741985E+03  0.00000000000E+00 0.  1.
         -2   -1    0    0    0  501 -0.00000000000E+00 -0.00000000000E+00 -0.11681824399E+02  0.11681824399E+02  0.00000000000E+00 0. -1.
          1    1    1    2  502    0  0.45178676589E+02  0.19349824259E+02  0.12296007570E+03  0.13241868726E+03  0.00000000000E+00 0.  1.
         -1    1    1    2    0  501 -0.45178676589E+02 -0.19349824259E+02  0.79905519742E+02  0.93810556988E+02  0.00000000000E+00 0. -1.
</event>
<event>
 4    1  0.6754235E+001  0.2398924E+02  0.7546771E-02  0.1480436E+00
          2   -1    0    0  502    0  0.00000000000E+00  0.00000000000E+00  0.11442688103E+03  0.11442688103E+03  0.00000000000E+00 0. -1.
         -2   -1    0    0    0  501 -0.00000000000E+00 -0.00000000000E+00 -0.52471611524E+01  0.52471611524E+01  0.00000000000E+00 0.  1.
          1    1    1    2  502    0  0.22318472084E+02  0.87959958858E+01  0.66783322250E+02  0.70961227939E+02  0.00000000000E+00 0.  1.
         -1    1    1    2    0  501 -0.22318472084E+02 -0.87959958858E+01  0.42396397630E+02  0.48712814246E+02  0.00000000000E+00 0. -1.
</event>
<event>
 4    1  0.6754235E+001  0.2206678E+02  0.7546771E-02  0.1504561E+00
          2   -1    0    0  502    0  0.00000000000E+00  0.00000000000E+00  0.11525012997E+03  0.11525012997E+03  0.00000000000E+00 0. -1.
         -2   -1    0    0    0  501 -0.00000000000E+00 -0.00000000000E+00 -0.45379095392E+01  0.45379095392E+01  0.00000000000E+00 0.  1.
          1    1    1    2  502    0  0.22066551993E+02 -0.99816024163E-01  0.71081427542E+02  0.74427898140E+02  0.00000000000E+00 0.  1.
         -1    1    1    2    0  501 -0.22066551993E+02  0.99816024163E-01  0.39630792890E+02  0.45360141371E+02  0.00000000000E+00 0. -1.
</event>
<event>
 4    1  0.6754235E+001  0.2871986E+02  0.7546771E-02  0.1431057E+00
          2   -1    0    0  502    0  0.00000000000E+00  0.00000000000E+00  0.19279577468E+01  0.19279577468E+01  0.00000000000E+00 0. -1.
         -2   -1    0    0    0  501 -0.00000000000E+00 -0.00000000000E+00 -0.11204520778E+04  0.11204520778E+04  0.00000000000E+00 0.  1.
          1    1    1    2  502    0 -0.21719313015E+02  0.18791004330E+02 -0.10004897116E+04  0.10009018401E+04  0.00000000000E+00 0.  1.
         -1    1    1    2    0  501  0.21719313015E+02 -0.18791004330E+02 -0.11803440841E+03  0.12147819546E+03  0.00000000000E+00 0. -1.
</event>
<event>
 4    1  0.6754235E+001  0.2201594E+02  0.7546771E-02  0.1505239E+00
          2   -1    0    0  502    0  0.00000000000E+00  0.00000000000E+00  0.22748533099E+02  0.22748533099E+02  0.00000000000E+00 0.  1.
         -2   -1    0    0    0  501 -0.00000000000E+00 -0.00000000000E+00 -0.24629566464E+02  0.24629566464E+02  0.00000000000E+00 0. -1.
          1    1    1    2  502    0  0.16932726368E+02 -0.14070689452E+02  0.77603060596E+01  0.23343604564E+02  0.00000000000E+00 0. -1.
         -1    1    1    2    0  501 -0.16932726368E+02  0.14070689452E+02 -0.96413394247E+01  0.24034494998E+02  0.00000000000E+00 0.  1.
</event>
<event>
 4    1  0.6754235E+001  0.2475513E+02  0.7546771E-02  0.1471561E+00
          2   -1    0    0  502    0  0.00000000000E+00  0.00000000000E+00  0.22958509439E+02  0.22958509439E+02  0.00000000000E+00 0.  1.
         -2   -1    0    0    0  501 -0.00000000000E+00 -0.00000000000E+00 -0.49828943674E+02  0.49828943674E+02  0.00000000000E+00 0. -1.
          1    1    1    2  502    0  0.23878598525E+02  0.65291060423E+01  0.11363850145E+02  0.27238828597E+02  0.00000000000E+00 0.  1.
         -1    1    1    2    0  501 -0.23878598525E+02 -0.65291060423E+01 -0.38234284379E+02  0.45548624515E+02  0.00000000000E+00 0. -1.
</event>
<event>
 4    1  0.6754235E+001  0.4467388E+02  0.7546771E-02  0.1323078E+00
          2   -1    0    0  502    0  0.00000000000E+00  0.00000000000E+00  0.14291856448E+04  0.14291856448E+04  0.00000000000E+00 0. -1.
         -2   -1    0    0    0  501 -0.00000000000E+00 -0.00000000000E+00 -0.13992605582E+01  0.13992605582E+01  0.00000000000E+00 0.  1.
          1    1    1    2  502    0  0.41319768774E+02 -0.16983295102E+02  0.68171338752E+03  0.68317559846E+03  0.00000000000E+00 0. -1.
         -1    1    1    2    0  501 -0.41319768774E+02  0.16983295102E+02  0.74607299670E+03  0.74740930687E+03  0.00000000000E+00 0.  1.
</event>
<event>
 4    1  0.6754235E+001  0.2299475E+02  0.7546771E-02  0.1492564E+00
          2   -1    0    0  502    0  0.00000000000E+00  0.00000000000E+00  0.22983308806E+02  0.22983308806E+02  0.00000000000E+00 0. -1.
         -2   -1    0    0    0  501 -0.00000000000E+00 -0.00000000000E+00 -0.49103403153E+02  0.49103403153E+02  0.00000000000E+00 0.  1.
          1    1    1    2  502    0  0.18325287098E+02  0.13890363971E+02 -0.39336485341E+02  0.45564431714E+02  0.00000000000E+00 0.  1.
         -1    1    1    2    0  501 -0.18325287098E+02 -0.13890363971E+02  0.13216390994E+02  0.26522280245E+02  0.00000000000E+00 0. -1.
</event>
<event>
 4    1  0.6754235E+001  0.2146879E+02  0.7546771E-02  0.1512676E+00
          2   -1    0    0  502    0  0.00000000000E+00  0.00000000000E+00  0.40120769196E+02  0.40120769196E+02  0.00000000000E+00 0. -1.
         -2   -1    0    0    0  501 -0.00000000000E+00 -0.00000000000E+00 -0.11587566626E+02  0.11587566626E+02  0.00000000000E+00 0.  1.
          1    1    1    2  502    0  0.11037465873E+02 -0.18414219393E+02  0.11870544228E+02  0.24531998472E+02  0.00000000000E+00 0. -1.
         -1    1    1    2    0  501 -0.11037465873E+02  0.18414219393E+02  0.16662658342E+02  0.27176337350E+02  0.00000000000E+00 0.  1.
</event>
<event>
 4    1  0.6754235E+001  0.2307214E+02  0.7546771E-02  0.1491594E+00
          2   -1    0    0  502    0  0.00000000000E+00  0.00000000000E+00  0.23584312319E+02  0.23584312319E+02  0.00000000000E+00 0.  1.
         -2   -1    0    0    0  501 -0.00000000000E+00 -0.00000000000E+00 -0.33717291676E+02  0.33717291676E+02  0.00000000000E+00 0. -1.
          1    1    1    2  502    0  0.18073089754E+02  0.14341802538E+02 -0.21539527448E+02  0.31563826067E+02  0.00000000000E+00 0. -1.
         -1    1    1    2    0  501 -0.18073089754E+02 -0.14341802538E+02  0.11406548091E+02  0.25737777927E+02  0.00000000000E+00 0.  1.
</event>
<event>
 4    1  0.6754235E+001  0.5709594E+02  0.7546771E-02  0.1270032E+00
          2   -1    0    0  502    0  0.00000000000E+00  0.00000000000E+00  0.21028298256E+04  0.21028298256E+04  0.00000000000E+00 0.  1.
         -2   -1    0    0    0  501 -0.00000000000E+00 -0.00000000000E+00 -0.25879119540E+01  0.25879119540E+01  0.00000000000E+00 0. -1.
          1    1    1    2  502    0  0.56611638654E+02  0.74208157514E+01  0.38353205811E+03  0.38775866945E+03  0.00000000000E+00 0. -1.
         -1    1    1    2    0  501 -0.56611638654E+02 -0.74208157514E+01  0.17167098556E+04  0.17176590681E+04  0.00000000000E+00 0.  1.
</event>
<event>
 4    1  0.6754235E+001  0.3490110E+02  0.7546771E-02  0.1381260E+00
          2   -1    0    0  502    0  0.00000000000E+00  0.00000000000E+00  0.98292024750E+03  0.98292024750E+03  0.00000000000E+00 0. -1.
         -2   -1    0    0    0  501 -0.00000000000E+00 -0.00000000000E+00 -0.36032719190E+01  0.36032719190E+01  0.00000000000E+00 0.  1.
          1    1    1    2  502    0 -0.19115230185E+02  0.29200941688E+02  0.90123893978E+02  0.96645761864E+02  0.00000000000E+00 0.  1.
         -1    1    1    2    0  501  0.19115230185E+02 -0.29200941688E+02  0.88919308160E+03  0.88987775755E+03  0.00000000000E+00 0. -1.
</event>
<event>
 4    1  0.6754235E+001  0.2173167E+02  0.7546771E-02  0.1509070E+00
          2   -1    0    0  502    0  0.00000000000E+00  0.00000000000E+00  0.12373907027E+04  0.12373907027E+04  0.00000000000E+00 0. -1.
         -2   -1    0    0    0  501 -0.00000000000E+00 -0.00000000000E+00 -0.42184964651E+00  0.42184964651E+00  0.00000000000E+00 0.  1.
          1    1    1    2  502    0 -0.12170826171E+02  0.18003796417E+02  0.80950904408E+03  0.80980069038E+03  0.00000000000E+00 0. -1.
         -1    1    1    2    0  501  0.12170826171E+02 -0.18003796417E+02  0.42745980900E+03  0.42801186200E+03  0.00000000000E+00 0.  1.
</event>
<event>
 4    1  0.6754235E+001  0.2322447E+02  0.7546771E-02  0.1489698E+00
          2   -1    0    0  502    0  0.00000000000E+00  0.00000000000E+00  0.11864249960E+04  0.11864249960E+04  0.00000000000E+00 0. -1.
         -2   -1    0    0    0  501 -0.00000000000E+00 -0.00000000000E+00 -0.98104601525E+00  0.98104601525E+00  0.00000000000E+00 0.  1.
          1    1    1    2  502    0  0.15237107047E+02 -0.17527314532E+02  0.10276245419E+04  0.10278869467E+04  0.00000000000E+00 0. -1.
         -1    1    1    2    0  501 -0.15237107047E+02  0.17527314532E+02  0.15781940813E+03  0.15951909531E+03  0.00000000000E+00 0.  1.
</event>
<event>
 4    1  0.6754235E+001  0.2409512E+02  0.7546771E-02  0.1479186E+00
          2   -1    0    0  502    0  0.00000000000E+00  0.00000000000E+00  0.21236937242E+04  0.21236937242E+04  0.00000000000E+00 0.  1.
         -2   -1    0    0    0  501 -0.00000000000E+00 -0.00000000000E+00 -0.31985878872E+00  0.31985878872E+00  0.00000000000E+00 0. -1.
          1    1    1    2  502    0  0.14297882864E+02  0.19394461985E+02  0.14665212007E+04  0.14667191301E+04  0.00000000000E+00 0.  1.
         -1    1    1    2    0  501 -0.14297882864E+02 -0.19394461985E+02  0.65685266471E+03  0.65729445285E+03  0.00000000000E+00 0. -1.
</event>
<event>
 4    1  0.6754235E+001  0.2649053E+02  0.7546771E-02  0.1452794E+00
          2   -1    0    0  502    0  0.00000000000E+00  0.00000000000E+00  0.57887612072E+01  0.57887612072E+01  0.00000000000E+00 0. -1.
         -2   -1    0    0    0  501 -0.00000000000E+00 -0.00000000000E+00 -0.12517944212E+03  0.12517944212E+03  0.00000000000E+00 0.  1.
          1    1    1    2  502    0  0.21937138869E+02  0.14849584372E+02 -0.71332807603E+02  0.76092822646E+02  0.00000000000E+00 0.  1.
         -1    1    1    2    0  501 -0.21937138869E+02 -0.14849584372E+02 -0.48057873311E+02  0.54875380682E+02  0.00000000000E+00 0. -1.
</event>
<event>
 4    1  0.6754235E+001  0.2147790E+02  0.7546771E-02  0.1512550E+00
          2   -1    0    0  502    0  0.00000000000E+00  0.00000000000E+00  0.22445558033E+04  0.22445558033E+04  0.00000000000E+00 0. -1.
         -2   -1    0    0    0  501 -0.00000000000E+00 -0.00000000000E+00 -0.21801606284E+00  0.21801606284E+00  0.00000000000E+00 0.  1.
          1    1    1    2  502    0  0.17917924875E+02 -0.11842640811E+02  0.13908840665E+04  0.13910498865E+04  0.00000000000E+00 0. -1.
         -1    1    1    2    0  501 -0.17917924875E+02  0.11842640811E+02  0.85345372071E+03  0.85372393288E+03  0.00000000000E+00 0.  1.
</event>
<event>
 4    1  0.6754235E+001  0.2576818E+02  0.7546771E-02  0.1460390E+00
          2   -1    0    0  502    0  0.00000000000E+00  0.00000000000E+00  0.89333699938E+02  0.89333699938E+02  0.00000000000E+00 0. -1.
         -2   -1    0    0    0  501 -0.00000000000E+00 -0.00000000000E+00 -0.10166636049E+02  0.10166636049E+02  0.00000000000E+00 0.  1.
          1    1    1    2  502    0 -0.19388412139E+02  0.16973178079E+02  0.13785157215E+02  0.29223789262E+02  0.00000000000E+00 0.  1.
         -1    1    1    2    0  501  0.19388412139E+02 -0.16973178079E+02  0.65381906673E+02  0.70276546725E+02  0.00000000000E+00 0. -1.
</event>
<event>
 4    1  0.6754235E+001  0.2583971E+02  0.7546771E-02  0.1459625E+00
          2   -1    0    0  502    0  0.00000000000E+00  0.00000000000E+00  0.77597232962E+01  0.77597232962E+01  0.00000000000E+00 0.  1.
         -2   -1    0    0    0  501 -0.00000000000E+00 -0.00000000000E+00 -0.92138734846E+02  0.92138734846E+02  0.00000000000E+00 0. -1.
          1    1    1    2  502    0  0.23231634720E+02  0.11312905943E+02 -0.29344772334E+02  0.39099953401E+02  0.00000000000E+00 0.  1.
         -1    1    1    2    0  501 -0.23231634720E+02 -0.11312905943E+02 -0.55034239216E+02  0.60798504741E+02  0.00000000000E+00 0. -1.
</event>
<event>
 4    1  0.6754235E+001  0.2225660E+02  0.7546771E-02  0.1502050E+00
          2   -1    0    0  502    0  0.00000000000E+00  0.00000000000E+00  0.30247353701E+01  0.30247353701E+01  0.00000000000E+00 0.  1.
         -2   -1    0    0    0  501 -0.00000000000E+00 -0.00000000000E+00 -0.16890140871E+03  0.16890140871E+03  0.00000000000E+00 0. -1.
          1    1    1    2  502    0 -0.13574586505E+02  0.17637652348E+02 -0.67952541476E+02  0.71504573785E+02  0.00000000000E+00 0.  1.
         -1    1    1    2    0  501  0.13574586505E+02 -0.17637652348E+02 -0.97924131862E+02  0.10042157029E+03  0.00000000000E+00 0. -1.
</event>
<event>
 4    1  0.6754235E+001  0.2589893E+02  0.7546771E-02  0.1458993E+00
          2   -1    0    0  502    0  0.00000000000E+00  0.00000000000E+00  0.11427042967E+01  0.11427042967E+01  0.00000000000E+00 0.  1.
         -2   -1    0    0    0  501 -0.00000000000E+00 -0.00000000000E+00 -0.60233946466E+03  0.60233946466E+03  0.00000000000E+00 0. -1.
          1    1    1    2  502    0 -0.55595623607E+00  0.25892966923E+02 -0.25242857278E+03  0.25375369787E+03  0.00000000000E+00 0. -1.
         -1    1    1    2    0  501  0.55595623607E+00 -0.25892966923E+02 -0.34876818758E+03  0.34972847109E+03  0.00000000000E+00 0.  1.
</event>
<event>
 4    1  0.6754235E+001  0.2379518E+02  0.7546771E-02  0.1482747E+00
          2   -1    0    0  502    0  0.00000000000E+00  0.00000000000E+00  0.15270774692E+04  0.15270774692E+04  0.00000000000E+00 0. -1.
         -2   -1    0    0    0  501 -0.00000000000E+00 -0.00000000000E+00 -0.37339792366E+00  0.37339792366E+00  0.00000000000E+00 0.  1.
          1    1    1    2  502    0 -0.92852668502E+01 -0.21908779437E+02  0.82729235058E+03  0.82763448703E+03  0.00000000000E+00 0. -1.
         -1    1    1    2    0  501  0.92852668502E+01  0.21908779437E+02  0.69941172070E+03  0.69981638010E+03  0.00000000000E+00 0.  1.
</event>
<event>
 4    1  0.6754235E+001  0.2059478E+02  0.7546771E-02  0.1525130E+00
          2   -1    0    0  502    0  0.00000000000E+00  0.00000000000E+00  0.18804123242E+03  0.18804123242E+03  0.00000000000E+00 0. -1.
         -2   -1    0    0    0  501 -0.00000000000E+00 -0.00000000000E+00 -0.31480305998E+01  0.31480305998E+01  0.00000000000E+00 0.  1.
          1    1    1    2  502    0  0.19079660758E+02 -0.77531743994E+01  0.14334476063E+03  0.14481666192E+03  0.00000000000E+00 0. -1.
         -1    1    1    2    0  501 -0.19079660758E+02  0.77531743994E+01  0.41548441183E+02  0.46372601098E+02  0.00000000000E+00 0.  1.
</event>
<event>
 4    1  0.6754235E+001  0.2814612E+02  0.7546771E-02  0.1436423E+00
          2   -1    0    0  502    0  0.00000000000E+00  0.00000000000E+00  0.87843647556E+02  0.87843647556E+02  0.00000000000E+00 0.  1.
         -2   -1    0    0    0  501 -0.00000000000E+00 -0.00000000000E+00 -0.97577771180E+01  0.97577771180E+01  0.00000000000E+00 0. -1.
          1    1    1    2  502    0 -0.76473070699E+01  0.27087321515E+02  0.25609101712E+02  0.38052994400E+02  0.00000000000E+00 0. -1.
         -1    1    1    2    0  501  0.76473070699E+01 -0.27087321515E+02  0.52476768726E+02  0.59548430275E+02  0.00000000000E+00 0.  1.
</event>
<event>
 4    1  0.6754235E+001  0.3061548E+02  0.7546771E-02  0.1414322E+00
          2   -1    0    0  502    0  0.00000000000E+00  0.00000000000E+00  0.15540592463E+04  0.15540592463E+04  0.00000000000E+00 0. -1.
         -2   -1    0    0    0  501 -0.00000000000E+00 -0.00000000000E+00 -0.67365860387E+00  0.67365860387E+00  0.00000000000E+00 0.  1.
          1    1    1    2  502    0  0.29745074106E+02 -0.72483368804E+01  0.10282127931E+04  0.10286684868E+04  0.00000000000E+00 0. -1.
         -1    1    1    2    0  501 -0.29745074106E+02  0.72483368804E+01  0.52517279455E+03  0.52606441807E+03  0.00000000000E+00 0.  1.
</event>
<event>
 4    1  0.6754235E+001  0.2815349E+02  0.7546771E-02  0.1436353E+00
          2   -1    0    0  502    0  0.00000000000E+00  0.00000000000E+00  0.75861029513E+01  0.75861029513E+01  0.00000000000E+00 0. -1.
         -2   -1    0    0    0  501 -0.00000000000E+00 -0.00000000000E+00 -0.10997275375E+03  0.10997275375E+03  0.00000000000E+00 0.  1.
          1    1    1    2  502    0  0.15579063706E+02  0.23450203664E+02 -0.64326106961E+02  0.70217286437E+02  0.00000000000E+00 0.  1.
         -1    1    1    2    0  501 -0.15579063706E+02 -0.23450203664E+02 -0.38060543836E+02  0.47341570263E+02  0.00000000000E+00 0. -1.
</event>
<event>
 4    1  0.6754235E+001  0.2803633E+02  0.7546771E-02  0.1437467E+00
          2   -1    0    0  502    0  0.00000000000E+00  0.00000000000E+00  0.33185717859E+02  0.33185717859E+02  0.00000000000E+00 0. -1.
         -2   -1    0    0    0  501 -0.00000000000E+00 -0.00000000000E+00 -0.24707617471E+02  0.24707617471E+02  0.00000000000E+00 0.  1.
          1    1    1    2  502    0  0.28033306944E+02  0.41148204613E+00  0.10125258218E+02  0.29808664339E+02  0.00000000000E+00 0. -1.
         -1    1    1    2    0  501 -0.28033306944E+02 -0.41148204613E+00 -0.16471578304E+01  0.28084670990E+02  0.00000000000E+00 0.  1.
</event>
<event>
 4    1  0.6754235E+001  0.2870076E+02  0.7546771E-02  0.1431233E+00
          2   -1    0    0  502    0  0.00000000000E+00  0.00000000000E+00  0.11320987520E+02  0.11320987520E+02  0.00000000000E+00 0. -1.
         -2   -1    0    0    0  501 -0.00000000000E+00 -0.00000000000E+00 -0.72815505963E+02  0.72815505963E+02  0.00000000000E+00 0.  1.
          1    1    1    2  502    0  0.31644072516E+01 -0.28525776892E+02 -0.29602879593E+02  0.41231831160E+02  0.00000000000E+00 0. -1.
         -1    1    1    2    0  501 -0.31644072516E+01  0.28525776892E+02 -0.31891638850E+02  0.42904662324E+02  0.00000000000E+00 0.  1.
</event>
<event>
 4    1  0.6754235E+001  0.3596351E+02  0.7546771E-02  0.1373913E+00
          2   -1    0    0  502    0  0.00000000000E+00  0.00000000000E+00  0.17745907260E+03  0.17745907260E+03  0.00000000000E+00 0. -1.
         -2   -1    0    0    0  501 -0.00000000000E+00 -0.00000000000E+00 -0.80521657728E+01  0.80521657728E+01  0.00000000000E+00 0.  1.
          1    1    1    2  502    0  0.14997099540E+02  0.32687321646E+02  0.56134524996E+02  0.66666774990E+02  0.00000000000E+00 0.  1.
         -1    1    1    2    0  501 -0.14997099540E+02 -0.32687321646E+02  0.11327238183E+03  0.11884446338E+03  0.00000000000E+00 0. -1.
</event>
<event>
 4    1  0.6754235E+001  0.2316182E+02  0.7546771E-02  0.1490476E+00
          2   -1    0    0  502    0  0.00000000000E+00  0.00000000000E+00  0.34713693970E+03  0.34713693970E+03  0.00000000000E+00 0.  1.
         -2   -1    0    0    0  501 -0.00000000000E+00 -0.00000000000E+00 -0.32983870782E+01  0.32983870782E+01  0.00000000000E+00 0. -1.
          1    1    1    2  502    0  0.23152060124E+02 -0.67224318785E+00  0.29965573491E+03  0.30054954544E+03  0.00000000000E+00 0.  1.
         -1    1    1    2    0  501 -0.23152060124E+02  0.67224318785E+00  0.44182817709E+02  0.49885781336E+02  0.00000000000E+00 0. -1.
</event>
<event>
 4    1  0.6754235E+001  0.2026914E+02  0.7546771E-02  0.1529960E+00
          2   -1    0    0  502    0  0.00000000000E+00  0.00000000000E+00  0.33654271734E+03  0.33654271734E+03  0.00000000000E+00 0. -1.
         -2   -1    0    0    0  501 -0.00000000000E+00 -0.00000000000E+00 -0.12327447840E+01  0.12327447840E+01  0.00000000000E+00 0.  1.
          1    1    1    2  502    0 -0.10739221591E+02  0.17190323115E+02  0.15100301057E+03  0.15235730141E+03  0.00000000000E+00 0.  1.
         -1    1    1    2    0  501  0.10739221591E+02 -0.17190323115E+02  0.18430696199E+03  0.18541816072E+03  0.00000000000E+00 0. -1.
</event>
<event>
 4    1  0.6754235E+001  0.2331353E+02  0.7546771E-02  0.1488598E+00
          2   -1    0    0  502    0  0.00000000000E+00  0.00000000000E+00  0.45036288120E+03  0.45036288120E+03  0.00000000000E+00 0.  1.
         -2   -1    0    0    0  501 -0.00000000000E+00 -0.00000000000E+00 -0.12327373410E+01  0.12327373410E+01  0.00000000000E+00 0. -1.
          1    1    1    2  502    0 -0.55575467208E+01  0.22641430978E+02  0.19184434289E+03  0.19325571821E+03  0.00000000000E+00 0.  1.
         -1    1    1    2    0  501  0.55575467208E+01 -0.22641430978E+02  0.25728580096E+03  0.25833990032E+03  0.00000000000E+00 0. -1.
</event>
<event>
 4    1  0.6754235E+001  0.3530062E+02  0.7546771E-02  0.1378462E+00
          2   -1    0    0  502    0  0.00000000000E+00  0.00000000000E+00  0.17761799756E+04  0.17761799756E+04  0.00000000000E+00 0.  1.
         -2   -1    0    0    0  501 -0.00000000000E+00 -0.00000000000E+00 -0.19298809269E+01  0.19298809269E+01  0.00000000000E+00 0. -1.
          1    1    1    2  502    0  0.35079641508E+02  0.39436475540E+01  0.17784849754E+03  0.18131801257E+03  0.00000000000E+00 0. -1.
         -1    1    1    2    0  501 -0.35079641508E+02 -0.39436475540E+01  0.15964015971E+04  0.15967918439E+04  0.00000000000E+00 0.  1.
</event>
<event>
 4    1  0.6754235E+001  0.2411423E+02  0.7546771E-02  0.1478961E+00
          2   -1    0    0  502    0  0.00000000000E+00  0.00000000000E+00  0.75750715412E+03  0.75750715412E+03  0.00000000000E+00 0. -1.
         -2   -1    0    0    0  501 -0.00000000000E+00 -0.00000000000E+00 -0.93517876930E+00  0.93517876930E+00  0.00000000000E+00 0.  1.
          1    1    1    2  502    0  0.22508623285E+02 -0.86520415408E+01  0.53879429528E+03  0.53933365236E+03  0.00000000000E+00 0.  1.
         -1    1    1    2    0  501 -0.22508623285E+02  0.86520415408E+01  0.21777768008E+03  0.21910868053E+03  0.00000000000E+00 0. -1.
</event>
<event>
 4    1  0.6754235E+001  0.2102319E+02  0.7546771E-02  0.1518934E+00
          2   -1    0    0  502    0  0.00000000000E+00  0.00000000000E+00  0.10916541076E+01  0.10916541076E+01  0.00000000000E+00 0. -1.
         -2   -1    0    0    0  501 -0.00000000000E+00 -0.00000000000E+00 -0.45664692846E+03  0.45664692846E+03  0.00000000000E+00 0.  1.
          1    1    1    2  502    0  0.18291348463E+02  0.10363454657E+02 -0.30484639718E+03  0.30557045096E+03  0.00000000000E+00 0. -1.
         -1    1    1    2    0  501 -0.18291348463E+02 -0.10363454657E+02 -0.15070887717E+03  0.15216813162E+03  0.00000000000E+00 0.  1.
</event>
<event>
 4    1  0.6754235E+001  0.2043700E+02  0.7546771E-02  0.1527457E+00
          2   -1    0    0  502    0  0.00000000000E+00  0.00000000000E+00  0.90322203496E+03  0.90322203496E+03  0.00000000000E+00 0. -1.
         -2   -1    0    0    0  501 -0.00000000000E+00 -0.00000000000E+00 -0.72421758215E+00  0.72421758215E+00  0.00000000000E+00 0.  1.
          1    1    1    2  502    0 -0.34480141486E+01  0.20144032006E+02  0.17950598777E+03  0.18066563169E+03  0.00000000000E+00 0.  1.
         -1    1    1    2    0  501  0.34480141486E+01 -0.20144032006E+02  0.72299182961E+03  0.72328062086E+03  0.00000000000E+00 0. -1.
</event>
<event>
 4    1  0.6754235E+001  0.2358558E+02  0.7546771E-02  0.1485273E+00
          2   -1    0    0  502    0  0.00000000000E+00  0.00000000000E+00  0.31353142134E+02  0.31353142134E+02  0.00000000000E+00 0.  1.
         -2   -1    0    0    0  501 -0.00000000000E+00 -0.00000000000E+00 -0.19123788609E+02  0.19123788609E+02  0.00000000000E+00 0. -1.
          1    1    1    2  502    0 -0.17719709173E+02 -0.15565714910E+02 -0.66854465395E+00  0.23595052994E+02  0.00000000000E+00 0. -1.
         -1    1    1    2    0  501  0.17719709173E+02  0.15565714910E+02  0.12897898179E+02  0.26881877749E+02  0.00000000000E+00 0.  1.
</event>
<event>
 4    1  0.6754235E+001  0.2323298E+02  0.7546771E-02  0.1489593E+00
          2   -1    0    0  502    0  0.00000000000E+00  0.00000000000E+00  0.46684010828E+03  0.46684010828E+03  0.00000000000E+00 0.  1.
         -2   -1    0    0    0  501 -0.00000000000E+00 -0.00000000000E+00 -0.12801809454E+01  0.12801809454E+01  0.00000000000E+00 0. -1.
          1    1    1    2  502    0 -0.20795587153E+02  0.10359280613E+02  0.30561317592E+03  0.30649499904E+03  0.00000000000E+00 0.  1.
         -1    1    1    2    0  501  0.20795587153E+02 -0.10359280613E+02  0.15994675142E+03  0.16162529019E+03  0.00000000000E+00 0. -1.
</event>
<event>
 4    1  0.6754235E+001  0.2287501E+02  0.7546771E-02  0.1494074E+00
          2   -1    0    0  502    0  0.00000000000E+00  0.00000000000E+00  0.98756293610E+03  0.98756293610E+03  0.00000000000E+00 0. -1.
         -2   -1    0    0    0  501 -0.00000000000E+00 -0.00000000000E+00 -0.16250151134E+01  0.16250151134E+01  0.00000000000E+00 0.  1.
          1    1    1    2  502    0  0.11264261728E+02  0.19909360905E+02  0.89899951032E+03  0.89929049022E+03  0.00000000000E+00 0. -1.
         -1    1    1    2    0  501 -0.11264261728E+02 -0.19909360905E+02  0.86938410667E+02  0.89897460994E+02  0.00000000000E+00 0.  1.
</event>
<event>
 4    1  0.6754235E+001  0.2864339E+02  0.7546771E-02  0.1431763E+00
          2   -1    0    0  502    0  0.00000000000E+00  0.00000000000E+00  0.19759473114E+04  0.19759473114E+04  0.00000000000E+00 0.  1.
         -2   -1    0    0    0  501 -0.00000000000E+00 -0.00000000000E+00 -0.45871708921E+00  0.45871708921E+00  0.00000000000E+00 0. -1.
          1    1    1    2  502    0  0.28582407850E+02 -0.18680841371E+01  0.12920616486E+04  0.12923791037E+04  0.00000000000E+00 0. -1.
         -1    1    1    2    0  501 -0.28582407850E+02  0.18680841371E+01  0.68342694570E+03  0.68402692483E+03  0.00000000000E+00 0.  1.
</event>
<event>
 4    1  0.6754235E+001  0.3353529E+02  0.7546771E-02  0.1391164E+00
          2   -1    0    0  502    0  0.00000000000E+00  0.00000000000E+00  0.19391679962E+03  0.19391679962E+03  0.00000000000E+00 0.  1.
         -2   -1    0    0    0  501 -0.00000000000E+00 -0.00000000000E+00 -0.60346900883E+01  0.60346900883E+01  0.00000000000E+00 0. -1.
          1    1    1    2  502    0  0.12784288943E+02 -0.31002865254E+02  0.74203223334E+02  0.81429319357E+02  0.00000000000E+00 0. -1.
         -1    1    1    2    0  501 -0.12784288943E+02  0.31002865254E+02  0.11367888620E+03  0.11852217035E+03  0.00000000000E+00 0.  1.
</event>
<event>
 4    1  0.6754235E+001  0.3036269E+02  0.7546771E-02  0.1416470E+00
          2   -1    0    0  502    0  0.00000000000E+00  0.00000000000E+00  0.36800571461E+03  0.36800571461E+03  0.00000000000E+00 0.  1.
         -2   -1    0    0    0  501 -0.00000000000E+00 -0.00000000000E+00 -0.42860801517E+01  0.42860801517E+01  0.00000000000E+00 0. -1.
          1    1    1    2  502    0  0.30045254653E+02  0.43790151572E+01  0.30185179364E+03  0.30337501285E+03  0.00000000000E+00 0.  1.
         -1    1    1    2    0  501 -0.30045254653E+02 -0.43790151572E+01  0.61867840819E+02  0.68916781907E+02  0.00000000000E+00 0. -1.
</event>
<event>
 4    1  0.6754235E+001  0.2776325E+02  0.7546771E-02  0.1440088E+00
          2   -1    0    0  502    0  0.00000000000E+00  0.00000000000E+00  0.77103368373E+03  0.77103368373E+03  0.00000000000E+00 0. -1.
         -2   -1    0    0    0  501 -0.00000000000E+00 -0.00000000000E+00 -0.99971276752E+00  0.99971276752E+00  0.00000000000E+00 0.  1.
          1    1    1    2  502    0 -0.11431328459E+02  0.25300650250E+02  0.38666470491E+03  0.38766015039E+03  0.00000000000E+00 0.  1.
         -1    1    1    2    0  501  0.11431328459E+02 -0.25300650250E+02  0.38336926605E+03  0.38437324611E+03  0.00000000000E+00 0. -1.
</event>
<event>
 4    1  0.6754235E+001  0.2489549E+02  0.7546771E-02  0.1469976E+00
          2   -1    0    0  502    0  0.00000000000E+00  0.00000000000E+00  0.12804480451E+04  0.12804480451E+04  0.00000000000E+00 0.  1.
         -2   -1    0    0    0  501 -0.00000000000E+00 -0.00000000000E+00 -0.68455275175E+00  0.68455275175E+00  0.00000000000E+00 0. -1.
          1    1    1    2  502    0  0.24893891175E+02  0.28213659037E+00  0.98656580147E+03  0.98687986404E+03  0.00000000000E+00 0.  1.
         -1    1    1    2    0  501 -0.24893891175E+02 -0.28213659037E+00  0.29319769087E+03  0.29425273380E+03  0.00000000000E+00 0. -1.
</event>
<event>
 4    1  0.6754235E+001  0.2302902E+02  0.7546771E-02  0.1492134E+00
          2   -1    0    0  502    0  0.00000000000E+00  0.00000000000E+00  0.11620376815E+04  0.11620376815E+04  0.00000000000E+00 0. -1.
         -2   -1    0    0    0  501 -0.00000000000E+00 -0.00000000000E+00 -0.46403319357E+00  0.46403319357E+00  0.00000000000E+00 0.  1.
          1    1    1    2  502    0  0.22959533997E+02 -0.17876765153E+01  0.65541153379E+03  0.65581599143E+03  0.00000000000E+00 0.  1.
         -1    1    1    2    0  501 -0.22959533997E+02  0.17876765153E+01  0.50616211449E+03  0.50668572324E+03  0.00000000000E+00 0. -1.
</event>
<event>
 4    1  0.6754235E+001  0.3043431E+02  0.7546771E-02  0.1415859E+00
          2   -1    0    0  502    0  0.00000000000E+00  0.00000000000E+00  0.34246416926E+03  0.34246416926E+03  0.00000000000E+00 0.  1.
         -2   -1    0    0    0  501 -0.00000000000E+00 -0.00000000000E+00 -0.32564986102E+01  0.32564986102E+01  0.00000000000E+00 0. -1.
          1    1    1    2  502    0  0.17050863952E+02  0.25209428552E+02  0.98445117683E+02  0.10304216829E+03  0.00000000000E+00 0.  1.
         -1    1    1    2    0  501 -0.17050863952E+02 -0.25209428552E+02  0.24076255297E+03  0.24267849959E+03  0.00000000000E+00 0. -1.
</event>
<event>
 4    1  0.6754235E+001  0.2367064E+02  0.7546771E-02  0.1484244E+00
          2   -1    0    0  502    0  0.00000000000E+00  0.00000000000E+00  0.67691376436E+03  0.67691376436E+03  0.00000000000E+00 0.  1.
         -2   -1    0    0    0  501 -0.00000000000E+00 -0.00000000000E+00 -0.83280870483E+00  0.83280870483E+00  0.00000000000E+00 0. -1.
          1    1    1    2  502    0 -0.20150869545E+02  0.12419415236E+02  0.31156806743E+03  0.31246593424E+03  0.00000000000E+00 0. -1.
         -1    1    1    2    0  501  0.20150869545E+02 -0.12419415236E+02  0.36451288822E+03  0.36528063882E+03  0.00000000000E+00 0.  1.
</event>
<event>
 4    1  0.6754235E+001  0.4194017E+02  0.7546771E-02  0.1337477E+00
          2   -1    0    0  502    0  0.00000000000E+00  0.00000000000E+00  0.36655564710E+03  0.36655564710E+03  0.00000000000E+00 0. -1.
         -2   -1    0    0    0  501 -0.00000000000E+00 -0.00000000000E+00 -0.56265064906E+01  0.56265064906E+01  0.00000000000E+00 0.  1.
          1    1    1    2  502    0  0.92703631080E+01  0.40902785871E+02  0.25184512129E+03  0.25531342041E+03  0.00000000000E+00 0. -1.
         -1    1    1    2    0  501 -0.92703631080E+01 -0.40902785871E+02  0.10908401932E+03  0.11686873318E+03  0.00000000000E+00 0.  1.
</event>
<event>
 4    1  0.6754235E+001  0.2233862E+02  0.7546771E-02  0.1500974E+00
          2   -1    0    0  502    0  0.00000000000E+00  0.00000000000E+00  0.20457648640E+02  0.20457648640E+02  0.00000000000E+00 0. -1.
         -2   -1    0    0    0  501 -0.00000000000E+00 -0.00000000000E+00 -0.43272431707E+02  0.43272431707E+02  0.00000000000E+00 0.  1.
          1    1    1    2  502    0  0.17060680917E+02  0.14420363829E+02  0.96405064559E+01  0.24330086129E+02  0.00000000000E+00 0.  1.
         -1    1    1    2    0  501 -0.17060680917E+02 -0.14420363829E+02 -0.32455289523E+02  0.39399994217E+02  0.00000000000E+00 0. -1.
</event>
<event>
 4    1  0.6754235E+001  0.6274116E+02  0.7546771E-02  0.1250793E+00
          2   -1    0    0  502    0  0.00000000000E+00  0.00000000000E+00  0.47123063368E+03  0.47123063368E+03  0.00000000000E+00 0. -1.
         -2   -1    0    0    0  501 -0.00000000000E+00 -0.00000000000E+00 -0.12654276128E+02  0.12654276128E+02  0.00000000000E+00 0.  1.
          1    1    1    2  502    0 -0.42635426405E+02  0.46029046082E+02  0.37033519190E+03  0.37561230947E+03  0.00000000000E+00 0. -1.
         -1    1    1    2    0  501  0.42635426405E+02 -0.46029046082E+02  0.88241165652E+02  0.10827260034E+03  0.00000000000E+00 0.  1.
</event>
<event>
 4    1  0.6754235E+001  0.2978473E+02  0.7546771E-02  0.1421477E+00
          2   -1    0    0  502    0  0.00000000000E+00  0.00000000000E+00  0.64938398703E+01  0.64938398703E+01  0.00000000000E+00 0. -1.
         -2   -1    0    0    0  501 -0.00000000000E+00 -0.00000000000E+00 -0.13859631356E+03  0.13859631356E+03  0.00000000000E+00 0.  1.
          1    1    1    2  502    0  0.75070149414E+01 -0.28823165986E+02 -0.74733702696E+02  0.80450335546E+02  0.00000000000E+00 0. -1.
         -1    1    1    2    0  501 -0.75070149414E+01  0.28823165986E+02 -0.57368770995E+02  0.64639817885E+02  0.00000000000E+00 0.  1.
</event>
<event>
 4    1  0.6754235E+001  0.3925839E+02  0.7546771E-02  0.1352887E+00
          2   -1    0    0  502    0  0.00000000000E+00  0.00000000000E+00  0.37986813256E+03  0.37986813256E+03  0.00000000000E+00 0.  1.
         -2   -1    0    0    0  501 -0.00000000000E+00 -0.00000000000E+00 -0.12624951769E+02  0.12624951769E+02  0.00000000000E+00 0. -1.
          1    1    1    2  502    0  0.37177785836E+02 -0.12610846761E+02  0.21955387705E+02  0.44980665457E+02  0.00000000000E+00 0. -1.
         -1    1    1    2    0  501 -0.37177785836E+02  0.12610846761E+02  0.34528779308E+03  0.34751241887E+03  0.00000000000E+00 0.  1.
</event>
<event>
 4    1  0.6754235E+001  0.2178055E+02  0.7546771E-02  0.1508406E+00
          2   -1    0    0  502    0  0.00000000000E+00  0.00000000000E+00  0.11126531282E+03  0.11126531282E+03  0.00000000000E+00 0.  1.
         -2   -1    0    0    0  501 -0.00000000000E+00 -0.00000000000E+00 -0.42951451094E+01  0.42951451094E+01  0.00000000000E+00 0. -1.
          1    1    1    2  502    0  0.19593602134E+02 -0.95122608923E+01  0.48534464143E+02  0.53197618006E+02  0.00000000000E+00 0. -1.
         -1    1    1    2    0  501 -0.19593602134E+02  0.95122608923E+01  0.58435703567E+02  0.62362839923E+02  0.00000000000E+00 0.  1.
</event>
<event>
 4    1  0.6754235E+001  0.2415048E+02  0.7546771E-02  0.1478536E+00
          2   -1    0    0  502    0  0.00000000000E+00  0.00000000000E+00  0.33977496277E+02  0.33977496277E+02  0.00000000000E+00 0.  1.
         -2   -1    0    0    0  501 -0.00000000000E+00 -0.00000000000E+00 -0.60678867058E+02  0.60678867058E+02  0.00000000000E+00 0. -1.
          1    1    1    2  502    0 -0.58791454609E+01  0.23423950140E+02 -0.53429206408E+02  0.58633828878E+02  0.00000000000E+00 0. -1.
         -1    1    1    2    0  501  0.58791454609E+01 -0.23423950140E+02  0.26727835626E+02  0.36022534458E+02  0.00000000000E+00 0.  1.
</event>
<event>
 4    1  0.6754235E+001  0.2059495E+02  0.7546771E-02  0.1525127E+00
          2   -1    0    0  502    0  0.00000000000E+00  0.00000000000E+00  0.12357815760E+02  0.12357815760E+02  0.00000000000E+00 0. -1.
         -2   -1    0    0    0  501 -0.00000000000E+00 -0.00000000000E+00 -0.34595920896E+02  0.34595920896E+02  0.00000000000E+00 0.  1.
          1    1    1    2  502    0 -0.97110812662E+01  0.18161688742E+02 -0.13205874257E+02  0.24465223323E+02  0.00000000000E+00 0.  1.
         -1    1    1    2    0  501  0.97110812662E+01 -0.18161688742E+02 -0.90322308782E+01  0.22488513334E+02  0.00000000000E+00 0. -1.
</event>
<event>
 4    1  0.6754235E+001  0.4244727E+02  0.7546771E-02  0.1334712E+00
          2   -1    0    0  502    0  0.00000000000E+00  0.00000000000E+00  0.99028328537E+02  0.99028328537E+02  0.00000000000E+00 0.  1.
         -2   -1    0    0    0  501 -0.00000000000E+00 -0.00000000000E+00 -0.20764727099E+02  0.20764727099E+02  0.00000000000E+00 0. -1.
          1    1    1    2  502    0  0.17317705734E+02  0.38753938277E+02  0.60204710313E+02  0.73663951888E+02  0.00000000000E+00 0. -1.
         -1    1    1    2    0  501 -0.17317705734E+02 -0.38753938277E+02  0.18058891126E+02  0.46129103748E+02  0.00000000000E+00 0.  1.
</event>
<event>
 4    1  0.6754235E+001  0.2210915E+02  0.7546771E-02  0.1503998E+00
          2   -1    0    0  502    0  0.00000000000E+00  0.00000000000E+00  0.15889317698E+03  0.15889317698E+03  0.00000000000E+00 0. -1.
         -2   -1    0    0    0  501 -0.00000000000E+00 -0.00000000000E+00 -0.30912200791E+01  0.30912200791E+01  0.00000000000E+00 0.  1.
          1    1    1    2  502    0 -0.21792281461E+02 -0.37297451312E+01  0.72287752851E+02  0.75593212276E+02  0.00000000000E+00 0. -1.
         -1    1    1    2    0  501  0.21792281461E+02  0.37297451312E+01  0.83514204047E+02  0.86391184780E+02  0.00000000000E+00 0.  1.
</event>
<event>
 4    1  0.6754235E+001  0.2519790E+02  0.7546771E-02  0.1466602E+00
          2   -1    0    0  502    0  0.00000000000E+00  0.00000000000E+00  0.12007290714E+03  0.12007290714E+03  0.00000000000E+00 0. -1.
         -2   -1    0    0    0  501 -0.00000000000E+00 -0.00000000000E+00 -0.89094706853E+01  0.89094706853E+01  0.00000000000E+00 0.  1.
          1    1    1    2  502    0  0.16228727645E+02  0.19275957198E+02  0.14464605123E+02  0.29054413232E+02  0.00000000000E+00 0.  1.
         -1    1    1    2    0  501 -0.16228727645E+02 -0.19275957198E+02  0.96698831330E+02  0.99927964592E+02  0.00000000000E+00 0. -1.
</event>
<event>
 4    1  0.6754235E+001  0.3035799E+02  0.7546771E-02  0.1416510E+00
          2   -1    0    0  502    0  0.00000000000E+00  0.00000000000E+00  0.26774814673E+03  0.26774814673E+03  0.00000000000E+00 0.  1.
         -2   -1    0    0    0  501 -0.00000000000E+00 -0.00000000000E+00 -0.56224668218E+01  0.56224668218E+01  0.00000000000E+00 0. -1.
          1    1    1    2  502    0 -0.29728270386E+02  0.61512198758E+01  0.21618179078E+03  0.21830294142E+03  0.00000000000E+00 0.  1.
         -1    1    1    2    0  501  0.29728270386E+02 -0.61512198758E+01  0.45943889124E+02  0.55067672132E+02  0.00000000000E+00 0. -1.
</event>
<event>
 4    1  0.6754235E+001  0.3228247E+02  0.7546771E-02  0.1400746E+00
          2   -1    0    0  502    0  0.00000000000E+00  0.00000000000E+00  0.13138959814E+02  0.13138959814E+02  0.00000000000E+00 0.  1.
         -2   -1    0    0    0  501 -0.00000000000E+00 -0.00000000000E+00 -0.88823136377E+02  0.88823136377E+02  0.00000000000E+00 0. -1.
          1    1    1    2  502    0  0.10756524585E+02 -0.30437722057E+02 -0.21164936759E+02  0.38601972659E+02  0.00000000000E+00 0.  1.
         -1    1    1    2    0  501 -0.10756524585E+02  0.30437722057E+02 -0.54519239804E+02  0.63360123532E+02  0.00000000000E+00 0. -1.
</event>
<event>
 4    1  0.6754235E+001  0.3670484E+02  0.7546771E-02  0.1368958E+00
          2   -1    0    0  502    0  0.00000000000E+00  0.00000000000E+00  0.16255383370E+04  0.16255383370E+04  0.00000000000E+00 0.  1.
         -2   -1    0    0    0  501 -0.00000000000E+00 -0.00000000000E+00 -0.23595913892E+01  0.23595913892E+01  0.00000000000E+00 0. -1.
          1    1    1    2  502    0  0.36629956245E+02 -0.23434207275E+01  0.14671862160E+04  0.14676452698E+04  0.00000000000E+00 0.  1.
         -1    1    1    2    0  501 -0.36629956245E+02  0.23434207275E+01  0.15599252955E+03  0.16025265861E+03  0.00000000000E+00 0. -1.
</event>
<event>
 4    1  0.6754235E+001  0.2380903E+02  0.7546771E-02  0.1482582E+00
          2   -1    0    0  502    0  0.00000000000E+00  0.00000000000E+00  0.10259984852E+04  0.10259984852E+04  0.00000000000E+00 0.  1.
         -2   -1    0    0    0  501 -0.00000000000E+00 -0.00000000000E+00 -0.60187346304E+00  0.60187346304E+00  0.00000000000E+00 0. -1.
          1    1    1    2  502    0  0.23426699446E+02 -0.42496714109E+01  0.36569036716E+03  0.36646461573E+03  0.00000000000E+00 0. -1.
         -1    1    1    2    0  501 -0.23426699446E+02  0.42496714109E+01  0.65970624459E+03  0.66013574294E+03  0.00000000000E+00 0.  1.
</event>
<event>
 4    1  0.6754235E+001  0.2182915E+02  0.7546771E-02  0.1507748E+00
          2   -1    0    0  502    0  0.00000000000E+00  0.00000000000E+00  0.70455455719E+03  0.70455455719E+03  0.00000000000E+00 0. -1.
         -2   -1    0    0    0  501 -0.00000000000E+00 -0.00000000000E+00 -0.78392304779E+00  0.78392304779E+00  0.00000000000E+00 0.  1.
          1    1    1    2  502    0 -0.20922838926E+02  0.62246901212E+01  0.22123173186E+03  0.22230607535E+03  0.00000000000E+00 0.  1.
         -1    1    1    2    0  501  0.20922838926E+02 -0.62246901212E+01  0.48253890228E+03  0.48303240488E+03  0.00000000000E+00 0. -1.
</event>
<event>
 4    1  0.6754235E+001  0.2002376E+02  0.7546771E-02  0.1533673E+00
          2   -1    0    0  502    0  0.00000000000E+00  0.00000000000E+00  0.63201331746E+00  0.63201331746E+00  0.00000000000E+00 0.  1.
         -2   -1    0    0    0  501 -0.00000000000E+00 -0.00000000000E+00 -0.64495909175E+03  0.64495909175E+03  0.00000000000E+00 0. -1.
          1    1    1    2  502    0 -0.19916001503E+02 -0.20745324258E+01 -0.36346108393E+03  0.36401223926E+03  0.00000000000E+00 0. -1.
         -1    1    1    2    0  501  0.19916001503E+02  0.20745324258E+01 -0.28086599450E+03  0.28157886581E+03  0.00000000000E+00 0.  1.
</event>
<event>
 4    1  0.6754235E+001  0.2477213E+02  0.7546771E-02  0.1471369E+00
          2   -1    0    0  502    0  0.00000000000E+00  0.00000000000E+00  0.33784748038E+02  0.33784748038E+02  0.00000000000E+00 0. -1.
         -2   -1    0    0    0  501 -0.00000000000E+00 -0.00000000000E+00 -0.18921188363E+02  0.18921188363E+02  0.00000000000E+00 0.  1.
          1    1    1    2  502    0  0.12720919453E+02  0.21256443427E+02  0.21591769342E+01  0.24866045602E+02  0.00000000000E+00 0.  1.
         -1    1    1    2    0  501 -0.12720919453E+02 -0.21256443427E+02  0.12704382741E+02  0.27839890799E+02  0.00000000000E+00 0. -1.
</event>
<event>
 4    1  0.6754235E+001  0.2823838E+02  0.7546771E-02  0.1435550E+00
          2   -1    0    0  502    0  0.00000000000E+00  0.00000000000E+00  0.10605277976E+04  0.10605277976E+04  0.00000000000E+00 0. -1.
         -2   -1    0    0    0  501 -0.00000000000E+00 -0.00000000000E+00 -0.76577485214E+00  0.76577485214E+00  0.00000000000E+00 0.  1.
          1    1    1    2  502    0 -0.24302168321E+02 -0.14380920456E+02  0.60132026955E+03  0.60198295062E+03  0.00000000000E+00 0. -1.
         -1    1    1    2    0  501  0.24302168321E+02  0.14380920456E+02  0.45844175322E+03  0.45931062186E+03  0.00000000000E+00 0.  1.
</event>
<event>
 4    1  0.6754235E+001  0.2429126E+02  0.7546771E-02  0.1476891E+00
          2   -1    0    0  502    0  0.00000000000E+00  0.00000000000E+00  0.94723218774E+01  0.94723218774E+01  0.00000000000E+00 0. -1.
         -2   -1    0    0    0  501 -0.00000000000E+00 -0.00000000000E+00 -0.72777264330E+02  0.72777264330E+02  0.00000000000E+00 0.  1.
          1    1    1    2  502    0 -0.13323937677E+02  0.20311028117E+02 -0.16043938043E+02  0.29111391694E+02  0.00000000000E+00 0. -1.
         -1    1    1    2    0  501  0.13323937677E+02 -0.20311028117E+02 -0.47261004410E+02  0.53138194514E+02  0.00000000000E+00 0.  1.
</event>
<event>
 4    1  0.6754235E+001  0.2398830E+02  0.7546771E-02  0.1480447E+00
          2   -1    0    0  502    0  0.00000000000E+00  0.00000000000E+00  0.15306023349E+02  0.15306023349E+02  0.00000000000E+00 0.  1.
         -2   -1    0    0    0  501 -0.00000000000E+00 -0.00000000000E+00 -0.42153899559E+02  0.42153899559E+02  0.00000000000E+00 0. -1.
          1    1    1    2  502    0 -0.23941604021E+02 -0.14960244028E+01 -0.22871496525E+02  0.33144288277E+02  0.00000000000E+00 0.  1.
         -1    1    1    2    0  501  0.23941604021E+02  0.14960244028E+01 -0.39763796844E+01  0.24315634631E+02  0.00000000000E+00 0. -1.
</event>
<event>
 4    1  0.6754235E+001  0.2109460E+02  0.7546771E-02  0.1517918E+00
          2   -1    0    0  502    0  0.00000000000E+00  0.00000000000E+00  0.90195317249E+02  0.90195317249E+02  0.00000000000E+00 0.  1.
         -2   -1    0    0    0  501 -0.00000000000E+00 -0.00000000000E+00 -0.60059983999E+01  0.60059983999E+01  0.00000000000E+00 0. -1.
          1    1    1    2  502    0 -0.20574817022E+02  0.46539105980E+01  0.62420529488E+02  0.65888576255E+02  0.00000000000E+00 0.  1.
         -1    1    1    2    0  501  0.20574817022E+02 -0.46539105980E+01  0.21768789361E+02  0.30312739394E+02  0.00000000000E+00 0. -1.
</event>
<event>
 4    1  0.6754235E+001  0.5043233E+02  0.7546771E-02  0.1296309E+00
          2   -1    0    0  502    0  0.00000000000E+00  0.00000000000E+00  0.11561845619E+04  0.11561845619E+04  0.00000000000E+00 0.  1.
         -2   -1    0    0    0  501 -0.00000000000E+00 -0.00000000000E+00 -0.27395120465E+01  0.27395120465E+01  0.00000000000E+00 0. -1.
          1    1    1    2  502    0  0.46558962616E+02  0.19382546518E+02  0.31953276718E+03  0.32348819052E+03  0.00000000000E+00 0.  1.
         -1    1    1    2    0  501 -0.46558962616E+02 -0.19382546518E+02  0.83391228271E+03  0.83543588345E+03  0.00000000000E+00 0. -1.
</event>
<event>
 4    1  0.6754235E+001  0.2128349E+02  0.7546771E-02  0.1515256E+00
          2   -1    0    0  502    0  0.00000000000E+00  0.00000000000E+00  0.14815117369E+04  0.14815117369E+04  0.00000000000E+00 0. -1.
         -2   -1    0    0    0  501 -0.00000000000E+00 -0.00000000000E+00 -0.31969709512E+00  0.31969709512E+00  0.00000000000E+00 0.  1.
          1    1    1    2  502    0  0.19020307309E+02 -0.95506569894E+01  0.89529392533E+03  0.89554687195E+03  0.00000000000E+00 0. -1.
         -1    1    1    2    0  501 -0.19020307309E+02  0.95506569894E+01  0.58589811448E+03  0.58628456204E+03  0.00000000000E+00 0.  1.
</event>
<event>
 4    1  0.6754235E+001  0.2164072E+02  0.7546771E-02  0.1510310E+00
          2   -1    0    0  502    0  0.00000000000E+00  0.00000000000E+00  0.24347344076E+02  0.24347344076E+02  0.00000000000E+00 0.  1.
         -2   -1    0    0    0  501 -0.00000000000E+00 -0.00000000000E+00 -0.27021037953E+02  0.27021037953E+02  0.00000000000E+00 0. -1.
          1    1    1    2  502    0  0.37901607304E+01  0.21306233980E+02  0.12450268401E+02  0.24966579822E+02  0.00000000000E+00 0.  1.
         -1    1    1    2    0  501 -0.37901607304E+01 -0.21306233980E+02 -0.15123962278E+02  0.26401802206E+02  0.00000000000E+00 0. -1.
</event>
<event>
 4    1  0.6754235E+001  0.2647608E+02  0.7546771E-02  0.1452943E+00
          2   -1    0    0  502    0  0.00000000000E+00  0.00000000000E+00  0.36872121968E+02  0.36872121968E+02  0.00000000000E+00 0. -1.
         -2   -1    0    0    0  501 -0.00000000000E+00 -0.00000000000E+00 -0.30690739879E+02  0.30690739879E+02  0.00000000000E+00 0.  1.
          1    1    1    2  502    0  0.25843918208E+02  0.57510584039E+01 -0.17748818012E+02  0.31874807010E+02  0.00000000000E+00 0.  1.
         -1    1    1    2    0  501 -0.25843918208E+02 -0.57510584039E+01  0.23930200101E+02  0.35688054836E+02  0.00000000000E+00 0. -1.
</event>
<event>
 4    1  0.6754235E+001  0.2179080E+02  0.7546771E-02  0.1508267E+00
          2   -1    0    0  502    0  0.00000000000E+00  0.00000000000E+00  0.15132548560E+01  0.15132548560E+01  0.00000000000E+00 0.  1.
         -2   -1    0    0    0  501 -0.00000000000E+00 -0.00000000000E+00 -0.50303703078E+03  0.50303703078E+03  0.00000000000E+00 0. -1.
          1    1    1    2  502    0 -0.21522839663E+02  0.34068188536E+01 -0.40549845662E+03  0.40608353495E+03  0.00000000000E+00 0. -1.
         -1    1    1    2    0  501  0.21522839663E+02 -0.34068188536E+01 -0.96025319309E+02  0.98466750684E+02  0.00000000000E+00 0.  1.
</event>
<event>
 4    1  0.6754235E+001  0.2087839E+02  0.7546771E-02  0.1521008E+00
          2   -1    0    0  502    0  0.00000000000E+00  0.00000000000E+00  0.82731162008E+02  0.82731162008E+02  0.00000000000E+00 0. -1.
         -2   -1    0    0    0  501 -0.00000000000E+00 -0.00000000000E+00 -0.64936039986E+01  0.64936039986E+01  0.00000000000E+00 0.  1.
          1    1    1    2  502    0  0.60492894804E+01  0.19982826550E+02  0.57492689392E+02  0.61166302763E+02  0.00000000000E+00 0. -1.
         -1    1    1    2    0  501 -0.60492894804E+01 -0.19982826550E+02  0.18744868617E+02  0.28058463244E+02  0.00000000000E+00 0.  1.
</event>
<event>
 4    1  0.6754235E+001  0.4567581E+02  0.7546771E-02  0.1318094E+00
          2   -1    0    0  502    0  0.00000000000E+00  0.00000000000E+00  0.29859663962E+02  0.29859663962E+02  0.00000000000E+00 0.  1.
         -2   -1    0    0    0  501 -0.00000000000E+00 -0.00000000000E+00 -0.98035151799E+02  0.98035151799E+02  0.00000000000E+00 0. -1.
          1    1    1    2  502    0  0.44570649363E+02 -0.99868122953E+01  0.18841017785E+00  0.45676194050E+02  0.00000000000E+00 0.  1.
         -1    1    1    2    0  501 -0.44570649363E+02  0.99868122953E+01 -0.68363898015E+02  0.82218621712E+02  0.00000000000E+00 0. -1.
</event>
<event>
 4    1  0.6754235E+001  0.3248095E+02  0.7546771E-02  0.1399194E+00
          2   -1    0    0  502    0  0.00000000000E+00  0.00000000000E+00  0.65536626828E+03  0.65536626828E+03  0.00000000000E+00 0. -1.
         -2   -1    0    0    0  501 -0.00000000000E+00 -0.00000000000E+00 -0.17724338364E+01  0.17724338364E+01  0.00000000000E+00 0.  1.
          1    1    1    2  502    0  0.31203678703E+02  0.90190220948E+01  0.42632369366E+03  0.42755924046E+03  0.00000000000E+00 0. -1.
         -1    1    1    2    0  501 -0.31203678703E+02 -0.90190220948E+01  0.22727014078E+03  0.22957946166E+03  0.00000000000E+00 0.  1.
</event>
<event>
 4    1  0.6754235E+001  0.2606713E+02  0.7546771E-02  0.1457211E+00
          2   -1    0    0  502    0  0.00000000000E+00  0.00000000000E+00  0.17206133896E+02  0.17206133896E+02  0.00000000000E+00 0. -1.
         -2   -1    0    0    0  501 -0.00000000000E+00 -0.00000000000E+00 -0.47056041624E+02  0.47056041624E+02  0.00000000000E+00 0.  1.
          1    1    1    2  502    0  0.78714221665E+01 -0.24850272548E+02 -0.27807752418E+02  0.38115173189E+02  0.00000000000E+00 0.  1.
         -1    1    1    2    0  501 -0.78714221665E+01  0.24850272548E+02 -0.20421553099E+01  0.26147002332E+02  0.00000000000E+00 0. -1.
</event>
<event>
 4    1  0.6754235E+001  0.4237280E+02  0.7546771E-02  0.1335115E+00
          2   -1    0    0  502    0  0.00000000000E+00  0.00000000000E+00  0.85909235924E+02  0.85909235924E+02  0.00000000000E+00 0.  1.
         -2   -1    0    0    0  501 -0.00000000000E+00 -0.00000000000E+00 -0.21272698986E+02  0.21272698986E+02  0.00000000000E+00 0. -1.
          1    1    1    2  502    0 -0.42320422285E+02 -0.21062619077E+01  0.25219411668E+02  0.49309970660E+02  0.00000000000E+00 0. -1.
         -1    1    1    2    0  501  0.42320422285E+02  0.21062619077E+01  0.39417125271E+02  0.57871964250E+02  0.00000000000E+00 0.  1.
</event>
<event>
 4    1  0.6754235E+001  0.3222167E+02  0.7546771E-02  0.1401224E+00
          2   -1    0    0  502    0  0.00000000000E+00  0.00000000000E+00  0.10188070745E+02  0.10188070745E+02  0.00000000000E+00 0.  1.
         -2   -1    0    0    0  501 -0.00000000000E+00 -0.00000000000E+00 -0.10203164501E+03  0.10203164501E+03  0.00000000000E+00 0. -1.
          1    1    1    2  502    0  0.31602134935E+02 -0.62881505080E+01 -0.47882895877E+02  0.57714880983E+02  0.00000000000E+00 0.  1.
         -1    1    1    2    0  501 -0.31602134935E+02  0.62881505080E+01 -0.43960678383E+02  0.54504834768E+02  0.00000000000E+00 0. -1.
</event>
<event>
 4    1  0.6754235E+001  0.7228160E+02  0.7546771E-02  0.1222997E+00
          2   -1    0    0  502    0  0.00000000000E+00  0.00000000000E+00  0.15181709253E+04  0.15181709253E+04  0.00000000000E+00 0. -1.
         -2   -1    0    0    0  501 -0.00000000000E+00 -0.00000000000E+00 -0.40406958607E+01  0.40406958607E+01  0.00000000000E+00 0.  1.
          1    1    1    2  502    0 -0.42631250986E+02 -0.58371279073E+02  0.10501803985E+04  0.10526649510E+04  0.00000000000E+00 0.  1.
         -1    1    1    2    0  501  0.42631250986E+02  0.58371279073E+02  0.46394983098E+03  0.46954667015E+03  0.00000000000E+00 0. -1.
</event>
<event>
 4    1  0.6754235E+001  0.3178803E+02  0.7546771E-02  0.1404670E+00
          2   -1    0    0  502    0  0.00000000000E+00  0.00000000000E+00  0.75572591112E+01  0.75572591112E+01  0.00000000000E+00 0.  1.
         -2   -1    0    0    0  501 -0.00000000000E+00 -0.00000000000E+00 -0.16157098672E+03  0.16157098672E+03  0.00000000000E+00 0. -1.
          1    1    1    2  502    0 -0.13530237356E+02 -0.28764759533E+02 -0.11212287542E+03  0.11654191480E+03  0.00000000000E+00 0. -1.
         -1    1    1    2    0  501  0.13530237356E+02  0.28764759533E+02 -0.41890852197E+02  0.52586331035E+02  0.00000000000E+00 0.  1.
</event>
<event>
 4    1  0.6754235E+001  0.2212890E+02  0.7546771E-02  0.1503736E+00
          2   -1    0    0  502    0  0.00000000000E+00  0.00000000000E+00  0.77395181547E+01  0.77395181547E+01  0.00000000000E+00 0.  1.
         -2   -1    0    0    0  501 -0.00000000000E+00 -0.00000000000E+00 -0.11880571584E+03  0.11880571584E+03  0.00000000000E+00 0. -1.
          1    1    1    2  502    0  0.18402357358E+01 -0.22052252632E+02 -0.12273870326E+02  0.25304865273E+02  0.00000000000E+00 0.  1.
         -1    1    1    2    0  501 -0.18402357358E+01  0.22052252632E+02 -0.98792327361E+02  0.10124036872E+03  0.00000000000E+00 0. -1.
</event>
<event>
 4    1  0.6754235E+001  0.4486529E+02  0.7546771E-02  0.1322114E+00
          2   -1    0    0  502    0  0.00000000000E+00  0.00000000000E+00  0.33306410334E+01  0.33306410334E+01  0.00000000000E+00 0. -1.
         -2   -1    0    0    0  501 -0.00000000000E+00 -0.00000000000E+00 -0.60702364340E+03  0.60702364340E+03  0.00000000000E+00 0.  1.
          1    1    1    2  502    0  0.10231421385E+02 -0.43683092618E+02 -0.32207539914E+03  0.32518526611E+03  0.00000000000E+00 0. -1.
         -1    1    1    2    0  501 -0.10231421385E+02  0.43683092618E+02 -0.28161760323E+03  0.28516901832E+03  0.00000000000E+00 0.  1.
</event>
<event>
 4    1  0.6754235E+001  0.2114478E+02  0.7546771E-02  0.1517208E+00
          2   -1    0    0  502    0  0.00000000000E+00  0.00000000000E+00  0.75848848355E+02  0.75848848355E+02  0.00000000000E+00 0.  1.
         -2   -1    0    0    0  501 -0.00000000000E+00 -0.00000000000E+00 -0.62899356286E+01  0.62899356286E+01  0.00000000000E+00 0. -1.
          1    1    1    2  502    0  0.10412369925E+02 -0.18403373345E+02  0.24483739387E+02  0.32350503741E+02  0.00000000000E+00 0. -1.
         -1    1    1    2    0  501 -0.10412369925E+02  0.18403373345E+02  0.45075173339E+02  0.49788280242E+02  0.00000000000E+00 0.  1.
</event>
<event>
 4    1  0.6754235E+001  0.5298510E+02  0.7546771E-02  0.1285724E+00
          2   -1    0    0  502    0  0.00000000000E+00  0.00000000000E+00  0.31897356475E+02  0.31897356475E+02  0.00000000000E+00 0.  1.
         -2   -1    0    0    0  501 -0.00000000000E+00 -0.00000000000E+00 -0.10714240206E+03  0.10714240206E+03  0.00000000000E+00 0. -1.
          1    1    1    2  502    0 -0.46046411729E+02  0.26213514105E+02 -0.66996677654E+02  0.85416480678E+02  0.00000000000E+00 0. -1.
         -1    1    1    2    0  501  0.46046411729E+02 -0.26213514105E+02 -0.82483679334E+01  0.53623277859E+02  0.00000000000E+00 0.  1.
</event>
<event>
 4    1  0.6754235E+001  0.2587268E+02  0.7546771E-02  0.1459273E+00
          2   -1    0    0  502    0  0.00000000000E+00  0.00000000000E+00  0.93748480425E+02  0.93748480425E+02  0.00000000000E+00 0.  1.
         -2   -1    0    0    0  501 -0.00000000000E+00 -0.00000000000E+00 -0.22444030417E+02  0.22444030417E+02  0.00000000000E+00 0. -1.
          1    1    1    2  502    0 -0.82421588611E+01 -0.24524732267E+02  0.83625112039E+02  0.87536021379E+02  0.00000000000E+00 0.  1.
         -1    1    1    2    0  501  0.82421588611E+01  0.24524732267E+02 -0.12320662031E+02  0.28656489463E+02  0.00000000000E+00 0. -1.
</event>
<event>
 4    1  0.6754235E+001  0.2060198E+02  0.7546771E-02  0.1525024E+00
          2   -1    0    0  502    0  0.00000000000E+00  0.00000000000E+00  0.56950146772E+02  0.56950146772E+02  0.00000000000E+00 0.  1.
         -2   -1    0    0    0  501 -0.00000000000E+00 -0.00000000000E+00 -0.98793131651E+01  0.98793131651E+01  0.00000000000E+00 0. -1.
          1    1    1    2  502    0  0.14360307816E+02  0.14772374182E+02  0.69754095549E+01  0.21750811893E+02  0.00000000000E+00 0. -1.
         -1    1    1    2    0  501 -0.14360307816E+02 -0.14772374182E+02  0.40095424052E+02  0.45078648044E+02  0.00000000000E+00 0.  1.
</event>
<event>
 4    1  0.6754235E+001  0.2164855E+02  0.7546771E-02  0.1510203E+00
          2   -1    0    0  502    0  0.00000000000E+00  0.00000000000E+00  0.14415516181E+04  0.14415516181E+04  0.00000000000E+00 0.  1.
         -2   -1    0    0    0  501 -0.00000000000E+00 -0.00000000000E+00 -0.34849298380E+00  0.34849298380E+00  0.00000000000E+00 0. -1.
          1    1    1    2  502    0  0.43640779554E+01  0.21204118957E+02  0.53384429531E+03  0.53428306306E+03  0.00000000000E+00 0. -1.
         -1    1    1    2    0  501 -0.43640779554E+01 -0.21204118957E+02  0.90735882978E+03  0.90761704800E+03  0.00000000000E+00 0.  1.
</event>
<event>
 4    1  0.6754235E+001  0.2604969E+02  0.7546771E-02  0.1457395E+00
          2   -1    0    0  502    0  0.00000000000E+00  0.00000000000E+00  0.12127677272E+03  0.12127677272E+03  0.00000000000E+00 0.  1.
         -2   -1    0    0    0  501 -0.00000000000E+00 -0.00000000000E+00 -0.13362754695E+02  0.13362754695E+02  0.00000000000E+00 0. -1.
          1    1    1    2  502    0  0.22011193398E+02  0.13931749969E+02  0.26315925488E+01  0.26182275900E+02  0.00000000000E+00 0. -1.
         -1    1    1    2    0  501 -0.22011193398E+02 -0.13931749969E+02  0.10528242548E+03  0.10845725152E+03  0.00000000000E+00 0.  1.
</event>
<event>
 4    1  0.6754235E+001  0.5014600E+02  0.7546771E-02  0.1297541E+00
          2   -1    0    0  502    0  0.00000000000E+00  0.00000000000E+00  0.17442399746E+03  0.17442399746E+03  0.00000000000E+00 0.  1.
         -2   -1    0    0    0  501 -0.00000000000E+00 -0.00000000000E+00 -0.21811359609E+02  0.21811359609E+02  0.00000000000E+00 0. -1.
          1    1    1    2  502    0  0.50143968572E+02 -0.45083510460E+00  0.19176271301E+02  0.53687523853E+02  0.00000000000E+00 0. -1.
         -1    1    1    2    0  501 -0.50143968572E+02  0.45083510460E+00  0.13343636655E+03  0.14254783322E+03  0.00000000000E+00 0.  1.
</event>
<event>
 4    1  0.6754235E+001  0.4043180E+02  0.7546771E-02  0.1345974E+00
          2   -1    0    0  502    0  0.00000000000E+00  0.00000000000E+00  0.19522368588E+03  0.19522368588E+03  0.00000000000E+00 0.  1.
         -2   -1    0    0    0  501 -0.00000000000E+00 -0.00000000000E+00 -0.94305258726E+01  0.94305258726E+01  0.00000000000E+00 0. -1.
          1    1    1    2  502    0 -0.11716999479E+02  0.38696805319E+02  0.12715276029E+03  0.13342621657E+03  0.00000000000E+00 0.  1.
         -1    1    1    2    0  501  0.11716999479E+02 -0.38696805319E+02  0.58640399713E+02  0.71227995179E+02  0.00000000000E+00 0. -1.
</event>
<event>
 4    1  0.6754235E+001  0.2396353E+02  0.7546771E-02  0.1480741E+00
          2   -1    0    0  502    0  0.00000000000E+00  0.00000000000E+00  0.18635912356E+01  0.18635912356E+01  0.00000000000E+00 0.  1.
         -2   -1    0    0    0  501 -0.00000000000E+00 -0.00000000000E+00 -0.33833195394E+03  0.33833195394E+03  0.00000000000E+00 0. -1.
          1    1    1    2  502    0  0.20168098980E+02 -0.12942122548E+02 -0.21904524174E+03  0.22035214699E+03  0.00000000000E+00 0.  1.
         -1    1    1    2    0  501 -0.20168098980E+02  0.12942122548E+02 -0.11742312097E+03  0.11984339819E+03  0.00000000000E+00 0. -1.
</event>
<event>
 4    1  0.6754235E+001  0.3178912E+02  0.7546771E-02  0.1404661E+00
          2   -1    0    0  502    0  0.00000000000E+00  0.00000000000E+00  0.87651860567E+03  0.87651860567E+03  0.00000000000E+00 0.  1.
         -2   -1    0    0    0  501 -0.00000000000E+00 -0.00000000000E+00 -0.29908257167E+01  0.29908257167E+01  0.00000000000E+00 0. -1.
          1    1    1    2  502    0 -0.25623893173E+02 -0.18813945701E+02  0.92035095377E+02  0.97370463875E+02  0.00000000000E+00 0. -1.
         -1    1    1    2    0  501  0.25623893173E+02  0.18813945701E+02  0.78149268458E+03  0.78213896751E+03  0.00000000000E+00 0.  1.
</event>
<event>
 4    1  0.6754235E+001  0.6690713E+02  0.7546771E-02  0.1238013E+00
          2   -1    0    0  502    0  0.00000000000E+00  0.00000000000E+00  0.55870374440E+02  0.55870374440E+02  0.00000000000E+00 0. -1.
         -2   -1    0    0    0  501 -0.00000000000E+00 -0.00000000000E+00 -0.90487704870E+02  0.90487704870E+02  0.00000000000E+00 0.  1.
          1    1    1    2  502    0  0.15440659517E+01 -0.66889313557E+02  0.74568285039E+01  0.67321383669E+02  0.00000000000E+00 0. -1.
         -1    1    1    2    0  501 -0.15440659517E+01  0.66889313557E+02 -0.42074158934E+02  0.79036695640E+02  0.00000000000E+00 0.  1.
</event>
<event>
 4    1  0.6754235E+001  0.2311468E+02  0.7546771E-02  0.1491063E+00
          2   -1    0    0  502    0  0.00000000000E+00  0.00000000000E+00  0.10686889302E+04  0.10686889302E+04  0.00000000000E+00 0.  1.
         -2   -1    0    0    0  501 -0.00000000000E+00 -0.00000000000E+00 -0.78847338205E+00  0.78847338205E+00  0.00000000000E+00 0. -1.
          1    1    1    2  502    0  0.19429794799E+02 -0.12520836230E+02  0.21047535372E+03  0.21174079151E+03  0.00000000000E+00 0. -1.
         -1    1    1    2    0  501 -0.19429794799E+02  0.12520836230E+02  0.85742510314E+03  0.85773661211E+03  0.00000000000E+00 0.  1.
</event>
<event>
 4    1  0.6754235E+001  0.2079130E+02  0.7546771E-02  0.1522266E+00
          2   -1    0    0  502    0  0.00000000000E+00  0.00000000000E+00  0.38529636965E+01  0.38529636965E+01  0.00000000000E+00 0. -1.
         -2   -1    0    0    0  501 -0.00000000000E+00 -0.00000000000E+00 -0.16460605246E+03  0.16460605246E+03  0.00000000000E+00 0.  1.
          1    1    1    2  502    0  0.78511724286E+01 -0.19251943817E+02 -0.32847597131E+02  0.38874707542E+02  0.00000000000E+00 0. -1.
         -1    1    1    2    0  501 -0.78511724286E+01  0.19251943817E+02 -0.12790549163E+03  0.12958430861E+03  0.00000000000E+00 0.  1.
</event>
<event>
 4    1  0.6754235E+001  0.2151879E+02  0.7546771E-02  0.1511985E+00
          2   -1    0    0  502    0  0.00000000000E+00  0.00000000000E+00  0.17974951620E+04  0.17974951620E+04  0.00000000000E+00 0. -1.
         -2   -1    0    0    0  501 -0.00000000000E+00 -0.00000000000E+00 -0.27434665395E+00  0.27434665395E+00  0.00000000000E+00 0.  1.
          1    1    1    2  502    0 -0.21054954409E+02  0.44437816225E+01  0.11206080077E+04  0.11208145990E+04  0.00000000000E+00 0. -1.
         -1    1    1    2    0  501  0.21054954409E+02 -0.44437816225E+01  0.67661280762E+03  0.67695490967E+03  0.00000000000E+00 0.  1.
</event>
<event>
 4    1  0.6754235E+001  0.2465634E+02  0.7546771E-02  0.1472685E+00
          2   -1    0    0  502    0  0.00000000000E+00  0.00000000000E+00  0.10609591830E+04  0.10609591830E+04  0.00000000000E+00 0.  1.
         -2   -1    0    0    0  501 -0.00000000000E+00 -0.00000000000E+00 -0.58463865919E+00  0.58463865919E+00  0.00000000000E+00 0. -1.
          1    1    1    2  502    0  0.24231172214E+02 -0.45590734184E+01  0.60505995229E+03  0.60556211963E+03  0.00000000000E+00 0. -1.
         -1    1    1    2    0  501 -0.24231172214E+02  0.45590734184E+01  0.45531459208E+03  0.45598170207E+03  0.00000000000E+00 0.  1.
</event>
<event>
 4    1  0.6754235E+001  0.2497293E+02  0.7546771E-02  0.1469107E+00
          2   -1    0    0  502    0  0.00000000000E+00  0.00000000000E+00  0.40012535485E+02  0.40012535485E+02  0.00000000000E+00 0. -1.
         -2   -1    0    0    0  501 -0.00000000000E+00 -0.00000000000E+00 -0.15700373955E+02  0.15700373955E+02  0.00000000000E+00 0.  1.
          1    1    1    2  502    0 -0.24887967858E+02  0.20581802890E+01  0.97815386777E+01  0.26820245135E+02  0.00000000000E+00 0. -1.
         -1    1    1    2    0  501  0.24887967858E+02 -0.20581802890E+01  0.14530622852E+02  0.28892664305E+02  0.00000000000E+00 0.  1.
</event>
<event>
 4    1  0.6754235E+001  0.5957134E+02  0.7546771E-02  0.1261296E+00
          2   -1    0    0  502    0  0.00000000000E+00  0.00000000000E+00  0.55739473598E+03  0.55739473598E+03  0.00000000000E+00 0.  1.
         -2   -1    0    0    0  501 -0.00000000000E+00 -0.00000000000E+00 -0.63774548946E+01  0.63774548946E+01  0.00000000000E+00 0. -1.
          1    1    1    2  502    0  0.50608752723E+02 -0.31424489592E+02  0.26391284959E+03  0.27055265029E+03  0.00000000000E+00 0. -1.
         -1    1    1    2    0  501 -0.50608752723E+02  0.31424489592E+02  0.28710443149E+03  0.29321954058E+03  0.00000000000E+00 0.  1.
</event>
<event>
 4    1  0.6754235E+001  0.2606580E+02  0.7546771E-02  0.1457225E+00
          2   -1    0    0  502    0  0.00000000000E+00  0.00000000000E+00  0.73099984896E+03  0.73099984896E+03  0.00000000000E+00 0.  1.
         -2   -1    0    0    0  501 -0.00000000000E+00 -0.00000000000E+00 -0.98409358032E+00  0.98409358032E+00  0.00000000000E+00 0. -1.
          1    1    1    2  502    0  0.29376707617E+01 -0.25899730457E+02  0.45125270493E+03  0.45200490003E+03  0.00000000000E+00 0.  1.
         -1    1    1    2    0  501 -0.29376707617E+01  0.25899730457E+02  0.27876305045E+03  0.27997904251E+03  0.00000000000E+00 0. -1.
</event>
<event>
 4    1  0.6754235E+001  0.2239483E+02  0.7546771E-02  0.1500240E+00
          2   -1    0    0  502    0  0.00000000000E+00  0.00000000000E+00  0.16137115666E+03  0.16137115666E+03  0.00000000000E+00 0. -1.
         -2   -1    0    0    0  501 -0.00000000000E+00 -0.00000000000E+00 -0.37189386441E+01  0.37189386441E+01  0.00000000000E+00 0.  1.
          1    1    1    2  502    0 -0.19521408186E+02 -0.10974659079E+02  0.45367412012E+02  0.50593780172E+02  0.00000000000E+00 0.  1.
         -1    1    1    2    0  501  0.19521408186E+02  0.10974659079E+02  0.11228480601E+03  0.11449631513E+03  0.00000000000E+00 0. -1.
</event>
<event>
 4    1  0.6754235E+001  0.2739708E+02  0.7546771E-02  0.1443660E+00
          2   -1    0    0  502    0  0.00000000000E+00  0.00000000000E+00  0.10617953425E+04  0.10617953425E+04  0.00000000000E+00 0.  1.
         -2   -1    0    0    0  501 -0.00000000000E+00 -0.00000000000E+00 -0.71932163068E+00  0.71932163068E+00  0.00000000000E+00 0. -1.
          1    1    1    2  502    0  0.25175504884E+02 -0.10807131783E+02  0.46077064029E+03  0.46158442684E+03  0.00000000000E+00 0.  1.
         -1    1    1    2    0  501 -0.25175504884E+02  0.10807131783E+02  0.60030538058E+03  0.60093023730E+03  0.00000000000E+00 0. -1.
</event>
<event>
 4    1  0.6754235E+001  0.3072481E+02  0.7546771E-02  0.1413400E+00
          2   -1    0    0  502    0  0.00000000000E+00  0.00000000000E+00  0.34843179173E+02  0.34843179173E+02  0.00000000000E+00 0. -1.
         -2   -1    0    0    0  501 -0.00000000000E+00 -0.00000000000E+00 -0.27406350919E+02  0.27406350919E+02  0.00000000000E+00 0.  1.
          1    1    1    2  502    0  0.10424198344E+02 -0.28902426609E+02  0.70453034384E+01  0.31522221933E+02  0.00000000000E+00 0. -1.
         -1    1    1    2    0  501 -0.10424198344E+02  0.28902426609E+02  0.39152481594E+00  0.30727308159E+02  0.00000000000E+00 0.  1.
</event>
<event>
 4    1  0.6754235E+001  0.3206581E+02  0.7546771E-02  0.1402455E+00
          2   -1    0    0  502    0  0.00000000000E+00  0.00000000000E+00  0.16246036081E+04  0.16246036081E+04  0.00000000000E+00 0. -1.
         -2   -1    0    0    0  501 -0.00000000000E+00 -0.00000000000E+00 -0.63871359340E+00  0.63871359340E+00  0.00000000000E+00 0.  1.
          1    1    1    2  502    0 -0.31408908097E+02  0.64572888919E+01  0.73447298644E+03  0.73517262184E+03  0.00000000000E+00 0.  1.
         -1    1    1    2    0  501  0.31408908097E+02 -0.64572888919E+01  0.88949190806E+03  0.89006969985E+03  0.00000000000E+00 0. -1.
</event>
<event>
 4    1  0.6754235E+001  0.2265903E+02  0.7546771E-02  0.1496825E+00
          2   -1    0    0  502    0  0.00000000000E+00  0.00000000000E+00  0.20794001923E+04  0.20794001923E+04  0.00000000000E+00 0.  1.
         -2   -1    0    0    0  501 -0.00000000000E+00 -0.00000000000E+00 -0.31388031071E+00  0.31388031071E+00  0.00000000000E+00 0. -1.
          1    1    1    2  502    0  0.14226663222E+02  0.17636151822E+02  0.15198532234E+04  0.15200221224E+04  0.00000000000E+00 0.  1.
         -1    1    1    2    0  501 -0.14226663222E+02 -0.17636151822E+02  0.55923308861E+03  0.55969195027E+03  0.00000000000E+00 0. -1.
</event>
<event>
 4    1 -0.6754235E+001  0.3434615E+02  0.7546771E-02  0.1385219E+00
          2   -1    0    0  502    0  0.00000000000E+00  0.00000000000E+00  0.37267038327E+00  0.37267038327E+00  0.00000000000E+00 0. -1.
         -2   -1    0    0    0  501 -0.00000000000E+00 -0.00000000000E+00 -0.33201692874E+04  0.33201692874E+04  0.00000000000E+00 0.  1.
          1    1    1    2  502    0  0.25618733540E+01  0.34250474841E+02 -0.20183357987E+04  0.20186280129E+04  0.00000000000E+00 0.  1.
         -1    1    1    2    0  501 -0.25618733540E+01 -0.34250474841E+02 -0.13014608184E+04  0.13019139449E+04  0.00000000000E+00 0. -1.
</event>
<event>
 4    1  0.6754235E+001  0.3019053E+02  0.7546771E-02  0.1417948E+00
          2   -1    0    0  502    0  0.00000000000E+00  0.00000000000E+00  0.14271035792E+01  0.14271035792E+01  0.00000000000E+00 0.  1.
         -2   -1    0    0    0  501 -0.00000000000E+00 -0.00000000000E+00 -0.79689757292E+03  0.79689757292E+03  0.00000000000E+00 0. -1.
          1    1    1    2  502    0 -0.28947402645E+02  0.85741316699E+01 -0.21987841199E+03  0.22194139748E+03  0.00000000000E+00 0.  1.
         -1    1    1    2    0  501  0.28947402645E+02 -0.85741316699E+01 -0.57559205734E+03  0.57638327902E+03  0.00000000000E+00 0. -1.
</event>
<event>
 4    1  0.6754235E+001  0.2022211E+02  0.7546771E-02  0.1530667E+00
          2   -1    0    0  502    0  0.00000000000E+00  0.00000000000E+00  0.18372726743E+04  0.18372726743E+04  0.00000000000E+00 0.  1.
         -2   -1    0    0    0  501 -0.00000000000E+00 -0.00000000000E+00 -0.31448509009E+00  0.31448509009E+00  0.00000000000E+00 0. -1.
          1    1    1    2  502    0  0.86671016991E+01 -0.18270609284E+02  0.42177715864E+03  0.42226165510E+03  0.00000000000E+00 0. -1.
         -1    1    1    2    0  501 -0.86671016991E+01  0.18270609284E+02  0.14151810306E+04  0.14153255043E+04  0.00000000000E+00 0.  1.
</event>
<event>
 4    1  0.6754235E+001  0.2022737E+02  0.7546771E-02  0.1530588E+00
          2   -1    0    0  502    0  0.00000000000E+00  0.00000000000E+00  0.32523086932E+03  0.32523086932E+03  0.00000000000E+00 0.  1.
         -2   -1    0    0    0  501 -0.00000000000E+00 -0.00000000000E+00 -0.12649419512E+01  0.12649419512E+01  0.00000000000E+00 0. -1.
          1    1    1    2  502    0 -0.49289265138E+01  0.19617653197E+02  0.17405987767E+03  0.17523124050E+03  0.00000000000E+00 0.  1.
         -1    1    1    2    0  501  0.49289265138E+01 -0.19617653197E+02  0.14990604970E+03  0.15126457077E+03  0.00000000000E+00 0. -1.
</event>
<event>
 4    1  0.6754235E+001  0.2134685E+02  0.7546771E-02  0.1514370E+00
          2   -1    0    0  502    0  0.00000000000E+00  0.00000000000E+00  0.14191206648E+03  0.14191206648E+03  0.00000000000E+00 0. -1.
         -2   -1    0    0    0  501 -0.00000000000E+00 -0.00000000000E+00 -0.32231846717E+01  0.32231846717E+01  0.00000000000E+00 0.  1.
          1    1    1    2  502    0 -0.15940158856E+02 -0.14198574412E+02  0.64893694455E+02  0.68314564770E+02  0.00000000000E+00 0. -1.
         -1    1    1    2    0  501  0.15940158856E+02  0.14198574412E+02  0.73795187358E+02  0.76820686386E+02  0.00000000000E+00 0.  1.
</event>
<event>
 4    1  0.6754235E+001  0.2337702E+02  0.7546771E-02  0.1487817E+00
          2   -1    0    0  502    0  0.00000000000E+00  0.00000000000E+00  0.15024830481E+03  0.15024830481E+03  0.00000000000E+00 0.  1.
         -2   -1    0    0    0  501 -0.00000000000E+00 -0.00000000000E+00 -0.42360405050E+01  0.42360405050E+01  0.00000000000E+00 0. -1.
          1    1    1    2  502    0  0.11359277469E+01 -0.23349406259E+02  0.10204804767E+03  0.10469139954E+03  0.00000000000E+00 0.  1.
         -1    1    1    2    0  501 -0.11359277469E+01  0.23349406259E+02  0.43964216629E+02  0.49792945768E+02  0.00000000000E+00 0. -1.
</event>
<event>
 4    1  0.6754235E+001  0.2667669E+02  0.7546771E-02  0.1450883E+00
          2   -1    0    0  502    0  0.00000000000E+00  0.00000000000E+00  0.10538855284E+04  0.10538855284E+04  0.00000000000E+00 0.  1.
         -2   -1    0    0    0  501 -0.00000000000E+00 -0.00000000000E+00 -0.78858352593E+00  0.78858352593E+00  0.00000000000E+00 0. -1.
          1    1    1    2  502    0 -0.17566658206E+02  0.20076308514E+02  0.72645476997E+03  0.72694441222E+03  0.00000000000E+00 0.  1.
         -1    1    1    2    0  501  0.17566658206E+02 -0.20076308514E+02  0.32664217495E+03  0.32772969975E+03  0.00000000000E+00 0. -1.
</event>
<event>
 4    1  0.6754235E+001  0.2493290E+02  0.7546771E-02  0.1469555E+00
          2   -1    0    0  502    0  0.00000000000E+00  0.00000000000E+00  0.34815898300E+03  0.34815898300E+03  0.00000000000E+00 0.  1.
         -2   -1    0    0    0  501 -0.00000000000E+00 -0.00000000000E+00 -0.47722815897E+01  0.47722815897E+01  0.00000000000E+00 0. -1.
          1    1    1    2  502    0  0.58216806823E+00 -0.24926102244E+02  0.32089817335E+02  0.40637493394E+02  0.00000000000E+00 0. -1.
         -1    1    1    2    0  501 -0.58216806823E+00  0.24926102244E+02  0.31129688407E+03  0.31229377119E+03  0.00000000000E+00 0.  1.
</event>
<event>
 4    1  0.6754235E+001  0.2206846E+02  0.7546771E-02  0.1504539E+00
          2   -1    0    0  502    0  0.00000000000E+00  0.00000000000E+00  0.41539766697E+03  0.41539766697E+03  0.00000000000E+00 0.  1.
         -2   -1    0    0    0  501 -0.00000000000E+00 -0.00000000000E+00 -0.14678068138E+01  0.14678068138E+01  0.00000000000E+00 0. -1.
          1    1    1    2  502    0  0.23506202632E+01 -0.21942914585E+02  0.30046962851E+03  0.30127896470E+03  0.00000000000E+00 0.  1.
         -1    1    1    2    0  501 -0.23506202632E+01  0.21942914585E+02  0.11346023165E+03  0.11558650908E+03  0.00000000000E+00 0. -1.
</event>
<event>
 4    1  0.6754235E+001  0.3947642E+02  0.7546771E-02  0.1351582E+00
          2   -1    0    0  502    0  0.00000000000E+00  0.00000000000E+00  0.82780285437E+03  0.82780285437E+03  0.00000000000E+00 0.  1.
         -2   -1    0    0    0  501 -0.00000000000E+00 -0.00000000000E+00 -0.27771181644E+01  0.27771181644E+01  0.00000000000E+00 0. -1.
          1    1    1    2  502    0 -0.28821147039E+02  0.26976459157E+02  0.17681330913E+03  0.18116659226E+03  0.00000000000E+00 0. -1.
         -1    1    1    2    0  501  0.28821147039E+02 -0.26976459157E+02  0.64821242707E+03  0.64941338027E+03  0.00000000000E+00 0.  1.
</event>
<event>
 4    1  0.6754235E+001  0.2386538E+02  0.7546771E-02  0.1481908E+00
          2   -1    0    0  502    0  0.00000000000E+00  0.00000000000E+00  0.12913592515E+04  0.12913592515E+04  0.00000000000E+00 0.  1.
         -2   -1    0    0    0  501 -0.00000000000E+00 -0.00000000000E+00 -0.51240037085E+00  0.51240037085E+00  0.00000000000E+00 0. -1.
          1    1    1    2  502    0 -0.18839862597E+02 -0.14649784092E+02  0.40439034698E+03  0.40509395123E+03  0.00000000000E+00 0. -1.
         -1    1    1    2    0  501  0.18839862597E+02  0.14649784092E+02  0.88645650412E+03  0.88677770061E+03  0.00000000000E+00 0.  1.
</event>
<event>
 4    1  0.6754235E+001  0.2189402E+02  0.7546771E-02  0.1506873E+00
          2   -1    0    0  502    0  0.00000000000E+00  0.00000000000E+00  0.13661076517E+04  0.13661076517E+04  0.00000000000E+00 0. -1.
         -2   -1    0    0    0  501 -0.00000000000E+00 -0.00000000000E+00 -0.10799894368E+01  0.10799894368E+01  0.00000000000E+00 0.  1.
          1    1    1    2  502    0  0.16819891545E+02 -0.14015686674E+02  0.12084165714E+03  0.12280901565E+03  0.00000000000E+00 0.  1.
         -1    1    1    2    0  501 -0.16819891545E+02  0.14015686674E+02  0.12441860051E+04  0.12443786255E+04  0.00000000000E+00 0. -1.
</event>
<event>
 4    1  0.6754235E+001  0.2338958E+02  0.7546771E-02  0.1487663E+00
          2   -1    0    0  502    0  0.00000000000E+00  0.00000000000E+00  0.11756938504E+04  0.11756938504E+04  0.00000000000E+00 0. -1.
         -2   -1    0    0    0  501 -0.00000000000E+00 -0.00000000000E+00 -0.48599364666E+00  0.48599364666E+00  0.00000000000E+00 0.  1.
          1    1    1    2  502    0 -0.22951214503E+02 -0.45071130327E+01  0.70890113789E+03  0.70928689232E+03  0.00000000000E+00 0. -1.
         -1    1    1    2    0  501  0.22951214503E+02  0.45071130327E+01  0.46630671888E+03  0.46689295174E+03  0.00000000000E+00 0.  1.
</event>
<event>
 4    1  0.6754235E+001  0.2724096E+02  0.7546771E-02  0.1445203E+00
          2   -1    0    0  502    0  0.00000000000E+00  0.00000000000E+00  0.30326888400E+04  0.30326888400E+04  0.00000000000E+00 0.  1.
         -2   -1    0    0    0  501 -0.00000000000E+00 -0.00000000000E+00 -0.25237378998E+00  0.25237378998E+00  0.00000000000E+00 0. -1.
          1    1    1    2  502    0  0.80977309103E+01 -0.26009551899E+02  0.17808162195E+04  0.17810245584E+04  0.00000000000E+00 0. -1.
         -1    1    1    2    0  501 -0.80977309103E+01  0.26009551899E+02  0.12516202467E+04  0.12519166554E+04  0.00000000000E+00 0.  1.
</event>
<event>
 4    1  0.6754235E+001  0.2347698E+02  0.7546771E-02  0.1486594E+00
          2   -1    0    0  502    0  0.00000000000E+00  0.00000000000E+00  0.19247886028E+04  0.19247886028E+04  0.00000000000E+00 0.  1.
         -2   -1    0    0    0  501 -0.00000000000E+00 -0.00000000000E+00 -0.50005970490E+00  0.50005970490E+00  0.00000000000E+00 0. -1.
          1    1    1    2  502    0 -0.23466108546E+02  0.71427736816E+00  0.15914537762E+04  0.15916269319E+04  0.00000000000E+00 0.  1.
         -1    1    1    2    0  501  0.23466108546E+02 -0.71427736816E+00  0.33283476687E+03  0.33366173062E+03  0.00000000000E+00 0. -1.
</event>
<event>
 4    1  0.6754235E+001  0.3263774E+02  0.7546771E-02  0.1397977E+00
          2   -1    0    0  502    0  0.00000000000E+00  0.00000000000E+00  0.16472969995E+04  0.16472969995E+04  0.00000000000E+00 0.  1.
         -2   -1    0    0    0  501 -0.00000000000E+00 -0.00000000000E+00 -0.12369145658E+01  0.12369145658E+01  0.00000000000E+00 0. -1.
          1    1    1    2  502    0 -0.21750722230E+02 -0.24333688947E+02  0.13924358623E+04  0.13928183130E+04  0.00000000000E+00 0.  1.
         -1    1    1    2    0  501  0.21750722230E+02  0.24333688947E+02  0.25362422267E+03  0.25571560112E+03  0.00000000000E+00 0. -1.
</event>
<event>
 4    1  0.6754235E+001  0.2623338E+02  0.7546771E-02  0.1455465E+00
          2   -1    0    0  502    0  0.00000000000E+00  0.00000000000E+00  0.91490387381E+03  0.91490387381E+03  0.00000000000E+00 0.  1.
         -2   -1    0    0    0  501 -0.00000000000E+00 -0.00000000000E+00 -0.79708730027E+00  0.79708730027E+00  0.00000000000E+00 0. -1.
          1    1    1    2  502    0 -0.18712469281E+02  0.18385699084E+02  0.34840236808E+03  0.34938860960E+03  0.00000000000E+00 0.  1.
         -1    1    1    2    0  501  0.18712469281E+02 -0.18385699084E+02  0.56570441843E+03  0.56631235151E+03  0.00000000000E+00 0. -1.
</event>
<event>
 4    1  0.6754235E+001  0.2076139E+02  0.7546771E-02  0.1522699E+00
          2   -1    0    0  502    0  0.00000000000E+00  0.00000000000E+00  0.16971450267E+04  0.16971450267E+04  0.00000000000E+00 0. -1.
         -2   -1    0    0    0  501 -0.00000000000E+00 -0.00000000000E+00 -0.25921532951E+00  0.25921532951E+00  0.00000000000E+00 0.  1.
          1    1    1    2  502    0 -0.17698407655E+02  0.10853643963E+02  0.72779061824E+03  0.72808668386E+03  0.00000000000E+00 0.  1.
         -1    1    1    2    0  501  0.17698407655E+02 -0.10853643963E+02  0.96909519311E+03  0.96931755815E+03  0.00000000000E+00 0. -1.
</event>
<event>
 4    1  0.6754235E+001  0.2169129E+02  0.7546771E-02  0.1509620E+00
          2   -1    0    0  502    0  0.00000000000E+00  0.00000000000E+00  0.36912072550E+01  0.36912072550E+01  0.00000000000E+00 0. -1.
         -2   -1    0    0    0  501 -0.00000000000E+00 -0.00000000000E+00 -0.13038273928E+03  0.13038273928E+03  0.00000000000E+00 0.  1.
          1    1    1    2  502    0 -0.21673307042E+02  0.88300131320E+00 -0.53323139775E+02  0.57566215483E+02  0.00000000000E+00 0. -1.
         -1    1    1    2    0  501  0.21673307042E+02 -0.88300131320E+00 -0.73368392247E+02  0.76507731049E+02  0.00000000000E+00 0.  1.
</event>
<event>
 4    1  0.6754235E+001  0.2052465E+02  0.7546771E-02  0.1526161E+00
          2   -1    0    0  502    0  0.00000000000E+00  0.00000000000E+00  0.57032635005E+02  0.57032635005E+02  0.00000000000E+00 0.  1.
         -2   -1    0    0    0  501 -0.00000000000E+00 -0.00000000000E+00 -0.10587872545E+02  0.10587872545E+02  0.00000000000E+00 0. -1.
          1    1    1    2  502    0  0.15442849548E+02 -0.13519603968E+02  0.41814307736E+02  0.46580013151E+02  0.00000000000E+00 0.  1.
         -1    1    1    2    0  501 -0.15442849548E+02  0.13519603968E+02  0.46304547229E+01  0.21040494399E+02  0.00000000000E+00 0. -1.
</event>
<event>
 4    1  0.6754235E+001  0.3524113E+02  0.7546771E-02  0.1378876E+00
          2   -1    0    0  502    0  0.00000000000E+00  0.00000000000E+00  0.23015884581E+03  0.23015884581E+03  0.00000000000E+00 0.  1.
         -2   -1    0    0    0  501 -0.00000000000E+00 -0.00000000000E+00 -0.63061803953E+01  0.63061803953E+01  0.00000000000E+00 0. -1.
          1    1    1    2  502    0  0.33634018829E+02 -0.10520920776E+02  0.15684404247E+03  0.16075444210E+03  0.00000000000E+00 0.  1.
         -1    1    1    2    0  501 -0.33634018829E+02  0.10520920776E+02  0.67008622941E+02  0.75710584101E+02  0.00000000000E+00 0. -1.
</event>
<event>
 4    1  0.6754235E+001  0.3547378E+02  0.7546771E-02  0.1377263E+00
          2   -1    0    0  502    0  0.00000000000E+00  0.00000000000E+00  0.92537384229E+03  0.92537384229E+03  0.00000000000E+00 0.  1.
         -2   -1    0    0    0  501 -0.00000000000E+00 -0.00000000000E+00 -0.14694664979E+01  0.14694664979E+01  0.00000000000E+00 0. -1.
          1    1    1    2  502    0  0.13215438412E+02  0.32920222116E+02  0.58851126455E+03  0.58957942411E+03  0.00000000000E+00 0.  1.
         -1    1    1    2    0  501 -0.13215438412E+02 -0.32920222116E+02  0.33539311125E+03  0.33726388468E+03  0.00000000000E+00 0. -1.
</event>
<event>
 4    1  0.6754235E+001  0.2837081E+02  0.7546771E-02  0.1434304E+00
          2   -1    0    0  502    0  0.00000000000E+00  0.00000000000E+00  0.82353679723E+03  0.82353679723E+03  0.00000000000E+00 0. -1.
         -2   -1    0    0    0  501 -0.00000000000E+00 -0.00000000000E+00 -0.10990024084E+01  0.10990024084E+01  0.00000000000E+00 0.  1.
          1    1    1    2  502    0 -0.11924379910E+02  0.25743189039E+02  0.54838670280E+03  0.54912009472E+03  0.00000000000E+00 0. -1.
         -1    1    1    2    0  501  0.11924379910E+02 -0.25743189039E+02  0.27405109203E+03  0.27551570493E+03  0.00000000000E+00 0.  1.
</event>
<event>
 4    1  0.6754235E+001  0.2820753E+02  0.7546771E-02  0.1435841E+00
          2   -1    0    0  502    0  0.00000000000E+00  0.00000000000E+00  0.66082740059E+02  0.66082740059E+02  0.00000000000E+00 0.  1.
         -2   -1    0    0    0  501 -0.00000000000E+00 -0.00000000000E+00 -0.12257992540E+02  0.12257992540E+02  0.00000000000E+00 0. -1.
          1    1    1    2  502    0  0.16656912125E+02  0.22764265972E+02  0.21693927550E+02  0.35584983059E+02  0.00000000000E+00 0. -1.
         -1    1    1    2    0  501 -0.16656912125E+02 -0.22764265972E+02  0.32130819969E+02  0.42755749540E+02  0.00000000000E+00 0.  1.
</event>
<event>
 4    1  0.6754235E+001  0.3396429E+02  0.7546771E-02  0.1387994E+00
          2   -1    0    0  502    0  0.00000000000E+00  0.00000000000E+00  0.30962546279E+03  0.30962546279E+03  0.00000000000E+00 0. -1.
         -2   -1    0    0    0  501 -0.00000000000E+00 -0.00000000000E+00 -0.37551983876E+01  0.37551983876E+01  0.00000000000E+00 0.  1.
          1    1    1    2  502    0 -0.59072143829E+01  0.33446643918E+02  0.16682145382E+03  0.17024385635E+03  0.00000000000E+00 0. -1.
         -1    1    1    2    0  501  0.59072143829E+01 -0.33446643918E+02  0.13904881058E+03  0.14313680483E+03  0.00000000000E+00 0.  1.
</event>
<event>
 4    1  0.6754235E+001  0.2777671E+02  0.7546771E-02  0.1439958E+00
          2   -1    0    0  502    0  0.00000000000E+00  0.00000000000E+00  0.52749261069E+02  0.52749261069E+02  0.00000000000E+00 0. -1.
         -2   -1    0    0    0  501 -0.00000000000E+00 -0.00000000000E+00 -0.15433500261E+02  0.15433500261E+02  0.00000000000E+00 0.  1.
          1    1    1    2  502    0 -0.99104774055E+01 -0.25948567070E+02  0.26452684273E+02  0.38357400859E+02  0.00000000000E+00 0. -1.
         -1    1    1    2    0  501  0.99104774055E+01  0.25948567070E+02  0.10863076535E+02  0.29825360471E+02  0.00000000000E+00 0.  1.
</event>
<event>
 4    1  0.6754235E+001  0.3246953E+02  0.7546771E-02  0.1399283E+00
          2   -1    0    0  502    0  0.00000000000E+00  0.00000000000E+00  0.62061593785E+02  0.62061593785E+02  0.00000000000E+00 0. -1.
         -2   -1    0    0    0  501 -0.00000000000E+00 -0.00000000000E+00 -0.25261874614E+02  0.25261874614E+02  0.00000000000E+00 0.  1.
          1    1    1    2  502    0  0.14247607851E+02  0.29176639142E+02 -0.65884046293E+01  0.33131219064E+02  0.00000000000E+00 0.  1.
         -1    1    1    2    0  501 -0.14247607851E+02 -0.29176639142E+02  0.43388123800E+02  0.54192249335E+02  0.00000000000E+00 0. -1.
</event>
<event>
 4    1  0.6754235E+001  0.2177064E+02  0.7546771E-02  0.1508540E+00
          2   -1    0    0  502    0  0.00000000000E+00  0.00000000000E+00  0.13092635928E+04  0.13092635928E+04  0.00000000000E+00 0. -1.
         -2   -1    0    0    0  501 -0.00000000000E+00 -0.00000000000E+00 -0.53336619376E+00  0.53336619376E+00  0.00000000000E+00 0.  1.
          1    1    1    2  502    0  0.11492758576E+02  0.18489927947E+02  0.28315778471E+03  0.28399347171E+03  0.00000000000E+00 0. -1.
         -1    1    1    2    0  501 -0.11492758576E+02 -0.18489927947E+02  0.10255724419E+04  0.10258034873E+04  0.00000000000E+00 0.  1.
</event>
<event>
 4    1  0.6754235E+001  0.2228611E+02  0.7546771E-02  0.1501662E+00
          2   -1    0    0  502    0  0.00000000000E+00  0.00000000000E+00  0.12344464875E+04  0.12344464875E+04  0.00000000000E+00 0. -1.
         -2   -1    0    0    0  501 -0.00000000000E+00 -0.00000000000E+00 -0.11069190625E+01  0.11069190625E+01  0.00000000000E+00 0.  1.
          1    1    1    2  502    0  0.18918163525E+02 -0.11780223808E+02  0.12379384776E+03  0.12578389137E+03  0.00000000000E+00 0.  1.
         -1    1    1    2    0  501 -0.18918163525E+02  0.11780223808E+02  0.11095457207E+04  0.11097695152E+04  0.00000000000E+00 0. -1.
</event>
<event>
 4    1  0.6754235E+001  0.2419174E+02  0.7546771E-02  0.1478052E+00
          2   -1    0    0  502    0  0.00000000000E+00  0.00000000000E+00  0.10708437951E+04  0.10708437951E+04  0.00000000000E+00 0. -1.
         -2   -1    0    0    0  501 -0.00000000000E+00 -0.00000000000E+00 -0.73929837462E+00  0.73929837462E+00  0.00000000000E+00 0.  1.
          1    1    1    2  502    0  0.15843684180E+02 -0.18281622850E+02  0.80864998290E+03  0.80901176438E+03  0.00000000000E+00 0. -1.
         -1    1    1    2    0  501 -0.15843684180E+02  0.18281622850E+02  0.26145451383E+03  0.26257132910E+03  0.00000000000E+00 0.  1.
</event>
<event>
 4    1  0.6754235E+001  0.2355587E+02  0.7546771E-02  0.1485634E+00
          2   -1    0    0  502    0  0.00000000000E+00  0.00000000000E+00  0.59173625080E+01  0.59173625080E+01  0.00000000000E+00 0. -1.
         -2   -1    0    0    0  501 -0.00000000000E+00 -0.00000000000E+00 -0.11826044432E+03  0.11826044432E+03  0.00000000000E+00 0.  1.
          1    1    1    2  502    0 -0.21224162746E+02 -0.10218318531E+02 -0.27917502716E+02  0.36527607036E+02  0.00000000000E+00 0. -1.
         -1    1    1    2    0  501  0.21224162746E+02  0.10218318531E+02 -0.84425579092E+02  0.87650199788E+02  0.00000000000E+00 0.  1.
</event>
<event>
 4    1  0.6754235E+001  0.2705605E+02  0.7546771E-02  0.1447046E+00
          2   -1    0    0  502    0  0.00000000000E+00  0.00000000000E+00  0.35488652569E+03  0.35488652569E+03  0.00000000000E+00 0.  1.
         -2   -1    0    0    0  501 -0.00000000000E+00 -0.00000000000E+00 -0.23332899746E+01  0.23332899746E+01  0.00000000000E+00 0. -1.
          1    1    1    2  502    0 -0.21014594533E+02 -0.17041608922E+02  0.23709926569E+03  0.23863799238E+03  0.00000000000E+00 0. -1.
         -1    1    1    2    0  501  0.21014594533E+02  0.17041608922E+02  0.11545397003E+03  0.11858182328E+03  0.00000000000E+00 0.  1.
</event>
<event>
 4    1  0.6754235E+001  0.3156262E+02  0.7546771E-02  0.1406486E+00
          2   -1    0    0  502    0  0.00000000000E+00  0.00000000000E+00  0.11511138172E+03  0.11511138172E+03  0.00000000000E+00 0. -1.
         -2   -1    0    0    0  501 -0.00000000000E+00 -0.00000000000E+00 -0.87551448493E+01  0.87551448493E+01  0.00000000000E+00 0.  1.
          1    1    1    2  502    0  0.21089055825E+02  0.23482983077E+02  0.46528452913E+02  0.56223622262E+02  0.00000000000E+00 0.  1.
         -1    1    1    2    0  501 -0.21089055825E+02 -0.23482983077E+02  0.59827783956E+02  0.67642904305E+02  0.00000000000E+00 0. -1.
</event>
<event>
 4    1  0.6754235E+001  0.2184513E+02  0.7546771E-02  0.1507532E+00
          2   -1    0    0  502    0  0.00000000000E+00  0.00000000000E+00  0.77222134153E+02  0.77222134153E+02  0.00000000000E+00 0.  1.
         -2   -1    0    0    0  501 -0.00000000000E+00 -0.00000000000E+00 -0.62725959641E+01  0.62725959641E+01  0.00000000000E+00 0. -1.
          1    1    1    2  502    0 -0.97618375657E+00 -0.21823306579E+02  0.40555230527E+02  0.46064480545E+02  0.00000000000E+00 0.  1.
         -1    1    1    2    0  501  0.97618375657E+00  0.21823306579E+02  0.30394307662E+02  0.37430249572E+02  0.00000000000E+00 0. -1.
</event>
<event>
 4    1  0.6754235E+001  0.2770632E+02  0.7546771E-02  0.1440639E+00
          2   -1    0    0  502    0  0.00000000000E+00  0.00000000000E+00  0.90614719309E+03  0.90614719309E+03  0.00000000000E+00 0.  1.
         -2   -1    0    0    0  501 -0.00000000000E+00 -0.00000000000E+00 -0.10657984688E+01  0.10657984688E+01  0.00000000000E+00 0. -1.
          1    1    1    2  502    0  0.24756112305E+02  0.12440861982E+02  0.65799612835E+03  0.65857918664E+03  0.00000000000E+00 0.  1.
         -1    1    1    2    0  501 -0.24756112305E+02 -0.12440861982E+02  0.24708526627E+03  0.24863380493E+03  0.00000000000E+00 0. -1.
</event>
<event>
 4    1  0.6754235E+001  0.4317771E+02  0.7546771E-02  0.1330807E+00
          2   -1    0    0  502    0  0.00000000000E+00  0.00000000000E+00  0.13289039042E+04  0.13289039042E+04  0.00000000000E+00 0. -1.
         -2   -1    0    0    0  501 -0.00000000000E+00 -0.00000000000E+00 -0.19326043958E+01  0.19326043958E+01  0.00000000000E+00 0.  1.
          1    1    1    2  502    0  0.41630844692E+02  0.11453706448E+02  0.31511508163E+03  0.31805947446E+03  0.00000000000E+00 0.  1.
         -1    1    1    2    0  501 -0.41630844692E+02 -0.11453706448E+02  0.10118562181E+04  0.10127770341E+04  0.00000000000E+00 0. -1.
</event>
<event>
 4    1  0.6754235E+001  0.2238711E+02  0.7546771E-02  0.1500341E+00
          2   -1    0    0  502    0  0.00000000000E+00  0.00000000000E+00  0.21630558738E+04  0.21630558738E+04  0.00000000000E+00 0.  1.
         -2   -1    0    0    0  501 -0.00000000000E+00 -0.00000000000E+00 -0.26797730555E+00  0.26797730555E+00  0.00000000000E+00 0. -1.
          1    1    1    2  502    0 -0.14453920419E+02 -0.17095818121E+02  0.14793658311E+04  0.14795352125E+04  0.00000000000E+00 0.  1.
         -1    1    1    2    0  501  0.14453920419E+02  0.17095818121E+02  0.68342206541E+03  0.68378863862E+03  0.00000000000E+00 0. -1.
</event>
<event>
 4    1  0.6754235E+001  0.2537620E+02  0.7546771E-02  0.1464639E+00
          2   -1    0    0  502    0  0.00000000000E+00  0.00000000000E+00  0.84598044845E+03  0.84598044845E+03  0.00000000000E+00 0. -1.
         -2   -1    0    0    0  501 -0.00000000000E+00 -0.00000000000E+00 -0.78659280732E+00  0.78659280732E+00  0.00000000000E+00 0.  1.
          1    1    1    2  502    0  0.22434349743E+02  0.11859664357E+02  0.49868236570E+03  0.49932760142E+03  0.00000000000E+00 0.  1.
         -1    1    1    2    0  501 -0.22434349743E+02 -0.11859664357E+02  0.34651148995E+03  0.34743943984E+03  0.00000000000E+00 0. -1.
</event>
<event>
 4    1  0.6754235E+001  0.4621813E+02  0.7546771E-02  0.1315458E+00
          2   -1    0    0  502    0  0.00000000000E+00  0.00000000000E+00  0.27556641326E+03  0.27556641326E+03  0.00000000000E+00 0. -1.
         -2   -1    0    0    0  501 -0.00000000000E+00 -0.00000000000E+00 -0.86609054708E+01  0.86609054708E+01  0.00000000000E+00 0.  1.
          1    1    1    2  502    0 -0.23213875529E+02 -0.39965379763E+02  0.17949735901E+03  0.18535214455E+03  0.00000000000E+00 0. -1.
         -1    1    1    2    0  501  0.23213875529E+02  0.39965379763E+02  0.87408148770E+02  0.98875174175E+02  0.00000000000E+00 0.  1.
</event>
<event>
 4    1  0.6754235E+001  0.2875506E+02  0.7546771E-02  0.1430732E+00
          2   -1    0    0  502    0  0.00000000000E+00  0.00000000000E+00  0.26089909011E+04  0.26089909011E+04  0.00000000000E+00 0. -1.
         -2   -1    0    0    0  501 -0.00000000000E+00 -0.00000000000E+00 -0.31759918039E+00  0.31759918039E+00  0.00000000000E+00 0.  1.
          1    1    1    2  502    0 -0.19104141767E+02 -0.21491521563E+02  0.12442149319E+04  0.12445471669E+04  0.00000000000E+00 0.  1.
         -1    1    1    2    0  501  0.19104141767E+02  0.21491521563E+02  0.13644583700E+04  0.13647613335E+04  0.00000000000E+00 0. -1.
</event>
<event>
 4    1  0.6754235E+001  0.3108571E+02  0.7546771E-02  0.1410390E+00
          2   -1    0    0  502    0  0.00000000000E+00  0.00000000000E+00  0.81490327559E+01  0.81490327559E+01  0.00000000000E+00 0.  1.
         -2   -1    0    0    0  501 -0.00000000000E+00 -0.00000000000E+00 -0.38607157544E+03  0.38607157544E+03  0.00000000000E+00 0. -1.
          1    1    1    2  502    0  0.54223758521E+01  0.30609140509E+02 -0.24891135344E+02  0.39823237705E+02  0.00000000000E+00 0.  1.
         -1    1    1    2    0  501 -0.54223758521E+01 -0.30609140509E+02 -0.35303140734E+03  0.35439737049E+03  0.00000000000E+00 0. -1.
</event>
<event>
 4    1  0.6754235E+001  0.2886230E+02  0.7546771E-02  0.1429747E+00
          2   -1    0    0  502    0  0.00000000000E+00  0.00000000000E+00  0.16112015027E+03  0.16112015027E+03  0.00000000000E+00 0.  1.
         -2   -1    0    0    0  501 -0.00000000000E+00 -0.00000000000E+00 -0.52288653685E+01  0.52288653685E+01  0.00000000000E+00 0. -1.
          1    1    1    2  502    0  0.27353770752E+02 -0.92088878806E+01  0.86751482593E+02  0.91426758241E+02  0.00000000000E+00 0.  1.
         -1    1    1    2    0  501 -0.27353770752E+02  0.92088878806E+01  0.69139802312E+02  0.74922257401E+02  0.00000000000E+00 0. -1.
</event>
<event>
 4    1  0.6754235E+001  0.2678339E+02  0.7546771E-02  0.1449796E+00
          2   -1    0    0  502    0  0.00000000000E+00  0.00000000000E+00  0.19199607267E+03  0.19199607267E+03  0.00000000000E+00 0.  1.
         -2   -1    0    0    0  501 -0.00000000000E+00 -0.00000000000E+00 -0.45267455976E+01  0.45267455976E+01  0.00000000000E+00 0. -1.
          1    1    1    2  502    0  0.22504880857E+02  0.14521724666E+02  0.52673356357E+02  0.59091730551E+02  0.00000000000E+00 0.  1.
         -1    1    1    2    0  501 -0.22504880857E+02 -0.14521724666E+02  0.13479597072E+03  0.13743108772E+03  0.00000000000E+00 0. -1.
</event>
<event>
 4    1  0.6754235E+001  0.2137180E+02  0.7546771E-02  0.1514022E+00
          2   -1    0    0  502    0  0.00000000000E+00  0.00000000000E+00  0.80498904136E+03  0.80498904136E+03  0.00000000000E+00 0. -1.
         -2   -1    0    0    0  501 -0.00000000000E+00 -0.00000000000E+00 -0.57122863503E+00  0.57122863503E+00  0.00000000000E+00 0.  1.
          1    1    1    2  502    0 -0.20918686297E+02 -0.43774758052E+01  0.36924966672E+03  0.36986763863E+03  0.00000000000E+00 0.  1.
         -1    1    1    2    0  501  0.20918686297E+02  0.43774758052E+01  0.43516814600E+03  0.43569263136E+03  0.00000000000E+00 0. -1.
</event>
<event>
 4    1  0.6754235E+001  0.3751898E+02  0.7546771E-02  0.1363672E+00
          2   -1    0    0  502    0  0.00000000000E+00  0.00000000000E+00  0.41161405323E+02  0.41161405323E+02  0.00000000000E+00 0. -1.
         -2   -1    0    0    0  501 -0.00000000000E+00 -0.00000000000E+00 -0.35005877956E+02  0.35005877956E+02  0.00000000000E+00 0.  1.
          1    1    1    2  502    0 -0.36309768794E+02  0.94485103811E+01  0.88601377137E+01  0.38550949387E+02  0.00000000000E+00 0.  1.
         -1    1    1    2    0  501  0.36309768794E+02 -0.94485103811E+01 -0.27046103467E+01  0.37616333892E+02  0.00000000000E+00 0. -1.
</event>
<event>
 4    1  0.6754235E+001  0.2054164E+02  0.7546771E-02  0.1525911E+00
          2   -1    0    0  502    0  0.00000000000E+00  0.00000000000E+00  0.26816575910E+02  0.26816575910E+02  0.00000000000E+00 0. -1.
         -2   -1    0    0    0  501 -0.00000000000E+00 -0.00000000000E+00 -0.50397847514E+02  0.50397847514E+02  0.00000000000E+00 0.  1.
          1    1    1    2  502    0 -0.16603164836E+02 -0.12095192693E+02 -0.43808663339E+02  0.48385511803E+02  0.00000000000E+00 0.  1.
         -1    1    1    2    0  501  0.16603164836E+02  0.12095192693E+02  0.20227391736E+02  0.28828911621E+02  0.00000000000E+00 0. -1.
</event>
<event>
 4    1  0.6754235E+001  0.2182355E+02  0.7546771E-02  0.1507824E+00
          2   -1    0    0  502    0  0.00000000000E+00  0.00000000000E+00  0.77114811093E+02  0.77114811093E+02  0.00000000000E+00 0.  1.
         -2   -1    0    0    0  501 -0.00000000000E+00 -0.00000000000E+00 -0.68533357595E+01  0.68533357595E+01  0.00000000000E+00 0. -1.
          1    1    1    2  502    0 -0.21773296311E+02  0.14802186301E+01  0.48328762362E+02  0.53027697959E+02  0.00000000000E+00 0.  1.
         -1    1    1    2    0  501  0.21773296311E+02 -0.14802186301E+01  0.21932712971E+02  0.30940448893E+02  0.00000000000E+00 0. -1.
</event>
<event>
 4    1  0.6754235E+001  0.2260372E+02  0.7546771E-02  0.1497535E+00
          2   -1    0    0  502    0  0.00000000000E+00  0.00000000000E+00  0.31070371159E+03  0.31070371159E+03  0.00000000000E+00 0.  1.
         -2   -1    0    0    0  501 -0.00000000000E+00 -0.00000000000E+00 -0.41070504597E+01  0.41070504597E+01  0.00000000000E+00 0. -1.
          1    1    1    2  502    0  0.16779026668E+02  0.15145705958E+02  0.27518437045E+03  0.27611114770E+03  0.00000000000E+00 0.  1.
         -1    1    1    2    0  501 -0.16779026668E+02 -0.15145705958E+02  0.31412290679E+02  0.38699614347E+02  0.00000000000E+00 0. -1.
</event>
<event>
 4    1  0.6754235E+001  0.2238890E+02  0.7546771E-02  0.1500318E+00
          2   -1    0    0  502    0  0.00000000000E+00  0.00000000000E+00  0.49716099738E+03  0.49716099738E+03  0.00000000000E+00 0. -1.
         -2   -1    0    0    0  501 -0.00000000000E+00 -0.00000000000E+00 -0.10570466637E+01  0.10570466637E+01  0.00000000000E+00 0.  1.
          1    1    1    2  502    0  0.13111750054E+02  0.18147862279E+02  0.30157425280E+03  0.30240418788E+03  0.00000000000E+00 0.  1.
         -1    1    1    2    0  501 -0.13111750054E+02 -0.18147862279E+02  0.19452969792E+03  0.19581385617E+03  0.00000000000E+00 0. -1.
</event>
<event>
 4    1  0.6754235E+001  0.3096463E+02  0.7546771E-02  0.1411395E+00
          2   -1    0    0  502    0  0.00000000000E+00  0.00000000000E+00  0.24743074901E+03  0.24743074901E+03  0.00000000000E+00 0. -1.
         -2   -1    0    0    0  501 -0.00000000000E+00 -0.00000000000E+00 -0.39548215919E+01  0.39548215919E+01  0.00000000000E+00 0.  1.
          1    1    1    2  502    0 -0.20527431378E+02 -0.23182595764E+02  0.10388736641E+03  0.10840384257E+03  0.00000000000E+00 0.  1.
         -1    1    1    2    0  501  0.20527431378E+02  0.23182595764E+02  0.13958856101E+03  0.14298172803E+03  0.00000000000E+00 0. -1.
</event>
<event>
 4    1  0.6754235E+001  0.3544905E+02  0.7546771E-02  0.1377433E+00
          2   -1    0    0  502    0  0.00000000000E+00  0.00000000000E+00  0.29472597431E+03  0.29472597431E+03  0.00000000000E+00 0.  1.
         -2   -1    0    0    0  501 -0.00000000000E+00 -0.00000000000E+00 -0.72385263977E+01  0.72385263977E+01  0.00000000000E+00 0. -1.
          1    1    1    2  502    0  0.13202598907E+02  0.32898728865E+02  0.24053332354E+03  0.24313147618E+03  0.00000000000E+00 0.  1.
         -1    1    1    2    0  501 -0.13202598907E+02 -0.32898728865E+02  0.46954124371E+02  0.58833024521E+02  0.00000000000E+00 0. -1.
</event>
<event>
 4    1  0.6754235E+001  0.2151350E+02  0.7546771E-02  0.1512058E+00
          2   -1    0    0  502    0  0.00000000000E+00  0.00000000000E+00  0.69507053706E+01  0.69507053706E+01  0.00000000000E+00 0. -1.
         -2   -1    0    0    0  501 -0.00000000000E+00 -0.00000000000E+00 -0.66991460170E+02  0.66991460170E+02  0.00000000000E+00 0.  1.
          1    1    1    2  502    0  0.19896029661E+02 -0.81840453202E+01 -0.32891045821E+02  0.39302054517E+02  0.00000000000E+00 0. -1.
         -1    1    1    2    0  501 -0.19896029661E+02  0.81840453202E+01 -0.27149708979E+02  0.34640111023E+02  0.00000000000E+00 0.  1.
</event>
<event>
 4    1  0.6754235E+001  0.2849768E+02  0.7546771E-02  0.1433117E+00
          2   -1    0    0  502    0  0.00000000000E+00  0.00000000000E+00  0.95166235634E+02  0.95166235634E+02  0.00000000000E+00 0. -1.
         -2   -1    0    0    0  501 -0.00000000000E+00 -0.00000000000E+00 -0.10539254992E+02  0.10539254992E+02  0.00000000000E+00 0.  1.
          1    1    1    2  502    0 -0.28206263289E+02  0.40650428577E+01  0.19257571535E+02  0.34394358892E+02  0.00000000000E+00 0.  1.
         -1    1    1    2    0  501  0.28206263289E+02 -0.40650428577E+01  0.65369409107E+02  0.71311131734E+02  0.00000000000E+00 0. -1.
</event>
<event>
 4    1  0.6754235E+001  0.3035921E+02  0.7546771E-02  0.1416500E+00
          2   -1    0    0  502    0  0.00000000000E+00  0.00000000000E+00  0.29980482741E+03  0.29980482741E+03  0.00000000000E+00 0. -1.
         -2   -1    0    0    0  501 -0.00000000000E+00 -0.00000000000E+00 -0.30841313262E+01  0.30841313262E+01  0.00000000000E+00 0.  1.
          1    1    1    2  502    0 -0.25222993115E+02 -0.16896224670E+02  0.15692275151E+03  0.15983251149E+03  0.00000000000E+00 0.  1.
         -1    1    1    2    0  501  0.25222993115E+02  0.16896224670E+02  0.13979794458E+03  0.14305644725E+03  0.00000000000E+00 0. -1.
</event>
<event>
 4    1  0.6754235E+001  0.2139222E+02  0.7546771E-02  0.1513738E+00
          2   -1    0    0  502    0  0.00000000000E+00  0.00000000000E+00  0.40219761702E+01  0.40219761702E+01  0.00000000000E+00 0. -1.
         -2   -1    0    0    0  501 -0.00000000000E+00 -0.00000000000E+00 -0.11856776737E+03  0.11856776737E+03  0.00000000000E+00 0.  1.
          1    1    1    2  502    0 -0.17215098735E+02 -0.12699105964E+02 -0.44957896374E+02  0.49787943954E+02  0.00000000000E+00 0. -1.
         -1    1    1    2    0  501  0.17215098735E+02  0.12699105964E+02 -0.69587894829E+02  0.72801799589E+02  0.00000000000E+00 0.  1.
</event>
<event>
 4    1  0.6754235E+001  0.2050013E+02  0.7546771E-02  0.1526523E+00
          2   -1    0    0  502    0  0.00000000000E+00  0.00000000000E+00  0.18701717132E+02  0.18701717132E+02  0.00000000000E+00 0. -1.
         -2   -1    0    0    0  501 -0.00000000000E+00 -0.00000000000E+00 -0.56966825835E+02  0.56966825835E+02  0.00000000000E+00 0.  1.
          1    1    1    2  502    0  0.12760901575E+02  0.16044150964E+02  0.10308582375E+02  0.22946072861E+02  0.00000000000E+00 0. -1.
         -1    1    1    2    0  501 -0.12760901575E+02 -0.16044150964E+02 -0.48573691078E+02  0.52722470106E+02  0.00000000000E+00 0.  1.
</event>
<event>
 4    1  0.6754235E+001  0.2472173E+02  0.7546771E-02  0.1471941E+00
          2   -1    0    0  502    0  0.00000000000E+00  0.00000000000E+00  0.11602112311E+04  0.11602112311E+04  0.00000000000E+00 0.  1.
         -2   -1    0    0    0  501 -0.00000000000E+00 -0.00000000000E+00 -0.86634994886E+00  0.86634994886E+00  0.00000000000E+00 0. -1.
          1    1    1    2  502    0 -0.13311676780E+01  0.24685864963E+02  0.94313181960E+03  0.94345577166E+03  0.00000000000E+00 0.  1.
         -1    1    1    2    0  501  0.13311676780E+01 -0.24685864963E+02  0.21621306154E+03  0.21762180938E+03  0.00000000000E+00 0. -1.
</event>
<event>
 4    1  0.6754235E+001  0.2520400E+02  0.7546771E-02  0.1466534E+00
          2   -1    0    0  502    0  0.00000000000E+00  0.00000000000E+00  0.25394092714E+01  0.25394092714E+01  0.00000000000E+00 0. -1.
         -2   -1    0    0    0  501 -0.00000000000E+00 -0.00000000000E+00 -0.27591395713E+03  0.27591395713E+03  0.00000000000E+00 0.  1.
          1    1    1    2  502    0  0.11792972472E+01  0.25176398999E+02 -0.94145710227E+02  0.97461051516E+02  0.00000000000E+00 0. -1.
         -1    1    1    2    0  501 -0.11792972472E+01 -0.25176398999E+02 -0.17922883763E+03  0.18099231488E+03  0.00000000000E+00 0.  1.
</event>
<event>
 4    1  0.6754235E+001  0.2140718E+02  0.7546771E-02  0.1513530E+00
          2   -1    0    0  502    0  0.00000000000E+00  0.00000000000E+00  0.59541365185E+01  0.59541365185E+01  0.00000000000E+00 0.  1.
         -2   -1    0    0    0  501 -0.00000000000E+00 -0.00000000000E+00 -0.77019416344E+02  0.77019416344E+02  0.00000000000E+00 0. -1.
          1    1    1    2  502    0 -0.21313582553E+02 -0.19996481434E+01 -0.36622929181E+02  0.42420588583E+02  0.00000000000E+00 0.  1.
         -1    1    1    2    0  501  0.21313582553E+02  0.19996481434E+01 -0.34442350644E+02  0.40552964279E+02  0.00000000000E+00 0. -1.
</event>
<event>
 4    1  0.6754235E+001  0.2534223E+02  0.7546771E-02  0.1465011E+00
          2   -1    0    0  502    0  0.00000000000E+00  0.00000000000E+00  0.57394698390E+03  0.57394698390E+03  0.00000000000E+00 0.  1.
         -2   -1    0    0    0  501 -0.00000000000E+00 -0.00000000000E+00 -0.11547774978E+01  0.11547774978E+01  0.00000000000E+00 0. -1.
          1    1    1    2  502    0 -0.10576843513E+02  0.23029523477E+02  0.33703239535E+03  0.33798382223E+03  0.00000000000E+00 0.  1.
         -1    1    1    2    0  501  0.10576843513E+02 -0.23029523477E+02  0.23575981105E+03  0.23711793917E+03  0.00000000000E+00 0. -1.
</event>
<event>
 4    1  0.6754235E+001  0.2131135E+02  0.7546771E-02  0.1514866E+00
          2   -1    0    0  502    0  0.00000000000E+00  0.00000000000E+00  0.68384808043E+03  0.68384808043E+03  0.00000000000E+00 0.  1.
         -2   -1    0    0    0  501 -0.00000000000E+00 -0.00000000000E+00 -0.20993515166E+01  0.20993515166E+01  0.00000000000E+00 0. -1.
          1    1    1    2  502    0  0.65900914013E+01  0.20266827624E+02  0.62445436945E+03  0.62481791998E+03  0.00000000000E+00 0.  1.
         -1    1    1    2    0  501 -0.65900914013E+01 -0.20266827624E+02  0.57294359466E+02  0.61129511966E+02  0.00000000000E+00 0. -1.
</event>
<event>
 4    1  0.6754235E+001  0.2444611E+02  0.7546771E-02  0.1475096E+00
          2   -1    0    0  502    0  0.00000000000E+00  0.00000000000E+00  0.14287594202E+04  0.14287594202E+04  0.00000000000E+00 0.  1.
         -2   -1    0    0    0  501 -0.00000000000E+00 -0.00000000000E+00 -0.41850650825E+00  0.41850650825E+00  0.00000000000E+00 0. -1.
          1    1    1    2  502    0 -0.24081574877E+01 -0.24327208700E+02  0.73102915887E+03  0.73143779190E+03  0.00000000000E+00 0.  1.
         -1    1    1    2    0  501  0.24081574877E+01  0.24327208700E+02  0.69731175482E+03  0.69774013481E+03  0.00000000000E+00 0. -1.
</event>
<event>
 4    1  0.6754235E+001  0.2554811E+02  0.7546771E-02  0.1462764E+00
          2   -1    0    0  502    0  0.00000000000E+00  0.00000000000E+00  0.44868233638E+01  0.44868233638E+01  0.00000000000E+00 0. -1.
         -2   -1    0    0    0  501 -0.00000000000E+00 -0.00000000000E+00 -0.36130197111E+03  0.36130197111E+03  0.00000000000E+00 0.  1.
          1    1    1    2  502    0 -0.15414290410E+02  0.20374137518E+02 -0.37049241570E+02  0.45003912378E+02  0.00000000000E+00 0. -1.
         -1    1    1    2    0  501  0.15414290410E+02 -0.20374137518E+02 -0.31976590618E+03  0.32078488210E+03  0.00000000000E+00 0.  1.
</event>
<event>
 4    1  0.6754235E+001  0.2590833E+02  0.7546771E-02  0.1458893E+00
          2   -1    0    0  502    0  0.00000000000E+00  0.00000000000E+00  0.10178076627E+04  0.10178076627E+04  0.00000000000E+00 0.  1.
         -2   -1    0    0    0  501 -0.00000000000E+00 -0.00000000000E+00 -0.66252097680E+00  0.66252097680E+00  0.00000000000E+00 0. -1.
          1    1    1    2  502    0 -0.25870584000E+02  0.13980982368E+01  0.54297259043E+03  0.54359035656E+03  0.00000000000E+00 0.  1.
         -1    1    1    2    0  501  0.25870584000E+02 -0.13980982368E+01  0.47417255126E+03  0.47487982707E+03  0.00000000000E+00 0. -1.
</event>
<event>
 4    1  0.6754235E+001  0.3026683E+02  0.7546771E-02  0.1417291E+00
          2   -1    0    0  502    0  0.00000000000E+00  0.00000000000E+00  0.55790815383E+02  0.55790815383E+02  0.00000000000E+00 0. -1.
         -2   -1    0    0    0  501 -0.00000000000E+00 -0.00000000000E+00 -0.16667260859E+02  0.16667260859E+02  0.00000000000E+00 0.  1.
          1    1    1    2  502    0  0.50351975457E+01 -0.29845065685E+02  0.23975100919E+02  0.38612001038E+02  0.00000000000E+00 0.  1.
         -1    1    1    2    0  501 -0.50351975457E+01  0.29845065685E+02  0.15148453605E+02  0.33846075204E+02  0.00000000000E+00 0. -1.
</event>
<event>
 4    1  0.6754235E+001  0.2020102E+02  0.7546771E-02  0.1530985E+00
          2   -1    0    0  502    0  0.00000000000E+00  0.00000000000E+00  0.23562876276E+02  0.23562876276E+02  0.00000000000E+00 0. -1.
         -2   -1    0    0    0  501 -0.00000000000E+00 -0.00000000000E+00 -0.28105703983E+02  0.28105703983E+02  0.00000000000E+00 0.  1.
          1    1    1    2  502    0  0.19331952420E+02  0.58614749378E+01  0.13733275585E+02  0.24427118764E+02  0.00000000000E+00 0.  1.
         -1    1    1    2    0  501 -0.19331952420E+02 -0.58614749378E+01 -0.18276103292E+02  0.27241461495E+02  0.00000000000E+00 0. -1.
</event>
<event>
 4    1  0.6754235E+001  0.5460606E+02  0.7546771E-02  0.1279349E+00
          2   -1    0    0  502    0  0.00000000000E+00  0.00000000000E+00  0.37057566455E+04  0.37057566455E+04  0.00000000000E+00 0.  1.
         -2   -1    0    0    0  501 -0.00000000000E+00 -0.00000000000E+00 -0.84706189961E+00  0.84706189961E+00  0.00000000000E+00 0. -1.
          1    1    1    2  502    0  0.54579882647E+02  0.16905348104E+01  0.22671738399E+04  0.22678313521E+04  0.00000000000E+00 0.  1.
         -1    1    1    2    0  501 -0.54579882647E+02 -0.16905348104E+01  0.14377357437E+04  0.14387723553E+04  0.00000000000E+00 0. -1.
</event>
<event>
 4    1  0.6754235E+001  0.2953818E+02  0.7546771E-02  0.1423653E+00
          2   -1    0    0  502    0  0.00000000000E+00  0.00000000000E+00  0.24339693582E+03  0.24339693582E+03  0.00000000000E+00 0. -1.
         -2   -1    0    0    0  501 -0.00000000000E+00 -0.00000000000E+00 -0.11527562409E+02  0.11527562409E+02  0.00000000000E+00 0.  1.
          1    1    1    2  502    0 -0.92649181095E+01  0.28047552462E+02  0.22173853851E+03  0.22369730299E+03  0.00000000000E+00 0. -1.
         -1    1    1    2    0  501  0.92649181095E+01 -0.28047552462E+02  0.10130834909E+02  0.31227195242E+02  0.00000000000E+00 0.  1.
</event>
<event>
 4    1  0.6754235E+001  0.2462178E+02  0.7546771E-02  0.1473079E+00
          2   -1    0    0  502    0  0.00000000000E+00  0.00000000000E+00  0.21172603842E+04  0.21172603842E+04  0.00000000000E+00 0. -1.
         -2   -1    0    0    0  501 -0.00000000000E+00 -0.00000000000E+00 -0.36601035481E+00  0.36601035481E+00  0.00000000000E+00 0.  1.
          1    1    1    2  502    0 -0.46529442074E+01  0.24178138622E+02  0.56441868242E+03  0.56495546846E+03  0.00000000000E+00 0.  1.
         -1    1    1    2    0  501  0.46529442074E+01 -0.24178138622E+02  0.15524756914E+04  0.15526709260E+04  0.00000000000E+00 0. -1.
</event>
<event>
 4    1  0.6754235E+001  0.4365791E+02  0.7546771E-02  0.1328288E+00
          2   -1    0    0  502    0  0.00000000000E+00  0.00000000000E+00  0.11011076718E+04  0.11011076718E+04  0.00000000000E+00 0.  1.
         -2   -1    0    0    0  501 -0.00000000000E+00 -0.00000000000E+00 -0.17809220280E+01  0.17809220280E+01  0.00000000000E+00 0. -1.
          1    1    1    2  502    0 -0.28691407771E+02  0.32906171533E+02  0.45733342739E+03  0.45941253445E+03  0.00000000000E+00 0. -1.
         -1    1    1    2    0  501  0.28691407771E+02 -0.32906171533E+02  0.64199332234E+03  0.64347605933E+03  0.00000000000E+00 0.  1.
</event>
<event>
 4    1  0.6754235E+001  0.3168354E+02  0.7546771E-02  0.1405510E+00
          2   -1    0    0  502    0  0.00000000000E+00  0.00000000000E+00  0.11561945036E+04  0.11561945036E+04  0.00000000000E+00 0.  1.
         -2   -1    0    0    0  501 -0.00000000000E+00 -0.00000000000E+00 -0.32693898260E+01  0.32693898260E+01  0.00000000000E+00 0. -1.
          1    1    1    2  502    0 -0.19803379202E+02 -0.24732022540E+02  0.10732883108E+04  0.10737558591E+04  0.00000000000E+00 0.  1.
         -1    1    1    2    0  501  0.19803379202E+02  0.24732022540E+02  0.79636802963E+02  0.85708034355E+02  0.00000000000E+00 0. -1.
</event>
<event>
 4    1  0.6754235E+001  0.5140741E+02  0.7546771E-02  0.1292183E+00
          2   -1    0    0  502    0  0.00000000000E+00  0.00000000000E+00  0.84172317028E+03  0.84172317028E+03  0.00000000000E+00 0. -1.
         -2   -1    0    0    0  501 -0.00000000000E+00 -0.00000000000E+00 -0.31495416861E+01  0.31495416861E+01  0.00000000000E+00 0.  1.
          1    1    1    2  502    0  0.48878501954E+02  0.15925259325E+02  0.44295279031E+03  0.44592588653E+03  0.00000000000E+00 0. -1.
         -1    1    1    2    0  501 -0.48878501954E+02 -0.15925259325E+02  0.39562083829E+03  0.39894682544E+03  0.00000000000E+00 0.  1.
</event>
<event>
 4    1  0.6754235E+001  0.2367200E+02  0.7546771E-02  0.1484228E+00
          2   -1    0    0  502    0  0.00000000000E+00  0.00000000000E+00  0.45937786950E+03  0.45937786950E+03  0.00000000000E+00 0.  1.
         -2   -1    0    0    0  501 -0.00000000000E+00 -0.00000000000E+00 -0.12763152706E+01  0.12763152706E+01  0.00000000000E+00 0. -1.
          1    1    1    2  502    0 -0.15675334156E+02  0.17738305895E+02  0.18059697383E+03  0.18214178695E+03  0.00000000000E+00 0. -1.
         -1    1    1    2    0  501  0.15675334156E+02 -0.17738305895E+02  0.27750458040E+03  0.27851239782E+03  0.00000000000E+00 0.  1.
</event>
<event>
 4    1  0.6754235E+001  0.2153078E+02  0.7546771E-02  0.1511820E+00
          2   -1    0    0  502    0  0.00000000000E+00  0.00000000000E+00  0.13942922511E+03  0.13942922511E+03  0.00000000000E+00 0.  1.
         -2   -1    0    0    0  501 -0.00000000000E+00 -0.00000000000E+00 -0.11056141091E+02  0.11056141091E+02  0.00000000000E+00 0. -1.
          1    1    1    2  502    0 -0.16296662215E+02  0.14071001405E+02  0.12710671474E+03  0.12891738134E+03  0.00000000000E+00 0.  1.
         -1    1    1    2    0  501  0.16296662215E+02 -0.14071001405E+02  0.12663692812E+01  0.21567984863E+02  0.00000000000E+00 0. -1.
</event>
<event>
 4    1  0.6754235E+001  0.2740167E+02  0.7546771E-02  0.1443614E+00
          2   -1    0    0  502    0  0.00000000000E+00  0.00000000000E+00  0.18639003001E+04  0.18639003001E+04  0.00000000000E+00 0.  1.
         -2   -1    0    0    0  501 -0.00000000000E+00 -0.00000000000E+00 -0.86910180969E+00  0.86910180969E+00  0.00000000000E+00 0. -1.
          1    1    1    2  502    0 -0.20474693991E+02 -0.18210944408E+02  0.24858710159E+03  0.25009278012E+03  0.00000000000E+00 0. -1.
         -1    1    1    2    0  501  0.20474693991E+02  0.18210944408E+02  0.16144440967E+04  0.16146766218E+04  0.00000000000E+00 0.  1.
</event>
<event>
 4    1  0.6754235E+001  0.3711188E+02  0.7546771E-02  0.1366295E+00
          2   -1    0    0  502    0  0.00000000000E+00  0.00000000000E+00  0.14150535113E+04  0.14150535113E+04  0.00000000000E+00 0.  1.
         -2   -1    0    0    0  501 -0.00000000000E+00 -0.00000000000E+00 -0.10039665819E+01  0.10039665819E+01  0.00000000000E+00 0. -1.
          1    1    1    2  502    0 -0.27553228471E+02 -0.24861835715E+02  0.58330891081E+03  0.58448830331E+03  0.00000000000E+00 0. -1.
         -1    1    1    2    0  501  0.27553228471E+02  0.24861835715E+02  0.83074063392E+03  0.83156917458E+03  0.00000000000E+00 0.  1.
</event>
<event>
 4    1  0.6754235E+001  0.2440124E+02  0.7546771E-02  0.1475614E+00
          2   -1    0    0  502    0  0.00000000000E+00  0.00000000000E+00  0.52044355257E+02  0.52044355257E+02  0.00000000000E+00 0.  1.
         -2   -1    0    0    0  501 -0.00000000000E+00 -0.00000000000E+00 -0.11774305734E+02  0.11774305734E+02  0.00000000000E+00 0. -1.
          1    1    1    2  502    0  0.12825835839E+02  0.20758576034E+02  0.25506680862E+02  0.35298885428E+02  0.00000000000E+00 0.  1.
         -1    1    1    2    0  501 -0.12825835839E+02 -0.20758576034E+02  0.14763368661E+02  0.28519775563E+02  0.00000000000E+00 0. -1.
</event>
<event>
 4    1  0.6754235E+001  0.2296305E+02  0.7546771E-02  0.1492963E+00
          2   -1    0    0  502    0  0.00000000000E+00  0.00000000000E+00  0.70002653855E+03  0.70002653855E+03  0.00000000000E+00 0.  1.
         -2   -1    0    0    0  501 -0.00000000000E+00 -0.00000000000E+00 -0.10924647574E+01  0.10924647574E+01  0.00000000000E+00 0. -1.
          1    1    1    2  502    0  0.16387103591E+02  0.16086157626E+02  0.54480619913E+03  0.54528991944E+03  0.00000000000E+00 0.  1.
         -1    1    1    2    0  501 -0.16387103591E+02 -0.16086157626E+02  0.15412787467E+03  0.15582908387E+03  0.00000000000E+00 0. -1.
</event>
<event>
 4    1  0.6754235E+001  0.3701189E+02  0.7546771E-02  0.1366946E+00
          2   -1    0    0  502    0  0.00000000000E+00  0.00000000000E+00  0.12725034368E+04  0.12725034368E+04  0.00000000000E+00 0.  1.
         -2   -1    0    0    0  501 -0.00000000000E+00 -0.00000000000E+00 -0.12934961942E+01  0.12934961942E+01  0.00000000000E+00 0. -1.
          1    1    1    2  502    0 -0.29997814703E+02 -0.21679734808E+02  0.37475534468E+03  0.37657860820E+03  0.00000000000E+00 0.  1.
         -1    1    1    2    0  501  0.29997814703E+02  0.21679734808E+02  0.89645459592E+03  0.89721832479E+03  0.00000000000E+00 0. -1.
</event>
<event>
 4    1  0.6754235E+001  0.2637604E+02  0.7546771E-02  0.1453979E+00
          2   -1    0    0  502    0  0.00000000000E+00  0.00000000000E+00  0.10025325226E+02  0.10025325226E+02  0.00000000000E+00 0.  1.
         -2   -1    0    0    0  501 -0.00000000000E+00 -0.00000000000E+00 -0.84821427552E+02  0.84821427552E+02  0.00000000000E+00 0. -1.
          1    1    1    2  502    0  0.21364904469E+02  0.15467264863E+02 -0.57623084161E+02  0.63372827407E+02  0.00000000000E+00 0. -1.
         -1    1    1    2    0  501 -0.21364904469E+02 -0.15467264863E+02 -0.17173018166E+02  0.31473925371E+02  0.00000000000E+00 0.  1.
</event>
<event>
 4    1  0.6754235E+001  0.2136460E+02  0.7546771E-02  0.1514122E+00
          2   -1    0    0  502    0  0.00000000000E+00  0.00000000000E+00  0.37075830309E+03  0.37075830309E+03  0.00000000000E+00 0. -1.
         -2   -1    0    0    0  501 -0.00000000000E+00 -0.00000000000E+00 -0.20110871033E+01  0.20110871033E+01  0.00000000000E+00 0.  1.
          1    1    1    2  502    0 -0.15954319412E+02 -0.14209357179E+02  0.30044743906E+03  0.30120609186E+03  0.00000000000E+00 0. -1.
         -1    1    1    2    0  501  0.15954319412E+02  0.14209357179E+02  0.68299776932E+02  0.71563298333E+02  0.00000000000E+00 0.  1.
</event>
<event>
 4    1  0.6754235E+001  0.2468739E+02  0.7546771E-02  0.1472331E+00
          2   -1    0    0  502    0  0.00000000000E+00  0.00000000000E+00  0.53366721855E+02  0.53366721855E+02  0.00000000000E+00 0. -1.
         -2   -1    0    0    0  501 -0.00000000000E+00 -0.00000000000E+00 -0.11537400029E+02  0.11537400029E+02  0.00000000000E+00 0.  1.
          1    1    1    2  502    0  0.98102884629E+01  0.22654478703E+02  0.17646105257E+02  0.30345546556E+02  0.00000000000E+00 0.  1.
         -1    1    1    2    0  501 -0.98102884629E+01 -0.22654478703E+02  0.24183216569E+02  0.34558575328E+02  0.00000000000E+00 0. -1.
</event>
<event>
 4    1  0.6754235E+001  0.2047620E+02  0.7546771E-02  0.1526876E+00
          2   -1    0    0  502    0  0.00000000000E+00  0.00000000000E+00  0.13773624929E+04  0.13773624929E+04  0.00000000000E+00 0.  1.
         -2   -1    0    0    0  501 -0.00000000000E+00 -0.00000000000E+00 -0.38281752995E+00  0.38281752995E+00  0.00000000000E+00 0. -1.
          1    1    1    2  502    0 -0.10840312865E+02  0.17371310545E+02  0.37671704248E+03  0.37727311713E+03  0.00000000000E+00 0. -1.
         -1    1    1    2    0  501  0.10840312865E+02 -0.17371310545E+02  0.10002626329E+04  0.10004721933E+04  0.00000000000E+00 0.  1.
</event>
<event>
 4    1  0.6754235E+001  0.4774563E+02  0.7546771E-02  0.1308254E+00
          2   -1    0    0  502    0  0.00000000000E+00  0.00000000000E+00  0.21248663331E+02  0.21248663331E+02  0.00000000000E+00 0. -1.
         -2   -1    0    0    0  501 -0.00000000000E+00 -0.00000000000E+00 -0.23661011338E+03  0.23661011338E+03  0.00000000000E+00 0.  1.
          1    1    1    2  502    0  0.76937592598E+01 -0.47121666361E+02 -0.20299941945E+03  0.20853874860E+03  0.00000000000E+00 0.  1.
         -1    1    1    2    0  501 -0.76937592598E+01  0.47121666361E+02 -0.12362030602E+02  0.49320028110E+02  0.00000000000E+00 0. -1.
</event>
<event>
 4    1  0.6754235E+001  0.2167885E+02  0.7546771E-02  0.1509789E+00
          2   -1    0    0  502    0  0.00000000000E+00  0.00000000000E+00  0.52046773779E+02  0.52046773779E+02  0.00000000000E+00 0.  1.
         -2   -1    0    0    0  501 -0.00000000000E+00 -0.00000000000E+00 -0.18068771582E+02  0.18068771582E+02  0.00000000000E+00 0. -1.
          1    1    1    2  502    0 -0.21391181085E+02  0.35199243325E+01  0.41784866437E+02  0.47073852176E+02  0.00000000000E+00 0.  1.
         -1    1    1    2    0  501  0.21391181085E+02 -0.35199243325E+01 -0.78068642399E+01  0.23041693184E+02  0.00000000000E+00 0. -1.
</event>
<event>
 4    1  0.6754235E+001  0.4025443E+02  0.7546771E-02  0.1347001E+00
          2   -1    0    0  502    0  0.00000000000E+00  0.00000000000E+00  0.34123925807E+02  0.34123925807E+02  0.00000000000E+00 0.  1.
         -2   -1    0    0    0  501 -0.00000000000E+00 -0.00000000000E+00 -0.49378237846E+02  0.49378237846E+02  0.00000000000E+00 0. -1.
          1    1    1    2  502    0 -0.36977536503E+02 -0.15908511311E+02 -0.15799629254E+02  0.43244042624E+02  0.00000000000E+00 0.  1.
         -1    1    1    2    0  501  0.36977536503E+02  0.15908511311E+02  0.54531721489E+00  0.40258121029E+02  0.00000000000E+00 0. -1.
</event>
<event>
 4    1  0.6754235E+001  0.2581522E+02  0.7546771E-02  0.1459887E+00
          2   -1    0    0  502    0  0.00000000000E+00  0.00000000000E+00  0.66342904915E+03  0.66342904915E+03  0.00000000000E+00 0. -1.
         -2   -1    0    0    0  501 -0.00000000000E+00 -0.00000000000E+00 -0.11599250258E+01  0.11599250258E+01  0.00000000000E+00 0.  1.
          1    1    1    2  502    0  0.66063375822E+00  0.25806768197E+02  0.45276575755E+03  0.45350111018E+03  0.00000000000E+00 0. -1.
         -1    1    1    2    0  501 -0.66063375822E+00 -0.25806768197E+02  0.20950336657E+03  0.21108786399E+03  0.00000000000E+00 0.  1.
</event>
<event>
 4    1  0.6754235E+001  0.2190837E+02  0.7546771E-02  0.1506680E+00
          2   -1    0    0  502    0  0.00000000000E+00  0.00000000000E+00  0.37618980022E+02  0.37618980022E+02  0.00000000000E+00 0. -1.
         -2   -1    0    0    0  501 -0.00000000000E+00 -0.00000000000E+00 -0.14392559168E+02  0.14392559168E+02  0.00000000000E+00 0.  1.
          1    1    1    2  502    0  0.16989871458E+02 -0.13831886242E+02  0.20374769802E+02  0.29918356466E+02  0.00000000000E+00 0. -1.
         -1    1    1    2    0  501 -0.16989871458E+02  0.13831886242E+02  0.28516510524E+01  0.22093182724E+02  0.00000000000E+00 0.  1.
</event>
<event>
 4    1  0.6754235E+001  0.2364735E+02  0.7546771E-02  0.1484526E+00
          2   -1    0    0  502    0  0.00000000000E+00  0.00000000000E+00  0.73663372983E+02  0.73663372983E+02  0.00000000000E+00 0.  1.
         -2   -1    0    0    0  501 -0.00000000000E+00 -0.00000000000E+00 -0.78140774152E+01  0.78140774152E+01  0.00000000000E+00 0. -1.
          1    1    1    2  502    0 -0.60502502486E+01 -0.22860260354E+02  0.39804094869E+02  0.46298628488E+02  0.00000000000E+00 0.  1.
         -1    1    1    2    0  501  0.60502502486E+01  0.22860260354E+02  0.26045200698E+02  0.35178821910E+02  0.00000000000E+00 0. -1.
</event>
<event>
 4    1  0.6754235E+001  0.2299569E+02  0.7546771E-02  0.1492552E+00
          2   -1    0    0  502    0  0.00000000000E+00  0.00000000000E+00  0.56531180735E+02  0.56531180735E+02  0.00000000000E+00 0. -1.
         -2   -1    0    0    0  501 -0.00000000000E+00 -0.00000000000E+00 -0.12119616805E+02  0.12119616805E+02  0.00000000000E+00 0.  1.
          1    1    1    2  502    0 -0.11808409185E+02 -0.19732285644E+02  0.58091478658E+01  0.23718090630E+02  0.00000000000E+00 0. -1.
         -1    1    1    2    0  501  0.11808409185E+02  0.19732285644E+02  0.38602416065E+02  0.44932706910E+02  0.00000000000E+00 0.  1.
</event>
<event>
 4    1  0.6754235E+001  0.2999335E+02  0.7546771E-02  0.1419654E+00
          2   -1    0    0  502    0  0.00000000000E+00  0.00000000000E+00  0.11339292673E+03  0.11339292673E+03  0.00000000000E+00 0. -1.
         -2   -1    0    0    0  501 -0.00000000000E+00 -0.00000000000E+00 -0.84441702407E+01  0.84441702407E+01  0.00000000000E+00 0.  1.
          1    1    1    2  502    0  0.25847686256E+02 -0.15215062424E+02  0.37493130463E+02  0.48013912997E+02  0.00000000000E+00 0. -1.
         -1    1    1    2    0  501 -0.25847686256E+02  0.15215062424E+02  0.67455626024E+02  0.73823183971E+02  0.00000000000E+00 0.  1.
</event>
<event>
 4    1  0.6754235E+001  0.2465700E+02  0.7546771E-02  0.1472677E+00
          2   -1    0    0  502    0  0.00000000000E+00  0.00000000000E+00  0.25437431328E+03  0.25437431328E+03  0.00000000000E+00 0. -1.
         -2   -1    0    0    0  501 -0.00000000000E+00 -0.00000000000E+00 -0.24553229382E+01  0.24553229382E+01  0.00000000000E+00 0.  1.
          1    1    1    2  502    0 -0.23064506302E+02  0.87175740116E+01  0.14689698109E+03  0.14895197414E+03  0.00000000000E+00 0.  1.
         -1    1    1    2    0  501  0.23064506302E+02 -0.87175740116E+01  0.10502200925E+03  0.10787766207E+03  0.00000000000E+00 0. -1.
</event>
<event>
 4    1  0.6754235E+001  0.5703076E+02  0.7546771E-02  0.1270269E+00
          2   -1    0    0  502    0  0.00000000000E+00  0.00000000000E+00  0.18146706249E+02  0.18146706249E+02  0.00000000000E+00 0.  1.
         -2   -1    0    0    0  501 -0.00000000000E+00 -0.00000000000E+00 -0.22454827107E+03  0.22454827107E+03  0.00000000000E+00 0. -1.
          1    1    1    2  502    0  0.57029535838E+02  0.37318442919E+00 -0.48688632775E+02  0.74987266826E+02  0.00000000000E+00 0.  1.
         -1    1    1    2    0  501 -0.57029535838E+02 -0.37318442919E+00 -0.15771293204E+03  0.16770771049E+03  0.00000000000E+00 0. -1.
</event>
<event>
 4    1  0.6754235E+001  0.2129833E+02  0.7546771E-02  0.1515048E+00
          2   -1    0    0  502    0  0.00000000000E+00  0.00000000000E+00  0.13447503316E+04  0.13447503316E+04  0.00000000000E+00 0.  1.
         -2   -1    0    0    0  501 -0.00000000000E+00 -0.00000000000E+00 -0.52885112841E+00  0.52885112841E+00  0.00000000000E+00 0. -1.
          1    1    1    2  502    0  0.20836464340E+02  0.44114110561E+01  0.26732148632E+03  0.26816859593E+03  0.00000000000E+00 0. -1.
         -1    1    1    2    0  501 -0.20836464340E+02 -0.44114110561E+01  0.10768999941E+04  0.10771105868E+04  0.00000000000E+00 0.  1.
</event>
<event>
 4    1  0.6754235E+001  0.2038292E+02  0.7546771E-02  0.1528260E+00
          2   -1    0    0  502    0  0.00000000000E+00  0.00000000000E+00  0.77101472170E+03  0.77101472170E+03  0.00000000000E+00 0. -1.
         -2   -1    0    0    0  501 -0.00000000000E+00 -0.00000000000E+00 -0.54403056401E+00  0.54403056401E+00  0.00000000000E+00 0.  1.
          1    1    1    2  502    0  0.12333464011E+02 -0.16228040146E+02  0.34760062464E+03  0.34819772813E+03  0.00000000000E+00 0. -1.
         -1    1    1    2    0  501 -0.12333464011E+02  0.16228040146E+02  0.42287006649E+03  0.42336102413E+03  0.00000000000E+00 0.  1.
</event>
<event>
 4    1  0.6754235E+001  0.2625257E+02  0.7546771E-02  0.1455264E+00
          2   -1    0    0  502    0  0.00000000000E+00  0.00000000000E+00  0.19557450919E+02  0.19557450919E+02  0.00000000000E+00 0. -1.
         -2   -1    0    0    0  501 -0.00000000000E+00 -0.00000000000E+00 -0.35438055234E+02  0.35438055234E+02  0.00000000000E+00 0.  1.
          1    1    1    2  502    0  0.25779139682E+02  0.49631979397E+01 -0.99978898108E+01  0.28091905902E+02  0.00000000000E+00 0.  1.
         -1    1    1    2    0  501 -0.25779139682E+02 -0.49631979397E+01 -0.58827145034E+01  0.26903600251E+02  0.00000000000E+00 0. -1.
</event>
<event>
 4    1  0.6754235E+001  0.2442504E+02  0.7546771E-02  0.1475339E+00
          2   -1    0    0  502    0  0.00000000000E+00  0.00000000000E+00  0.18195569479E+01  0.18195569479E+01  0.00000000000E+00 0.  1.
         -2   -1    0    0    0  501 -0.00000000000E+00 -0.00000000000E+00 -0.49450956687E+03  0.49450956687E+03  0.00000000000E+00 0. -1.
          1    1    1    2  502    0  0.10357192365E+02 -0.22120376513E+02 -0.10228667999E+03  0.10516248093E+03  0.00000000000E+00 0.  1.
         -1    1    1    2    0  501 -0.10357192365E+02  0.22120376513E+02 -0.39040332993E+03  0.39116664289E+03  0.00000000000E+00 0. -1.
</event>
<event>
 4    1  0.6754235E+001  0.2787430E+02  0.7546771E-02  0.1439018E+00
          2   -1    0    0  502    0  0.00000000000E+00  0.00000000000E+00  0.13701170724E+02  0.13701170724E+02  0.00000000000E+00 0.  1.
         -2   -1    0    0    0  501 -0.00000000000E+00 -0.00000000000E+00 -0.66314247787E+02  0.66314247787E+02  0.00000000000E+00 0. -1.
          1    1    1    2  502    0 -0.21318877843E+02 -0.17957785632E+02 -0.11080054933E+02  0.29995736940E+02  0.00000000000E+00 0.  1.
         -1    1    1    2    0  501  0.21318877843E+02  0.17957785632E+02 -0.41533022129E+02  0.50019681571E+02  0.00000000000E+00 0. -1.
</event>
<event>
 4    1  0.6754235E+001  0.4772749E+02  0.7546771E-02  0.1308338E+00
          2   -1    0    0  502    0  0.00000000000E+00  0.00000000000E+00  0.21845561723E+02  0.21845561723E+02  0.00000000000E+00 0.  1.
         -2   -1    0    0    0  501 -0.00000000000E+00 -0.00000000000E+00 -0.10477442613E+03  0.10477442613E+03  0.00000000000E+00 0. -1.
          1    1    1    2  502    0  0.40290028095E+02 -0.25585687612E+02 -0.45841866950E+02  0.66176963816E+02  0.00000000000E+00 0. -1.
         -1    1    1    2    0  501 -0.40290028095E+02  0.25585687612E+02 -0.37086997459E+02  0.60443024039E+02  0.00000000000E+00 0.  1.
</event>
<event>
 4    1  0.6754235E+001  0.2032184E+02  0.7546771E-02  0.1529171E+00
          2   -1    0    0  502    0  0.00000000000E+00  0.00000000000E+00  0.78022347439E+01  0.78022347439E+01  0.00000000000E+00 0. -1.
         -2   -1    0    0    0  501 -0.00000000000E+00 -0.00000000000E+00 -0.83992326878E+02  0.83992326878E+02  0.00000000000E+00 0.  1.
          1    1    1    2  502    0  0.76987990345E+01  0.18807061712E+02 -0.10183759906E+02  0.22730729039E+02  0.00000000000E+00 0. -1.
         -1    1    1    2    0  501 -0.76987990345E+01 -0.18807061712E+02 -0.66006332228E+02  0.69063832583E+02  0.00000000000E+00 0.  1.
</event>
<event>
 4    1  0.6754235E+001  0.2084114E+02  0.7546771E-02  0.1521545E+00
          2   -1    0    0  502    0  0.00000000000E+00  0.00000000000E+00  0.34490642386E+01  0.34490642386E+01  0.00000000000E+00 0.  1.
         -2   -1    0    0    0  501 -0.00000000000E+00 -0.00000000000E+00 -0.12835302245E+03  0.12835302245E+03  0.00000000000E+00 0. -1.
          1    1    1    2  502    0 -0.15353273282E+02  0.14093612750E+02 -0.71499907104E+02  0.74475429752E+02  0.00000000000E+00 0. -1.
         -1    1    1    2    0  501  0.15353273282E+02 -0.14093612750E+02 -0.53404051104E+02  0.57326656933E+02  0.00000000000E+00 0.  1.
</event>
<event>
 4    1  0.6754235E+001  0.3388068E+02  0.7546771E-02  0.1388608E+00
          2   -1    0    0  502    0  0.00000000000E+00  0.00000000000E+00  0.13031761325E+03  0.13031761325E+03  0.00000000000E+00 0. -1.
         -2   -1    0    0    0  501 -0.00000000000E+00 -0.00000000000E+00 -0.88582085828E+01  0.88582085828E+01  0.00000000000E+00 0.  1.
          1    1    1    2  502    0  0.24900908051E+02 -0.22974876314E+02  0.55515817571E+02  0.65037728773E+02  0.00000000000E+00 0.  1.
         -1    1    1    2    0  501 -0.24900908051E+02  0.22974876314E+02  0.65943587098E+02  0.74138093061E+02  0.00000000000E+00 0. -1.
</event>
<event>
 4    1  0.6754235E+001  0.2349066E+02  0.7546771E-02  0.1486427E+00
          2   -1    0    0  502    0  0.00000000000E+00  0.00000000000E+00  0.44339323152E+02  0.44339323152E+02  0.00000000000E+00 0.  1.
         -2   -1    0    0    0  501 -0.00000000000E+00 -0.00000000000E+00 -0.13750822056E+02  0.13750822056E+02  0.00000000000E+00 0. -1.
          1    1    1    2  502    0  0.22836811268E+02  0.55037488801E+01  0.63443354695E+01  0.24332319930E+02  0.00000000000E+00 0.  1.
         -1    1    1    2    0  501 -0.22836811268E+02 -0.55037488801E+01  0.24244165626E+02  0.33757825278E+02  0.00000000000E+00 0. -1.
</event>
<event>
 4    1  0.6754235E+001  0.2072611E+02  0.7546771E-02  0.1523211E+00
          2   -1    0    0  502    0  0.00000000000E+00  0.00000000000E+00  0.97467839261E+01  0.97467839261E+01  0.00000000000E+00 0.  1.
         -2   -1    0    0    0  501 -0.00000000000E+00 -0.00000000000E+00 -0.44573404676E+02  0.44573404676E+02  0.00000000000E+00 0. -1.
          1    1    1    2  502    0  0.19961434299E+02  0.55778728425E+01 -0.20290619415E+02  0.29004840303E+02  0.00000000000E+00 0.  1.
         -1    1    1    2    0  501 -0.19961434299E+02 -0.55778728425E+01 -0.14536001335E+02  0.25315348299E+02  0.00000000000E+00 0. -1.
</event>
<event>
 4    1  0.6754235E+001  0.2248637E+02  0.7546771E-02  0.1499051E+00
          2   -1    0    0  502    0  0.00000000000E+00  0.00000000000E+00  0.14136194280E+04  0.14136194280E+04  0.00000000000E+00 0.  1.
         -2   -1    0    0    0  501 -0.00000000000E+00 -0.00000000000E+00 -0.38988603250E+00  0.38988603250E+00  0.00000000000E+00 0. -1.
          1    1    1    2  502    0  0.20090261161E+02 -0.10100406064E+02  0.90978409273E+03  0.91006193865E+03  0.00000000000E+00 0.  1.
         -1    1    1    2    0  501 -0.20090261161E+02  0.10100406064E+02  0.50344544920E+03  0.50394737535E+03  0.00000000000E+00 0. -1.
</event>
<event>
 4    1  0.6754235E+001  0.3431749E+02  0.7546771E-02  0.1385426E+00
          2   -1    0    0  502    0  0.00000000000E+00  0.00000000000E+00  0.23456481642E+04  0.23456481642E+04  0.00000000000E+00 0.  1.
         -2   -1    0    0    0  501 -0.00000000000E+00 -0.00000000000E+00 -0.57053952888E+00  0.57053952888E+00  0.00000000000E+00 0. -1.
          1    1    1    2  502    0 -0.32165483654E+02 -0.11961255771E+02  0.76616077429E+03  0.76692895502E+03  0.00000000000E+00 0. -1.
         -1    1    1    2    0  501  0.32165483654E+02  0.11961255771E+02  0.15789168504E+04  0.15792897487E+04  0.00000000000E+00 0.  1.
</event>
<event>
 4    1  0.6754235E+001  0.2218267E+02  0.7546771E-02  0.1503025E+00
          2   -1    0    0  502    0  0.00000000000E+00  0.00000000000E+00  0.29227668852E+03  0.29227668852E+03  0.00000000000E+00 0. -1.
         -2   -1    0    0    0  501 -0.00000000000E+00 -0.00000000000E+00 -0.27372441060E+01  0.27372441060E+01  0.00000000000E+00 0.  1.
          1    1    1    2  502    0  0.19779280389E+02  0.10042449939E+02  0.53251583389E+02  0.57687103125E+02  0.00000000000E+00 0.  1.
         -1    1    1    2    0  501 -0.19779280389E+02 -0.10042449939E+02  0.23628786102E+03  0.23732682950E+03  0.00000000000E+00 0. -1.
</event>
<event>
 4    1  0.6754235E+001  0.4792637E+02  0.7546771E-02  0.1307422E+00
          2   -1    0    0  502    0  0.00000000000E+00  0.00000000000E+00  0.46593599757E+03  0.46593599757E+03  0.00000000000E+00 0.  1.
         -2   -1    0    0    0  501 -0.00000000000E+00 -0.00000000000E+00 -0.98821972669E+01  0.98821972669E+01  0.00000000000E+00 0. -1.
          1    1    1    2  502    0  0.24817001338E+01 -0.47862075332E+02  0.39644751363E+03  0.39933390559E+03  0.00000000000E+00 0.  1.
         -1    1    1    2    0  501 -0.24817001338E+01  0.47862075332E+02  0.59606286674E+02  0.76484289248E+02  0.00000000000E+00 0. -1.
</event>
<event>
 4    1  0.6754235E+001  0.2974163E+02  0.7546771E-02  0.1421855E+00
          2   -1    0    0  502    0  0.00000000000E+00  0.00000000000E+00  0.92412559716E+03  0.92412559716E+03  0.00000000000E+00 0.  1.
         -2   -1    0    0    0  501 -0.00000000000E+00 -0.00000000000E+00 -0.10845046144E+01  0.10845046144E+01  0.00000000000E+00 0. -1.
          1    1    1    2  502    0 -0.47669923485E+01 -0.29357114488E+02  0.62002179125E+03  0.62073471468E+03  0.00000000000E+00 0.  1.
         -1    1    1    2    0  501  0.47669923485E+01  0.29357114488E+02  0.30301930130E+03  0.30447538710E+03  0.00000000000E+00 0. -1.
</event>
<event>
 4    1  0.6754235E+001  0.2132494E+02  0.7546771E-02  0.1514676E+00
          2   -1    0    0  502    0  0.00000000000E+00  0.00000000000E+00  0.73482393366E+02  0.73482393366E+02  0.00000000000E+00 0. -1.
         -2   -1    0    0    0  501 -0.00000000000E+00 -0.00000000000E+00 -0.20286270746E+02  0.20286270746E+02  0.00000000000E+00 0.  1.
          1    1    1    2  502    0  0.46784649717E+01 -0.20805406528E+02  0.65682181536E+02  0.69057236744E+02  0.00000000000E+00 0. -1.
         -1    1    1    2    0  501 -0.46784649717E+01  0.20805406528E+02 -0.12486058917E+02  0.24711427368E+02  0.00000000000E+00 0.  1.
</event>
<event>
 4    1  0.6754235E+001  0.2719814E+02  0.7546771E-02  0.1445628E+00
          2   -1    0    0  502    0  0.00000000000E+00  0.00000000000E+00  0.20268024908E+04  0.20268024908E+04  0.00000000000E+00 0. -1.
         -2   -1    0    0    0  501 -0.00000000000E+00 -0.00000000000E+00 -0.44397863852E+00  0.44397863852E+00  0.00000000000E+00 0.  1.
          1    1    1    2  502    0  0.27150240358E+01  0.27062286939E+02  0.58560626519E+03  0.58623752572E+03  0.00000000000E+00 0.  1.
         -1    1    1    2    0  501 -0.27150240358E+01 -0.27062286939E+02  0.14407522469E+04  0.14410089437E+04  0.00000000000E+00 0. -1.
</event>
<event>
 4    1  0.6754235E+001  0.2469790E+02  0.7546771E-02  0.1472211E+00
          2   -1    0    0  502    0  0.00000000000E+00  0.00000000000E+00  0.33619882605E+01  0.33619882605E+01  0.00000000000E+00 0.  1.
         -2   -1    0    0    0  501 -0.00000000000E+00 -0.00000000000E+00 -0.26120228291E+03  0.26120228291E+03  0.00000000000E+00 0. -1.
          1    1    1    2  502    0  0.13308670832E+01  0.24662019679E+02 -0.55819401518E+02  0.61039266113E+02  0.00000000000E+00 0.  1.
         -1    1    1    2    0  501 -0.13308670832E+01 -0.24662019679E+02 -0.20202089313E+03  0.20352500506E+03  0.00000000000E+00 0. -1.
</event>
<event>
 4    1  0.6754235E+001  0.2147856E+02  0.7546771E-02  0.1512541E+00
          2   -1    0    0  502    0  0.00000000000E+00  0.00000000000E+00  0.32096864085E+01  0.32096864085E+01  0.00000000000E+00 0.  1.
         -2   -1    0    0    0  501 -0.00000000000E+00 -0.00000000000E+00 -0.15039178141E+03  0.15039178141E+03  0.00000000000E+00 0. -1.
          1    1    1    2  502    0  0.19933807825E+02 -0.79982381856E+01 -0.57427166141E+02  0.61312379822E+02  0.00000000000E+00 0.  1.
         -1    1    1    2    0  501 -0.19933807825E+02  0.79982381856E+01 -0.89754928861E+02  0.92289087997E+02  0.00000000000E+00 0. -1.
</event>
<event>
 4    1  0.6754235E+001  0.2921540E+02  0.7546771E-02  0.1426539E+00
          2   -1    0    0  502    0  0.00000000000E+00  0.00000000000E+00  0.23530113198E+03  0.23530113198E+03  0.00000000000E+00 0. -1.
         -2   -1    0    0    0  501 -0.00000000000E+00 -0.00000000000E+00 -0.67017591637E+01  0.67017591637E+01  0.00000000000E+00 0.  1.
          1    1    1    2  502    0 -0.14125838186E+02  0.25573424969E+02  0.19625385284E+03  0.19841651676E+03  0.00000000000E+00 0. -1.
         -1    1    1    2    0  501  0.14125838186E+02 -0.25573424969E+02  0.32345519969E+02  0.43586374375E+02  0.00000000000E+00 0.  1.
</event>
<event>
 4    1  0.6754235E+001  0.2277284E+02  0.7546771E-02  0.1495370E+00
          2   -1    0    0  502    0  0.00000000000E+00  0.00000000000E+00  0.91207803216E+03  0.91207803216E+03  0.00000000000E+00 0.  1.
         -2   -1    0    0    0  501 -0.00000000000E+00 -0.00000000000E+00 -0.57383058895E+00  0.57383058895E+00  0.00000000000E+00 0. -1.
          1    1    1    2  502    0 -0.18787514915E+02  0.12869798441E+02  0.49934266095E+03  0.49986167634E+03  0.00000000000E+00 0.  1.
         -1    1    1    2    0  501  0.18787514915E+02 -0.12869798441E+02  0.41216154062E+03  0.41279018641E+03  0.00000000000E+00 0. -1.
</event>
<event>
 4    1  0.6754235E+001  0.2217195E+02  0.7546771E-02  0.1503166E+00
          2   -1    0    0  502    0  0.00000000000E+00  0.00000000000E+00  0.37365198979E+01  0.37365198979E+01  0.00000000000E+00 0. -1.
         -2   -1    0    0    0  501 -0.00000000000E+00 -0.00000000000E+00 -0.13161273095E+03  0.13161273095E+03  0.00000000000E+00 0.  1.
          1    1    1    2  502    0 -0.17089773093E+02 -0.14125689586E+02 -0.65226120065E+02  0.68891524801E+02  0.00000000000E+00 0.  1.
         -1    1    1    2    0  501  0.17089773093E+02  0.14125689586E+02 -0.62650090982E+02  0.66457726042E+02  0.00000000000E+00 0. -1.
</event>
<event>
 4    1  0.6754235E+001  0.2103826E+02  0.7546771E-02  0.1518719E+00
          2   -1    0    0  502    0  0.00000000000E+00  0.00000000000E+00  0.15006174136E+04  0.15006174136E+04  0.00000000000E+00 0. -1.
         -2   -1    0    0    0  501 -0.00000000000E+00 -0.00000000000E+00 -0.23927308401E+01  0.23927308401E+01  0.00000000000E+00 0.  1.
          1    1    1    2  502    0 -0.92847302153E+01  0.18878620109E+02  0.45448957035E+02  0.50082094684E+02  0.00000000000E+00 0.  1.
         -1    1    1    2    0  501  0.92847302153E+01 -0.18878620109E+02  0.14527757258E+04  0.14529280498E+04  0.00000000000E+00 0. -1.
</event>
<event>
 4    1  0.6754235E+001  0.2121813E+02  0.7546771E-02  0.1516173E+00
          2   -1    0    0  502    0  0.00000000000E+00  0.00000000000E+00  0.88895905869E+03  0.88895905869E+03  0.00000000000E+00 0. -1.
         -2   -1    0    0    0  501 -0.00000000000E+00 -0.00000000000E+00 -0.69859920116E+00  0.69859920116E+00  0.00000000000E+00 0.  1.
          1    1    1    2  502    0 -0.16167864733E+02  0.13740784266E+02  0.67742427722E+03  0.67775649047E+03  0.00000000000E+00 0. -1.
         -1    1    1    2    0  501  0.16167864733E+02 -0.13740784266E+02  0.21083618226E+03  0.21190116742E+03  0.00000000000E+00 0.  1.
</event>
<event>
 4    1  0.6754235E+001  0.2123565E+02  0.7546771E-02  0.1515927E+00
          2   -1    0    0  502    0  0.00000000000E+00  0.00000000000E+00  0.55297941965E+02  0.55297941965E+02  0.00000000000E+00 0. -1.
         -2   -1    0    0    0  501 -0.00000000000E+00 -0.00000000000E+00 -0.12102566577E+02  0.12102566577E+02  0.00000000000E+00 0.  1.
          1    1    1    2  502    0  0.58189375330E+00 -0.21227675734E+02  0.40844599596E+02  0.46035140204E+02  0.00000000000E+00 0. -1.
         -1    1    1    2    0  501 -0.58189375330E+00  0.21227675734E+02  0.23507757916E+01  0.21365368338E+02  0.00000000000E+00 0.  1.
</event>
<event>
 4    1  0.6754235E+001  0.2278399E+02  0.7546771E-02  0.1495229E+00
          2   -1    0    0  502    0  0.00000000000E+00  0.00000000000E+00  0.71437135484E+01  0.71437135484E+01  0.00000000000E+00 0. -1.
         -2   -1    0    0    0  501 -0.00000000000E+00 -0.00000000000E+00 -0.92157884584E+02  0.92157884584E+02  0.00000000000E+00 0.  1.
          1    1    1    2  502    0 -0.20340501364E+02 -0.10265183267E+02 -0.19673228553E+02  0.30102257472E+02  0.00000000000E+00 0. -1.
         -1    1    1    2    0  501  0.20340501364E+02  0.10265183267E+02 -0.65340942483E+02  0.69199340660E+02  0.00000000000E+00 0.  1.
</event>
<event>
 4    1  0.6754235E+001  0.4740944E+02  0.7546771E-02  0.1309813E+00
          2   -1    0    0  502    0  0.00000000000E+00  0.00000000000E+00  0.58977795635E+02  0.58977795635E+02  0.00000000000E+00 0. -1.
         -2   -1    0    0    0  501 -0.00000000000E+00 -0.00000000000E+00 -0.51277626233E+02  0.51277626233E+02  0.00000000000E+00 0.  1.
          1    1    1    2  502    0 -0.30004597441E+02 -0.36706668184E+02  0.31785588944E+02  0.57078709002E+02  0.00000000000E+00 0.  1.
         -1    1    1    2    0  501  0.30004597441E+02  0.36706668184E+02 -0.24085419542E+02  0.53176712867E+02  0.00000000000E+00 0. -1.
</event>
<event>
 4    1  0.6754235E+001  0.2693441E+02  0.7546771E-02  0.1448268E+00
          2   -1    0    0  502    0  0.00000000000E+00  0.00000000000E+00  0.36808051036E+03  0.36808051036E+03  0.00000000000E+00 0.  1.
         -2   -1    0    0    0  501 -0.00000000000E+00 -0.00000000000E+00 -0.20968208168E+01  0.20968208168E+01  0.00000000000E+00 0. -1.
          1    1    1    2  502    0  0.23947023695E+02 -0.12328926460E+02  0.13764058145E+03  0.14025117480E+03  0.00000000000E+00 0. -1.
         -1    1    1    2    0  501 -0.23947023695E+02  0.12328926460E+02  0.22834310810E+03  0.22992615638E+03  0.00000000000E+00 0.  1.
</event>
<event>
 4    1  0.6754235E+001  0.2516982E+02  0.7546771E-02  0.1466912E+00
          2   -1    0    0  502    0  0.00000000000E+00  0.00000000000E+00  0.21151362630E+03  0.21151362630E+03  0.00000000000E+00 0. -1.
         -2   -1    0    0    0  501 -0.00000000000E+00 -0.00000000000E+00 -0.32821903720E+01  0.32821903720E+01  0.00000000000E+00 0.  1.
          1    1    1    2  502    0 -0.13283557470E+02  0.21379126329E+02  0.72356639541E+02  0.76609419964E+02  0.00000000000E+00 0.  1.
         -1    1    1    2    0  501  0.13283557470E+02 -0.21379126329E+02  0.13587479639E+03  0.13818639671E+03  0.00000000000E+00 0. -1.
</event>
<event>
 4    1  0.6754235E+001  0.2518929E+02  0.7546771E-02  0.1466697E+00
          2   -1    0    0  502    0  0.00000000000E+00  0.00000000000E+00  0.55158263902E+00  0.55158263902E+00  0.00000000000E+00 0.  1.
         -2   -1    0    0    0  501 -0.00000000000E+00 -0.00000000000E+00 -0.13702039833E+04  0.13702039833E+04  0.00000000000E+00 0. -1.
          1    1    1    2  502    0 -0.21050507258E+02  0.13833883820E+02 -0.41027227231E+03  0.41104481218E+03  0.00000000000E+00 0. -1.
         -1    1    1    2    0  501  0.21050507258E+02 -0.13833883820E+02 -0.95938012839E+03  0.95971075379E+03  0.00000000000E+00 0.  1.
</event>
<event>
 4    1  0.6754235E+001  0.3233907E+02  0.7546771E-02  0.1400302E+00
          2   -1    0    0  502    0  0.00000000000E+00  0.00000000000E+00  0.32883199437E+02  0.32883199437E+02  0.00000000000E+00 0.  1.
         -2   -1    0    0    0  501 -0.00000000000E+00 -0.00000000000E+00 -0.33619446365E+02  0.33619446365E+02  0.00000000000E+00 0. -1.
          1    1    1    2  502    0 -0.32234294712E+02 -0.26011186875E+01 -0.80951347744E+01  0.33336868194E+02  0.00000000000E+00 0. -1.
         -1    1    1    2    0  501  0.32234294712E+02  0.26011186875E+01  0.73588878468E+01  0.33165777608E+02  0.00000000000E+00 0.  1.
</event>
<event>
 4    1  0.6754235E+001  0.2636019E+02  0.7546771E-02  0.1454143E+00
          2   -1    0    0  502    0  0.00000000000E+00  0.00000000000E+00  0.37578364435E+03  0.37578364435E+03  0.00000000000E+00 0. -1.
         -2   -1    0    0    0  501 -0.00000000000E+00 -0.00000000000E+00 -0.53367539508E+01  0.53367539508E+01  0.00000000000E+00 0.  1.
          1    1    1    2  502    0 -0.26283793621E+02  0.20054548296E+01  0.33927305871E+03  0.34029555980E+03  0.00000000000E+00 0. -1.
         -1    1    1    2    0  501  0.26283793621E+02 -0.20054548296E+01  0.31173831695E+02  0.40824838502E+02  0.00000000000E+00 0.  1.
</event>
<event>
 4    1  0.6754235E+001  0.2216332E+02  0.7546771E-02  0.1503280E+00
          2   -1    0    0  502    0  0.00000000000E+00  0.00000000000E+00  0.38173495051E+03  0.38173495051E+03  0.00000000000E+00 0.  1.
         -2   -1    0    0    0  501 -0.00000000000E+00 -0.00000000000E+00 -0.15213466722E+01  0.15213466722E+01  0.00000000000E+00 0. -1.
          1    1    1    2  502    0  0.13885968780E+02 -0.17274043898E+02  0.11486328372E+03  0.11698199293E+03  0.00000000000E+00 0. -1.
         -1    1    1    2    0  501 -0.13885968780E+02  0.17274043898E+02  0.26535032012E+03  0.26627430426E+03  0.00000000000E+00 0.  1.
</event>
<event>
 4    1  0.6754235E+001  0.2356100E+02  0.7546771E-02  0.1485571E+00
          2   -1    0    0  502    0  0.00000000000E+00  0.00000000000E+00  0.10958148957E+04  0.10958148957E+04  0.00000000000E+00 0.  1.
         -2   -1    0    0    0  501 -0.00000000000E+00 -0.00000000000E+00 -0.65635280846E+00  0.65635280846E+00  0.00000000000E+00 0. -1.
          1    1    1    2  502    0  0.23374989961E+02 -0.29547757195E+01  0.28569394320E+03  0.28666382757E+03  0.00000000000E+00 0. -1.
         -1    1    1    2    0  501 -0.23374989961E+02  0.29547757195E+01  0.80946459973E+03  0.80980742097E+03  0.00000000000E+00 0.  1.
</event>
<event>
 4    1  0.6754235E+001  0.2457691E+02  0.7546771E-02  0.1473592E+00
          2   -1    0    0  502    0  0.00000000000E+00  0.00000000000E+00  0.95408754585E+02  0.95408754585E+02  0.00000000000E+00 0.  1.
         -2   -1    0    0    0  501 -0.00000000000E+00 -0.00000000000E+00 -0.69036295074E+01  0.69036295074E+01  0.00000000000E+00 0. -1.
          1    1    1    2  502    0  0.22497961400E+02 -0.98927361077E+01  0.29518264848E+02  0.38410317032E+02  0.00000000000E+00 0. -1.
         -1    1    1    2    0  501 -0.22497961400E+02  0.98927361077E+01  0.58986860230E+02  0.63902067061E+02  0.00000000000E+00 0.  1.
</event>
<event>
 4    1  0.6754235E+001  0.3863485E+02  0.7546771E-02  0.1356677E+00
          2   -1    0    0  502    0  0.00000000000E+00  0.00000000000E+00  0.29874031679E+01  0.29874031679E+01  0.00000000000E+00 0. -1.
         -2   -1    0    0    0  501 -0.00000000000E+00 -0.00000000000E+00 -0.50843804664E+03  0.50843804664E+03  0.00000000000E+00 0.  1.
          1    1    1    2  502    0 -0.82715398351E+01 -0.37739011999E+02 -0.21910378977E+03  0.22248398164E+03  0.00000000000E+00 0. -1.
         -1    1    1    2    0  501  0.82715398351E+01  0.37739011999E+02 -0.28634685371E+03  0.28894146817E+03  0.00000000000E+00 0.  1.
</event>
<event>
 4    1  0.6754235E+001  0.2227816E+02  0.7546771E-02  0.1501767E+00
          2   -1    0    0  502    0  0.00000000000E+00  0.00000000000E+00  0.40917795839E+02  0.40917795839E+02  0.00000000000E+00 0. -1.
         -2   -1    0    0    0  501 -0.00000000000E+00 -0.00000000000E+00 -0.18659722826E+02  0.18659722826E+02  0.00000000000E+00 0.  1.
          1    1    1    2  502    0  0.10244499524E+02  0.19782991338E+02  0.28751250875E+02  0.36372392603E+02  0.00000000000E+00 0. -1.
         -1    1    1    2    0  501 -0.10244499524E+02 -0.19782991338E+02 -0.64931778624E+01  0.23205126062E+02  0.00000000000E+00 0.  1.
</event>
<event>
 4    1  0.6754235E+001  0.3300783E+02  0.7546771E-02  0.1395137E+00
          2   -1    0    0  502    0  0.00000000000E+00  0.00000000000E+00  0.48011858276E+02  0.48011858276E+02  0.00000000000E+00 0. -1.
         -2   -1    0    0    0  501 -0.00000000000E+00 -0.00000000000E+00 -0.24514208596E+02  0.24514208596E+02  0.00000000000E+00 0.  1.
          1    1    1    2  502    0 -0.60678083066E+01  0.32445317488E+02  0.21633791379E+02  0.39465654105E+02  0.00000000000E+00 0.  1.
         -1    1    1    2    0  501  0.60678083066E+01 -0.32445317488E+02  0.18638583012E+01  0.33060412766E+02  0.00000000000E+00 0. -1.
</event>
<event>
 4    1  0.6754235E+001  0.2158840E+02  0.7546771E-02  0.1511027E+00
          2   -1    0    0  502    0  0.00000000000E+00  0.00000000000E+00  0.12632441308E+01  0.12632441308E+01  0.00000000000E+00 0.  1.
         -2   -1    0    0    0  501 -0.00000000000E+00 -0.00000000000E+00 -0.37011251889E+03  0.37011251889E+03  0.00000000000E+00 0. -1.
          1    1    1    2  502    0  0.30059503654E+01  0.21378103777E+02 -0.19488395654E+03  0.19607604538E+03  0.00000000000E+00 0.  1.
         -1    1    1    2    0  501 -0.30059503654E+01 -0.21378103777E+02 -0.17396531822E+03  0.17529971763E+03  0.00000000000E+00 0. -1.
</event>
<event>
 4    1  0.6754235E+001  0.2251933E+02  0.7546771E-02  0.1498624E+00
          2   -1    0    0  502    0  0.00000000000E+00  0.00000000000E+00  0.16395711608E+02  0.16395711608E+02  0.00000000000E+00 0. -1.
         -2   -1    0    0    0  501 -0.00000000000E+00 -0.00000000000E+00 -0.51522530012E+02  0.51522530012E+02  0.00000000000E+00 0.  1.
          1    1    1    2  502    0 -0.11969213352E+02  0.19075066464E+02 -0.39032425343E+02  0.45062739121E+02  0.00000000000E+00 0.  1.
         -1    1    1    2    0  501  0.11969213352E+02 -0.19075066464E+02  0.39056069401E+01  0.22855502499E+02  0.00000000000E+00 0. -1.
</event>
<event>
 4    1  0.6754235E+001  0.2716944E+02  0.7546771E-02  0.1445913E+00
          2   -1    0    0  502    0  0.00000000000E+00  0.00000000000E+00  0.20358960187E+03  0.20358960187E+03  0.00000000000E+00 0. -1.
         -2   -1    0    0    0  501 -0.00000000000E+00 -0.00000000000E+00 -0.43596529983E+01  0.43596529983E+01  0.00000000000E+00 0.  1.
          1    1    1    2  502    0  0.83597125418E+01 -0.25851377816E+02  0.14227303222E+03  0.14484403414E+03  0.00000000000E+00 0. -1.
         -1    1    1    2    0  501 -0.83597125418E+01  0.25851377816E+02  0.56956916651E+02  0.63105220728E+02  0.00000000000E+00 0.  1.
</event>
<event>
 4    1  0.6754235E+001  0.2441328E+02  0.7546771E-02  0.1475475E+00
          2   -1    0    0  502    0  0.00000000000E+00  0.00000000000E+00  0.38650401631E+02  0.38650401631E+02  0.00000000000E+00 0.  1.
         -2   -1    0    0    0  501 -0.00000000000E+00 -0.00000000000E+00 -0.66383787248E+02  0.66383787248E+02  0.00000000000E+00 0. -1.
          1    1    1    2  502    0 -0.24747711404E+01  0.24287524156E+02 -0.59881585733E+02  0.64666936155E+02  0.00000000000E+00 0. -1.
         -1    1    1    2    0  501  0.24747711404E+01 -0.24287524156E+02  0.32148200115E+02  0.40367252724E+02  0.00000000000E+00 0.  1.
</event>
<event>
 4    1  0.6754235E+001  0.2011086E+02  0.7546771E-02  0.1532348E+00
          2   -1    0    0  502    0  0.00000000000E+00  0.00000000000E+00  0.16363517829E+04  0.16363517829E+04  0.00000000000E+00 0. -1.
         -2   -1    0    0    0  501 -0.00000000000E+00 -0.00000000000E+00 -0.24933953021E+00  0.24933953021E+00  0.00000000000E+00 0.  1.
          1    1    1    2  502    0  0.12320303178E+02 -0.15895179489E+02  0.89449453900E+03  0.89472058594E+03  0.00000000000E+00 0. -1.
         -1    1    1    2    0  501 -0.12320303178E+02  0.15895179489E+02  0.74160790436E+03  0.74188053648E+03  0.00000000000E+00 0.  1.
</event>
<event>
 4    1  0.6754235E+001  0.1058427E+03  0.7546771E-02  0.1154051E+00
          2   -1    0    0  502    0  0.00000000000E+00  0.00000000000E+00  0.14578596027E+03  0.14578596027E+03  0.00000000000E+00 0.  1.
         -2   -1    0    0    0  501 -0.00000000000E+00 -0.00000000000E+00 -0.78150653802E+02  0.78150653802E+02  0.00000000000E+00 0. -1.
          1    1    1    2  502    0  0.69318183857E+02  0.79985461505E+02  0.19336153536E+02  0.10759447708E+03  0.00000000000E+00 0. -1.
         -1    1    1    2    0  501 -0.69318183857E+02 -0.79985461505E+02  0.48299152934E+02  0.11634213699E+03  0.00000000000E+00 0.  1.
</event>
<event>
 4    1  0.6754235E+001  0.2024777E+02  0.7546771E-02  0.1530281E+00
          2   -1    0    0  502    0  0.00000000000E+00  0.00000000000E+00  0.48698971254E+02  0.48698971254E+02  0.00000000000E+00 0.  1.
         -2   -1    0    0    0  501 -0.00000000000E+00 -0.00000000000E+00 -0.11061587893E+02  0.11061587893E+02  0.00000000000E+00 0. -1.
          1    1    1    2  502    0  0.19102026739E+02 -0.67145214058E+01  0.42126736028E+01  0.20681364610E+02  0.00000000000E+00 0. -1.
         -1    1    1    2    0  501 -0.19102026739E+02  0.67145214058E+01  0.33424709758E+02  0.39079194537E+02  0.00000000000E+00 0.  1.
</event>
<event>
 4    1  0.6754235E+001  0.3477585E+02  0.7546771E-02  0.1382146E+00
          2   -1    0    0  502    0  0.00000000000E+00  0.00000000000E+00  0.14283506400E+04  0.14283506400E+04  0.00000000000E+00 0. -1.
         -2   -1    0    0    0  501 -0.00000000000E+00 -0.00000000000E+00 -0.10385820966E+01  0.10385820966E+01  0.00000000000E+00 0.  1.
          1    1    1    2  502    0  0.31733972908E+02  0.14223747011E+02  0.40644506807E+03  0.40793008393E+03  0.00000000000E+00 0.  1.
         -1    1    1    2    0  501 -0.31733972908E+02 -0.14223747011E+02  0.10208669899E+04  0.10214591382E+04  0.00000000000E+00 0. -1.
</event>
<event>
 4    1  0.6754235E+001  0.2292349E+02  0.7546771E-02  0.1493461E+00
          2   -1    0    0  502    0  0.00000000000E+00  0.00000000000E+00  0.45858984181E+02  0.45858984181E+02  0.00000000000E+00 0. -1.
         -2   -1    0    0    0  501 -0.00000000000E+00 -0.00000000000E+00 -0.27233234898E+02  0.27233234898E+02  0.00000000000E+00 0.  1.
          1    1    1    2  502    0 -0.20983146838E+02 -0.92300508244E+01  0.37127244966E+02  0.43633915802E+02  0.00000000000E+00 0. -1.
         -1    1    1    2    0  501  0.20983146838E+02  0.92300508244E+01 -0.18501495683E+02  0.29458303277E+02  0.00000000000E+00 0.  1.
</event>
<event>
 4    1  0.6754235E+001  0.3717011E+02  0.7546771E-02  0.1365917E+00
          2   -1    0    0  502    0  0.00000000000E+00  0.00000000000E+00  0.33886727214E+04  0.33886727214E+04  0.00000000000E+00 0.  1.
         -2   -1    0    0    0  501 -0.00000000000E+00 -0.00000000000E+00 -0.47705855977E+00  0.47705855977E+00  0.00000000000E+00 0. -1.
          1    1    1    2  502    0  0.28950631922E+02 -0.23312614684E+02  0.23401594285E+04  0.23404546071E+04  0.00000000000E+00 0. -1.
         -1    1    1    2    0  501 -0.28950631922E+02  0.23312614684E+02  0.10480362343E+04  0.10486951728E+04  0.00000000000E+00 0.  1.
</event>
<event>
 4    1  0.6754235E+001  0.2517812E+02  0.7546771E-02  0.1466820E+00
          2   -1    0    0  502    0  0.00000000000E+00  0.00000000000E+00  0.46615064906E+01  0.46615064906E+01  0.00000000000E+00 0.  1.
         -2   -1    0    0    0  501 -0.00000000000E+00 -0.00000000000E+00 -0.14016581903E+03  0.14016581903E+03  0.00000000000E+00 0. -1.
          1    1    1    2  502    0  0.12695861914E+02  0.21742884818E+02 -0.80244692418E+02  0.84102013122E+02  0.00000000000E+00 0. -1.
         -1    1    1    2    0  501 -0.12695861914E+02 -0.21742884818E+02 -0.55259620122E+02  0.60725312399E+02  0.00000000000E+00 0.  1.
</event>
<event>
 4    1  0.6754235E+001  0.2055592E+02  0.7546771E-02  0.1525701E+00
          2   -1    0    0  502    0  0.00000000000E+00  0.00000000000E+00  0.19397215301E+01  0.19397215301E+01  0.00000000000E+00 0. -1.
         -2   -1    0    0    0  501 -0.00000000000E+00 -0.00000000000E+00 -0.26165261446E+03  0.26165261446E+03  0.00000000000E+00 0.  1.
          1    1    1    2  502    0  0.13336461805E+02 -0.15642397557E+02 -0.18378860584E+03  0.18493457614E+03  0.00000000000E+00 0.  1.
         -1    1    1    2    0  501 -0.13336461805E+02  0.15642397557E+02 -0.75924287088E+02  0.78657759850E+02  0.00000000000E+00 0. -1.
</event>
<event>
 4    1  0.6754235E+001  0.2627942E+02  0.7546771E-02  0.1454984E+00
          2   -1    0    0  502    0  0.00000000000E+00  0.00000000000E+00  0.12431170584E+04  0.12431170584E+04  0.00000000000E+00 0. -1.
         -2   -1    0    0    0  501 -0.00000000000E+00 -0.00000000000E+00 -0.73999087942E+00  0.73999087942E+00  0.00000000000E+00 0.  1.
          1    1    1    2  502    0  0.23875581682E+02  0.10980197638E+02  0.31068887130E+03  0.31179830482E+03  0.00000000000E+00 0.  1.
         -1    1    1    2    0  501 -0.23875581682E+02 -0.10980197638E+02  0.93168819620E+03  0.93205874444E+03  0.00000000000E+00 0. -1.
</event>
<event>
 4    1  0.6754235E+001  0.6322806E+02  0.7546771E-02  0.1249242E+00
          2   -1    0    0  502    0  0.00000000000E+00  0.00000000000E+00  0.16578363163E+04  0.16578363163E+04  0.00000000000E+00 0.  1.
         -2   -1    0    0    0  501 -0.00000000000E+00 -0.00000000000E+00 -0.30146316103E+01  0.30146316103E+01  0.00000000000E+00 0. -1.
          1    1    1    2  502    0 -0.30168434013E+02  0.55566651830E+02  0.45595426055E+03  0.46031736326E+03  0.00000000000E+00 0. -1.
         -1    1    1    2    0  501  0.30168434013E+02 -0.55566651830E+02  0.11988674241E+04  0.12005335847E+04  0.00000000000E+00 0.  1.
</event>
<event>
 4    1  0.6754235E+001  0.2724408E+02  0.7546771E-02  0.1445172E+00
          2   -1    0    0  502    0  0.00000000000E+00  0.00000000000E+00  0.23728312636E+01  0.23728312636E+01  0.00000000000E+00 0. -1.
         -2   -1    0    0    0  501 -0.00000000000E+00 -0.00000000000E+00 -0.40831528054E+03  0.40831528054E+03  0.00000000000E+00 0.  1.
          1    1    1    2  502    0 -0.42304910080E+01  0.26913614180E+02 -0.30228361612E+03  0.30350885367E+03  0.00000000000E+00 0.  1.
         -1    1    1    2    0  501  0.42304910080E+01 -0.26913614180E+02 -0.10365883316E+03  0.10717925814E+03  0.00000000000E+00 0. -1.
</event>
<event>
 4    1  0.6754235E+001  0.3475737E+02  0.7546771E-02  0.1382277E+00
          2   -1    0    0  502    0  0.00000000000E+00  0.00000000000E+00  0.61346243104E+03  0.61346243104E+03  0.00000000000E+00 0. -1.
         -2   -1    0    0    0  501 -0.00000000000E+00 -0.00000000000E+00 -0.33050864706E+01  0.33050864706E+01  0.00000000000E+00 0.  1.
          1    1    1    2  502    0  0.16869939659E+02 -0.30388812501E+02  0.10902587191E+03  0.11443214380E+03  0.00000000000E+00 0.  1.
         -1    1    1    2    0  501 -0.16869939659E+02  0.30388812501E+02  0.50113147266E+03  0.50233537371E+03  0.00000000000E+00 0. -1.
</event>
<event>
 4    1  0.6754235E+001  0.2392105E+02  0.7546771E-02  0.1481245E+00
          2   -1    0    0  502    0  0.00000000000E+00  0.00000000000E+00  0.35226447001E+02  0.35226447001E+02  0.00000000000E+00 0.  1.
         -2   -1    0    0    0  501 -0.00000000000E+00 -0.00000000000E+00 -0.26044187648E+02  0.26044187648E+02  0.00000000000E+00 0. -1.
          1    1    1    2  502    0  0.18473132532E+02  0.15197364215E+02 -0.14201405263E+02  0.27818993800E+02  0.00000000000E+00 0. -1.
         -1    1    1    2    0  501 -0.18473132532E+02 -0.15197364215E+02  0.23383664616E+02  0.33451640849E+02  0.00000000000E+00 0.  1.
</event>
<event>
 4    1  0.6754235E+001  0.2086690E+02  0.7546771E-02  0.1521174E+00
          2   -1    0    0  502    0  0.00000000000E+00  0.00000000000E+00  0.12057402663E+04  0.12057402663E+04  0.00000000000E+00 0.  1.
         -2   -1    0    0    0  501 -0.00000000000E+00 -0.00000000000E+00 -0.36112920493E+00  0.36112920493E+00  0.00000000000E+00 0. -1.
          1    1    1    2  502    0  0.19833388427E+02  0.64856871354E+01  0.60339130902E+03  0.60375201799E+03  0.00000000000E+00 0. -1.
         -1    1    1    2    0  501 -0.19833388427E+02 -0.64856871354E+01  0.60198782806E+03  0.60234937749E+03  0.00000000000E+00 0.  1.
</event>
<event>
 4    1  0.6754235E+001  0.3111105E+02  0.7546771E-02  0.1410181E+00
          2   -1    0    0  502    0  0.00000000000E+00  0.00000000000E+00  0.60530579730E+03  0.60530579730E+03  0.00000000000E+00 0.  1.
         -2   -1    0    0    0  501 -0.00000000000E+00 -0.00000000000E+00 -0.48636354161E+01  0.48636354161E+01  0.00000000000E+00 0. -1.
          1    1    1    2  502    0  0.31083399906E+02  0.13112919331E+01  0.50269532501E+02  0.59117874912E+02  0.00000000000E+00 0. -1.
         -1    1    1    2    0  501 -0.31083399906E+02 -0.13112919331E+01  0.55017262939E+03  0.55105155781E+03  0.00000000000E+00 0.  1.
</event>
<event>
 4    1  0.6754235E+001  0.2288775E+02  0.7546771E-02  0.1493912E+00
          2   -1    0    0  502    0  0.00000000000E+00  0.00000000000E+00  0.84563283065E+03  0.84563283065E+03  0.00000000000E+00 0.  1.
         -2   -1    0    0    0  501 -0.00000000000E+00 -0.00000000000E+00 -0.62146126067E+00  0.62146126067E+00  0.00000000000E+00 0. -1.
          1    1    1    2  502    0  0.75595646465E+01  0.21603290497E+02  0.39859009514E+03  0.39924668205E+03  0.00000000000E+00 0. -1.
         -1    1    1    2    0  501 -0.75595646465E+01 -0.21603290497E+02  0.44642127425E+03  0.44700760987E+03  0.00000000000E+00 0.  1.
</event>
<event>
 4    1  0.6754235E+001  0.4667638E+02  0.7546771E-02  0.1313263E+00
          2   -1    0    0  502    0  0.00000000000E+00  0.00000000000E+00  0.28460892906E+04  0.28460892906E+04  0.00000000000E+00 0.  1.
         -2   -1    0    0    0  501 -0.00000000000E+00 -0.00000000000E+00 -0.13453324942E+01  0.13453324942E+01  0.00000000000E+00 0. -1.
          1    1    1    2  502    0 -0.43434170371E+02 -0.17092610961E+02  0.23570452212E+04  0.23575073402E+04  0.00000000000E+00 0.  1.
         -1    1    1    2    0  501  0.43434170371E+02  0.17092610961E+02  0.48769873694E+03  0.48992728289E+03  0.00000000000E+00 0. -1.
</event>
<event>
 4    1  0.6754235E+001  0.2753118E+02  0.7546771E-02  0.1442344E+00
          2   -1    0    0  502    0  0.00000000000E+00  0.00000000000E+00  0.21105456432E+02  0.21105456432E+02  0.00000000000E+00 0. -1.
         -2   -1    0    0    0  501 -0.00000000000E+00 -0.00000000000E+00 -0.36197563333E+02  0.36197563333E+02  0.00000000000E+00 0.  1.
          1    1    1    2  502    0  0.22757800901E+02  0.15493492688E+02 -0.50068577686E+01  0.27982752585E+02  0.00000000000E+00 0. -1.
         -1    1    1    2    0  501 -0.22757800901E+02 -0.15493492688E+02 -0.10085249132E+02  0.29320267181E+02  0.00000000000E+00 0.  1.
</event>
<event>
 4    1  0.6754235E+001  0.2269607E+02  0.7546771E-02  0.1496350E+00
          2   -1    0    0  502    0  0.00000000000E+00  0.00000000000E+00  0.29765560490E+03  0.29765560490E+03  0.00000000000E+00 0.  1.
         -2   -1    0    0    0  501 -0.00000000000E+00 -0.00000000000E+00 -0.22176686190E+01  0.22176686190E+01  0.00000000000E+00 0. -1.
          1    1    1    2  502    0 -0.22549175464E+02  0.25780688972E+01  0.77448791714E+02  0.80705805809E+02  0.00000000000E+00 0. -1.
         -1    1    1    2    0  501  0.22549175464E+02 -0.25780688972E+01  0.21798914457E+03  0.21916746771E+03  0.00000000000E+00 0.  1.
</event>
<event>
 4    1  0.6754235E+001  0.4480686E+02  0.7546771E-02  0.1322408E+00
          2   -1    0    0  502    0  0.00000000000E+00  0.00000000000E+00  0.12634602068E+03  0.12634602068E+03  0.00000000000E+00 0.  1.
         -2   -1    0    0    0  501 -0.00000000000E+00 -0.00000000000E+00 -0.20250589466E+02  0.20250589466E+02  0.00000000000E+00 0. -1.
          1    1    1    2  502    0 -0.31793461009E+02  0.31572620891E+02  0.19035002184E+02  0.48682500562E+02  0.00000000000E+00 0.  1.
         -1    1    1    2    0  501  0.31793461009E+02 -0.31572620891E+02  0.87060429034E+02  0.97914109588E+02  0.00000000000E+00 0. -1.
</event>
<event>
 4    1  0.6754235E+001  0.2901976E+02  0.7546771E-02  0.1428310E+00
          2   -1    0    0  502    0  0.00000000000E+00  0.00000000000E+00  0.22259435185E+01  0.22259435185E+01  0.00000000000E+00 0.  1.
         -2   -1    0    0    0  501 -0.00000000000E+00 -0.00000000000E+00 -0.40554165549E+03  0.40554165549E+03  0.00000000000E+00 0. -1.
          1    1    1    2  502    0 -0.85326704154E+01  0.27736974086E+02 -0.14884683115E+03  0.15164934995E+03  0.00000000000E+00 0.  1.
         -1    1    1    2    0  501  0.85326704154E+01 -0.27736974086E+02 -0.25446888082E+03  0.25611824906E+03  0.00000000000E+00 0. -1.
</event>
<event>
 4    1  0.6754235E+001  0.2013000E+02  0.7546771E-02  0.1532058E+00
          2   -1    0    0  502    0  0.00000000000E+00  0.00000000000E+00  0.18461496715E+03  0.18461496715E+03  0.00000000000E+00 0. -1.
         -2   -1    0    0    0  501 -0.00000000000E+00 -0.00000000000E+00 -0.56062739829E+01  0.56062739829E+01  0.00000000000E+00 0.  1.
          1    1    1    2  502    0 -0.17639207055E+02 -0.96992390600E+01  0.16369592928E+03  0.16492899723E+03  0.00000000000E+00 0. -1.
         -1    1    1    2    0  501  0.17639207055E+02  0.96992390600E+01  0.15312763887E+02  0.25292243904E+02  0.00000000000E+00 0.  1.
</event>
<event>
 4    1  0.6754235E+001  0.3568178E+02  0.7546771E-02  0.1375832E+00
          2   -1    0    0  502    0  0.00000000000E+00  0.00000000000E+00  0.50103255590E+03  0.50103255590E+03  0.00000000000E+00 0. -1.
         -2   -1    0    0    0  501 -0.00000000000E+00 -0.00000000000E+00 -0.32665256258E+01  0.32665256258E+01  0.00000000000E+00 0.  1.
          1    1    1    2  502    0 -0.10571287752E+02 -0.34079869803E+02  0.13005957004E+03  0.13486541962E+03  0.00000000000E+00 0.  1.
         -1    1    1    2    0  501  0.10571287752E+02  0.34079869803E+02  0.36770646024E+03  0.36943366191E+03  0.00000000000E+00 0. -1.
</event>
<event>
 4    1  0.6754235E+001  0.2251933E+02  0.7546771E-02  0.1498624E+00
          2   -1    0    0  502    0  0.00000000000E+00  0.00000000000E+00  0.21030639557E+02  0.21030639557E+02  0.00000000000E+00 0.  1.
         -2   -1    0    0    0  501 -0.00000000000E+00 -0.00000000000E+00 -0.31087434417E+02  0.31087434417E+02  0.00000000000E+00 0. -1.
          1    1    1    2  502    0  0.10425608119E+02  0.19960634260E+02  0.73142397621E+01  0.23677380092E+02  0.00000000000E+00 0.  1.
         -1    1    1    2    0  501 -0.10425608119E+02 -0.19960634260E+02 -0.17371034622E+02  0.28440693883E+02  0.00000000000E+00 0. -1.
</event>
<event>
 4    1  0.6754235E+001  0.3506081E+02  0.7546771E-02  0.1380136E+00
          2   -1    0    0  502    0  0.00000000000E+00  0.00000000000E+00  0.76665166563E+03  0.76665166563E+03  0.00000000000E+00 0.  1.
         -2   -1    0    0    0  501 -0.00000000000E+00 -0.00000000000E+00 -0.16785425876E+01  0.16785425876E+01  0.00000000000E+00 0. -1.
          1    1    1    2  502    0 -0.22953183114E+02  0.26503047861E+02  0.30121215858E+03  0.30324581553E+03  0.00000000000E+00 0.  1.
         -1    1    1    2    0  501  0.22953183114E+02 -0.26503047861E+02  0.46376096446E+03  0.46508439268E+03  0.00000000000E+00 0. -1.
</event>
<event>
 4    1  0.6754235E+001  0.6824600E+02  0.7546771E-02  0.1234126E+00
          2   -1    0    0  502    0  0.00000000000E+00  0.00000000000E+00  0.34411606803E+03  0.34411606803E+03  0.00000000000E+00 0.  1.
         -2   -1    0    0    0  501 -0.00000000000E+00 -0.00000000000E+00 -0.13581769418E+02  0.13581769418E+02  0.00000000000E+00 0. -1.
          1    1    1    2  502    0 -0.39938969734E+02 -0.55338918233E+02  0.15474144618E+03  0.16912253647E+03  0.00000000000E+00 0. -1.
         -1    1    1    2    0  501  0.39938969734E+02  0.55338918233E+02  0.17579285243E+03  0.18857530098E+03  0.00000000000E+00 0.  1.
</event>
<event>
 4    1  0.6754235E+001  0.3178010E+02  0.7546771E-02  0.1404733E+00
          2   -1    0    0  502    0  0.00000000000E+00  0.00000000000E+00  0.38433930313E+03  0.38433930313E+03  0.00000000000E+00 0. -1.
         -2   -1    0    0    0  501 -0.00000000000E+00 -0.00000000000E+00 -0.27046850155E+01  0.27046850155E+01  0.00000000000E+00 0.  1.
          1    1    1    2  502    0  0.35344648505E+01  0.31582946963E+02  0.15819363533E+03  0.16135427246E+03  0.00000000000E+00 0.  1.
         -1    1    1    2    0  501 -0.35344648505E+01 -0.31582946963E+02  0.22344098278E+03  0.22568971569E+03  0.00000000000E+00 0. -1.
</event>
<event>
 4    1  0.6754235E+001  0.2009255E+02  0.7546771E-02  0.1532626E+00
          2   -1    0    0  502    0  0.00000000000E+00  0.00000000000E+00  0.12050553951E+02  0.12050553951E+02  0.00000000000E+00 0. -1.
         -2   -1    0    0    0  501 -0.00000000000E+00 -0.00000000000E+00 -0.45769799016E+02  0.45769799016E+02  0.00000000000E+00 0.  1.
          1    1    1    2  502    0  0.16197945946E+02 -0.11888525617E+02 -0.18919218642E+01  0.20181423700E+02  0.00000000000E+00 0. -1.
         -1    1    1    2    0  501 -0.16197945946E+02  0.11888525617E+02 -0.31827323201E+02  0.37638929267E+02  0.00000000000E+00 0.  1.
</event>
<event>
 4    1  0.6754235E+001  0.2473262E+02  0.7546771E-02  0.1471817E+00
          2   -1    0    0  502    0  0.00000000000E+00  0.00000000000E+00  0.14838515951E+04  0.14838515951E+04  0.00000000000E+00 0.  1.
         -2   -1    0    0    0  501 -0.00000000000E+00 -0.00000000000E+00 -0.48049637770E+00  0.48049637770E+00  0.00000000000E+00 0. -1.
          1    1    1    2  502    0 -0.82950358334E+01  0.23300103430E+02  0.10214089526E+04  0.10217083493E+04  0.00000000000E+00 0.  1.
         -1    1    1    2    0  501  0.82950358334E+01 -0.23300103430E+02  0.46196214610E+03  0.46262374223E+03  0.00000000000E+00 0. -1.
</event>
<event>
 4    1  0.6754235E+001  0.2363643E+02  0.7546771E-02  0.1484657E+00
          2   -1    0    0  502    0  0.00000000000E+00  0.00000000000E+00  0.26457265139E+04  0.26457265139E+04  0.00000000000E+00 0. -1.
         -2   -1    0    0    0  501 -0.00000000000E+00 -0.00000000000E+00 -0.21770398675E+00  0.21770398675E+00  0.00000000000E+00 0.  1.
          1    1    1    2  502    0  0.37994251337E+01 -0.23329061954E+02  0.15520648748E+04  0.15522448442E+04  0.00000000000E+00 0. -1.
         -1    1    1    2    0  501 -0.37994251337E+01  0.23329061954E+02  0.10934439351E+04  0.10936993737E+04  0.00000000000E+00 0.  1.
</event>
<event>
 4    1  0.6754235E+001  0.3395023E+02  0.7546771E-02  0.1388097E+00
          2   -1    0    0  502    0  0.00000000000E+00  0.00000000000E+00  0.38222396883E+02  0.38222396883E+02  0.00000000000E+00 0.  1.
         -2   -1    0    0    0  501 -0.00000000000E+00 -0.00000000000E+00 -0.30364258719E+02  0.30364258719E+02  0.00000000000E+00 0. -1.
          1    1    1    2  502    0  0.24047439840E+02 -0.23965371747E+02  0.10861060431E+01  0.33967602685E+02  0.00000000000E+00 0. -1.
         -1    1    1    2    0  501 -0.24047439840E+02  0.23965371747E+02  0.67720321213E+01  0.34619052917E+02  0.00000000000E+00 0.  1.
</event>
<event>
 4    1  0.6754235E+001  0.2303455E+02  0.7546771E-02  0.1492065E+00
          2   -1    0    0  502    0  0.00000000000E+00  0.00000000000E+00  0.56411209324E+02  0.56411209324E+02  0.00000000000E+00 0. -1.
         -2   -1    0    0    0  501 -0.00000000000E+00 -0.00000000000E+00 -0.10180458865E+02  0.10180458865E+02  0.00000000000E+00 0.  1.
          1    1    1    2  502    0  0.62143996713E+01  0.22180438014E+02  0.32300206939E+02  0.39672332451E+02  0.00000000000E+00 0. -1.
         -1    1    1    2    0  501 -0.62143996713E+01 -0.22180438014E+02  0.13930543520E+02  0.26919335738E+02  0.00000000000E+00 0.  1.
</event>
<event>
 4    1  0.6754235E+001  0.5194949E+02  0.7546771E-02  0.1289934E+00
          2   -1    0    0  502    0  0.00000000000E+00  0.00000000000E+00  0.64531163515E+03  0.64531163515E+03  0.00000000000E+00 0. -1.
         -2   -1    0    0    0  501 -0.00000000000E+00 -0.00000000000E+00 -0.15669279511E+02  0.15669279511E+02  0.00000000000E+00 0.  1.
          1    1    1    2  502    0  0.47825880435E+02 -0.20283857203E+02  0.31850554740E+02  0.60936093899E+02  0.00000000000E+00 0.  1.
         -1    1    1    2    0  501 -0.47825880435E+02  0.20283857203E+02  0.59779180090E+03  0.60004482076E+03  0.00000000000E+00 0. -1.
</event>
<event>
 4    1  0.6754235E+001  0.3213948E+02  0.7546771E-02  0.1401872E+00
          2   -1    0    0  502    0  0.00000000000E+00  0.00000000000E+00  0.51909726317E+02  0.51909726317E+02  0.00000000000E+00 0. -1.
         -2   -1    0    0    0  501 -0.00000000000E+00 -0.00000000000E+00 -0.25680524438E+02  0.25680524438E+02  0.00000000000E+00 0.  1.
          1    1    1    2  502    0  0.23324961860E+02 -0.22110916378E+02  0.31522327006E+02  0.45017813904E+02  0.00000000000E+00 0. -1.
         -1    1    1    2    0  501 -0.23324961860E+02  0.22110916378E+02 -0.52931251266E+01  0.32572436851E+02  0.00000000000E+00 0.  1.
</event>
<event>
 4    1  0.6754235E+001  0.2246734E+02  0.7546771E-02  0.1499297E+00
          2   -1    0    0  502    0  0.00000000000E+00  0.00000000000E+00  0.12996519329E+01  0.12996519329E+01  0.00000000000E+00 0.  1.
         -2   -1    0    0    0  501 -0.00000000000E+00 -0.00000000000E+00 -0.44084429403E+03  0.44084429403E+03  0.00000000000E+00 0. -1.
          1    1    1    2  502    0 -0.83977178322E+01  0.20838901259E+02 -0.14352039142E+03  0.14526831803E+03  0.00000000000E+00 0.  1.
         -1    1    1    2    0  501  0.83977178322E+01 -0.20838901259E+02 -0.29602425068E+03  0.29687562793E+03  0.00000000000E+00 0. -1.
</event>
<event>
 4    1  0.6754235E+001  0.2414054E+02  0.7546771E-02  0.1478652E+00
          2   -1    0    0  502    0  0.00000000000E+00  0.00000000000E+00  0.17836011033E+04  0.17836011033E+04  0.00000000000E+00 0.  1.
         -2   -1    0    0    0  501 -0.00000000000E+00 -0.00000000000E+00 -0.34658863064E+00  0.34658863064E+00  0.00000000000E+00 0. -1.
          1    1    1    2  502    0 -0.21275112778E+02 -0.11407679147E+02  0.11051090699E+04  0.11053727072E+04  0.00000000000E+00 0.  1.
         -1    1    1    2    0  501  0.21275112778E+02  0.11407679147E+02  0.67814544486E+03  0.67857498477E+03  0.00000000000E+00 0. -1.
</event>
<event>
 4    1  0.6754235E+001  0.2368189E+02  0.7546771E-02  0.1484109E+00
          2   -1    0    0  502    0  0.00000000000E+00  0.00000000000E+00  0.15742180000E+02  0.15742180000E+02  0.00000000000E+00 0.  1.
         -2   -1    0    0    0  501 -0.00000000000E+00 -0.00000000000E+00 -0.41977772210E+02  0.41977772210E+02  0.00000000000E+00 0. -1.
          1    1    1    2  502    0 -0.13250632561E+02 -0.19627850360E+02 -0.24343972077E+02  0.33962637552E+02  0.00000000000E+00 0. -1.
         -1    1    1    2    0  501  0.13250632561E+02  0.19627850360E+02 -0.18916201324E+01  0.23757314658E+02  0.00000000000E+00 0.  1.
</event>
<event>
 4    1  0.6754235E+001  0.6480839E+02  0.7546771E-02  0.1244316E+00
          2   -1    0    0  502    0  0.00000000000E+00  0.00000000000E+00  0.28588138987E+04  0.28588138987E+04  0.00000000000E+00 0.  1.
         -2   -1    0    0    0  501 -0.00000000000E+00 -0.00000000000E+00 -0.14712654155E+01  0.14712654155E+01  0.00000000000E+00 0. -1.
          1    1    1    2  502    0 -0.46305254561E+02 -0.45342598087E+02  0.13748986884E+04  0.13764252727E+04  0.00000000000E+00 0.  1.
         -1    1    1    2    0  501  0.46305254561E+02  0.45342598087E+02  0.14824439448E+04  0.14838598914E+04  0.00000000000E+00 0. -1.
</event>
<event>
 4    1  0.6754235E+001  0.2652571E+02  0.7546771E-02  0.1452432E+00
          2   -1    0    0  502    0  0.00000000000E+00  0.00000000000E+00  0.31839967659E+03  0.31839967659E+03  0.00000000000E+00 0. -1.
         -2   -1    0    0    0  501 -0.00000000000E+00 -0.00000000000E+00 -0.31248821315E+01  0.31248821315E+01  0.00000000000E+00 0.  1.
          1    1    1    2  502    0 -0.25319549650E+02 -0.79078126067E+01  0.70643794142E+02  0.75459649784E+02  0.00000000000E+00 0. -1.
         -1    1    1    2    0  501  0.25319549650E+02  0.79078126067E+01  0.24463100032E+03  0.24606490894E+03  0.00000000000E+00 0.  1.
</event>
<event>
 4    1  0.6754235E+001  0.2407145E+02  0.7546771E-02  0.1479465E+00
          2   -1    0    0  502    0  0.00000000000E+00  0.00000000000E+00  0.11727679324E+04  0.11727679324E+04  0.00000000000E+00 0.  1.
         -2   -1    0    0    0  501 -0.00000000000E+00 -0.00000000000E+00 -0.86806430031E+00  0.86806430031E+00  0.00000000000E+00 0. -1.
          1    1    1    2  502    0 -0.99368420684E+00  0.24050928893E+02  0.20077552365E+03  0.20221336624E+03  0.00000000000E+00 0. -1.
         -1    1    1    2    0  501  0.99368420684E+00 -0.24050928893E+02  0.97112434443E+03  0.97142263044E+03  0.00000000000E+00 0.  1.
</event>
<event>
 4    1  0.6754235E+001  0.2222761E+02  0.7546771E-02  0.1502432E+00
          2   -1    0    0  502    0  0.00000000000E+00  0.00000000000E+00  0.73351298869E+01  0.73351298869E+01  0.00000000000E+00 0.  1.
         -2   -1    0    0    0  501 -0.00000000000E+00 -0.00000000000E+00 -0.83862397135E+02  0.83862397135E+02  0.00000000000E+00 0. -1.
          1    1    1    2  502    0 -0.13653462890E+02 -0.17539947777E+02 -0.58493468222E+02  0.62574376877E+02  0.00000000000E+00 0.  1.
         -1    1    1    2    0  501  0.13653462890E+02  0.17539947777E+02 -0.18033799025E+02  0.28623150144E+02  0.00000000000E+00 0. -1.
</event>
<event>
 4    1  0.6754235E+001  0.2079131E+02  0.7546771E-02  0.1522265E+00
          2   -1    0    0  502    0  0.00000000000E+00  0.00000000000E+00  0.20324281373E+03  0.20324281373E+03  0.00000000000E+00 0. -1.
         -2   -1    0    0    0  501 -0.00000000000E+00 -0.00000000000E+00 -0.22179018940E+01  0.22179018940E+01  0.00000000000E+00 0.  1.
          1    1    1    2  502    0  0.19836962255E+02 -0.62268298614E+01  0.12132078006E+03  0.12308943966E+03  0.00000000000E+00 0.  1.
         -1    1    1    2    0  501 -0.19836962255E+02  0.62268298614E+01  0.79704131777E+02  0.82371275964E+02  0.00000000000E+00 0. -1.
</event>
<event>
 4    1  0.6754235E+001  0.2002760E+02  0.7546771E-02  0.1533614E+00
          2   -1    0    0  502    0  0.00000000000E+00  0.00000000000E+00  0.29239152206E+03  0.29239152206E+03  0.00000000000E+00 0.  1.
         -2   -1    0    0    0  501 -0.00000000000E+00 -0.00000000000E+00 -0.14375771018E+01  0.14375771018E+01  0.00000000000E+00 0. -1.
          1    1    1    2  502    0 -0.53210385210E+01 -0.19307805011E+02  0.11405286562E+03  0.11579793150E+03  0.00000000000E+00 0.  1.
         -1    1    1    2    0  501  0.53210385210E+01  0.19307805011E+02  0.17690107934E+03  0.17803116766E+03  0.00000000000E+00 0. -1.
</event>
<event>
 4    1  0.6754235E+001  0.2539578E+02  0.7546771E-02  0.1464424E+00
          2   -1    0    0  502    0  0.00000000000E+00  0.00000000000E+00  0.10530956686E+03  0.10530956686E+03  0.00000000000E+00 0. -1.
         -2   -1    0    0    0  501 -0.00000000000E+00 -0.00000000000E+00 -0.62809141504E+01  0.62809141504E+01  0.00000000000E+00 0.  1.
          1    1    1    2  502    0  0.27599677302E+01  0.25245365335E+02  0.40703415469E+02  0.47976180794E+02  0.00000000000E+00 0.  1.
         -1    1    1    2    0  501 -0.27599677302E+01 -0.25245365335E+02  0.58325237237E+02  0.63614300213E+02  0.00000000000E+00 0. -1.
</event>
<event>
 4    1  0.6754235E+001  0.2096519E+02  0.7546771E-02  0.1519762E+00
          2   -1    0    0  502    0  0.00000000000E+00  0.00000000000E+00  0.80341336561E+03  0.80341336561E+03  0.00000000000E+00 0.  1.
         -2   -1    0    0    0  501 -0.00000000000E+00 -0.00000000000E+00 -0.70241531681E+00  0.70241531681E+00  0.00000000000E+00 0. -1.
          1    1    1    2  502    0  0.12731279189E+02 -0.16656944493E+02  0.59042127902E+03  0.59079338689E+03  0.00000000000E+00 0.  1.
         -1    1    1    2    0  501 -0.12731279189E+02  0.16656944493E+02  0.21228967127E+03  0.21332239404E+03  0.00000000000E+00 0. -1.
</event>
<event>
 4    1  0.6754235E+001  0.2254289E+02  0.7546771E-02  0.1498319E+00
          2   -1    0    0  502    0  0.00000000000E+00  0.00000000000E+00  0.54294115685E+01  0.54294115685E+01  0.00000000000E+00 0.  1.
         -2   -1    0    0    0  501 -0.00000000000E+00 -0.00000000000E+00 -0.93768685916E+02  0.93768685916E+02  0.00000000000E+00 0. -1.
          1    1    1    2  502    0  0.17326995788E+02 -0.14420713173E+02 -0.42053145843E+02  0.47714241341E+02  0.00000000000E+00 0.  1.
         -1    1    1    2    0  501 -0.17326995788E+02  0.14420713173E+02 -0.46286128504E+02  0.51483856143E+02  0.00000000000E+00 0. -1.
</event>
<event>
 4    1  0.6754235E+001  0.3538821E+02  0.7546771E-02  0.1377854E+00
          2   -1    0    0  502    0  0.00000000000E+00  0.00000000000E+00  0.41321310044E+01  0.41321310044E+01  0.00000000000E+00 0.  1.
         -2   -1    0    0    0  501 -0.00000000000E+00 -0.00000000000E+00 -0.48339994192E+03  0.48339994192E+03  0.00000000000E+00 0. -1.
          1    1    1    2  502    0 -0.30491230554E+02  0.17961349620E+02 -0.90747947515E+02  0.97403876715E+02  0.00000000000E+00 0.  1.
         -1    1    1    2    0  501  0.30491230554E+02 -0.17961349620E+02 -0.38851986340E+03  0.39012819621E+03  0.00000000000E+00 0. -1.
</event>
<event>
 4    1  0.6754235E+001  0.2733828E+02  0.7546771E-02  0.1444239E+00
          2   -1    0    0  502    0  0.00000000000E+00  0.00000000000E+00  0.95998526096E+01  0.95998526096E+01  0.00000000000E+00 0.  1.
         -2   -1    0    0    0  501 -0.00000000000E+00 -0.00000000000E+00 -0.96515562590E+02  0.96515562590E+02  0.00000000000E+00 0. -1.
          1    1    1    2  502    0 -0.44955136689E+01  0.26966125987E+02 -0.20127020460E+02  0.33948174420E+02  0.00000000000E+00 0. -1.
         -1    1    1    2    0  501  0.44955136689E+01 -0.26966125987E+02 -0.66788689520E+02  0.72167240779E+02  0.00000000000E+00 0.  1.
</event>
<event>
 4    1  0.6754235E+001  0.1028788E+03  0.7546771E-02  0.1158911E+00
          2   -1    0    0  502    0  0.00000000000E+00  0.00000000000E+00  0.26054779590E+04  0.26054779590E+04  0.00000000000E+00 0.  1.
         -2   -1    0    0    0  501 -0.00000000000E+00 -0.00000000000E+00 -0.46194974225E+01  0.46194974225E+01  0.00000000000E+00 0. -1.
          1    1    1    2  502    0 -0.10109946716E+03  0.19050887838E+02  0.17537055251E+04  0.17567205547E+04  0.00000000000E+00 0.  1.
         -1    1    1    2    0  501  0.10109946716E+03 -0.19050887838E+02  0.84715293641E+03  0.85337690165E+03  0.00000000000E+00 0. -1.
</event>
<event>
 4    1  0.6754235E+001  0.3176093E+02  0.7546771E-02  0.1404887E+00
          2   -1    0    0  502    0  0.00000000000E+00  0.00000000000E+00  0.37834766483E+03  0.37834766483E+03  0.00000000000E+00 0. -1.
         -2   -1    0    0    0  501 -0.00000000000E+00 -0.00000000000E+00 -0.37951495421E+01  0.37951495421E+01  0.00000000000E+00 0.  1.
          1    1    1    2  502    0  0.49412485384E+01 -0.31374202189E+02  0.83064794546E+02  0.88929840847E+02  0.00000000000E+00 0.  1.
         -1    1    1    2    0  501 -0.49412485384E+01  0.31374202189E+02  0.29148772075E+03  0.29321297353E+03  0.00000000000E+00 0. -1.
</event>
<event>
 4    1  0.6754235E+001  0.2314814E+02  0.7546771E-02  0.1490646E+00
          2   -1    0    0  502    0  0.00000000000E+00  0.00000000000E+00  0.24028767331E+02  0.24028767331E+02  0.00000000000E+00 0. -1.
         -2   -1    0    0    0  501 -0.00000000000E+00 -0.00000000000E+00 -0.24736206780E+02  0.24736206780E+02  0.00000000000E+00 0.  1.
          1    1    1    2  502    0  0.22418829939E+02 -0.57647649349E+01 -0.80059370748E+01  0.24493498709E+02  0.00000000000E+00 0.  1.
         -1    1    1    2    0  501 -0.22418829939E+02  0.57647649349E+01  0.72984976252E+01  0.24271475402E+02  0.00000000000E+00 0. -1.
</event>
<event>
 4    1  0.6754235E+001  0.2552728E+02  0.7546771E-02  0.1462990E+00
          2   -1    0    0  502    0  0.00000000000E+00  0.00000000000E+00  0.16834758688E+03  0.16834758688E+03  0.00000000000E+00 0.  1.
         -2   -1    0    0    0  501 -0.00000000000E+00 -0.00000000000E+00 -0.69392916291E+01  0.69392916291E+01  0.00000000000E+00 0. -1.
          1    1    1    2  502    0  0.33066208097E+01  0.25312214515E+02  0.13898466899E+03  0.14130951899E+03  0.00000000000E+00 0.  1.
         -1    1    1    2    0  501 -0.33066208097E+01 -0.25312214515E+02  0.22423626264E+02  0.33977359515E+02  0.00000000000E+00 0. -1.
</event>
<event>
 4    1  0.6754235E+001  0.3501729E+02  0.7546771E-02  0.1380442E+00
          2   -1    0    0  502    0  0.00000000000E+00  0.00000000000E+00  0.28656235660E+03  0.28656235660E+03  0.00000000000E+00 0. -1.
         -2   -1    0    0    0  501 -0.00000000000E+00 -0.00000000000E+00 -0.53325511315E+01  0.53325511315E+01  0.00000000000E+00 0.  1.
          1    1    1    2  502    0 -0.31400402705E+02 -0.15499207892E+02  0.20548571398E+03  0.20844804961E+03  0.00000000000E+00 0. -1.
         -1    1    1    2    0  501  0.31400402705E+02  0.15499207892E+02  0.75744091487E+02  0.83446858122E+02  0.00000000000E+00 0.  1.
</event>
<event>
 4    1  0.6754235E+001  0.2110518E+02  0.7546771E-02  0.1517768E+00
          2   -1    0    0  502    0  0.00000000000E+00  0.00000000000E+00  0.67395301111E+03  0.67395301111E+03  0.00000000000E+00 0.  1.
         -2   -1    0    0    0  501 -0.00000000000E+00 -0.00000000000E+00 -0.66132388800E+00  0.66132388800E+00  0.00000000000E+00 0. -1.
          1    1    1    2  502    0  0.46942827574E-01 -0.21105130242E+02  0.32830545107E+03  0.32898312712E+03  0.00000000000E+00 0. -1.
         -1    1    1    2    0  501 -0.46942827574E-01  0.21105130242E+02  0.34498623615E+03  0.34563120788E+03  0.00000000000E+00 0.  1.
</event>
<event>
 4    1  0.6754235E+001  0.2176402E+02  0.7546771E-02  0.1508630E+00
          2   -1    0    0  502    0  0.00000000000E+00  0.00000000000E+00  0.17753633143E+04  0.17753633143E+04  0.00000000000E+00 0.  1.
         -2   -1    0    0    0  501 -0.00000000000E+00 -0.00000000000E+00 -0.50560686954E+00  0.50560686954E+00  0.00000000000E+00 0. -1.
          1    1    1    2  502    0  0.12908546367E+01  0.21725700143E+02  0.14976609690E+04  0.14978190980E+04  0.00000000000E+00 0.  1.
         -1    1    1    2    0  501 -0.12908546367E+01 -0.21725700143E+02  0.27719673845E+03  0.27804982316E+03  0.00000000000E+00 0. -1.
</event>
<event>
 4    1  0.6754235E+001  0.9438578E+02  0.7546771E-02  0.1173909E+00
          2   -1    0    0  502    0  0.00000000000E+00  0.00000000000E+00  0.86462926965E+03  0.86462926965E+03  0.00000000000E+00 0.  1.
         -2   -1    0    0    0  501 -0.00000000000E+00 -0.00000000000E+00 -0.28130894801E+02  0.28130894801E+02  0.00000000000E+00 0. -1.
          1    1    1    2  502    0 -0.90061737496E+02 -0.28241086960E+02  0.62898280401E+02  0.11342340689E+03  0.00000000000E+00 0. -1.
         -1    1    1    2    0  501  0.90061737496E+02  0.28241086960E+02  0.77360009445E+03  0.77933675756E+03  0.00000000000E+00 0.  1.
</event>
<event>
 4    1  0.6754235E+001  0.2138686E+02  0.7546771E-02  0.1513813E+00
          2   -1    0    0  502    0  0.00000000000E+00  0.00000000000E+00  0.24084138465E+02  0.24084138465E+02  0.00000000000E+00 0. -1.
         -2   -1    0    0    0  501 -0.00000000000E+00 -0.00000000000E+00 -0.20795310174E+02  0.20795310174E+02  0.00000000000E+00 0.  1.
          1    1    1    2  502    0  0.18999990352E+02 -0.98182624054E+01  0.82530263103E+01  0.22924012592E+02  0.00000000000E+00 0. -1.
         -1    1    1    2    0  501 -0.18999990352E+02  0.98182624054E+01 -0.49641980201E+01  0.21955436047E+02  0.00000000000E+00 0.  1.
</event>
<event>
 4    1  0.6754235E+001  0.3786834E+02  0.7546771E-02  0.1361451E+00
          2   -1    0    0  502    0  0.00000000000E+00  0.00000000000E+00  0.34795154095E+02  0.34795154095E+02  0.00000000000E+00 0. -1.
         -2   -1    0    0    0  501 -0.00000000000E+00 -0.00000000000E+00 -0.61484233104E+02  0.61484233104E+02  0.00000000000E+00 0.  1.
          1    1    1    2  502    0  0.11020670752E+01  0.37852296401E+02  0.14296990404E+02  0.40477337231E+02  0.00000000000E+00 0. -1.
         -1    1    1    2    0  501 -0.11020670752E+01 -0.37852296401E+02 -0.40986069413E+02  0.55802049968E+02  0.00000000000E+00 0.  1.
</event>
<event>
 4    1  0.6754235E+001  0.2757971E+02  0.7546771E-02  0.1441870E+00
          2   -1    0    0  502    0  0.00000000000E+00  0.00000000000E+00  0.12296820222E+04  0.12296820222E+04  0.00000000000E+00 0.  1.
         -2   -1    0    0    0  501 -0.00000000000E+00 -0.00000000000E+00 -0.10642256613E+01  0.10642256613E+01  0.00000000000E+00 0. -1.
          1    1    1    2  502    0 -0.17514031600E+02 -0.21304911140E+02  0.21608904539E+03  0.21784195206E+03  0.00000000000E+00 0. -1.
         -1    1    1    2    0  501  0.17514031600E+02  0.21304911140E+02  0.10125287511E+04  0.10129042958E+04  0.00000000000E+00 0.  1.
</event>
<event>
 4    1  0.6754235E+001  0.2166059E+02  0.7546771E-02  0.1510039E+00
          2   -1    0    0  502    0  0.00000000000E+00  0.00000000000E+00  0.10696412667E+02  0.10696412667E+02  0.00000000000E+00 0.  1.
         -2   -1    0    0    0  501 -0.00000000000E+00 -0.00000000000E+00 -0.55515691422E+02  0.55515691422E+02  0.00000000000E+00 0. -1.
          1    1    1    2  502    0  0.15724114478E+02 -0.14897432578E+02 -0.37576816444E+02  0.43372784181E+02  0.00000000000E+00 0. -1.
         -1    1    1    2    0  501 -0.15724114478E+02  0.14897432578E+02 -0.72424623102E+01  0.22839319908E+02  0.00000000000E+00 0.  1.
</event>
<event>
 4    1  0.6754235E+001  0.2526987E+02  0.7546771E-02  0.1465807E+00
          2   -1    0    0  502    0  0.00000000000E+00  0.00000000000E+00  0.14927512832E+04  0.14927512832E+04  0.00000000000E+00 0.  1.
         -2   -1    0    0    0  501 -0.00000000000E+00 -0.00000000000E+00 -0.57878340837E+00  0.57878340837E+00  0.00000000000E+00 0. -1.
          1    1    1    2  502    0 -0.21092053913E+02  0.13917316117E+02  0.11274713923E+04  0.11277545419E+04  0.00000000000E+00 0.  1.
         -1    1    1    2    0  501  0.21092053913E+02 -0.13917316117E+02  0.36470110752E+03  0.36557552469E+03  0.00000000000E+00 0. -1.
</event>
<event>
 4    1  0.6754235E+001  0.4569586E+02  0.7546771E-02  0.1317996E+00
          2   -1    0    0  502    0  0.00000000000E+00  0.00000000000E+00  0.27320948635E+03  0.27320948635E+03  0.00000000000E+00 0.  1.
         -2   -1    0    0    0  501 -0.00000000000E+00 -0.00000000000E+00 -0.76629646616E+01  0.76629646616E+01  0.00000000000E+00 0. -1.
          1    1    1    2  502    0 -0.25678793325E+02 -0.37798296177E+02  0.13996017919E+03  0.14723098648E+03  0.00000000000E+00 0. -1.
         -1    1    1    2    0  501  0.25678793325E+02  0.37798296177E+02  0.12558634249E+03  0.13364146453E+03  0.00000000000E+00 0.  1.
</event>
<event>
 4    1  0.6754235E+001  0.2133839E+02  0.7546771E-02  0.1514488E+00
          2   -1    0    0  502    0  0.00000000000E+00  0.00000000000E+00  0.55314590737E+03  0.55314590737E+03  0.00000000000E+00 0. -1.
         -2   -1    0    0    0  501 -0.00000000000E+00 -0.00000000000E+00 -0.84829215162E+00  0.84829215162E+00  0.00000000000E+00 0.  1.
          1    1    1    2  502    0 -0.16307818533E+02  0.13761615439E+02  0.32382772628E+03  0.32453000371E+03  0.00000000000E+00 0.  1.
         -1    1    1    2    0  501  0.16307818533E+02 -0.13761615439E+02  0.22846988894E+03  0.22946419581E+03  0.00000000000E+00 0. -1.
</event>
<event>
 4    1  0.6754235E+001  0.2410974E+02  0.7546771E-02  0.1479014E+00
          2   -1    0    0  502    0  0.00000000000E+00  0.00000000000E+00  0.11863797504E+04  0.11863797504E+04  0.00000000000E+00 0.  1.
         -2   -1    0    0    0  501 -0.00000000000E+00 -0.00000000000E+00 -0.89457573646E+00  0.89457573646E+00  0.00000000000E+00 0. -1.
          1    1    1    2  502    0  0.14155437393E+02 -0.19516743094E+02  0.19350314976E+03  0.19499935548E+03  0.00000000000E+00 0. -1.
         -1    1    1    2    0  501 -0.14155437393E+02  0.19516743094E+02  0.99198202490E+03  0.99227497066E+03  0.00000000000E+00 0.  1.
</event>
<event>
 4    1  0.6754235E+001  0.4003855E+02  0.7546771E-02  0.1348260E+00
          2   -1    0    0  502    0  0.00000000000E+00  0.00000000000E+00  0.14452695609E+04  0.14452695609E+04  0.00000000000E+00 0. -1.
         -2   -1    0    0    0  501 -0.00000000000E+00 -0.00000000000E+00 -0.12319771843E+01  0.12319771843E+01  0.00000000000E+00 0.  1.
          1    1    1    2  502    0 -0.23368849406E+02  0.32511269535E+02  0.95034473008E+03  0.95118777944E+03  0.00000000000E+00 0. -1.
         -1    1    1    2    0  501  0.23368849406E+02 -0.32511269535E+02  0.49369285368E+03  0.49531375868E+03  0.00000000000E+00 0.  1.
</event>
<event>
 4    1  0.6754235E+001  0.5033814E+02  0.7546771E-02  0.1296713E+00
          2   -1    0    0  502    0  0.00000000000E+00  0.00000000000E+00  0.14132001416E+03  0.14132001416E+03  0.00000000000E+00 0. -1.
         -2   -1    0    0    0  501 -0.00000000000E+00 -0.00000000000E+00 -0.18115409627E+02  0.18115409627E+02  0.00000000000E+00 0.  1.
          1    1    1    2  502    0  0.11061727151E+02 -0.49107705675E+02  0.69657814667E+02  0.85942653604E+02  0.00000000000E+00 0. -1.
         -1    1    1    2    0  501 -0.11061727151E+02  0.49107705675E+02  0.53546789862E+02  0.73492770181E+02  0.00000000000E+00 0.  1.
</event>
<event>
 4    1  0.6754235E+001  0.3324070E+02  0.7546771E-02  0.1393372E+00
          2   -1    0    0  502    0  0.00000000000E+00  0.00000000000E+00  0.58250727236E+03  0.58250727236E+03  0.00000000000E+00 0.  1.
         -2   -1    0    0    0  501 -0.00000000000E+00 -0.00000000000E+00 -0.32421013404E+01  0.32421013404E+01  0.00000000000E+00 0. -1.
          1    1    1    2  502    0  0.29827211312E+02 -0.14672473526E+02  0.10097855929E+03  0.10630904689E+03  0.00000000000E+00 0. -1.
         -1    1    1    2    0  501 -0.29827211312E+02  0.14672473526E+02  0.47828661173E+03  0.47944032681E+03  0.00000000000E+00 0.  1.
</event>
<event>
 4    1  0.6754235E+001  0.2506076E+02  0.7546771E-02  0.1468125E+00
          2   -1    0    0  502    0  0.00000000000E+00  0.00000000000E+00  0.14835952530E+04  0.14835952530E+04  0.00000000000E+00 0. -1.
         -2   -1    0    0    0  501 -0.00000000000E+00 -0.00000000000E+00 -0.49649949538E+00  0.49649949538E+00  0.00000000000E+00 0.  1.
          1    1    1    2  502    0 -0.59551249739E+01 -0.24342932136E+02  0.45667497732E+03  0.45736208497E+03  0.00000000000E+00 0.  1.
         -1    1    1    2    0  501  0.59551249739E+01  0.24342932136E+02  0.10264237762E+04  0.10267296675E+04  0.00000000000E+00 0. -1.
</event>
<event>
 4    1  0.6754235E+001  0.2026132E+02  0.7546771E-02  0.1530078E+00
          2   -1    0    0  502    0  0.00000000000E+00  0.00000000000E+00  0.13957705315E+02  0.13957705315E+02  0.00000000000E+00 0. -1.
         -2   -1    0    0    0  501 -0.00000000000E+00 -0.00000000000E+00 -0.33015035653E+02  0.33015035653E+02  0.00000000000E+00 0.  1.
          1    1    1    2  502    0 -0.12281632071E+02  0.16114664245E+02 -0.17696276156E+01  0.20338448121E+02  0.00000000000E+00 0. -1.
         -1    1    1    2    0  501  0.12281632071E+02 -0.16114664245E+02 -0.17287702722E+02  0.26634292847E+02  0.00000000000E+00 0.  1.
</event>
<event>
 4    1  0.6754235E+001  0.2317450E+02  0.7546771E-02  0.1490319E+00
          2   -1    0    0  502    0  0.00000000000E+00  0.00000000000E+00  0.74970830007E+03  0.74970830007E+03  0.00000000000E+00 0.  1.
         -2   -1    0    0    0  501 -0.00000000000E+00 -0.00000000000E+00 -0.10259345963E+01  0.10259345963E+01  0.00000000000E+00 0. -1.
          1    1    1    2  502    0  0.64986403502E+01  0.22244663701E+02  0.58053823788E+03  0.58100060502E+03  0.00000000000E+00 0.  1.
         -1    1    1    2    0  501 -0.64986403502E+01 -0.22244663701E+02  0.16814412759E+03  0.16973362964E+03  0.00000000000E+00 0. -1.
</event>
<event>
 4    1  0.6754235E+001  0.2338663E+02  0.7546771E-02  0.1487699E+00
          2   -1    0    0  502    0  0.00000000000E+00  0.00000000000E+00  0.12324028266E+03  0.12324028266E+03  0.00000000000E+00 0.  1.
         -2   -1    0    0    0  501 -0.00000000000E+00 -0.00000000000E+00 -0.46525963804E+01  0.46525963804E+01  0.00000000000E+00 0. -1.
          1    1    1    2  502    0 -0.13153055940E+02  0.19337309667E+02  0.45558841582E+02  0.51210765197E+02  0.00000000000E+00 0.  1.
         -1    1    1    2    0  501  0.13153055940E+02 -0.19337309667E+02  0.73028844694E+02  0.76682113840E+02  0.00000000000E+00 0. -1.
</event>
<event>
 4    1  0.6754235E+001  0.2142509E+02  0.7546771E-02  0.1513281E+00
          2   -1    0    0  502    0  0.00000000000E+00  0.00000000000E+00  0.26286200272E+03  0.26286200272E+03  0.00000000000E+00 0. -1.
         -2   -1    0    0    0  501 -0.00000000000E+00 -0.00000000000E+00 -0.20145602977E+01  0.20145602977E+01  0.00000000000E+00 0.  1.
          1    1    1    2  502    0  0.21425077490E+02 -0.18948404426E-01  0.82094859870E+02  0.84844565657E+02  0.00000000000E+00 0. -1.
         -1    1    1    2    0  501 -0.21425077490E+02  0.18948404426E-01  0.17875258255E+03  0.18003199736E+03  0.00000000000E+00 0.  1.
</event>
<event>
 4    1  0.6754235E+001  0.3121188E+02  0.7546771E-02  0.1409350E+00
          2   -1    0    0  502    0  0.00000000000E+00  0.00000000000E+00  0.62876252664E+03  0.62876252664E+03  0.00000000000E+00 0. -1.
         -2   -1    0    0    0  501 -0.00000000000E+00 -0.00000000000E+00 -0.15668440954E+01  0.15668440954E+01  0.00000000000E+00 0.  1.
          1    1    1    2  502    0  0.30639155956E+02  0.59517899949E+01  0.34688703692E+03  0.34828838347E+03  0.00000000000E+00 0.  1.
         -1    1    1    2    0  501 -0.30639155956E+02 -0.59517899949E+01  0.28030864562E+03  0.28204098726E+03  0.00000000000E+00 0. -1.
</event>
<event>
 4    1  0.6754235E+001  0.4229668E+02  0.7546771E-02  0.1335529E+00
          2   -1    0    0  502    0  0.00000000000E+00  0.00000000000E+00  0.14382390356E+04  0.14382390356E+04  0.00000000000E+00 0.  1.
         -2   -1    0    0    0  501 -0.00000000000E+00 -0.00000000000E+00 -0.17606296923E+01  0.17606296923E+01  0.00000000000E+00 0. -1.
          1    1    1    2  502    0  0.40056344503E+02  0.13583027300E+02  0.11083022583E+04  0.11091090592E+04  0.00000000000E+00 0.  1.
         -1    1    1    2    0  501 -0.40056344503E+02 -0.13583027300E+02  0.32817614759E+03  0.33089060611E+03  0.00000000000E+00 0. -1.
</event>
<event>
 4    1  0.6754235E+001  0.3391311E+02  0.7546771E-02  0.1388370E+00
          2   -1    0    0  502    0  0.00000000000E+00  0.00000000000E+00  0.25253119555E+03  0.25253119555E+03  0.00000000000E+00 0.  1.
         -2   -1    0    0    0  501 -0.00000000000E+00 -0.00000000000E+00 -0.58557524794E+01  0.58557524794E+01  0.00000000000E+00 0. -1.
          1    1    1    2  502    0 -0.60807828333E+01  0.33363498636E+02  0.18424454232E+03  0.18733966568E+03  0.00000000000E+00 0. -1.
         -1    1    1    2    0  501  0.60807828333E+01 -0.33363498636E+02  0.62430900747E+02  0.71047282349E+02  0.00000000000E+00 0.  1.
</event>
<event>
 4    1  0.6754235E+001  0.2600071E+02  0.7546771E-02  0.1457913E+00
          2   -1    0    0  502    0  0.00000000000E+00  0.00000000000E+00  0.11823098573E+04  0.11823098573E+04  0.00000000000E+00 0.  1.
         -2   -1    0    0    0  501 -0.00000000000E+00 -0.00000000000E+00 -0.87225057584E+00  0.87225057584E+00  0.00000000000E+00 0. -1.
          1    1    1    2  502    0  0.25578530844E+02 -0.46664281565E+01  0.93792891681E+03  0.93828923567E+03  0.00000000000E+00 0.  1.
         -1    1    1    2    0  501 -0.25578530844E+02  0.46664281565E+01  0.24350868989E+03  0.24489287218E+03  0.00000000000E+00 0. -1.
</event>
<event>
 4    1  0.6754235E+001  0.2734150E+02  0.7546771E-02  0.1444207E+00
          2   -1    0    0  502    0  0.00000000000E+00  0.00000000000E+00  0.21266458373E+02  0.21266458373E+02  0.00000000000E+00 0. -1.
         -2   -1    0    0    0  501 -0.00000000000E+00 -0.00000000000E+00 -0.66556913553E+02  0.66556913553E+02  0.00000000000E+00 0.  1.
          1    1    1    2  502    0  0.18084060248E+02  0.20506696277E+02  0.75183297820E+01  0.28356359251E+02  0.00000000000E+00 0. -1.
         -1    1    1    2    0  501 -0.18084060248E+02 -0.20506696277E+02 -0.52808784962E+02  0.59467012675E+02  0.00000000000E+00 0.  1.
</event>
<event>
 4    1  0.6754235E+001  0.4243697E+02  0.7546771E-02  0.1334768E+00
          2   -1    0    0  502    0  0.00000000000E+00  0.00000000000E+00  0.32323305979E+03  0.32323305979E+03  0.00000000000E+00 0.  1.
         -2   -1    0    0    0  501 -0.00000000000E+00 -0.00000000000E+00 -0.58466887440E+01  0.58466887440E+01  0.00000000000E+00 0. -1.
          1    1    1    2  502    0  0.33342613451E+02  0.26251984656E+02  0.12299692083E+03  0.13011202521E+03  0.00000000000E+00 0. -1.
         -1    1    1    2    0  501 -0.33342613451E+02 -0.26251984656E+02  0.19438945022E+03  0.19896772333E+03  0.00000000000E+00 0.  1.
</event>
<event>
 4    1  0.6754235E+001  0.2973589E+02  0.7546771E-02  0.1421906E+00
          2   -1    0    0  502    0  0.00000000000E+00  0.00000000000E+00  0.16581027208E+04  0.16581027208E+04  0.00000000000E+00 0.  1.
         -2   -1    0    0    0  501 -0.00000000000E+00 -0.00000000000E+00 -0.63717985095E+00  0.63717985095E+00  0.00000000000E+00 0. -1.
          1    1    1    2  502    0  0.21767020977E+02  0.20258818996E+02  0.49381558475E+03  0.49471007135E+03  0.00000000000E+00 0. -1.
         -1    1    1    2    0  501 -0.21767020977E+02 -0.20258818996E+02  0.11636499562E+04  0.11640298293E+04  0.00000000000E+00 0.  1.
</event>
<event>
 4    1  0.6754235E+001  0.2482973E+02  0.7546771E-02  0.1470717E+00
          2   -1    0    0  502    0  0.00000000000E+00  0.00000000000E+00  0.14296618063E+02  0.14296618063E+02  0.00000000000E+00 0. -1.
         -2   -1    0    0    0  501 -0.00000000000E+00 -0.00000000000E+00 -0.60567930015E+02  0.60567930015E+02  0.00000000000E+00 0.  1.
          1    1    1    2  502    0 -0.15801248810E+02  0.19152964097E+02 -0.43224610700E+02  0.49848595445E+02  0.00000000000E+00 0.  1.
         -1    1    1    2    0  501  0.15801248810E+02 -0.19152964097E+02 -0.30467012520E+01  0.25015952634E+02  0.00000000000E+00 0. -1.
</event>
<event>
 4    1  0.6754235E+001  0.2040572E+02  0.7546771E-02  0.1527921E+00
          2   -1    0    0  502    0  0.00000000000E+00  0.00000000000E+00  0.17526083945E+02  0.17526083945E+02  0.00000000000E+00 0. -1.
         -2   -1    0    0    0  501 -0.00000000000E+00 -0.00000000000E+00 -0.26540570785E+02  0.26540570785E+02  0.00000000000E+00 0.  1.
          1    1    1    2  502    0 -0.16277706598E+02  0.12305671104E+02 -0.11640862261E+02  0.23492614746E+02  0.00000000000E+00 0.  1.
         -1    1    1    2    0  501  0.16277706598E+02 -0.12305671104E+02  0.26263754210E+01  0.20574039984E+02  0.00000000000E+00 0. -1.
</event>
<event>
 4    1  0.6754235E+001  0.6890754E+02  0.7546771E-02  0.1232243E+00
          2   -1    0    0  502    0  0.00000000000E+00  0.00000000000E+00  0.10167067357E+04  0.10167067357E+04  0.00000000000E+00 0.  1.
         -2   -1    0    0    0  501 -0.00000000000E+00 -0.00000000000E+00 -0.80967602365E+01  0.80967602365E+01  0.00000000000E+00 0. -1.
          1    1    1    2  502    0  0.34155695671E+02 -0.59846787159E+02  0.83764123948E+03  0.84047075830E+03  0.00000000000E+00 0.  1.
         -1    1    1    2    0  501 -0.34155695671E+02  0.59846787159E+02  0.17096873596E+03  0.18433273761E+03  0.00000000000E+00 0. -1.
</event>
<event>
 4    1  0.6754235E+001  0.2493231E+02  0.7546771E-02  0.1469562E+00
          2   -1    0    0  502    0  0.00000000000E+00  0.00000000000E+00  0.31569420196E+03  0.31569420196E+03  0.00000000000E+00 0.  1.
         -2   -1    0    0    0  501 -0.00000000000E+00 -0.00000000000E+00 -0.22561079617E+01  0.22561079617E+01  0.00000000000E+00 0. -1.
          1    1    1    2  502    0 -0.23079302629E+02  0.94321746365E+01  0.21342494364E+03  0.21487630557E+03  0.00000000000E+00 0.  1.
         -1    1    1    2    0  501  0.23079302629E+02 -0.94321746365E+01  0.10001315036E+03  0.10307400435E+03  0.00000000000E+00 0. -1.
</event>
<event>
 4    1  0.6754235E+001  0.2548156E+02  0.7546771E-02  0.1463488E+00
          2   -1    0    0  502    0  0.00000000000E+00  0.00000000000E+00  0.86203369289E+03  0.86203369289E+03  0.00000000000E+00 0.  1.
         -2   -1    0    0    0  501 -0.00000000000E+00 -0.00000000000E+00 -0.76345027301E+00  0.76345027301E+00  0.00000000000E+00 0. -1.
          1    1    1    2  502    0  0.25480886819E+02  0.18495431070E+00  0.48054833851E+03  0.48122345687E+03  0.00000000000E+00 0.  1.
         -1    1    1    2    0  501 -0.25480886819E+02 -0.18495431070E+00  0.38072190411E+03  0.38157368629E+03  0.00000000000E+00 0. -1.
</event>
<event>
 4    1  0.6754235E+001  0.2116749E+02  0.7546771E-02  0.1516887E+00
          2   -1    0    0  502    0  0.00000000000E+00  0.00000000000E+00  0.19516923585E+04  0.19516923585E+04  0.00000000000E+00 0. -1.
         -2   -1    0    0    0  501 -0.00000000000E+00 -0.00000000000E+00 -0.23083385735E+00  0.23083385735E+00  0.00000000000E+00 0.  1.
          1    1    1    2  502    0  0.32043369287E+01  0.20923547943E+02  0.90369995704E+03  0.90394782758E+03  0.00000000000E+00 0.  1.
         -1    1    1    2    0  501 -0.32043369287E+01 -0.20923547943E+02  0.10477615676E+04  0.10479753647E+04  0.00000000000E+00 0. -1.
</event>
<event>
 4    1  0.6754235E+001  0.2384381E+02  0.7546771E-02  0.1482166E+00
          2   -1    0    0  502    0  0.00000000000E+00  0.00000000000E+00  0.13452459966E+02  0.13452459966E+02  0.00000000000E+00 0.  1.
         -2   -1    0    0    0  501 -0.00000000000E+00 -0.00000000000E+00 -0.60327163510E+02  0.60327163510E+02  0.00000000000E+00 0. -1.
          1    1    1    2  502    0 -0.19070190829E+02  0.14312764318E+02 -0.43624331527E+02  0.49715286400E+02  0.00000000000E+00 0. -1.
         -1    1    1    2    0  501  0.19070190829E+02 -0.14312764318E+02 -0.32503720171E+01  0.24064337076E+02  0.00000000000E+00 0.  1.
</event>
<event>
 4    1  0.6754235E+001  0.3702304E+02  0.7546771E-02  0.1366873E+00
          2   -1    0    0  502    0  0.00000000000E+00  0.00000000000E+00  0.10659358597E+04  0.10659358597E+04  0.00000000000E+00 0. -1.
         -2   -1    0    0    0  501 -0.00000000000E+00 -0.00000000000E+00 -0.15659467331E+01  0.15659467331E+01  0.00000000000E+00 0.  1.
          1    1    1    2  502    0  0.34370632923E+02 -0.13760994007E+02  0.30647434863E+03  0.30870249713E+03  0.00000000000E+00 0.  1.
         -1    1    1    2    0  501 -0.34370632923E+02  0.13760994007E+02  0.75789556436E+03  0.75879930933E+03  0.00000000000E+00 0. -1.
</event>
<event>
 4    1  0.6754235E+001  0.3106746E+02  0.7546771E-02  0.1410541E+00
          2   -1    0    0  502    0  0.00000000000E+00  0.00000000000E+00  0.92654920848E+02  0.92654920848E+02  0.00000000000E+00 0.  1.
         -2   -1    0    0    0  501 -0.00000000000E+00 -0.00000000000E+00 -0.10932751301E+02  0.10932751301E+02  0.00000000000E+00 0. -1.
          1    1    1    2  502    0 -0.17421334308E+02  0.25723218530E+02  0.52110527522E+02  0.60668722908E+02  0.00000000000E+00 0.  1.
         -1    1    1    2    0  501  0.17421334308E+02 -0.25723218530E+02  0.29611642025E+02  0.42918949242E+02  0.00000000000E+00 0. -1.
</event>
<event>
 4    1  0.6754235E+001  0.4208711E+02  0.7546771E-02  0.1336671E+00
          2   -1    0    0  502    0  0.00000000000E+00  0.00000000000E+00  0.10896413260E+04  0.10896413260E+04  0.00000000000E+00 0.  1.
         -2   -1    0    0    0  501 -0.00000000000E+00 -0.00000000000E+00 -0.20887253621E+01  0.20887253621E+01  0.00000000000E+00 0. -1.
          1    1    1    2  502    0 -0.24583211572E+02  0.34161240528E+02  0.28674128698E+03  0.28981354403E+03  0.00000000000E+00 0. -1.
         -1    1    1    2    0  501  0.24583211572E+02 -0.34161240528E+02  0.80081131366E+03  0.80191650734E+03  0.00000000000E+00 0.  1.
</event>
<event>
 4    1  0.6754235E+001  0.2673462E+02  0.7546771E-02  0.1450292E+00
          2   -1    0    0  502    0  0.00000000000E+00  0.00000000000E+00  0.15622898216E+02  0.15622898216E+02  0.00000000000E+00 0.  1.
         -2   -1    0    0    0  501 -0.00000000000E+00 -0.00000000000E+00 -0.47367197634E+02  0.47367197634E+02  0.00000000000E+00 0. -1.
          1    1    1    2  502    0  0.26637401854E+02 -0.22778846607E+01 -0.21692522187E+02  0.34428265349E+02  0.00000000000E+00 0. -1.
         -1    1    1    2    0  501 -0.26637401854E+02  0.22778846607E+01 -0.10051777232E+02  0.28561830502E+02  0.00000000000E+00 0.  1.
</event>
<event>
 4    1  0.6754235E+001  0.2146905E+02  0.7546771E-02  0.1512672E+00
          2   -1    0    0  502    0  0.00000000000E+00  0.00000000000E+00  0.14125605978E+04  0.14125605978E+04  0.00000000000E+00 0. -1.
         -2   -1    0    0    0  501 -0.00000000000E+00 -0.00000000000E+00 -0.34629775030E+00  0.34629775030E+00  0.00000000000E+00 0.  1.
          1    1    1    2  502    0 -0.18329591831E+02 -0.11177934554E+02  0.53634662129E+03  0.53677613428E+03  0.00000000000E+00 0.  1.
         -1    1    1    2    0  501  0.18329591831E+02  0.11177934554E+02  0.87586767878E+03  0.87613076130E+03  0.00000000000E+00 0. -1.
</event>
<event>
 4    1  0.6754235E+001  0.2024139E+02  0.7546771E-02  0.1530377E+00
          2   -1    0    0  502    0  0.00000000000E+00  0.00000000000E+00  0.36832650854E+01  0.36832650854E+01  0.00000000000E+00 0. -1.
         -2   -1    0    0    0  501 -0.00000000000E+00 -0.00000000000E+00 -0.37036226368E+03  0.37036226368E+03  0.00000000000E+00 0.  1.
          1    1    1    2  502    0  0.25028004876E+01  0.20086059716E+02 -0.26903630324E+02  0.33667775836E+02  0.00000000000E+00 0. -1.
         -1    1    1    2    0  501 -0.25028004876E+01 -0.20086059716E+02 -0.33977536827E+03  0.34037775293E+03  0.00000000000E+00 0.  1.
</event>
<event>
 4    1  0.6754235E+001  0.2203270E+02  0.7546771E-02  0.1505015E+00
          2   -1    0    0  502    0  0.00000000000E+00  0.00000000000E+00  0.33817812792E+03  0.33817812792E+03  0.00000000000E+00 0. -1.
         -2   -1    0    0    0  501 -0.00000000000E+00 -0.00000000000E+00 -0.85386982978E+01  0.85386982978E+01  0.00000000000E+00 0.  1.
          1    1    1    2  502    0 -0.16623654303E+02  0.14460088197E+02  0.67031450326E+01  0.23029810819E+02  0.00000000000E+00 0.  1.
         -1    1    1    2    0  501  0.16623654303E+02 -0.14460088197E+02  0.32293628459E+03  0.32368701540E+03  0.00000000000E+00 0. -1.
</event>
<event>
 4    1  0.6754235E+001  0.4661911E+02  0.7546771E-02  0.1313536E+00
          2   -1    0    0  502    0  0.00000000000E+00  0.00000000000E+00  0.12837647647E+04  0.12837647647E+04  0.00000000000E+00 0. -1.
         -2   -1    0    0    0  501 -0.00000000000E+00 -0.00000000000E+00 -0.21044858047E+01  0.21044858047E+01  0.00000000000E+00 0.  1.
          1    1    1    2  502    0 -0.44610461764E+02 -0.13536930908E+02  0.35651445536E+03  0.35954957750E+03  0.00000000000E+00 0.  1.
         -1    1    1    2    0  501  0.44610461764E+02  0.13536930908E+02  0.92514582357E+03  0.92631967305E+03  0.00000000000E+00 0. -1.
</event>
<event>
 4    1  0.6754235E+001  0.2028900E+02  0.7546771E-02  0.1529663E+00
          2   -1    0    0  502    0  0.00000000000E+00  0.00000000000E+00  0.28666892110E+01  0.28666892110E+01  0.00000000000E+00 0.  1.
         -2   -1    0    0    0  501 -0.00000000000E+00 -0.00000000000E+00 -0.14822807634E+03  0.14822807634E+03  0.00000000000E+00 0. -1.
          1    1    1    2  502    0  0.50020096372E+01 -0.19662741719E+02 -0.86036436989E+02  0.88396334778E+02  0.00000000000E+00 0. -1.
         -1    1    1    2    0  501 -0.50020096372E+01  0.19662741719E+02 -0.59324950136E+02  0.62698430770E+02  0.00000000000E+00 0.  1.
</event>
<event>
 4    1  0.6754235E+001  0.3772039E+02  0.7546771E-02  0.1362388E+00
          2   -1    0    0  502    0  0.00000000000E+00  0.00000000000E+00  0.17879050790E+03  0.17879050790E+03  0.00000000000E+00 0.  1.
         -2   -1    0    0    0  501 -0.00000000000E+00 -0.00000000000E+00 -0.94943393887E+01  0.94943393887E+01  0.00000000000E+00 0. -1.
          1    1    1    2  502    0  0.36424367162E+02 -0.98027242675E+01  0.12251729495E+03  0.12819249388E+03  0.00000000000E+00 0.  1.
         -1    1    1    2    0  501 -0.36424367162E+02  0.98027242675E+01  0.46778873564E+02  0.60092353408E+02  0.00000000000E+00 0. -1.
</event>
<event>
 4    1  0.6754235E+001  0.2274897E+02  0.7546771E-02  0.1495675E+00
          2   -1    0    0  502    0  0.00000000000E+00  0.00000000000E+00  0.83604344551E+03  0.83604344551E+03  0.00000000000E+00 0.  1.
         -2   -1    0    0    0  501 -0.00000000000E+00 -0.00000000000E+00 -0.18079535136E+01  0.18079535136E+01  0.00000000000E+00 0. -1.
          1    1    1    2  502    0 -0.11406218663E+02  0.19682824930E+02  0.77394846789E+02  0.80668939071E+02  0.00000000000E+00 0. -1.
         -1    1    1    2    0  501  0.11406218663E+02 -0.19682824930E+02  0.75684064521E+03  0.75718245995E+03  0.00000000000E+00 0.  1.
</event>
<event>
 4    1  0.6754235E+001  0.2921520E+02  0.7546771E-02  0.1426541E+00
          2   -1    0    0  502    0  0.00000000000E+00  0.00000000000E+00  0.11298202769E+04  0.11298202769E+04  0.00000000000E+00 0. -1.
         -2   -1    0    0    0  501 -0.00000000000E+00 -0.00000000000E+00 -0.76789981614E+00  0.76789981614E+00  0.00000000000E+00 0.  1.
          1    1    1    2  502    0 -0.28769580258E+02  0.50832035489E+01  0.63649208905E+03  0.63716222984E+03  0.00000000000E+00 0.  1.
         -1    1    1    2    0  501  0.28769580258E+02 -0.50832035489E+01  0.49256028808E+03  0.49342594693E+03  0.00000000000E+00 0. -1.
</event>
<event>
 4    1  0.6754235E+001  0.2792511E+02  0.7546771E-02  0.1438530E+00
          2   -1    0    0  502    0  0.00000000000E+00  0.00000000000E+00  0.21051997811E+01  0.21051997811E+01  0.00000000000E+00 0. -1.
         -2   -1    0    0    0  501 -0.00000000000E+00 -0.00000000000E+00 -0.41656284376E+03  0.41656284376E+03  0.00000000000E+00 0.  1.
          1    1    1    2  502    0 -0.67185827114E+01  0.27104836928E+02 -0.27689853966E+03  0.27830309521E+03  0.00000000000E+00 0.  1.
         -1    1    1    2    0  501  0.67185827114E+01 -0.27104836928E+02 -0.13755910433E+03  0.14036494834E+03  0.00000000000E+00 0. -1.
</event>
<event>
 4    1  0.6754235E+001  0.2623843E+02  0.7546771E-02  0.1455412E+00
          2   -1    0    0  502    0  0.00000000000E+00  0.00000000000E+00  0.40653775199E+03  0.40653775199E+03  0.00000000000E+00 0. -1.
         -2   -1    0    0    0  501 -0.00000000000E+00 -0.00000000000E+00 -0.65267437474E+01  0.65267437474E+01  0.00000000000E+00 0.  1.
          1    1    1    2  502    0  0.25853093938E+02  0.44802508187E+01  0.22275491798E+02  0.34418783366E+02  0.00000000000E+00 0.  1.
         -1    1    1    2    0  501 -0.25853093938E+02 -0.44802508187E+01  0.37773551644E+03  0.37864571237E+03  0.00000000000E+00 0. -1.
</event>
<event>
 4    1  0.6754235E+001  0.2538501E+02  0.7546771E-02  0.1464542E+00
          2   -1    0    0  502    0  0.00000000000E+00  0.00000000000E+00  0.62638376327E+02  0.62638376327E+02  0.00000000000E+00 0.  1.
         -2   -1    0    0    0  501 -0.00000000000E+00 -0.00000000000E+00 -0.16179825481E+02  0.16179825481E+02  0.00000000000E+00 0. -1.
          1    1    1    2  502    0 -0.16784901706E+02  0.19043791558E+02  0.47011313842E+02  0.53427170534E+02  0.00000000000E+00 0.  1.
         -1    1    1    2    0  501  0.16784901706E+02 -0.19043791558E+02 -0.55276299557E+00  0.25391031273E+02  0.00000000000E+00 0. -1.
</event>
<event>
 4    1  0.6754235E+001  0.5259616E+02  0.7546771E-02  0.1287292E+00
          2   -1    0    0  502    0  0.00000000000E+00  0.00000000000E+00  0.21103095900E+03  0.21103095900E+03  0.00000000000E+00 0. -1.
         -2   -1    0    0    0  501 -0.00000000000E+00 -0.00000000000E+00 -0.17252588989E+02  0.17252588989E+02  0.00000000000E+00 0.  1.
          1    1    1    2  502    0 -0.15437213872E+02 -0.50279697981E+02  0.15282861577E+03  0.16162593047E+03  0.00000000000E+00 0.  1.
         -1    1    1    2    0  501  0.15437213872E+02  0.50279697981E+02  0.40949754241E+02  0.66657617521E+02  0.00000000000E+00 0. -1.
</event>
<event>
 4    1  0.6754235E+001  0.2671113E+02  0.7546771E-02  0.1450532E+00
          2   -1    0    0  502    0  0.00000000000E+00  0.00000000000E+00  0.39339893403E+02  0.39339893403E+02  0.00000000000E+00 0. -1.
         -2   -1    0    0    0  501 -0.00000000000E+00 -0.00000000000E+00 -0.24415828712E+02  0.24415828712E+02  0.00000000000E+00 0.  1.
          1    1    1    2  502    0 -0.23162769931E+02  0.13303026555E+02 -0.87043620088E+01  0.28093599705E+02  0.00000000000E+00 0.  1.
         -1    1    1    2    0  501  0.23162769931E+02 -0.13303026555E+02  0.23628426700E+02  0.35662122409E+02  0.00000000000E+00 0. -1.
</event>
<event>
 4    1  0.6754235E+001  0.2135225E+02  0.7546771E-02  0.1514295E+00
          2   -1    0    0  502    0  0.00000000000E+00  0.00000000000E+00  0.38194050870E+02  0.38194050870E+02  0.00000000000E+00 0.  1.
         -2   -1    0    0    0  501 -0.00000000000E+00 -0.00000000000E+00 -0.11951485905E+02  0.11951485905E+02  0.00000000000E+00 0. -1.
          1    1    1    2  502    0  0.17683147619E+02  0.11967659316E+02  0.12245385965E+02  0.24614387188E+02  0.00000000000E+00 0. -1.
         -1    1    1    2    0  501 -0.17683147619E+02 -0.11967659316E+02  0.13997179000E+02  0.25531149586E+02  0.00000000000E+00 0.  1.
</event>
<event>
 4    1  0.6754235E+001  0.2366936E+02  0.7546771E-02  0.1484260E+00
          2   -1    0    0  502    0  0.00000000000E+00  0.00000000000E+00  0.15646912659E+01  0.15646912659E+01  0.00000000000E+00 0. -1.
         -2   -1    0    0    0  501 -0.00000000000E+00 -0.00000000000E+00 -0.56237293870E+03  0.56237293870E+03  0.00000000000E+00 0.  1.
          1    1    1    2  502    0 -0.23606026194E+02  0.17303328658E+01 -0.45036418553E+03  0.45098574050E+03  0.00000000000E+00 0.  1.
         -1    1    1    2    0  501  0.23606026194E+02 -0.17303328658E+01 -0.11044406190E+03  0.11295188947E+03  0.00000000000E+00 0. -1.
</event>
<event>
 4    1  0.6754235E+001  0.2195788E+02  0.7546771E-02  0.1506016E+00
          2   -1    0    0  502    0  0.00000000000E+00  0.00000000000E+00  0.61087188306E+03  0.61087188306E+03  0.00000000000E+00 0.  1.
         -2   -1    0    0    0  501 -0.00000000000E+00 -0.00000000000E+00 -0.88299122481E+00  0.88299122481E+00  0.00000000000E+00 0. -1.
          1    1    1    2  502    0  0.21936429823E+02 -0.97039568470E+00  0.40464193062E+03  0.40523726462E+03  0.00000000000E+00 0.  1.
         -1    1    1    2    0  501 -0.21936429823E+02  0.97039568470E+00  0.20534696122E+03  0.20651760967E+03  0.00000000000E+00 0. -1.
</event>
<event>
 4    1  0.6754235E+001  0.2017462E+02  0.7546771E-02  0.1531383E+00
          2   -1    0    0  502    0  0.00000000000E+00  0.00000000000E+00  0.71040225052E+03  0.71040225052E+03  0.00000000000E+00 0.  1.
         -2   -1    0    0    0  501 -0.00000000000E+00 -0.00000000000E+00 -0.62698645293E+00  0.62698645293E+00  0.00000000000E+00 0. -1.
          1    1    1    2  502    0  0.93776775861E+01 -0.17862650196E+02  0.45927010265E+03  0.45971299992E+03  0.00000000000E+00 0.  1.
         -1    1    1    2    0  501 -0.93776775861E+01  0.17862650196E+02  0.25050516142E+03  0.25131623705E+03  0.00000000000E+00 0. -1.
</event>
<event>
 4    1  0.6754235E+001  0.2179520E+02  0.7546771E-02  0.1508207E+00
          2   -1    0    0  502    0  0.00000000000E+00  0.00000000000E+00  0.25678061835E+03  0.25678061835E+03  0.00000000000E+00 0.  1.
         -2   -1    0    0    0  501 -0.00000000000E+00 -0.00000000000E+00 -0.30246880994E+01  0.30246880994E+01  0.00000000000E+00 0. -1.
          1    1    1    2  502    0 -0.54621460805E+01  0.21099663590E+02  0.20783387943E+03  0.20897356838E+03  0.00000000000E+00 0.  1.
         -1    1    1    2    0  501  0.54621460805E+01 -0.21099663590E+02  0.45922050824E+02  0.50831738071E+02  0.00000000000E+00 0. -1.
</event>
<event>
 4    1  0.6754235E+001  0.2474467E+02  0.7546771E-02  0.1471680E+00
          2   -1    0    0  502    0  0.00000000000E+00  0.00000000000E+00  0.29895602070E+03  0.29895602070E+03  0.00000000000E+00 0.  1.
         -2   -1    0    0    0  501 -0.00000000000E+00 -0.00000000000E+00 -0.22621339838E+01  0.22621339838E+01  0.00000000000E+00 0. -1.
          1    1    1    2  502    0 -0.22051664383E+02 -0.11225996397E+02  0.10202259111E+03  0.10498051245E+03  0.00000000000E+00 0. -1.
         -1    1    1    2    0  501  0.22051664383E+02  0.11225996397E+02  0.19467129560E+03  0.19623764223E+03  0.00000000000E+00 0.  1.
</event>
<event>
 4    1  0.6754235E+001  0.2934975E+02  0.7546771E-02  0.1425333E+00
          2   -1    0    0  502    0  0.00000000000E+00  0.00000000000E+00  0.85539059233E+03  0.85539059233E+03  0.00000000000E+00 0. -1.
         -2   -1    0    0    0  501 -0.00000000000E+00 -0.00000000000E+00 -0.10217485806E+01  0.10217485806E+01  0.00000000000E+00 0.  1.
          1    1    1    2  502    0  0.96566041736E+01 -0.27715660405E+02  0.37579810481E+03  0.37694246699E+03  0.00000000000E+00 0. -1.
         -1    1    1    2    0  501 -0.96566041736E+01  0.27715660405E+02  0.47857073894E+03  0.47946987393E+03  0.00000000000E+00 0.  1.
</event>
<event>
 4    1  0.6754235E+001  0.2547968E+02  0.7546771E-02  0.1463508E+00
          2   -1    0    0  502    0  0.00000000000E+00  0.00000000000E+00  0.30461253051E+02  0.30461253051E+02  0.00000000000E+00 0. -1.
         -2   -1    0    0    0  501 -0.00000000000E+00 -0.00000000000E+00 -0.23730254908E+02  0.23730254908E+02  0.00000000000E+00 0.  1.
          1    1    1    2  502    0 -0.23573212578E+02 -0.96704554519E+01  0.12013800234E+02  0.28169938870E+02  0.00000000000E+00 0.  1.
         -1    1    1    2    0  501  0.23573212578E+02  0.96704554519E+01 -0.52828020909E+01  0.26021569088E+02  0.00000000000E+00 0. -1.
</event>
<event>
 4    1  0.6754235E+001  0.7335893E+02  0.7546771E-02  0.1220165E+00
          2   -1    0    0  502    0  0.00000000000E+00  0.00000000000E+00  0.12446497186E+04  0.12446497186E+04  0.00000000000E+00 0. -1.
         -2   -1    0    0    0  501 -0.00000000000E+00 -0.00000000000E+00 -0.43878908789E+01  0.43878908789E+01  0.00000000000E+00 0.  1.
          1    1    1    2  502    0  0.72260901170E+02  0.12644973597E+02  0.69564748207E+03  0.69950479091E+03  0.00000000000E+00 0. -1.
         -1    1    1    2    0  501 -0.72260901170E+02 -0.12644973597E+02  0.54461434561E+03  0.54953281852E+03  0.00000000000E+00 0.  1.
</event>
<event>
 4    1  0.6754235E+001  0.2322283E+02  0.7546771E-02  0.1489719E+00
          2   -1    0    0  502    0  0.00000000000E+00  0.00000000000E+00  0.56226763972E+03  0.56226763972E+03  0.00000000000E+00 0. -1.
         -2   -1    0    0    0  501 -0.00000000000E+00 -0.00000000000E+00 -0.10222484227E+01  0.10222484227E+01  0.00000000000E+00 0.  1.
          1    1    1    2  502    0  0.21371154735E+02 -0.90870060649E+01  0.35059518276E+03  0.35136346155E+03  0.00000000000E+00 0. -1.
         -1    1    1    2    0  501 -0.21371154735E+02  0.90870060649E+01  0.21065020854E+03  0.21192642660E+03  0.00000000000E+00 0.  1.
</event>
<event>
 4    1  0.6754235E+001  0.2935030E+02  0.7546771E-02  0.1425328E+00
          2   -1    0    0  502    0  0.00000000000E+00  0.00000000000E+00  0.27767817550E+03  0.27767817550E+03  0.00000000000E+00 0. -1.
         -2   -1    0    0    0  501 -0.00000000000E+00 -0.00000000000E+00 -0.64196881129E+01  0.64196881129E+01  0.00000000000E+00 0.  1.
          1    1    1    2  502    0 -0.20932969155E+02  0.20573068454E+02  0.33516650516E+02  0.44551163902E+02  0.00000000000E+00 0.  1.
         -1    1    1    2    0  501  0.20932969155E+02 -0.20573068454E+02  0.23774183687E+03  0.23954669971E+03  0.00000000000E+00 0. -1.
</event>
<event>
 4    1  0.6754235E+001  0.2637858E+02  0.7546771E-02  0.1453952E+00
          2   -1    0    0  502    0  0.00000000000E+00  0.00000000000E+00  0.17156558628E+04  0.17156558628E+04  0.00000000000E+00 0. -1.
         -2   -1    0    0    0  501 -0.00000000000E+00 -0.00000000000E+00 -0.40951002014E+00  0.40951002014E+00  0.00000000000E+00 0.  1.
          1    1    1    2  502    0 -0.10447244981E+02  0.24221568837E+02  0.94171898185E+03  0.94208835578E+03  0.00000000000E+00 0.  1.
         -1    1    1    2    0  501  0.10447244981E+02 -0.24221568837E+02  0.77352737097E+03  0.77397701707E+03  0.00000000000E+00 0. -1.
</event>
<event>
 4    1  0.6754235E+001  0.2582170E+02  0.7546771E-02  0.1459817E+00
          2   -1    0    0  502    0  0.00000000000E+00  0.00000000000E+00  0.17623313583E+04  0.17623313583E+04  0.00000000000E+00 0.  1.
         -2   -1    0    0    0  501 -0.00000000000E+00 -0.00000000000E+00 -0.37941556528E+00  0.37941556528E+00  0.00000000000E+00 0. -1.
          1    1    1    2  502    0 -0.20056804276E+02 -0.16262987663E+02  0.92790526561E+03  0.92826447854E+03  0.00000000000E+00 0. -1.
         -1    1    1    2    0  501  0.20056804276E+02  0.16262987663E+02  0.83404667713E+03  0.83444629533E+03  0.00000000000E+00 0.  1.
</event>
<event>
 4    1  0.6754235E+001  0.2616615E+02  0.7546771E-02  0.1456169E+00
          2   -1    0    0  502    0  0.00000000000E+00  0.00000000000E+00  0.59804125215E+03  0.59804125215E+03  0.00000000000E+00 0.  1.
         -2   -1    0    0    0  501 -0.00000000000E+00 -0.00000000000E+00 -0.25270730539E+01  0.25270730539E+01  0.00000000000E+00 0. -1.
          1    1    1    2  502    0 -0.24965086064E+02 -0.78365632825E+01  0.51983873628E+03  0.52049685780E+03  0.00000000000E+00 0.  1.
         -1    1    1    2    0  501  0.24965086064E+02  0.78365632825E+01  0.75675442821E+02  0.80071467406E+02  0.00000000000E+00 0. -1.
</event>
<event>
 4    1  0.6754235E+001  0.2279038E+02  0.7546771E-02  0.1495147E+00
          2   -1    0    0  502    0  0.00000000000E+00  0.00000000000E+00  0.10422945280E+02  0.10422945280E+02  0.00000000000E+00 0.  1.
         -2   -1    0    0    0  501 -0.00000000000E+00 -0.00000000000E+00 -0.51779625363E+02  0.51779625363E+02  0.00000000000E+00 0. -1.
          1    1    1    2  502    0 -0.22577912938E+02 -0.31047223501E+01 -0.26709425622E+02  0.35111178712E+02  0.00000000000E+00 0. -1.
         -1    1    1    2    0  501  0.22577912938E+02  0.31047223501E+01 -0.14647254462E+02  0.27091391931E+02  0.00000000000E+00 0.  1.
</event>
<event>
 4    1  0.6754235E+001  0.2317689E+02  0.7546771E-02  0.1490289E+00
          2   -1    0    0  502    0  0.00000000000E+00  0.00000000000E+00  0.31279971255E+03  0.31279971255E+03  0.00000000000E+00 0. -1.
         -2   -1    0    0    0  501 -0.00000000000E+00 -0.00000000000E+00 -0.17694483456E+01  0.17694483456E+01  0.00000000000E+00 0.  1.
          1    1    1    2  502    0  0.20013621272E+02 -0.11688584742E+02  0.18251900335E+03  0.18398465869E+03  0.00000000000E+00 0. -1.
         -1    1    1    2    0  501 -0.20013621272E+02  0.11688584742E+02  0.12851126086E+03  0.13058450221E+03  0.00000000000E+00 0.  1.
</event>
<event>
 4    1  0.6754235E+001  0.2306935E+02  0.7546771E-02  0.1491629E+00
          2   -1    0    0  502    0  0.00000000000E+00  0.00000000000E+00  0.11799473887E+02  0.11799473887E+02  0.00000000000E+00 0. -1.
         -2   -1    0    0    0  501 -0.00000000000E+00 -0.00000000000E+00 -0.48148952930E+02  0.48148952930E+02  0.00000000000E+00 0.  1.
          1    1    1    2  502    0  0.16623717247E+02 -0.15995221488E+02 -0.25713419930E+02  0.34545260892E+02  0.00000000000E+00 0. -1.
         -1    1    1    2    0  501 -0.16623717247E+02  0.15995221488E+02 -0.10636059113E+02  0.25403165925E+02  0.00000000000E+00 0.  1.
</event>
<event>
 4    1  0.6754235E+001  0.4699442E+02  0.7546771E-02  0.1311757E+00
          2   -1    0    0  502    0  0.00000000000E+00  0.00000000000E+00  0.14117282982E+02  0.14117282982E+02  0.00000000000E+00 0.  1.
         -2   -1    0    0    0  501 -0.00000000000E+00 -0.00000000000E+00 -0.15812587307E+03  0.15812587307E+03  0.00000000000E+00 0. -1.
          1    1    1    2  502    0  0.46738787154E+02 -0.48949866202E+01 -0.80902870012E+02  0.93561474416E+02  0.00000000000E+00 0. -1.
         -1    1    1    2    0  501 -0.46738787154E+02  0.48949866202E+01 -0.63105720075E+02  0.78681681635E+02  0.00000000000E+00 0.  1.
</event>
<event>
 4    1  0.6754235E+001  0.3090110E+02  0.7546771E-02  0.1411924E+00
          2   -1    0    0  502    0  0.00000000000E+00  0.00000000000E+00  0.40583019329E+03  0.40583019329E+03  0.00000000000E+00 0. -1.
         -2   -1    0    0    0  501 -0.00000000000E+00 -0.00000000000E+00 -0.23654581877E+01  0.23654581877E+01  0.00000000000E+00 0.  1.
          1    1    1    2  502    0 -0.25880859959E+02 -0.16883687003E+02  0.18686113728E+03  0.18939895043E+03  0.00000000000E+00 0.  1.
         -1    1    1    2    0  501  0.25880859959E+02  0.16883687003E+02  0.21660359782E+03  0.21879670104E+03  0.00000000000E+00 0. -1.
</event>
<event>
 4    1  0.6754235E+001  0.2565519E+02  0.7546771E-02  0.1461606E+00
          2   -1    0    0  502    0  0.00000000000E+00  0.00000000000E+00  0.30929675697E+03  0.30929675697E+03  0.00000000000E+00 0. -1.
         -2   -1    0    0    0  501 -0.00000000000E+00 -0.00000000000E+00 -0.28822695813E+01  0.28822695813E+01  0.00000000000E+00 0.  1.
          1    1    1    2  502    0 -0.24679157267E+02  0.70091498976E+01  0.23305534927E+03  0.23446318434E+03  0.00000000000E+00 0. -1.
         -1    1    1    2    0  501  0.24679157267E+02 -0.70091498976E+01  0.73359138121E+02  0.77715842217E+02  0.00000000000E+00 0.  1.
</event>
<event>
 4    1  0.6754235E+001  0.3406771E+02  0.7546771E-02  0.1387239E+00
          2   -1    0    0  502    0  0.00000000000E+00  0.00000000000E+00  0.28236674062E+03  0.28236674062E+03  0.00000000000E+00 0. -1.
         -2   -1    0    0    0  501 -0.00000000000E+00 -0.00000000000E+00 -0.46166969524E+01  0.46166969524E+01  0.00000000000E+00 0.  1.
          1    1    1    2  502    0  0.26121151938E+02 -0.21869946548E+02  0.91351232828E+02  0.97496958311E+02  0.00000000000E+00 0.  1.
         -1    1    1    2    0  501 -0.26121151938E+02  0.21869946548E+02  0.18639881084E+03  0.18948647926E+03  0.00000000000E+00 0. -1.
</event>
<event>
 4    1  0.6754235E+001  0.3112690E+02  0.7546771E-02  0.1410050E+00
          2   -1    0    0  502    0  0.00000000000E+00  0.00000000000E+00  0.62059356728E+03  0.62059356728E+03  0.00000000000E+00 0.  1.
         -2   -1    0    0    0  501 -0.00000000000E+00 -0.00000000000E+00 -0.26990568041E+01  0.26990568041E+01  0.00000000000E+00 0. -1.
          1    1    1    2  502    0  0.16870346984E+02 -0.26158650421E+02  0.10660070189E+03  0.11105220953E+03  0.00000000000E+00 0. -1.
         -1    1    1    2    0  501 -0.16870346984E+02  0.26158650421E+02  0.51129380859E+03  0.51224041455E+03  0.00000000000E+00 0.  1.
</event>
<event>
 4    1  0.6754235E+001  0.2170450E+02  0.7546771E-02  0.1509440E+00
          2   -1    0    0  502    0  0.00000000000E+00  0.00000000000E+00  0.21438551080E+04  0.21438551080E+04  0.00000000000E+00 0. -1.
         -2   -1    0    0    0  501 -0.00000000000E+00 -0.00000000000E+00 -0.22482544542E+00  0.22482544542E+00  0.00000000000E+00 0.  1.
          1    1    1    2  502    0 -0.81794643138E+01 -0.20104270802E+02  0.91054280320E+03  0.91080145026E+03  0.00000000000E+00 0. -1.
         -1    1    1    2    0  501  0.81794643138E+01  0.20104270802E+02  0.12330874793E+04  0.12332784832E+04  0.00000000000E+00 0.  1.
</event>
<event>
 4    1  0.6754235E+001  0.2579488E+02  0.7546771E-02  0.1460104E+00
          2   -1    0    0  502    0  0.00000000000E+00  0.00000000000E+00  0.20129188771E+04  0.20129188771E+04  0.00000000000E+00 0.  1.
         -2   -1    0    0    0  501 -0.00000000000E+00 -0.00000000000E+00 -0.34757143358E+00  0.34757143358E+00  0.00000000000E+00 0. -1.
          1    1    1    2  502    0  0.23678657904E+02  0.10232151287E+02  0.78353811947E+03  0.78396260142E+03  0.00000000000E+00 0. -1.
         -1    1    1    2    0  501 -0.23678657904E+02 -0.10232151287E+02  0.12290331862E+04  0.12293038472E+04  0.00000000000E+00 0.  1.
</event>
<event>
 4    1  0.6754235E+001  0.2090520E+02  0.7546771E-02  0.1520623E+00
          2   -1    0    0  502    0  0.00000000000E+00  0.00000000000E+00  0.80306972018E+03  0.80306972018E+03  0.00000000000E+00 0. -1.
         -2   -1    0    0    0  501 -0.00000000000E+00 -0.00000000000E+00 -0.62377981996E+00  0.62377981996E+00  0.00000000000E+00 0.  1.
          1    1    1    2  502    0 -0.22419759226E+01  0.20784633245E+02  0.25768829486E+03  0.25853488109E+03  0.00000000000E+00 0.  1.
         -1    1    1    2    0  501  0.22419759226E+01 -0.20784633245E+02  0.54475764550E+03  0.54515861890E+03  0.00000000000E+00 0. -1.
</event>
<event>
 4    1  0.6754235E+001  0.3314620E+02  0.7546771E-02  0.1394086E+00
          2   -1    0    0  502    0  0.00000000000E+00  0.00000000000E+00  0.33271458531E+02  0.33271458531E+02  0.00000000000E+00 0. -1.
         -2   -1    0    0    0  501 -0.00000000000E+00 -0.00000000000E+00 -0.34474250752E+02  0.34474250752E+02  0.00000000000E+00 0.  1.
          1    1    1    2  502    0  0.12487974333E+01 -0.33122668285E+02  0.63522501995E+01  0.33749396023E+02  0.00000000000E+00 0. -1.
         -1    1    1    2    0  501 -0.12487974333E+01  0.33122668285E+02 -0.75550424206E+01  0.33996313261E+02  0.00000000000E+00 0.  1.
</event>
<event>
 4    1  0.6754235E+001  0.2957878E+02  0.7546771E-02  0.1423293E+00
          2   -1    0    0  502    0  0.00000000000E+00  0.00000000000E+00  0.99957444727E+03  0.99957444727E+03  0.00000000000E+00 0.  1.
         -2   -1    0    0    0  501 -0.00000000000E+00 -0.00000000000E+00 -0.10659906615E+01  0.10659906615E+01  0.00000000000E+00 0. -1.
          1    1    1    2  502    0 -0.10610495318E+02  0.27610167060E+02  0.28763119980E+03  0.28914807804E+03  0.00000000000E+00 0.  1.
         -1    1    1    2    0  501  0.10610495318E+02 -0.27610167060E+02  0.71087725681E+03  0.71149235989E+03  0.00000000000E+00 0. -1.
</event>
<event>
 4    1  0.6754235E+001  0.3622335E+02  0.7546771E-02  0.1372161E+00
          2   -1    0    0  502    0  0.00000000000E+00  0.00000000000E+00  0.70555851480E+02  0.70555851480E+02  0.00000000000E+00 0.  1.
         -2   -1    0    0    0  501 -0.00000000000E+00 -0.00000000000E+00 -0.22856183099E+02  0.22856183099E+02  0.00000000000E+00 0. -1.
          1    1    1    2  502    0  0.35639918545E+02  0.64751265588E+01  0.36879401330E+01  0.36410602305E+02  0.00000000000E+00 0. -1.
         -1    1    1    2    0  501 -0.35639918545E+02 -0.64751265588E+01  0.44011728248E+02  0.57001432273E+02  0.00000000000E+00 0.  1.
</event>
<event>
 4    1  0.6754235E+001  0.3211257E+02  0.7546771E-02  0.1402085E+00
          2   -1    0    0  502    0  0.00000000000E+00  0.00000000000E+00  0.11970232801E+04  0.11970232801E+04  0.00000000000E+00 0. -1.
         -2   -1    0    0    0  501 -0.00000000000E+00 -0.00000000000E+00 -0.96359844503E+00  0.96359844503E+00  0.00000000000E+00 0.  1.
          1    1    1    2  502    0  0.28894446314E+02  0.14011713319E+02  0.40303805974E+03  0.40431534071E+03  0.00000000000E+00 0.  1.
         -1    1    1    2    0  501 -0.28894446314E+02 -0.14011713319E+02  0.79302162188E+03  0.79367153780E+03  0.00000000000E+00 0. -1.
</event>
<event>
 4    1  0.6754235E+001  0.2737456E+02  0.7546771E-02  0.1443881E+00
          2   -1    0    0  502    0  0.00000000000E+00  0.00000000000E+00  0.22187374972E+04  0.22187374972E+04  0.00000000000E+00 0. -1.
         -2   -1    0    0    0  501 -0.00000000000E+00 -0.00000000000E+00 -0.50753320783E+00  0.50753320783E+00  0.00000000000E+00 0.  1.
          1    1    1    2  502    0  0.17906463970E+01 -0.27315930565E+02  0.17509115318E+04  0.17511255120E+04  0.00000000000E+00 0. -1.
         -1    1    1    2    0  501 -0.17906463970E+01  0.27315930565E+02  0.46731843216E+03  0.46811951841E+03  0.00000000000E+00 0.  1.
</event>
<event>
 4    1  0.6754235E+001  0.2314405E+02  0.7546771E-02  0.1490697E+00
          2   -1    0    0  502    0  0.00000000000E+00  0.00000000000E+00  0.92458246718E+02  0.92458246718E+02  0.00000000000E+00 0. -1.
         -2   -1    0    0    0  501 -0.00000000000E+00 -0.00000000000E+00 -0.27849760681E+02  0.27849760681E+02  0.00000000000E+00 0.  1.
          1    1    1    2  502    0  0.82445938326E+01  0.21625765854E+02 -0.21228659158E+02  0.31405462039E+02  0.00000000000E+00 0.  1.
         -1    1    1    2    0  501 -0.82445938326E+01 -0.21625765854E+02  0.85837145195E+02  0.88902545360E+02  0.00000000000E+00 0. -1.
</event>
<event>
 4    1  0.6754235E+001  0.3179775E+02  0.7546771E-02  0.1404592E+00
          2   -1    0    0  502    0  0.00000000000E+00  0.00000000000E+00  0.50686077051E+01  0.50686077051E+01  0.00000000000E+00 0. -1.
         -2   -1    0    0    0  501 -0.00000000000E+00 -0.00000000000E+00 -0.32724864028E+03  0.32724864028E+03  0.00000000000E+00 0.  1.
          1    1    1    2  502    0 -0.37090624047E+01 -0.31580690883E+02 -0.26491271271E+03  0.26681424726E+03  0.00000000000E+00 0.  1.
         -1    1    1    2    0  501  0.37090624047E+01  0.31580690883E+02 -0.57267319857E+02  0.65503000727E+02  0.00000000000E+00 0. -1.
</event>
<event>
 4    1  0.6754235E+001  0.2172837E+02  0.7546771E-02  0.1509115E+00
          2   -1    0    0  502    0  0.00000000000E+00  0.00000000000E+00  0.10011608433E+03  0.10011608433E+03  0.00000000000E+00 0. -1.
         -2   -1    0    0    0  501 -0.00000000000E+00 -0.00000000000E+00 -0.47324794951E+01  0.47324794951E+01  0.00000000000E+00 0.  1.
          1    1    1    2  502    0  0.59719472048E+01  0.20891575963E+02  0.44574552119E+02  0.49588434097E+02  0.00000000000E+00 0. -1.
         -1    1    1    2    0  501 -0.59719472048E+01 -0.20891575963E+02  0.50809052717E+02  0.55260129728E+02  0.00000000000E+00 0.  1.
</event>
<event>
 4    1  0.6754235E+001  0.5653437E+02  0.7546771E-02  0.1272085E+00
          2   -1    0    0  502    0  0.00000000000E+00  0.00000000000E+00  0.10701089289E+04  0.10701089289E+04  0.00000000000E+00 0.  1.
         -2   -1    0    0    0  501 -0.00000000000E+00 -0.00000000000E+00 -0.30047444642E+01  0.30047444642E+01  0.00000000000E+00 0. -1.
          1    1    1    2  502    0  0.48130686861E+02 -0.29657585719E+02  0.57508779890E+03  0.57785994138E+03  0.00000000000E+00 0.  1.
         -1    1    1    2    0  501 -0.48130686861E+02  0.29657585719E+02  0.49201638556E+03  0.49525373200E+03  0.00000000000E+00 0. -1.
</event>
<event>
 4    1  0.6754235E+001  0.2973308E+02  0.7546771E-02  0.1421930E+00
          2   -1    0    0  502    0  0.00000000000E+00  0.00000000000E+00  0.22060223207E+03  0.22060223207E+03  0.00000000000E+00 0. -1.
         -2   -1    0    0    0  501 -0.00000000000E+00 -0.00000000000E+00 -0.40198409157E+01  0.40198409157E+01  0.00000000000E+00 0.  1.
          1    1    1    2  502    0  0.15481289638E+02  0.25384753424E+02  0.10205984898E+03  0.10630272249E+03  0.00000000000E+00 0. -1.
         -1    1    1    2    0  501 -0.15481289638E+02 -0.25384753424E+02  0.11452254217E+03  0.11831935049E+03  0.00000000000E+00 0.  1.
</event>
<event>
 4    1  0.6754235E+001  0.3375045E+02  0.7546771E-02  0.1389567E+00
          2   -1    0    0  502    0  0.00000000000E+00  0.00000000000E+00  0.12675919142E+02  0.12675919142E+02  0.00000000000E+00 0. -1.
         -2   -1    0    0    0  501 -0.00000000000E+00 -0.00000000000E+00 -0.90061909947E+02  0.90061909947E+02  0.00000000000E+00 0.  1.
          1    1    1    2  502    0  0.16516350122E+02 -0.29433027847E+02 -0.41108629191E+02  0.53188460624E+02  0.00000000000E+00 0.  1.
         -1    1    1    2    0  501 -0.16516350122E+02  0.29433027847E+02 -0.36277361614E+02  0.49549368465E+02  0.00000000000E+00 0. -1.
</event>
<event>
 4    1  0.6754235E+001  0.3899049E+02  0.7546771E-02  0.1354505E+00
          2   -1    0    0  502    0  0.00000000000E+00  0.00000000000E+00  0.10889396995E+04  0.10889396995E+04  0.00000000000E+00 0. -1.
         -2   -1    0    0    0  501 -0.00000000000E+00 -0.00000000000E+00 -0.13981671763E+01  0.13981671763E+01  0.00000000000E+00 0.  1.
          1    1    1    2  502    0 -0.90572702844E+01  0.37923924955E+02  0.56478189823E+03  0.56612617922E+03  0.00000000000E+00 0.  1.
         -1    1    1    2    0  501  0.90572702844E+01 -0.37923924955E+02  0.52275963413E+03  0.52421168749E+03  0.00000000000E+00 0. -1.
</event>
<event>
 4    1  0.6754235E+001  0.1138866E+03  0.7546771E-02  0.1141705E+00
          2   -1    0    0  502    0  0.00000000000E+00  0.00000000000E+00  0.49412672960E+03  0.49412672960E+03  0.00000000000E+00 0.  1.
         -2   -1    0    0    0  501 -0.00000000000E+00 -0.00000000000E+00 -0.38815674161E+02  0.38815674161E+02  0.00000000000E+00 0. -1.
          1    1    1    2  502    0  0.10288634061E+03  0.48831914282E+02  0.37927783511E+03  0.39600736248E+03  0.00000000000E+00 0. -1.
         -1    1    1    2    0  501 -0.10288634061E+03 -0.48831914282E+02  0.76033220333E+02  0.13693504128E+03  0.00000000000E+00 0.  1.
</event>
<event>
 4    1  0.6754235E+001  0.2025132E+02  0.7546771E-02  0.1530228E+00
          2   -1    0    0  502    0  0.00000000000E+00  0.00000000000E+00  0.29725629136E+02  0.29725629136E+02  0.00000000000E+00 0.  1.
         -2   -1    0    0    0  501 -0.00000000000E+00 -0.00000000000E+00 -0.18519288021E+02  0.18519288021E+02  0.00000000000E+00 0. -1.
          1    1    1    2  502    0  0.16635504545E+02 -0.11548851606E+02  0.17784616497E+02  0.26951967810E+02  0.00000000000E+00 0.  1.
         -1    1    1    2    0  501 -0.16635504545E+02  0.11548851606E+02 -0.65782753823E+01  0.21292949347E+02  0.00000000000E+00 0. -1.
</event>
<event>
 4    1  0.6754235E+001  0.3530890E+02  0.7546771E-02  0.1378404E+00
          2   -1    0    0  502    0  0.00000000000E+00  0.00000000000E+00  0.77960899756E+03  0.77960899756E+03  0.00000000000E+00 0.  1.
         -2   -1    0    0    0  501 -0.00000000000E+00 -0.00000000000E+00 -0.21875388216E+01  0.21875388216E+01  0.00000000000E+00 0. -1.
          1    1    1    2  502    0 -0.33191986310E+02 -0.12042021711E+02  0.59143931246E+03  0.59249234474E+03  0.00000000000E+00 0.  1.
         -1    1    1    2    0  501  0.33191986310E+02  0.12042021711E+02  0.18598214628E+03  0.18930419165E+03  0.00000000000E+00 0. -1.
</event>
<event>
 4    1  0.6754235E+001  0.1006970E+03  0.7546771E-02  0.1162606E+00
          2   -1    0    0  502    0  0.00000000000E+00  0.00000000000E+00  0.64147191192E+03  0.64147191192E+03  0.00000000000E+00 0. -1.
         -2   -1    0    0    0  501 -0.00000000000E+00 -0.00000000000E+00 -0.18527273336E+02  0.18527273336E+02  0.00000000000E+00 0.  1.
          1    1    1    2  502    0  0.89847115875E+02 -0.45468432634E+02  0.18502868024E+03  0.21065491950E+03  0.00000000000E+00 0.  1.
         -1    1    1    2    0  501 -0.89847115875E+02  0.45468432634E+02  0.43791595834E+03  0.44934426575E+03  0.00000000000E+00 0. -1.
</event>
<event>
 4    1  0.6754235E+001  0.2598777E+02  0.7546771E-02  0.1458050E+00
          2   -1    0    0  502    0  0.00000000000E+00  0.00000000000E+00  0.48533000686E+03  0.48533000686E+03  0.00000000000E+00 0. -1.
         -2   -1    0    0    0  501 -0.00000000000E+00 -0.00000000000E+00 -0.15119952776E+01  0.15119952776E+01  0.00000000000E+00 0.  1.
          1    1    1    2  502    0 -0.33450321062E+01  0.25771591710E+02  0.31061043912E+03  0.31169569947E+03  0.00000000000E+00 0. -1.
         -1    1    1    2    0  501  0.33450321062E+01 -0.25771591710E+02  0.17320757246E+03  0.17514630267E+03  0.00000000000E+00 0.  1.
</event>
<event>
 4    1  0.6754235E+001  0.1315019E+03  0.7546771E-02  0.1118246E+00
          2   -1    0    0  502    0  0.00000000000E+00  0.00000000000E+00  0.27298000414E+03  0.27298000414E+03  0.00000000000E+00 0.  1.
         -2   -1    0    0    0  501 -0.00000000000E+00 -0.00000000000E+00 -0.64080114858E+02  0.64080114858E+02  0.00000000000E+00 0. -1.
          1    1    1    2  502    0  0.97950037070E+02  0.87741394783E+02  0.86437262880E+02  0.15736633228E+03  0.00000000000E+00 0. -1.
         -1    1    1    2    0  501 -0.97950037070E+02 -0.87741394783E+02  0.12246262640E+03  0.17969378672E+03  0.00000000000E+00 0.  1.
</event>
<event>
 4    1  0.6754235E+001  0.2421798E+02  0.7546771E-02  0.1477745E+00
          2   -1    0    0  502    0  0.00000000000E+00  0.00000000000E+00  0.12111073859E+04  0.12111073859E+04  0.00000000000E+00 0. -1.
         -2   -1    0    0    0  501 -0.00000000000E+00 -0.00000000000E+00 -0.48501994501E+00  0.48501994501E+00  0.00000000000E+00 0.  1.
          1    1    1    2  502    0  0.22056977948E+02  0.10000013504E+02  0.58158961261E+03  0.58209362481E+03  0.00000000000E+00 0. -1.
         -1    1    1    2    0  501 -0.22056977948E+02 -0.10000013504E+02  0.62903275332E+03  0.62949878101E+03  0.00000000000E+00 0.  1.
</event>
<event>
 4    1  0.6754235E+001  0.3244230E+02  0.7546771E-02  0.1399495E+00
          2   -1    0    0  502    0  0.00000000000E+00  0.00000000000E+00  0.32757363508E+03  0.32757363508E+03  0.00000000000E+00 0. -1.
         -2   -1    0    0    0  501 -0.00000000000E+00 -0.00000000000E+00 -0.41705301443E+01  0.41705301443E+01  0.00000000000E+00 0.  1.
          1    1    1    2  502    0 -0.15185322100E+02  0.28668953570E+02  0.24117970967E+03  0.24335191650E+03  0.00000000000E+00 0. -1.
         -1    1    1    2    0  501  0.15185322100E+02 -0.28668953570E+02  0.82223395267E+02  0.88392248729E+02  0.00000000000E+00 0.  1.
</event>
<event>
 4    1  0.6754235E+001  0.2743306E+02  0.7546771E-02  0.1443306E+00
          2   -1    0    0  502    0  0.00000000000E+00  0.00000000000E+00  0.53882446907E+01  0.53882446907E+01  0.00000000000E+00 0. -1.
         -2   -1    0    0    0  501 -0.00000000000E+00 -0.00000000000E+00 -0.26554941924E+03  0.26554941924E+03  0.00000000000E+00 0.  1.
          1    1    1    2  502    0  0.10403767101E+02 -0.25383738367E+02 -0.36809889945E+02  0.45907957275E+02  0.00000000000E+00 0. -1.
         -1    1    1    2    0  501 -0.10403767101E+02  0.25383738367E+02 -0.22335128461E+03  0.22502970666E+03  0.00000000000E+00 0.  1.
</event>
<event>
 4    1  0.6754235E+001  0.2169251E+02  0.7546771E-02  0.1509603E+00
          2   -1    0    0  502    0  0.00000000000E+00  0.00000000000E+00  0.54746522271E+03  0.54746522271E+03  0.00000000000E+00 0.  1.
         -2   -1    0    0    0  501 -0.00000000000E+00 -0.00000000000E+00 -0.12556885781E+01  0.12556885781E+01  0.00000000000E+00 0. -1.
          1    1    1    2  502    0  0.16558712107E+02 -0.14013348053E+02  0.11900109564E+03  0.12096208345E+03  0.00000000000E+00 0. -1.
         -1    1    1    2    0  501 -0.16558712107E+02  0.14013348053E+02  0.42720843849E+03  0.42775882783E+03  0.00000000000E+00 0.  1.
</event>
<event>
 4    1  0.6754235E+001  0.4194599E+02  0.7546771E-02  0.1337445E+00
          2   -1    0    0  502    0  0.00000000000E+00  0.00000000000E+00  0.12000282088E+03  0.12000282088E+03  0.00000000000E+00 0.  1.
         -2   -1    0    0    0  501 -0.00000000000E+00 -0.00000000000E+00 -0.19431641008E+02  0.19431641008E+02  0.00000000000E+00 0. -1.
          1    1    1    2  502    0  0.26376678549E+02 -0.32614975847E+02  0.84826528282E+02  0.94630892003E+02  0.00000000000E+00 0.  1.
         -1    1    1    2    0  501 -0.26376678549E+02  0.32614975847E+02  0.15744651591E+02  0.44803569886E+02  0.00000000000E+00 0. -1.
</event>
<event>
 4    1  0.6754235E+001  0.2913026E+02  0.7546771E-02  0.1427308E+00
          2   -1    0    0  502    0  0.00000000000E+00  0.00000000000E+00  0.79149003399E+03  0.79149003399E+03  0.00000000000E+00 0. -1.
         -2   -1    0    0    0  501 -0.00000000000E+00 -0.00000000000E+00 -0.11003798343E+01  0.11003798343E+01  0.00000000000E+00 0.  1.
          1    1    1    2  502    0 -0.28174898800E+02 -0.73991280288E+01  0.33168586638E+03  0.33296258946E+03  0.00000000000E+00 0.  1.
         -1    1    1    2    0  501  0.28174898800E+02  0.73991280288E+01  0.45870378777E+03  0.45962782436E+03  0.00000000000E+00 0. -1.
</event>
<event>
 4    1  0.6754235E+001  0.4813805E+02  0.7546771E-02  0.1306453E+00
          2   -1    0    0  502    0  0.00000000000E+00  0.00000000000E+00  0.62512946667E+03  0.62512946667E+03  0.00000000000E+00 0. -1.
         -2   -1    0    0    0  501 -0.00000000000E+00 -0.00000000000E+00 -0.40625991311E+01  0.40625991311E+01  0.00000000000E+00 0.  1.
          1    1    1    2  502    0  0.36003232715E+02 -0.31953707250E+02  0.40362544859E+03  0.40648588527E+03  0.00000000000E+00 0. -1.
         -1    1    1    2    0  501 -0.36003232715E+02  0.31953707250E+02  0.21744141895E+03  0.22270618053E+03  0.00000000000E+00 0.  1.
</event>
<event>
 4    1  0.6754235E+001  0.2364587E+02  0.7546771E-02  0.1484543E+00
          2   -1    0    0  502    0  0.00000000000E+00  0.00000000000E+00  0.98041133443E+03  0.98041133443E+03  0.00000000000E+00 0.  1.
         -2   -1    0    0    0  501 -0.00000000000E+00 -0.00000000000E+00 -0.63480656794E+00  0.63480656794E+00  0.00000000000E+00 0. -1.
          1    1    1    2  502    0 -0.82374720885E+01  0.22164638502E+02  0.64625545572E+03  0.64668790092E+03  0.00000000000E+00 0.  1.
         -1    1    1    2    0  501  0.82374720885E+01 -0.22164638502E+02  0.33352107214E+03  0.33435824008E+03  0.00000000000E+00 0. -1.
</event>
<event>
 4    1  0.6754235E+001  0.3502067E+02  0.7546771E-02  0.1380418E+00
          2   -1    0    0  502    0  0.00000000000E+00  0.00000000000E+00  0.16894312759E+04  0.16894312759E+04  0.00000000000E+00 0. -1.
         -2   -1    0    0    0  501 -0.00000000000E+00 -0.00000000000E+00 -0.73366517606E+00  0.73366517606E+00  0.00000000000E+00 0.  1.
          1    1    1    2  502    0 -0.34877156971E+02 -0.31672266293E+01  0.93099382618E+03  0.93165226978E+03  0.00000000000E+00 0.  1.
         -1    1    1    2    0  501  0.34877156971E+02  0.31672266293E+01  0.75770378454E+03  0.75851267129E+03  0.00000000000E+00 0. -1.
</event>
<event>
 4    1  0.6754235E+001  0.2449747E+02  0.7546771E-02  0.1474504E+00
          2   -1    0    0  502    0  0.00000000000E+00  0.00000000000E+00  0.79498012754E+03  0.79498012754E+03  0.00000000000E+00 0.  1.
         -2   -1    0    0    0  501 -0.00000000000E+00 -0.00000000000E+00 -0.80295286519E+00  0.80295286519E+00  0.00000000000E+00 0. -1.
          1    1    1    2  502    0 -0.10792110082E+02  0.21992194593E+02  0.49443128921E+03  0.49503780261E+03  0.00000000000E+00 0.  1.
         -1    1    1    2    0  501  0.10792110082E+02 -0.21992194593E+02  0.29974588546E+03  0.30074527780E+03  0.00000000000E+00 0. -1.
</event>
<event>
 4    1  0.6754235E+001  0.2723413E+02  0.7546771E-02  0.1445270E+00
          2   -1    0    0  502    0  0.00000000000E+00  0.00000000000E+00  0.91735778005E+03  0.91735778005E+03  0.00000000000E+00 0.  1.
         -2   -1    0    0    0  501 -0.00000000000E+00 -0.00000000000E+00 -0.14081026040E+01  0.14081026040E+01  0.00000000000E+00 0. -1.
          1    1    1    2  502    0 -0.23056848537E+01  0.27136349550E+02  0.75774195296E+03  0.75823120809E+03  0.00000000000E+00 0.  1.
         -1    1    1    2    0  501  0.23056848537E+01 -0.27136349550E+02  0.15820772449E+03  0.16053467457E+03  0.00000000000E+00 0. -1.
</event>
<event>
 4    1  0.6754235E+001  0.2014934E+02  0.7546771E-02  0.1531765E+00
          2   -1    0    0  502    0  0.00000000000E+00  0.00000000000E+00  0.12009773117E+03  0.12009773117E+03  0.00000000000E+00 0.  1.
         -2   -1    0    0    0  501 -0.00000000000E+00 -0.00000000000E+00 -0.10463394670E+03  0.10463394670E+03  0.00000000000E+00 0. -1.
          1    1    1    2  502    0  0.99461707765E+01 -0.17523402975E+02 -0.10280386819E+03  0.10475987438E+03  0.00000000000E+00 0. -1.
         -1    1    1    2    0  501 -0.99461707765E+01  0.17523402975E+02  0.11826765267E+03  0.11997180349E+03  0.00000000000E+00 0.  1.
</event>
<event>
 4    1  0.6754235E+001  0.2188605E+02  0.7546771E-02  0.1506981E+00
          2   -1    0    0  502    0  0.00000000000E+00  0.00000000000E+00  0.41439064331E+03  0.41439064331E+03  0.00000000000E+00 0.  1.
         -2   -1    0    0    0  501 -0.00000000000E+00 -0.00000000000E+00 -0.23381457201E+01  0.23381457201E+01  0.00000000000E+00 0. -1.
          1    1    1    2  502    0  0.92341308045E+01 -0.19842628669E+02  0.57863370224E+02  0.61864114783E+02  0.00000000000E+00 0. -1.
         -1    1    1    2    0  501 -0.92341308045E+01  0.19842628669E+02  0.35418912737E+03  0.35486467425E+03  0.00000000000E+00 0.  1.
</event>
<event>
 4    1  0.6754235E+001  0.2175005E+02  0.7546771E-02  0.1508820E+00
          2   -1    0    0  502    0  0.00000000000E+00  0.00000000000E+00  0.13058650944E+02  0.13058650944E+02  0.00000000000E+00 0.  1.
         -2   -1    0    0    0  501 -0.00000000000E+00 -0.00000000000E+00 -0.45348204842E+02  0.45348204842E+02  0.00000000000E+00 0. -1.
          1    1    1    2  502    0  0.28813608123E+01  0.21558345671E+02 -0.29242637915E+02  0.36444428661E+02  0.00000000000E+00 0. -1.
         -1    1    1    2    0  501 -0.28813608123E+01 -0.21558345671E+02 -0.30469159823E+01  0.21962427124E+02  0.00000000000E+00 0.  1.
</event>
<event>
 4    1  0.6754235E+001  0.2302569E+02  0.7546771E-02  0.1492176E+00
          2   -1    0    0  502    0  0.00000000000E+00  0.00000000000E+00  0.18334555568E+04  0.18334555568E+04  0.00000000000E+00 0.  1.
         -2   -1    0    0    0  501 -0.00000000000E+00 -0.00000000000E+00 -0.31190685452E+00  0.31190685452E+00  0.00000000000E+00 0. -1.
          1    1    1    2  502    0  0.22672214989E+02 -0.40190609341E+01  0.66902496902E+03  0.66942108673E+03  0.00000000000E+00 0. -1.
         -1    1    1    2    0  501 -0.22672214989E+02  0.40190609341E+01  0.11641186809E+04  0.11643463769E+04  0.00000000000E+00 0.  1.
</event>
<event>
 4    1  0.6754235E+001  0.2480410E+02  0.7546771E-02  0.1471007E+00
          2   -1    0    0  502    0  0.00000000000E+00  0.00000000000E+00  0.14456356603E+04  0.14456356603E+04  0.00000000000E+00 0. -1.
         -2   -1    0    0    0  501 -0.00000000000E+00 -0.00000000000E+00 -0.43069426386E+00  0.43069426386E+00  0.00000000000E+00 0.  1.
          1    1    1    2  502    0 -0.22518320650E+02 -0.10400402200E+02  0.80134075058E+03  0.80172454227E+03  0.00000000000E+00 0. -1.
         -1    1    1    2    0  501  0.22518320650E+02  0.10400402200E+02  0.64386421541E+03  0.64434181225E+03  0.00000000000E+00 0.  1.
</event>
<event>
 4    1  0.6754235E+001  0.2413728E+02  0.7546771E-02  0.1478691E+00
          2   -1    0    0  502    0  0.00000000000E+00  0.00000000000E+00  0.35980330593E+03  0.35980330593E+03  0.00000000000E+00 0.  1.
         -2   -1    0    0    0  501 -0.00000000000E+00 -0.00000000000E+00 -0.18276528045E+01  0.18276528045E+01  0.00000000000E+00 0. -1.
          1    1    1    2  502    0  0.15301787004E+02  0.18667181137E+02  0.11792882389E+03  0.12037365095E+03  0.00000000000E+00 0. -1.
         -1    1    1    2    0  501 -0.15301787004E+02 -0.18667181137E+02  0.24004682923E+03  0.24125730779E+03  0.00000000000E+00 0.  1.
</event>
<event>
 4    1  0.6754235E+001  0.3618440E+02  0.7546771E-02  0.1372422E+00
          2   -1    0    0  502    0  0.00000000000E+00  0.00000000000E+00  0.13691516998E+03  0.13691516998E+03  0.00000000000E+00 0.  1.
         -2   -1    0    0    0  501 -0.00000000000E+00 -0.00000000000E+00 -0.95971899483E+01  0.95971899483E+01  0.00000000000E+00 0. -1.
          1    1    1    2  502    0 -0.35959043293E+02 -0.40320989895E+01  0.59282301399E+02  0.69452875218E+02  0.00000000000E+00 0. -1.
         -1    1    1    2    0  501  0.35959043293E+02  0.40320989895E+01  0.68035678628E+02  0.77059484706E+02  0.00000000000E+00 0.  1.
</event>
<event>
 4    1  0.6754235E+001  0.2701013E+02  0.7546771E-02  0.1447506E+00
          2   -1    0    0  502    0  0.00000000000E+00  0.00000000000E+00  0.19369546652E+04  0.19369546652E+04  0.00000000000E+00 0.  1.
         -2   -1    0    0    0  501 -0.00000000000E+00 -0.00000000000E+00 -0.37670907526E+00  0.37670907526E+00  0.00000000000E+00 0. -1.
          1    1    1    2  502    0 -0.13445439686E+02 -0.23425778870E+02  0.98078541287E+03  0.98115726215E+03  0.00000000000E+00 0. -1.
         -1    1    1    2    0  501  0.13445439686E+02  0.23425778870E+02  0.95579254322E+03  0.95617411209E+03  0.00000000000E+00 0.  1.
</event>
<event>
 4    1  0.6754235E+001  0.6955309E+02  0.7546771E-02  0.1230428E+00
          2   -1    0    0  502    0  0.00000000000E+00  0.00000000000E+00  0.12085507911E+03  0.12085507911E+03  0.00000000000E+00 0. -1.
         -2   -1    0    0    0  501 -0.00000000000E+00 -0.00000000000E+00 -0.55733273203E+02  0.55733273203E+02  0.00000000000E+00 0.  1.
          1    1    1    2  502    0 -0.49440941526E+02 -0.48920601559E+02 -0.14308821524E+02  0.71009677716E+02  0.00000000000E+00 0.  1.
         -1    1    1    2    0  501  0.49440941526E+02  0.48920601559E+02  0.79430627435E+02  0.10557867460E+03  0.00000000000E+00 0. -1.
</event>
<event>
 4    1  0.6754235E+001  0.3701895E+02  0.7546771E-02  0.1366899E+00
          2   -1    0    0  502    0  0.00000000000E+00  0.00000000000E+00  0.84636733383E+02  0.84636733383E+02  0.00000000000E+00 0. -1.
         -2   -1    0    0    0  501 -0.00000000000E+00 -0.00000000000E+00 -0.16507416499E+02  0.16507416499E+02  0.00000000000E+00 0.  1.
          1    1    1    2  502    0 -0.20109718092E+02  0.31080574831E+02  0.41059835117E+02  0.55283930337E+02  0.00000000000E+00 0. -1.
         -1    1    1    2    0  501  0.20109718092E+02 -0.31080574831E+02  0.27069481767E+02  0.45860219545E+02  0.00000000000E+00 0.  1.
</event>
<event>
 4    1  0.6754235E+001  0.3830249E+02  0.7546771E-02  0.1358731E+00
          2   -1    0    0  502    0  0.00000000000E+00  0.00000000000E+00  0.15668747734E+04  0.15668747734E+04  0.00000000000E+00 0.  1.
         -2   -1    0    0    0  501 -0.00000000000E+00 -0.00000000000E+00 -0.14857711255E+01  0.14857711255E+01  0.00000000000E+00 0. -1.
          1    1    1    2  502    0  0.36756067083E+02  0.10773694084E+02  0.30581535402E+03  0.30820465880E+03  0.00000000000E+00 0. -1.
         -1    1    1    2    0  501 -0.36756067083E+02 -0.10773694084E+02  0.12595736482E+04  0.12601558857E+04  0.00000000000E+00 0.  1.
</event>
<event>
 4    1  0.6754235E+001  0.2184719E+02  0.7546771E-02  0.1507505E+00
          2   -1    0    0  502    0  0.00000000000E+00  0.00000000000E+00  0.29628330650E+03  0.29628330650E+03  0.00000000000E+00 0. -1.
         -2   -1    0    0    0  501 -0.00000000000E+00 -0.00000000000E+00 -0.16402842991E+01  0.16402842991E+01  0.00000000000E+00 0.  1.
          1    1    1    2  502    0 -0.68206541012E+01  0.20755200753E+02  0.16723975367E+03  0.16866070938E+03  0.00000000000E+00 0. -1.
         -1    1    1    2    0  501  0.68206541012E+01 -0.20755200753E+02  0.12740326853E+03  0.12926288142E+03  0.00000000000E+00 0.  1.
</event>
<event>
 4    1  0.6754235E+001  0.3401695E+02  0.7546771E-02  0.1387609E+00
          2   -1    0    0  502    0  0.00000000000E+00  0.00000000000E+00  0.93785855059E+01  0.93785855059E+01  0.00000000000E+00 0. -1.
         -2   -1    0    0    0  501 -0.00000000000E+00 -0.00000000000E+00 -0.26893978715E+03  0.26893978715E+03  0.00000000000E+00 0.  1.
          1    1    1    2  502    0 -0.32633293800E+02  0.96031900016E+01 -0.23215735614E+03  0.23463629543E+03  0.00000000000E+00 0.  1.
         -1    1    1    2    0  501  0.32633293800E+02 -0.96031900016E+01 -0.27403845503E+02  0.43682077226E+02  0.00000000000E+00 0. -1.
</event>
<event>
 4    1  0.6754235E+001  0.2603997E+02  0.7546771E-02  0.1457498E+00
          2   -1    0    0  502    0  0.00000000000E+00  0.00000000000E+00  0.72164701401E+02  0.72164701401E+02  0.00000000000E+00 0. -1.
         -2   -1    0    0    0  501 -0.00000000000E+00 -0.00000000000E+00 -0.13218975000E+02  0.13218975000E+02  0.00000000000E+00 0.  1.
          1    1    1    2  502    0 -0.15892244230E+02 -0.20628048538E+02  0.65150387188E+01  0.26842606853E+02  0.00000000000E+00 0.  1.
         -1    1    1    2    0  501  0.15892244230E+02  0.20628048538E+02  0.52430687681E+02  0.58541069548E+02  0.00000000000E+00 0. -1.
</event>
<event>
 4    1  0.6754235E+001  0.2021561E+02  0.7546771E-02  0.1530765E+00
          2   -1    0    0  502    0  0.00000000000E+00  0.00000000000E+00  0.89022389652E+00  0.89022389652E+00  0.00000000000E+00 0. -1.
         -2   -1    0    0    0  501 -0.00000000000E+00 -0.00000000000E+00 -0.45980107840E+03  0.45980107840E+03  0.00000000000E+00 0.  1.
          1    1    1    2  502    0  0.18350304522E+01  0.20132155739E+02 -0.22024191973E+03  0.22116775135E+03  0.00000000000E+00 0.  1.
         -1    1    1    2    0  501 -0.18350304522E+01 -0.20132155739E+02 -0.23866893478E+03  0.23952355095E+03  0.00000000000E+00 0. -1.
</event>
<event>
 4    1  0.6754235E+001  0.4125781E+02  0.7546771E-02  0.1341269E+00
          2   -1    0    0  502    0  0.00000000000E+00  0.00000000000E+00  0.11251827506E+02  0.11251827506E+02  0.00000000000E+00 0.  1.
         -2   -1    0    0    0  501 -0.00000000000E+00 -0.00000000000E+00 -0.21464354632E+03  0.21464354632E+03  0.00000000000E+00 0. -1.
          1    1    1    2  502    0  0.27432390735E+02 -0.30816734401E+02 -0.40329719431E+02  0.57694830357E+02  0.00000000000E+00 0.  1.
         -1    1    1    2    0  501 -0.27432390735E+02  0.30816734401E+02 -0.16306199938E+03  0.16820054346E+03  0.00000000000E+00 0. -1.
</event>
<event>
 4    1  0.6754235E+001  0.2066809E+02  0.7546771E-02  0.1524057E+00
          2   -1    0    0  502    0  0.00000000000E+00  0.00000000000E+00  0.16996289842E+03  0.16996289842E+03  0.00000000000E+00 0.  1.
         -2   -1    0    0    0  501 -0.00000000000E+00 -0.00000000000E+00 -0.29271579254E+01  0.29271579254E+01  0.00000000000E+00 0. -1.
          1    1    1    2  502    0 -0.11371635474E+02 -0.17258503644E+02  0.51013967078E+02  0.55041755772E+02  0.00000000000E+00 0. -1.
         -1    1    1    2    0  501  0.11371635474E+02  0.17258503644E+02  0.11602177342E+03  0.11784830058E+03  0.00000000000E+00 0.  1.
</event>
<event>
 4    1  0.6754235E+001  0.2094016E+02  0.7546771E-02  0.1520121E+00
          2   -1    0    0  502    0  0.00000000000E+00  0.00000000000E+00  0.17564097627E+04  0.17564097627E+04  0.00000000000E+00 0. -1.
         -2   -1    0    0    0  501 -0.00000000000E+00 -0.00000000000E+00 -0.51334999599E+00  0.51334999599E+00  0.00000000000E+00 0.  1.
          1    1    1    2  502    0  0.17734554432E+02  0.11134448125E+02  0.24834084944E+03  0.24922212553E+03  0.00000000000E+00 0.  1.
         -1    1    1    2    0  501 -0.17734554432E+02 -0.11134448125E+02  0.15075555632E+04  0.15077009871E+04  0.00000000000E+00 0. -1.
</event>
<event>
 4    1  0.6754235E+001  0.7556070E+02  0.7546771E-02  0.1214546E+00
          2   -1    0    0  502    0  0.00000000000E+00  0.00000000000E+00  0.13515332782E+04  0.13515332782E+04  0.00000000000E+00 0. -1.
         -2   -1    0    0    0  501 -0.00000000000E+00 -0.00000000000E+00 -0.43818146823E+01  0.43818146823E+01  0.00000000000E+00 0.  1.
          1    1    1    2  502    0 -0.25414311924E+01 -0.75517950603E+02  0.80207347678E+03  0.80562477735E+03  0.00000000000E+00 0. -1.
         -1    1    1    2    0  501  0.25414311924E+01  0.75517950603E+02  0.54507798672E+03  0.55029031550E+03  0.00000000000E+00 0.  1.
</event>
<event>
 4    1  0.6754235E+001  0.2299466E+02  0.7546771E-02  0.1492565E+00
          2   -1    0    0  502    0  0.00000000000E+00  0.00000000000E+00  0.15594836842E+02  0.15594836842E+02  0.00000000000E+00 0.  1.
         -2   -1    0    0    0  501 -0.00000000000E+00 -0.00000000000E+00 -0.38794869103E+02  0.38794869103E+02  0.00000000000E+00 0. -1.
          1    1    1    2  502    0 -0.12524831150E+02  0.19284263114E+02 -0.21254212575E+02  0.31312868783E+02  0.00000000000E+00 0.  1.
         -1    1    1    2    0  501  0.12524831150E+02 -0.19284263114E+02 -0.19458196857E+01  0.23076837163E+02  0.00000000000E+00 0. -1.
</event>
<event>
 4    1  0.6754235E+001  0.2765820E+02  0.7546771E-02  0.1441106E+00
          2   -1    0    0  502    0  0.00000000000E+00  0.00000000000E+00  0.20510874790E+04  0.20510874790E+04  0.00000000000E+00 0.  1.
         -2   -1    0    0    0  501 -0.00000000000E+00 -0.00000000000E+00 -0.72243993758E+00  0.72243993758E+00  0.00000000000E+00 0. -1.
          1    1    1    2  502    0  0.14868148289E+02  0.23321973659E+02  0.17387196247E+04  0.17389395934E+04  0.00000000000E+00 0.  1.
         -1    1    1    2    0  501 -0.14868148289E+02 -0.23321973659E+02  0.31164541441E+03  0.31287032555E+03  0.00000000000E+00 0. -1.
</event>
<event>
 4    1  0.6754235E+001  0.2153465E+02  0.7546771E-02  0.1511767E+00
          2   -1    0    0  502    0  0.00000000000E+00  0.00000000000E+00  0.10320884750E+04  0.10320884750E+04  0.00000000000E+00 0.  1.
         -2   -1    0    0    0  501 -0.00000000000E+00 -0.00000000000E+00 -0.48802621883E+00  0.48802621883E+00  0.00000000000E+00 0. -1.
          1    1    1    2  502    0 -0.91013468817E+01 -0.19516824285E+02  0.37040672376E+03  0.37103218453E+03  0.00000000000E+00 0.  1.
         -1    1    1    2    0  501  0.91013468817E+01  0.19516824285E+02  0.66119372497E+03  0.66154431664E+03  0.00000000000E+00 0. -1.
</event>
<event>
 4    1  0.6754235E+001  0.4908091E+02  0.7546771E-02  0.1302207E+00
          2   -1    0    0  502    0  0.00000000000E+00  0.00000000000E+00  0.36976693221E+04  0.36976693221E+04  0.00000000000E+00 0.  1.
         -2   -1    0    0    0  501 -0.00000000000E+00 -0.00000000000E+00 -0.74388931855E+00  0.74388931855E+00  0.00000000000E+00 0. -1.
          1    1    1    2  502    0  0.18071569995E+02  0.45632815609E+02  0.25002459842E+04  0.25007276775E+04  0.00000000000E+00 0.  1.
         -1    1    1    2    0  501 -0.18071569995E+02 -0.45632815609E+02  0.11966794486E+04  0.11976855340E+04  0.00000000000E+00 0. -1.
</event>
<event>
 4    1  0.6754235E+001  0.2094628E+02  0.7546771E-02  0.1520033E+00
          2   -1    0    0  502    0  0.00000000000E+00  0.00000000000E+00  0.59315315198E+02  0.59315315198E+02  0.00000000000E+00 0.  1.
         -2   -1    0    0    0  501 -0.00000000000E+00 -0.00000000000E+00 -0.12680048642E+02  0.12680048642E+02  0.00000000000E+00 0. -1.
          1    1    1    2  502    0  0.53631603503E+01 -0.20248045082E+02  0.81582485615E-01  0.20946442998E+02  0.00000000000E+00 0. -1.
         -1    1    1    2    0  501 -0.53631603503E+01  0.20248045082E+02  0.46553684070E+02  0.51048920842E+02  0.00000000000E+00 0.  1.
</event>
<event>
 4    1  0.6754235E+001  0.3273686E+02  0.7546771E-02  0.1397212E+00
          2   -1    0    0  502    0  0.00000000000E+00  0.00000000000E+00  0.11862136658E+04  0.11862136658E+04  0.00000000000E+00 0.  1.
         -2   -1    0    0    0  501 -0.00000000000E+00 -0.00000000000E+00 -0.90984333308E+00  0.90984333308E+00  0.00000000000E+00 0. -1.
          1    1    1    2  502    0 -0.32082041929E+02  0.65149371380E+01  0.54295189215E+03  0.54393791834E+03  0.00000000000E+00 0. -1.
         -1    1    1    2    0  501  0.32082041929E+02 -0.65149371380E+01  0.64235193032E+03  0.64318559079E+03  0.00000000000E+00 0.  1.
</event>
<event>
 4    1  0.6754235E+001  0.2220316E+02  0.7546771E-02  0.1502754E+00
          2   -1    0    0  502    0  0.00000000000E+00  0.00000000000E+00  0.40430695868E+03  0.40430695868E+03  0.00000000000E+00 0.  1.
         -2   -1    0    0    0  501 -0.00000000000E+00 -0.00000000000E+00 -0.15440085395E+01  0.15440085395E+01  0.00000000000E+00 0. -1.
          1    1    1    2  502    0 -0.12911358302E+02  0.18063145292E+02  0.10832558934E+03  0.11057763652E+03  0.00000000000E+00 0. -1.
         -1    1    1    2    0  501  0.12911358302E+02 -0.18063145292E+02  0.29443736080E+03  0.29527333071E+03  0.00000000000E+00 0.  1.
</event>
<event>
 4    1  0.6754235E+001  0.2885318E+02  0.7546771E-02  0.1429831E+00
          2   -1    0    0  502    0  0.00000000000E+00  0.00000000000E+00  0.12908108604E+04  0.12908108604E+04  0.00000000000E+00 0.  1.
         -2   -1    0    0    0  501 -0.00000000000E+00 -0.00000000000E+00 -0.67708855863E+00  0.67708855863E+00  0.00000000000E+00 0. -1.
          1    1    1    2  502    0 -0.15476041142E+02 -0.24351556549E+02  0.78575678125E+03  0.78628635079E+03  0.00000000000E+00 0.  1.
         -1    1    1    2    0  501  0.15476041142E+02  0.24351556549E+02  0.50437699062E+03  0.50520159820E+03  0.00000000000E+00 0. -1.
</event>
<event>
 4    1  0.6754235E+001  0.2767751E+02  0.7546771E-02  0.1440919E+00
          2   -1    0    0  502    0  0.00000000000E+00  0.00000000000E+00  0.14667899925E+02  0.14667899925E+02  0.00000000000E+00 0. -1.
         -2   -1    0    0    0  501 -0.00000000000E+00 -0.00000000000E+00 -0.57029988826E+02  0.57029988826E+02  0.00000000000E+00 0.  1.
          1    1    1    2  502    0 -0.44379943539E+01 -0.27319383902E+02 -0.31585741849E+02  0.41996471505E+02  0.00000000000E+00 0.  1.
         -1    1    1    2    0  501  0.44379943539E+01  0.27319383902E+02 -0.10776347052E+02  0.29701417247E+02  0.00000000000E+00 0. -1.
</event>
<event>
 4    1  0.6754235E+001  0.2097420E+02  0.7546771E-02  0.1519633E+00
          2   -1    0    0  502    0  0.00000000000E+00  0.00000000000E+00  0.87301697559E+01  0.87301697559E+01  0.00000000000E+00 0. -1.
         -2   -1    0    0    0  501 -0.00000000000E+00 -0.00000000000E+00 -0.91977773745E+02  0.91977773745E+02  0.00000000000E+00 0.  1.
          1    1    1    2  502    0  0.19432623144E+02  0.78924280302E+01 -0.77649114113E+01  0.22365399878E+02  0.00000000000E+00 0. -1.
         -1    1    1    2    0  501 -0.19432623144E+02 -0.78924280302E+01 -0.75482692578E+02  0.78342543623E+02  0.00000000000E+00 0.  1.
</event>
<event>
 4    1  0.6754235E+001  0.2021132E+02  0.7546771E-02  0.1530830E+00
          2   -1    0    0  502    0  0.00000000000E+00  0.00000000000E+00  0.57644175139E+01  0.57644175139E+01  0.00000000000E+00 0. -1.
         -2   -1    0    0    0  501 -0.00000000000E+00 -0.00000000000E+00 -0.11149642767E+03  0.11149642767E+03  0.00000000000E+00 0.  1.
          1    1    1    2  502    0  0.17038195594E+02 -0.10871858615E+02 -0.17472647707E+02  0.26716864275E+02  0.00000000000E+00 0. -1.
         -1    1    1    2    0  501 -0.17038195594E+02  0.10871858615E+02 -0.88259362451E+02  0.90543980910E+02  0.00000000000E+00 0.  1.
</event>
<event>
 4    1  0.6754235E+001  0.2402446E+02  0.7546771E-02  0.1480020E+00
          2   -1    0    0  502    0  0.00000000000E+00  0.00000000000E+00  0.26074009919E+03  0.26074009919E+03  0.00000000000E+00 0. -1.
         -2   -1    0    0    0  501 -0.00000000000E+00 -0.00000000000E+00 -0.23285473965E+01  0.23285473965E+01  0.00000000000E+00 0.  1.
          1    1    1    2  502    0  0.11027147970E+02 -0.21344242964E+02  0.99981543970E+02  0.10282744689E+03  0.00000000000E+00 0.  1.
         -1    1    1    2    0  501 -0.11027147970E+02  0.21344242964E+02  0.15843000782E+03  0.16024119969E+03  0.00000000000E+00 0. -1.
</event>
<event>
 4    1  0.6754235E+001  0.2887885E+02  0.7546771E-02  0.1429596E+00
          2   -1    0    0  502    0  0.00000000000E+00  0.00000000000E+00  0.17405469945E+01  0.17405469945E+01  0.00000000000E+00 0. -1.
         -2   -1    0    0    0  501 -0.00000000000E+00 -0.00000000000E+00 -0.11132537694E+04  0.11132537694E+04  0.00000000000E+00 0.  1.
          1    1    1    2  502    0 -0.10089826755E+02  0.27058885381E+02 -0.13500596091E+03  0.13806012227E+03  0.00000000000E+00 0. -1.
         -1    1    1    2    0  501  0.10089826755E+02 -0.27058885381E+02 -0.97650726153E+03  0.97693419415E+03  0.00000000000E+00 0.  1.
</event>
<event>
 4    1  0.6754235E+001  0.2207575E+02  0.7546771E-02  0.1504442E+00
          2   -1    0    0  502    0  0.00000000000E+00  0.00000000000E+00  0.12227002338E+03  0.12227002338E+03  0.00000000000E+00 0. -1.
         -2   -1    0    0    0  501 -0.00000000000E+00 -0.00000000000E+00 -0.52841209442E+01  0.52841209442E+01  0.00000000000E+00 0.  1.
          1    1    1    2  502    0 -0.18397724777E+02 -0.12200923506E+02  0.26879192110E+02  0.34782607433E+02  0.00000000000E+00 0.  1.
         -1    1    1    2    0  501  0.18397724777E+02  0.12200923506E+02  0.90106710327E+02  0.92771536892E+02  0.00000000000E+00 0. -1.
</event>
<event>
 4    1  0.6754235E+001  0.2577319E+02  0.7546771E-02  0.1460337E+00
          2   -1    0    0  502    0  0.00000000000E+00  0.00000000000E+00  0.74045942832E+03  0.74045942832E+03  0.00000000000E+00 0.  1.
         -2   -1    0    0    0  501 -0.00000000000E+00 -0.00000000000E+00 -0.89951777896E+00  0.89951777896E+00  0.00000000000E+00 0. -1.
          1    1    1    2  502    0 -0.76590625870E+01 -0.24608866000E+02  0.35051597991E+03  0.35146224505E+03  0.00000000000E+00 0. -1.
         -1    1    1    2    0  501  0.76590625870E+01  0.24608866000E+02  0.38904393063E+03  0.38989670104E+03  0.00000000000E+00 0.  1.
</event>
<event>
 4    1  0.6754235E+001  0.2711705E+02  0.7546771E-02  0.1446436E+00
          2   -1    0    0  502    0  0.00000000000E+00  0.00000000000E+00  0.11504641840E+02  0.11504641840E+02  0.00000000000E+00 0.  1.
         -2   -1    0    0    0  501 -0.00000000000E+00 -0.00000000000E+00 -0.82333595069E+02  0.82333595069E+02  0.00000000000E+00 0. -1.
          1    1    1    2  502    0  0.27027876450E+02  0.21973303078E+01 -0.13223623694E+02  0.30169497667E+02  0.00000000000E+00 0.  1.
         -1    1    1    2    0  501 -0.27027876450E+02 -0.21973303078E+01 -0.57605329535E+02  0.63668739242E+02  0.00000000000E+00 0. -1.
</event>
<event>
 4    1  0.6754235E+001  0.4856034E+02  0.7546771E-02  0.1304538E+00
          2   -1    0    0  502    0  0.00000000000E+00  0.00000000000E+00  0.10976887535E+04  0.10976887535E+04  0.00000000000E+00 0. -1.
         -2   -1    0    0    0  501 -0.00000000000E+00 -0.00000000000E+00 -0.23741199408E+01  0.23741199408E+01  0.00000000000E+00 0.  1.
          1    1    1    2  502    0 -0.83185418585E+01  0.47842536803E+02  0.71731298703E+03  0.71895481627E+03  0.00000000000E+00 0.  1.
         -1    1    1    2    0  501  0.83185418585E+01 -0.47842536803E+02  0.37800164649E+03  0.38110805714E+03  0.00000000000E+00 0. -1.
</event>
<event>
 4    1  0.6754235E+001  0.4947138E+02  0.7546771E-02  0.1300481E+00
          2   -1    0    0  502    0  0.00000000000E+00  0.00000000000E+00  0.18505330979E+04  0.18505330979E+04  0.00000000000E+00 0.  1.
         -2   -1    0    0    0  501 -0.00000000000E+00 -0.00000000000E+00 -0.14510758830E+01  0.14510758830E+01  0.00000000000E+00 0. -1.
          1    1    1    2  502    0 -0.31755964106E+02  0.37933835322E+02  0.64895163658E+03  0.65083457479E+03  0.00000000000E+00 0.  1.
         -1    1    1    2    0  501  0.31755964106E+02 -0.37933835322E+02  0.12001303854E+04  0.12011495990E+04  0.00000000000E+00 0. -1.
</event>
<event>
 4    1  0.6754235E+001  0.2588239E+02  0.7546771E-02  0.1459170E+00
          2   -1    0    0  502    0  0.00000000000E+00  0.00000000000E+00  0.75576438785E+02  0.75576438785E+02  0.00000000000E+00 0.  1.
         -2   -1    0    0    0  501 -0.00000000000E+00 -0.00000000000E+00 -0.12625807332E+02  0.12625807332E+02  0.00000000000E+00 0. -1.
          1    1    1    2  502    0 -0.18999897576E+02  0.17575603443E+02  0.74024822712E+01  0.26920153938E+02  0.00000000000E+00 0. -1.
         -1    1    1    2    0  501  0.18999897576E+02 -0.17575603443E+02  0.55548149182E+02  0.61282092179E+02  0.00000000000E+00 0.  1.
</event>
<event>
 4    1  0.6754235E+001  0.4449359E+02  0.7546771E-02  0.1323991E+00
          2   -1    0    0  502    0  0.00000000000E+00  0.00000000000E+00  0.69629058811E+01  0.69629058811E+01  0.00000000000E+00 0. -1.
         -2   -1    0    0    0  501 -0.00000000000E+00 -0.00000000000E+00 -0.35261351607E+03  0.35261351607E+03  0.00000000000E+00 0.  1.
          1    1    1    2  502    0 -0.37175800710E+02  0.24446666911E+02 -0.25194921399E+03  0.25584777918E+03  0.00000000000E+00 0.  1.
         -1    1    1    2    0  501  0.37175800710E+02 -0.24446666911E+02 -0.93701396200E+02  0.10372864277E+03  0.00000000000E+00 0. -1.
</event>
<event>
 4    1  0.6754235E+001  0.2406856E+02  0.7546771E-02  0.1479499E+00
          2   -1    0    0  502    0  0.00000000000E+00  0.00000000000E+00  0.20907772313E+03  0.20907772313E+03  0.00000000000E+00 0. -1.
         -2   -1    0    0    0  501 -0.00000000000E+00 -0.00000000000E+00 -0.30770390940E+01  0.30770390940E+01  0.00000000000E+00 0.  1.
          1    1    1    2  502    0  0.18152723377E+02 -0.15804241452E+02  0.69531188844E+02  0.73579084229E+02  0.00000000000E+00 0.  1.
         -1    1    1    2    0  501 -0.18152723377E+02  0.15804241452E+02  0.13646949519E+03  0.13857567799E+03  0.00000000000E+00 0. -1.
</event>
<event>
 4    1  0.6754235E+001  0.4187390E+02  0.7546771E-02  0.1337841E+00
          2   -1    0    0  502    0  0.00000000000E+00  0.00000000000E+00  0.16603120089E+04  0.16603120089E+04  0.00000000000E+00 0.  1.
         -2   -1    0    0    0  501 -0.00000000000E+00 -0.00000000000E+00 -0.23115486881E+01  0.23115486881E+01  0.00000000000E+00 0. -1.
          1    1    1    2  502    0 -0.20018446358E+02  0.36778866577E+02  0.21634625053E+03  0.22036134720E+03  0.00000000000E+00 0. -1.
         -1    1    1    2    0  501  0.20018446358E+02 -0.36778866577E+02  0.14416542097E+04  0.14422622104E+04  0.00000000000E+00 0.  1.
</event>
<event>
 4    1  0.6754235E+001  0.4492467E+02  0.7546771E-02  0.1321817E+00
          2   -1    0    0  502    0  0.00000000000E+00  0.00000000000E+00  0.12981449617E+03  0.12981449617E+03  0.00000000000E+00 0. -1.
         -2   -1    0    0    0  501 -0.00000000000E+00 -0.00000000000E+00 -0.29147523005E+02  0.29147523005E+02  0.00000000000E+00 0.  1.
          1    1    1    2  502    0  0.44871534941E+02  0.21843399328E+01  0.10462605043E+03  0.11386323558E+03  0.00000000000E+00 0. -1.
         -1    1    1    2    0  501 -0.44871534941E+02 -0.21843399328E+01 -0.39590772629E+01  0.45098783594E+02  0.00000000000E+00 0.  1.
</event>
<event>
 4    1  0.6754235E+001  0.2688890E+02  0.7546771E-02  0.1448727E+00
          2   -1    0    0  502    0  0.00000000000E+00  0.00000000000E+00  0.64237763926E+01  0.64237763926E+01  0.00000000000E+00 0. -1.
         -2   -1    0    0    0  501 -0.00000000000E+00 -0.00000000000E+00 -0.24026684570E+03  0.24026684570E+03  0.00000000000E+00 0.  1.
          1    1    1    2  502    0 -0.10858849724E+02  0.24598751408E+02 -0.26993464741E+02  0.38100660452E+02  0.00000000000E+00 0. -1.
         -1    1    1    2    0  501  0.10858849724E+02 -0.24598751408E+02 -0.20684960457E+03  0.20858996164E+03  0.00000000000E+00 0.  1.
</event>
<event>
 4    1  0.6754235E+001  0.2955541E+02  0.7546771E-02  0.1423500E+00
          2   -1    0    0  502    0  0.00000000000E+00  0.00000000000E+00  0.59083182695E+03  0.59083182695E+03  0.00000000000E+00 0.  1.
         -2   -1    0    0    0  501 -0.00000000000E+00 -0.00000000000E+00 -0.27938322575E+01  0.27938322575E+01  0.00000000000E+00 0. -1.
          1    1    1    2  502    0  0.20927670511E+02  0.20869947617E+02  0.49767939976E+03  0.49855622256E+03  0.00000000000E+00 0.  1.
         -1    1    1    2    0  501 -0.20927670511E+02 -0.20869947617E+02  0.90358594933E+02  0.95069436649E+02  0.00000000000E+00 0. -1.
</event>
<event>
 4    1  0.6754235E+001  0.5585396E+02  0.7546771E-02  0.1274610E+00
          2   -1    0    0  502    0  0.00000000000E+00  0.00000000000E+00  0.38291891130E+03  0.38291891130E+03  0.00000000000E+00 0.  1.
         -2   -1    0    0    0  501 -0.00000000000E+00 -0.00000000000E+00 -0.82263810466E+01  0.82263810466E+01  0.00000000000E+00 0. -1.
          1    1    1    2  502    0  0.54508202109E+02  0.12186903594E+02  0.16814242341E+03  0.17717657651E+03  0.00000000000E+00 0. -1.
         -1    1    1    2    0  501 -0.54508202109E+02 -0.12186903594E+02  0.20655010685E+03  0.21396871584E+03  0.00000000000E+00 0.  1.
</event>
<event>
 4    1  0.6754235E+001  0.3570610E+02  0.7546771E-02  0.1375666E+00
          2   -1    0    0  502    0  0.00000000000E+00  0.00000000000E+00  0.44110095980E+03  0.44110095980E+03  0.00000000000E+00 0. -1.
         -2   -1    0    0    0  501 -0.00000000000E+00 -0.00000000000E+00 -0.31146248064E+01  0.31146248064E+01  0.00000000000E+00 0.  1.
          1    1    1    2  502    0  0.22006737977E+02 -0.28118132284E+02  0.27859693805E+03  0.28087573724E+03  0.00000000000E+00 0. -1.
         -1    1    1    2    0  501 -0.22006737977E+02  0.28118132284E+02  0.15938939694E+03  0.16333984737E+03  0.00000000000E+00 0.  1.
</event>
<event>
 4    1  0.6754235E+001  0.3343871E+02  0.7546771E-02  0.1391885E+00
          2   -1    0    0  502    0  0.00000000000E+00  0.00000000000E+00  0.12106585813E+01  0.12106585813E+01  0.00000000000E+00 0. -1.
         -2   -1    0    0    0  501 -0.00000000000E+00 -0.00000000000E+00 -0.11043867087E+04  0.11043867087E+04  0.00000000000E+00 0.  1.
          1    1    1    2  502    0 -0.18545172818E+02  0.27824882830E+02 -0.32791878730E+03  0.32961929343E+03  0.00000000000E+00 0. -1.
         -1    1    1    2    0  501  0.18545172818E+02 -0.27824882830E+02 -0.77525726280E+03  0.77597807383E+03  0.00000000000E+00 0.  1.
</event>
<event>
 4    1  0.6754235E+001  0.2743060E+02  0.7546771E-02  0.1443330E+00
          2   -1    0    0  502    0  0.00000000000E+00  0.00000000000E+00  0.13089072516E+02  0.13089072516E+02  0.00000000000E+00 0. -1.
         -2   -1    0    0    0  501 -0.00000000000E+00 -0.00000000000E+00 -0.64715350691E+02  0.64715350691E+02  0.00000000000E+00 0.  1.
          1    1    1    2  502    0  0.19344924580E+02 -0.19447665102E+02 -0.38815485939E+02  0.47529777336E+02  0.00000000000E+00 0.  1.
         -1    1    1    2    0  501 -0.19344924580E+02  0.19447665102E+02 -0.12810792236E+02  0.30274645871E+02  0.00000000000E+00 0. -1.
</event>
<event>
 4    1  0.6754235E+001  0.3501157E+02  0.7546771E-02  0.1380482E+00
          2   -1    0    0  502    0  0.00000000000E+00  0.00000000000E+00  0.53977220290E+03  0.53977220290E+03  0.00000000000E+00 0. -1.
         -2   -1    0    0    0  501 -0.00000000000E+00 -0.00000000000E+00 -0.31830662196E+01  0.31830662196E+01  0.00000000000E+00 0.  1.
          1    1    1    2  502    0  0.25552883913E+02 -0.23934503369E+02  0.41361606104E+03  0.41509523760E+03  0.00000000000E+00 0. -1.
         -1    1    1    2    0  501 -0.25552883913E+02  0.23934503369E+02  0.12297307564E+03  0.12786003152E+03  0.00000000000E+00 0.  1.
</event>
<event>
 4    1  0.6754235E+001  0.2255438E+02  0.7546771E-02  0.1498171E+00
          2   -1    0    0  502    0  0.00000000000E+00  0.00000000000E+00  0.34297887734E+02  0.34297887734E+02  0.00000000000E+00 0.  1.
         -2   -1    0    0    0  501 -0.00000000000E+00 -0.00000000000E+00 -0.14831907011E+02  0.14831907011E+02  0.00000000000E+00 0. -1.
          1    1    1    2  502    0 -0.95512442897E+00  0.22534151438E+02  0.97910101741E+01  0.24587885715E+02  0.00000000000E+00 0. -1.
         -1    1    1    2    0  501  0.95512442897E+00 -0.22534151438E+02  0.96749705487E+01  0.24541909030E+02  0.00000000000E+00 0.  1.
</event>
<event>
 4    1  0.6754235E+001  0.3700010E+02  0.7546771E-02  0.1367022E+00
          2   -1    0    0  502    0  0.00000000000E+00  0.00000000000E+00  0.90003635283E+02  0.90003635283E+02  0.00000000000E+00 0.  1.
         -2   -1    0    0    0  501 -0.00000000000E+00 -0.00000000000E+00 -0.16326081409E+02  0.16326081409E+02  0.00000000000E+00 0. -1.
          1    1    1    2  502    0 -0.28856456112E+02 -0.23158421631E+02  0.22941854922E+02  0.43535459789E+02  0.00000000000E+00 0. -1.
         -1    1    1    2    0  501  0.28856456112E+02  0.23158421631E+02  0.50735698952E+02  0.62794256902E+02  0.00000000000E+00 0.  1.
</event>
<event>
 4    1  0.6754235E+001  0.2830743E+02  0.7546771E-02  0.1434899E+00
          2   -1    0    0  502    0  0.00000000000E+00  0.00000000000E+00  0.92180348607E+01  0.92180348607E+01  0.00000000000E+00 0.  1.
         -2   -1    0    0    0  501 -0.00000000000E+00 -0.00000000000E+00 -0.10170043567E+03  0.10170043567E+03  0.00000000000E+00 0. -1.
          1    1    1    2  502    0 -0.16343122938E+02 -0.23113045221E+02 -0.67377562653E+02  0.73082463531E+02  0.00000000000E+00 0. -1.
         -1    1    1    2    0  501  0.16343122938E+02  0.23113045221E+02 -0.25104838154E+02  0.37836006997E+02  0.00000000000E+00 0.  1.
</event>
<event>
 4    1  0.6754235E+001  0.2604930E+02  0.7546771E-02  0.1457399E+00
          2   -1    0    0  502    0  0.00000000000E+00  0.00000000000E+00  0.61870132244E+01  0.61870132244E+01  0.00000000000E+00 0. -1.
         -2   -1    0    0    0  501 -0.00000000000E+00 -0.00000000000E+00 -0.14265088248E+03  0.14265088248E+03  0.00000000000E+00 0.  1.
          1    1    1    2  502    0 -0.25086909595E+02  0.70152114383E+01 -0.32452077557E+02  0.41613742469E+02  0.00000000000E+00 0. -1.
         -1    1    1    2    0  501  0.25086909595E+02 -0.70152114383E+01 -0.10401179170E+03  0.10722415324E+03  0.00000000000E+00 0.  1.
</event>
<event>
 4    1  0.6754235E+001  0.3607245E+02  0.7546771E-02  0.1373176E+00
          2   -1    0    0  502    0  0.00000000000E+00  0.00000000000E+00  0.16527052912E+04  0.16527052912E+04  0.00000000000E+00 0.  1.
         -2   -1    0    0    0  501 -0.00000000000E+00 -0.00000000000E+00 -0.26152779440E+01  0.26152779440E+01  0.00000000000E+00 0. -1.
          1    1    1    2  502    0 -0.28022217769E+02 -0.22715127302E+02  0.15169959419E+04  0.15174247623E+04  0.00000000000E+00 0.  1.
         -1    1    1    2    0  501  0.28022217769E+02  0.22715127302E+02  0.13309407135E+03  0.13789580677E+03  0.00000000000E+00 0. -1.
</event>
<event>
 4    1  0.6754235E+001  0.2469305E+02  0.7546771E-02  0.1472267E+00
          2   -1    0    0  502    0  0.00000000000E+00  0.00000000000E+00  0.12875021035E+04  0.12875021035E+04  0.00000000000E+00 0. -1.
         -2   -1    0    0    0  501 -0.00000000000E+00 -0.00000000000E+00 -0.18202181567E+01  0.18202181567E+01  0.00000000000E+00 0.  1.
          1    1    1    2  502    0  0.24641502161E+02  0.15946895892E+01  0.88350821921E+02  0.91736657873E+02  0.00000000000E+00 0.  1.
         -1    1    1    2    0  501 -0.24641502161E+02 -0.15946895892E+01  0.11973310634E+04  0.11975856637E+04  0.00000000000E+00 0. -1.
</event>
<event>
 4    1  0.6754235E+001  0.2982896E+02  0.7546771E-02  0.1421089E+00
          2   -1    0    0  502    0  0.00000000000E+00  0.00000000000E+00  0.23271259784E+04  0.23271259784E+04  0.00000000000E+00 0.  1.
         -2   -1    0    0    0  501 -0.00000000000E+00 -0.00000000000E+00 -0.40008669811E+00  0.40008669811E+00  0.00000000000E+00 0. -1.
          1    1    1    2  502    0 -0.29670934016E+02  0.30663432344E+01  0.91830115354E+03  0.91878548932E+03  0.00000000000E+00 0. -1.
         -1    1    1    2    0  501  0.29670934016E+02 -0.30663432344E+01  0.14084247381E+04  0.14087405757E+04  0.00000000000E+00 0.  1.
</event>
<event>
 4    1  0.6754235E+001  0.2416260E+02  0.7546771E-02  0.1478394E+00
          2   -1    0    0  502    0  0.00000000000E+00  0.00000000000E+00  0.26386635835E+03  0.26386635835E+03  0.00000000000E+00 0.  1.
         -2   -1    0    0    0  501 -0.00000000000E+00 -0.00000000000E+00 -0.26842837572E+01  0.26842837572E+01  0.00000000000E+00 0. -1.
          1    1    1    2  502    0 -0.23289019610E+02 -0.64383743194E+01  0.18645867385E+03  0.18801773361E+03  0.00000000000E+00 0.  1.
         -1    1    1    2    0  501  0.23289019610E+02  0.64383743194E+01  0.74723400737E+02  0.78532908491E+02  0.00000000000E+00 0. -1.
</event>
<event>
 4    1  0.6754235E+001  0.2561698E+02  0.7546771E-02  0.1462018E+00
          2   -1    0    0  502    0  0.00000000000E+00  0.00000000000E+00  0.17399360111E+03  0.17399360111E+03  0.00000000000E+00 0. -1.
         -2   -1    0    0    0  501 -0.00000000000E+00 -0.00000000000E+00 -0.70945384907E+01  0.70945384907E+01  0.00000000000E+00 0.  1.
          1    1    1    2  502    0  0.22373380864E+02 -0.12476433803E+02  0.14541658549E+03  0.14765572426E+03  0.00000000000E+00 0. -1.
         -1    1    1    2    0  501 -0.22373380864E+02  0.12476433803E+02  0.21482477127E+02  0.33432415336E+02  0.00000000000E+00 0.  1.
</event>
<event>
 4    1  0.6754235E+001  0.2720227E+02  0.7546771E-02  0.1445587E+00
          2   -1    0    0  502    0  0.00000000000E+00  0.00000000000E+00  0.13676543613E+03  0.13676543613E+03  0.00000000000E+00 0.  1.
         -2   -1    0    0    0  501 -0.00000000000E+00 -0.00000000000E+00 -0.98193190353E+01  0.98193190353E+01  0.00000000000E+00 0. -1.
          1    1    1    2  502    0 -0.76734375568E+01  0.26097543529E+02  0.14361760677E+02  0.30760747584E+02  0.00000000000E+00 0. -1.
         -1    1    1    2    0  501  0.76734375568E+01 -0.26097543529E+02  0.11258435642E+03  0.11582400759E+03  0.00000000000E+00 0.  1.
</event>
<event>
 4    1  0.6754235E+001  0.2273583E+02  0.7546771E-02  0.1495842E+00
          2   -1    0    0  502    0  0.00000000000E+00  0.00000000000E+00  0.42348930284E+01  0.42348930284E+01  0.00000000000E+00 0. -1.
         -2   -1    0    0    0  501 -0.00000000000E+00 -0.00000000000E+00 -0.12860775958E+03  0.12860775958E+03  0.00000000000E+00 0.  1.
          1    1    1    2  502    0 -0.21299197490E+02 -0.79537408419E+01 -0.47201067664E+02  0.52391398108E+02  0.00000000000E+00 0.  1.
         -1    1    1    2    0  501  0.21299197490E+02  0.79537408419E+01 -0.77171798887E+02  0.80451254499E+02  0.00000000000E+00 0. -1.
</event>
<event>
 4    1  0.6754235E+001  0.2020508E+02  0.7546771E-02  0.1530924E+00
          2   -1    0    0  502    0  0.00000000000E+00  0.00000000000E+00  0.22821759415E+03  0.22821759415E+03  0.00000000000E+00 0. -1.
         -2   -1    0    0    0  501 -0.00000000000E+00 -0.00000000000E+00 -0.20030098148E+01  0.20030098148E+01  0.00000000000E+00 0.  1.
          1    1    1    2  502    0 -0.20198748470E+02 -0.50559105479E+00  0.15074736439E+03  0.15209540734E+03  0.00000000000E+00 0. -1.
         -1    1    1    2    0  501  0.20198748470E+02  0.50559105479E+00  0.75467219948E+02  0.78125196632E+02  0.00000000000E+00 0.  1.
</event>
<event>
 4    1  0.6754235E+001  0.2525312E+02  0.7546771E-02  0.1465992E+00
          2   -1    0    0  502    0  0.00000000000E+00  0.00000000000E+00  0.19851973850E+03  0.19851973850E+03  0.00000000000E+00 0. -1.
         -2   -1    0    0    0  501 -0.00000000000E+00 -0.00000000000E+00 -0.33936037780E+01  0.33936037780E+01  0.00000000000E+00 0.  1.
          1    1    1    2  502    0  0.68200732711E+01 -0.24314739308E+02  0.12089321139E+03  0.12350258502E+03  0.00000000000E+00 0.  1.
         -1    1    1    2    0  501 -0.68200732711E+01  0.24314739308E+02  0.74232923339E+02  0.78410757263E+02  0.00000000000E+00 0. -1.
</event>
<event>
 4    1  0.6754235E+001  0.6214896E+02  0.7546771E-02  0.1252701E+00
          2   -1    0    0  502    0  0.00000000000E+00  0.00000000000E+00  0.64155504705E+03  0.64155504705E+03  0.00000000000E+00 0. -1.
         -2   -1    0    0    0  501 -0.00000000000E+00 -0.00000000000E+00 -0.14925281360E+02  0.14925281360E+02  0.00000000000E+00 0.  1.
          1    1    1    2  502    0 -0.64806559796E+01  0.61810147403E+02  0.59777695791E+02  0.86231468374E+02  0.00000000000E+00 0.  1.
         -1    1    1    2    0  501  0.64806559796E+01 -0.61810147403E+02  0.56685206989E+03  0.57024886003E+03  0.00000000000E+00 0. -1.
</event>
<event>
 4    1  0.6754235E+001  0.2036311E+02  0.7546771E-02  0.1528555E+00
          2   -1    0    0  502    0  0.00000000000E+00  0.00000000000E+00  0.24353922231E+02  0.24353922231E+02  0.00000000000E+00 0.  1.
         -2   -1    0    0    0  501 -0.00000000000E+00 -0.00000000000E+00 -0.17243857252E+02  0.17243857252E+02  0.00000000000E+00 0. -1.
          1    1    1    2  502    0  0.10672378706E+02 -0.17342330596E+02  0.58914708308E+01  0.21198243472E+02  0.00000000000E+00 0.  1.
         -1    1    1    2    0  501 -0.10672378706E+02  0.17342330596E+02  0.12185941479E+01  0.20399536011E+02  0.00000000000E+00 0. -1.
</event>
<event>
 4    1  0.6754235E+001  0.3670077E+02  0.7546771E-02  0.1368985E+00
          2   -1    0    0  502    0  0.00000000000E+00  0.00000000000E+00  0.71620446769E+03  0.71620446769E+03  0.00000000000E+00 0. -1.
         -2   -1    0    0    0  501 -0.00000000000E+00 -0.00000000000E+00 -0.19022368194E+01  0.19022368194E+01  0.00000000000E+00 0.  1.
          1    1    1    2  502    0  0.36650760007E+02 -0.19152915320E+01  0.31892259532E+03  0.32102736387E+03  0.00000000000E+00 0.  1.
         -1    1    1    2    0  501 -0.36650760007E+02  0.19152915320E+01  0.39537963556E+03  0.39707934064E+03  0.00000000000E+00 0. -1.
</event>
<event>
 4    1  0.6754235E+001  0.2319420E+02  0.7546771E-02  0.1490074E+00
          2   -1    0    0  502    0  0.00000000000E+00  0.00000000000E+00  0.77274447542E+00  0.77274447542E+00  0.00000000000E+00 0. -1.
         -2   -1    0    0    0  501 -0.00000000000E+00 -0.00000000000E+00 -0.72552982391E+03  0.72552982391E+03  0.00000000000E+00 0.  1.
          1    1    1    2  502    0 -0.13204438580E+02 -0.19068652138E+02 -0.43541654043E+03  0.43603386838E+03  0.00000000000E+00 0. -1.
         -1    1    1    2    0  501  0.13204438580E+02  0.19068652138E+02 -0.28934053900E+03  0.29026870000E+03  0.00000000000E+00 0.  1.
</event>
<event>
 4    1  0.6754235E+001  0.2030839E+02  0.7546771E-02  0.1529372E+00
          2   -1    0    0  502    0  0.00000000000E+00  0.00000000000E+00  0.30443880908E+03  0.30443880908E+03  0.00000000000E+00 0.  1.
         -2   -1    0    0    0  501 -0.00000000000E+00 -0.00000000000E+00 -0.17024322571E+01  0.17024322571E+01  0.00000000000E+00 0. -1.
          1    1    1    2  502    0 -0.19992376746E+02  0.35686886555E+01  0.82190792583E+02  0.84662607165E+02  0.00000000000E+00 0. -1.
         -1    1    1    2    0  501  0.19992376746E+02 -0.35686886555E+01  0.22054558424E+03  0.22147863417E+03  0.00000000000E+00 0.  1.
</event>
<event>
 4    1  0.6754235E+001  0.3876590E+02  0.7546771E-02  0.1355873E+00
          2   -1    0    0  502    0  0.00000000000E+00  0.00000000000E+00  0.31552957739E+04  0.31552957739E+04  0.00000000000E+00 0.  1.
         -2   -1    0    0    0  501 -0.00000000000E+00 -0.00000000000E+00 -0.47627765161E+00  0.47627765161E+00  0.00000000000E+00 0. -1.
          1    1    1    2  502    0 -0.23403564737E+02 -0.30904172925E+02  0.15792815212E+04  0.15797572339E+04  0.00000000000E+00 0.  1.
         -1    1    1    2    0  501  0.23403564737E+02  0.30904172925E+02  0.15755379750E+04  0.15760148177E+04  0.00000000000E+00 0. -1.
</event>
<event>
 4    1  0.6754235E+001  0.2070083E+02  0.7546771E-02  0.1523579E+00
          2   -1    0    0  502    0  0.00000000000E+00  0.00000000000E+00  0.10033392609E+03  0.10033392609E+03  0.00000000000E+00 0.  1.
         -2   -1    0    0    0  501 -0.00000000000E+00 -0.00000000000E+00 -0.47200908942E+01  0.47200908942E+01  0.00000000000E+00 0. -1.
          1    1    1    2  502    0  0.81201469572E+01 -0.19041727200E+02  0.31604328148E+02  0.37780388021E+02  0.00000000000E+00 0. -1.
         -1    1    1    2    0  501 -0.81201469572E+01  0.19041727200E+02  0.64009507050E+02  0.67273628965E+02  0.00000000000E+00 0.  1.
</event>
<event>
 4    1  0.6754235E+001  0.2302298E+02  0.7546771E-02  0.1492210E+00
          2   -1    0    0  502    0  0.00000000000E+00  0.00000000000E+00  0.42647226757E+03  0.42647226757E+03  0.00000000000E+00 0.  1.
         -2   -1    0    0    0  501 -0.00000000000E+00 -0.00000000000E+00 -0.22811670851E+01  0.22811670851E+01  0.00000000000E+00 0. -1.
          1    1    1    2  502    0 -0.18683254739E+02  0.13453382305E+02  0.35672475680E+03  0.35746693500E+03  0.00000000000E+00 0.  1.
         -1    1    1    2    0  501  0.18683254739E+02 -0.13453382305E+02  0.67466343679E+02  0.71286499651E+02  0.00000000000E+00 0. -1.
</event>
<event>
 4    1  0.6754235E+001  0.2570948E+02  0.7546771E-02  0.1461021E+00
          2   -1    0    0  502    0  0.00000000000E+00  0.00000000000E+00  0.97467548293E+02  0.97467548293E+02  0.00000000000E+00 0. -1.
         -2   -1    0    0    0  501 -0.00000000000E+00 -0.00000000000E+00 -0.83538526740E+01  0.83538526740E+01  0.00000000000E+00 0.  1.
          1    1    1    2  502    0  0.11948658911E+02  0.22764163039E+02  0.67511626901E+02  0.72241244006E+02  0.00000000000E+00 0. -1.
         -1    1    1    2    0  501 -0.11948658911E+02 -0.22764163039E+02  0.21602068718E+02  0.33580156961E+02  0.00000000000E+00 0.  1.
</event>
<event>
 4    1  0.6754235E+001  0.3129404E+02  0.7546771E-02  0.1408675E+00
          2   -1    0    0  502    0  0.00000000000E+00  0.00000000000E+00  0.14270954704E+04  0.14270954704E+04  0.00000000000E+00 0. -1.
         -2   -1    0    0    0  501 -0.00000000000E+00 -0.00000000000E+00 -0.71045837356E+00  0.71045837356E+00  0.00000000000E+00 0.  1.
          1    1    1    2  502    0  0.24524578252E+02 -0.19438672347E+02  0.58135940028E+03  0.58220105566E+03  0.00000000000E+00 0. -1.
         -1    1    1    2    0  501 -0.24524578252E+02  0.19438672347E+02  0.84502561178E+03  0.84560487315E+03  0.00000000000E+00 0.  1.
</event>
<event>
 4    1  0.6754235E+001  0.2279242E+02  0.7546771E-02  0.1495121E+00
          2   -1    0    0  502    0  0.00000000000E+00  0.00000000000E+00  0.51350068516E+02  0.51350068516E+02  0.00000000000E+00 0. -1.
         -2   -1    0    0    0  501 -0.00000000000E+00 -0.00000000000E+00 -0.19398307696E+02  0.19398307696E+02  0.00000000000E+00 0.  1.
          1    1    1    2  502    0  0.14248383150E+02  0.17789827847E+02 -0.84930865782E+01  0.24323382101E+02  0.00000000000E+00 0.  1.
         -1    1    1    2    0  501 -0.14248383150E+02 -0.17789827847E+02  0.40444847397E+02  0.46424994111E+02  0.00000000000E+00 0. -1.
</event>
<event>
 4    1  0.6754235E+001  0.2845986E+02  0.7546771E-02  0.1433470E+00
          2   -1    0    0  502    0  0.00000000000E+00  0.00000000000E+00  0.18535623057E+03  0.18535623057E+03  0.00000000000E+00 0. -1.
         -2   -1    0    0    0  501 -0.00000000000E+00 -0.00000000000E+00 -0.79200533252E+01  0.79200533252E+01  0.00000000000E+00 0.  1.
          1    1    1    2  502    0  0.31861284388E+01 -0.28280948302E+02  0.15341986992E+03  0.15603723895E+03  0.00000000000E+00 0. -1.
         -1    1    1    2    0  501 -0.31861284388E+01  0.28280948302E+02  0.24016307326E+02  0.37239044951E+02  0.00000000000E+00 0.  1.
</event>
<event>
 4    1  0.6754235E+001  0.2054711E+02  0.7546771E-02  0.1525830E+00
          2   -1    0    0  502    0  0.00000000000E+00  0.00000000000E+00  0.57494365815E+02  0.57494365815E+02  0.00000000000E+00 0. -1.
         -2   -1    0    0    0  501 -0.00000000000E+00 -0.00000000000E+00 -0.15550518782E+02  0.15550518782E+02  0.00000000000E+00 0.  1.
          1    1    1    2  502    0  0.20468606228E+02  0.17944614418E+01  0.47505269653E+02  0.51758425185E+02  0.00000000000E+00 0. -1.
         -1    1    1    2    0  501 -0.20468606228E+02 -0.17944614418E+01 -0.55614226199E+01  0.21286459413E+02  0.00000000000E+00 0.  1.
</event>
<event>
 4    1  0.6754235E+001  0.2116753E+02  0.7546771E-02  0.1516886E+00
          2   -1    0    0  502    0  0.00000000000E+00  0.00000000000E+00  0.34115141517E+03  0.34115141517E+03  0.00000000000E+00 0.  1.
         -2   -1    0    0    0  501 -0.00000000000E+00 -0.00000000000E+00 -0.15527276400E+01  0.15527276400E+01  0.00000000000E+00 0. -1.
          1    1    1    2  502    0  0.19750990568E+02 -0.76133359406E+01  0.23707348080E+03  0.23801659566E+03  0.00000000000E+00 0.  1.
         -1    1    1    2    0  501 -0.19750990568E+02  0.76133359406E+01  0.10252520674E+03  0.10468754715E+03  0.00000000000E+00 0. -1.
</event>
<event>
 4    1  0.6754235E+001  0.3636389E+02  0.7546771E-02  0.1371220E+00
          2   -1    0    0  502    0  0.00000000000E+00  0.00000000000E+00  0.41778566286E+03  0.41778566286E+03  0.00000000000E+00 0. -1.
         -2   -1    0    0    0  501 -0.00000000000E+00 -0.00000000000E+00 -0.51349463695E+01  0.51349463695E+01  0.00000000000E+00 0.  1.
          1    1    1    2  502    0 -0.11585627591E+01  0.36345429963E+02  0.75353707557E+02  0.83669073076E+02  0.00000000000E+00 0.  1.
         -1    1    1    2    0  501  0.11585627591E+01 -0.36345429963E+02  0.33729700894E+03  0.33925153616E+03  0.00000000000E+00 0. -1.
</event>
<event>
 4    1  0.6754235E+001  0.2890538E+02  0.7546771E-02  0.1429353E+00
          2   -1    0    0  502    0  0.00000000000E+00  0.00000000000E+00  0.22153572499E+04  0.22153572499E+04  0.00000000000E+00 0. -1.
         -2   -1    0    0    0  501 -0.00000000000E+00 -0.00000000000E+00 -0.42885732987E+00  0.42885732987E+00  0.00000000000E+00 0.  1.
          1    1    1    2  502    0  0.27552558205E+02  0.87394147500E+01  0.14921619605E+04  0.14924419041E+04  0.00000000000E+00 0.  1.
         -1    1    1    2    0  501 -0.27552558205E+02 -0.87394147500E+01  0.72276643209E+03  0.72334420312E+03  0.00000000000E+00 0. -1.
</event>
<event>
 4    1  0.6754235E+001  0.2795177E+02  0.7546771E-02  0.1438275E+00
          2   -1    0    0  502    0  0.00000000000E+00  0.00000000000E+00  0.26822102820E+04  0.26822102820E+04  0.00000000000E+00 0. -1.
         -2   -1    0    0    0  501 -0.00000000000E+00 -0.00000000000E+00 -0.30562993009E+00  0.30562993009E+00  0.00000000000E+00 0.  1.
          1    1    1    2  502    0 -0.25790518297E+02 -0.10777313978E+02  0.10504255218E+04  0.10507973535E+04  0.00000000000E+00 0. -1.
         -1    1    1    2    0  501  0.25790518297E+02  0.10777313978E+02  0.16314791303E+04  0.16317185584E+04  0.00000000000E+00 0.  1.
</event>
<event>
 4    1  0.6754235E+001  0.3824727E+02  0.7546771E-02  0.1359074E+00
          2   -1    0    0  502    0  0.00000000000E+00  0.00000000000E+00  0.11687136541E+04  0.11687136541E+04  0.00000000000E+00 0.  1.
         -2   -1    0    0    0  501 -0.00000000000E+00 -0.00000000000E+00 -0.18005900169E+01  0.18005900169E+01  0.00000000000E+00 0. -1.
          1    1    1    2  502    0  0.51432264901E+01  0.37899881659E+02  0.90659632414E+03  0.90740274892E+03  0.00000000000E+00 0.  1.
         -1    1    1    2    0  501 -0.51432264901E+01 -0.37899881659E+02  0.26031673990E+03  0.26311149515E+03  0.00000000000E+00 0. -1.
</event>
<event>
 4    1  0.6754235E+001  0.2134585E+02  0.7546771E-02  0.1514384E+00
          2   -1    0    0  502    0  0.00000000000E+00  0.00000000000E+00  0.57913088180E+03  0.57913088180E+03  0.00000000000E+00 0. -1.
         -2   -1    0    0    0  501 -0.00000000000E+00 -0.00000000000E+00 -0.12847675377E+01  0.12847675377E+01  0.00000000000E+00 0.  1.
          1    1    1    2  502    0  0.20461867224E+02  0.60792512202E+01  0.46960242170E+03  0.47008731079E+03  0.00000000000E+00 0. -1.
         -1    1    1    2    0  501 -0.20461867224E+02 -0.60792512202E+01  0.10824369257E+03  0.11032833855E+03  0.00000000000E+00 0.  1.
</event>
<event>
 4    1  0.6754235E+001  0.4115197E+02  0.7546771E-02  0.1341864E+00
          2   -1    0    0  502    0  0.00000000000E+00  0.00000000000E+00  0.48121093483E+01  0.48121093483E+01  0.00000000000E+00 0.  1.
         -2   -1    0    0    0  501 -0.00000000000E+00 -0.00000000000E+00 -0.35401135216E+03  0.35401135216E+03  0.00000000000E+00 0. -1.
          1    1    1    2  502    0  0.38432035636E+02 -0.14712689583E+02 -0.16081473816E+03  0.16599658010E+03  0.00000000000E+00 0. -1.
         -1    1    1    2    0  501 -0.38432035636E+02  0.14712689583E+02 -0.18838450466E+03  0.19282688141E+03  0.00000000000E+00 0.  1.
</event>
<event>
 4    1  0.6754235E+001  0.3467125E+02  0.7546771E-02  0.1382889E+00
          2   -1    0    0  502    0  0.00000000000E+00  0.00000000000E+00  0.20252569580E+04  0.20252569580E+04  0.00000000000E+00 0.  1.
         -2   -1    0    0    0  501 -0.00000000000E+00 -0.00000000000E+00 -0.62760065031E+00  0.62760065031E+00  0.00000000000E+00 0. -1.
          1    1    1    2  502    0  0.27410885624E+02  0.21230616097E+02  0.77638003233E+03  0.77715381380E+03  0.00000000000E+00 0. -1.
         -1    1    1    2    0  501 -0.27410885624E+02 -0.21230616097E+02  0.12482493251E+04  0.12487307449E+04  0.00000000000E+00 0.  1.
</event>
<event>
 4    1  0.6754235E+001  0.4358259E+02  0.7546771E-02  0.1328681E+00
          2   -1    0    0  502    0  0.00000000000E+00  0.00000000000E+00  0.15484015059E+02  0.15484015059E+02  0.00000000000E+00 0. -1.
         -2   -1    0    0    0  501 -0.00000000000E+00 -0.00000000000E+00 -0.17378690050E+03  0.17378690050E+03  0.00000000000E+00 0.  1.
          1    1    1    2  502    0 -0.43579803507E+02 -0.49256242821E+00 -0.27827176273E+02  0.51708738437E+02  0.00000000000E+00 0. -1.
         -1    1    1    2    0  501  0.43579803507E+02  0.49256242821E+00 -0.13047570917E+03  0.13756217712E+03  0.00000000000E+00 0.  1.
</event>
<event>
 4    1  0.6754235E+001  0.2917614E+02  0.7546771E-02  0.1426893E+00
          2   -1    0    0  502    0  0.00000000000E+00  0.00000000000E+00  0.22544922077E+04  0.22544922077E+04  0.00000000000E+00 0. -1.
         -2   -1    0    0    0  501 -0.00000000000E+00 -0.00000000000E+00 -0.37807277928E+00  0.37807277928E+00  0.00000000000E+00 0.  1.
          1    1    1    2  502    0  0.26482364922E+02  0.12244649348E+02  0.11678350514E+04  0.11681994497E+04  0.00000000000E+00 0. -1.
         -1    1    1    2    0  501 -0.26482364922E+02 -0.12244649348E+02  0.10862790835E+04  0.10866708308E+04  0.00000000000E+00 0.  1.
</event>
<event>
 4    1  0.6754235E+001  0.2220749E+02  0.7546771E-02  0.1502697E+00
          2   -1    0    0  502    0  0.00000000000E+00  0.00000000000E+00  0.60987754895E+02  0.60987754895E+02  0.00000000000E+00 0.  1.
         -2   -1    0    0    0  501 -0.00000000000E+00 -0.00000000000E+00 -0.29764091190E+02  0.29764091190E+02  0.00000000000E+00 0. -1.
          1    1    1    2  502    0 -0.12521472436E+02 -0.18340805235E+02 -0.23112639995E+02  0.32052558965E+02  0.00000000000E+00 0. -1.
         -1    1    1    2    0  501  0.12521472436E+02  0.18340805235E+02  0.54336303700E+02  0.58699287120E+02  0.00000000000E+00 0.  1.
</event>
<event>
 4    1  0.6754235E+001  0.2559284E+02  0.7546771E-02  0.1462279E+00
          2   -1    0    0  502    0  0.00000000000E+00  0.00000000000E+00  0.26456426295E+04  0.26456426295E+04  0.00000000000E+00 0. -1.
         -2   -1    0    0    0  501 -0.00000000000E+00 -0.00000000000E+00 -0.27015700871E+00  0.27015700871E+00  0.00000000000E+00 0.  1.
          1    1    1    2  502    0 -0.87083250410E+01  0.24065711924E+02  0.94019247144E+03  0.94054073637E+03  0.00000000000E+00 0.  1.
         -1    1    1    2    0  501  0.87083250410E+01 -0.24065711924E+02  0.17051800010E+04  0.17053720501E+04  0.00000000000E+00 0. -1.
</event>
<event>
 4    1  0.6754235E+001  0.8002852E+02  0.7546771E-02  0.1203781E+00
          2   -1    0    0  502    0  0.00000000000E+00  0.00000000000E+00  0.16066939350E+03  0.16066939350E+03  0.00000000000E+00 0.  1.
         -2   -1    0    0    0  501 -0.00000000000E+00 -0.00000000000E+00 -0.44042657542E+02  0.44042657542E+02  0.00000000000E+00 0. -1.
          1    1    1    2  502    0  0.52156533528E+02 -0.60698106589E+02  0.26777002893E+02  0.84389407019E+02  0.00000000000E+00 0.  1.
         -1    1    1    2    0  501 -0.52156533528E+02  0.60698106589E+02  0.89849733068E+02  0.12032264403E+03  0.00000000000E+00 0. -1.
</event>
<event>
 4    1  0.6754235E+001  0.2870669E+02  0.7546771E-02  0.1431178E+00
          2   -1    0    0  502    0  0.00000000000E+00  0.00000000000E+00  0.31849032849E+03  0.31849032849E+03  0.00000000000E+00 0. -1.
         -2   -1    0    0    0  501 -0.00000000000E+00 -0.00000000000E+00 -0.51020368307E+01  0.51020368307E+01  0.00000000000E+00 0.  1.
          1    1    1    2  502    0  0.28341820621E+02  0.45623770477E+01  0.27028171439E+03  0.27180191172E+03  0.00000000000E+00 0. -1.
         -1    1    1    2    0  501 -0.28341820621E+02 -0.45623770477E+01  0.43106577270E+02  0.51790453603E+02  0.00000000000E+00 0.  1.
</event>
<event>
 4    1  0.6754235E+001  0.5501003E+02  0.7546771E-02  0.1277799E+00
          2   -1    0    0  502    0  0.00000000000E+00  0.00000000000E+00  0.25219813752E+04  0.25219813752E+04  0.00000000000E+00 0.  1.
         -2   -1    0    0    0  501 -0.00000000000E+00 -0.00000000000E+00 -0.12143872835E+01  0.12143872835E+01  0.00000000000E+00 0. -1.
          1    1    1    2  502    0 -0.54802334850E+02  0.47757342516E+01  0.13982205531E+04  0.13993022614E+04  0.00000000000E+00 0. -1.
         -1    1    1    2    0  501  0.54802334850E+02 -0.47757342516E+01  0.11225464347E+04  0.11238935010E+04  0.00000000000E+00 0.  1.
</event>
<event>
 4    1  0.6754235E+001  0.2422692E+02  0.7546771E-02  0.1477641E+00
          2   -1    0    0  502    0  0.00000000000E+00  0.00000000000E+00  0.22192833406E+04  0.22192833406E+04  0.00000000000E+00 0. -1.
         -2   -1    0    0    0  501 -0.00000000000E+00 -0.00000000000E+00 -0.33194329894E+00  0.33194329894E+00  0.00000000000E+00 0.  1.
          1    1    1    2  502    0 -0.23727103957E+02 -0.48957172768E+01  0.60913279609E+03  0.60961439188E+03  0.00000000000E+00 0.  1.
         -1    1    1    2    0  501  0.23727103957E+02  0.48957172768E+01  0.16098186012E+04  0.16100008920E+04  0.00000000000E+00 0. -1.
</event>
<event>
 4    1  0.6754235E+001  0.2091568E+02  0.7546771E-02  0.1520472E+00
          2   -1    0    0  502    0  0.00000000000E+00  0.00000000000E+00  0.68110016931E+01  0.68110016931E+01  0.00000000000E+00 0.  1.
         -2   -1    0    0    0  501 -0.00000000000E+00 -0.00000000000E+00 -0.91698750594E+02  0.91698750594E+02  0.00000000000E+00 0. -1.
          1    1    1    2  502    0 -0.17553831665E+02  0.11372274572E+02 -0.69402191876E+02  0.72485376955E+02  0.00000000000E+00 0.  1.
         -1    1    1    2    0  501  0.17553831665E+02 -0.11372274572E+02 -0.15485557025E+02  0.26024375332E+02  0.00000000000E+00 0. -1.
</event>
<event>
 4    1  0.6754235E+001  0.2152849E+02  0.7546771E-02  0.1511851E+00
          2   -1    0    0  502    0  0.00000000000E+00  0.00000000000E+00  0.76324661843E+02  0.76324661843E+02  0.00000000000E+00 0. -1.
         -2   -1    0    0    0  501 -0.00000000000E+00 -0.00000000000E+00 -0.62304067958E+01  0.62304067958E+01  0.00000000000E+00 0.  1.
          1    1    1    2  502    0  0.15013426796E+02 -0.15429608182E+02  0.28474198805E+02  0.35696719602E+02  0.00000000000E+00 0. -1.
         -1    1    1    2    0  501 -0.15013426796E+02  0.15429608182E+02  0.41620056243E+02  0.46858349037E+02  0.00000000000E+00 0.  1.
</event>
<event>
 4    1  0.6754235E+001  0.2221461E+02  0.7546771E-02  0.1502603E+00
          2   -1    0    0  502    0  0.00000000000E+00  0.00000000000E+00  0.49366855206E+03  0.49366855206E+03  0.00000000000E+00 0.  1.
         -2   -1    0    0    0  501 -0.00000000000E+00 -0.00000000000E+00 -0.10302384382E+01  0.10302384382E+01  0.00000000000E+00 0. -1.
          1    1    1    2  502    0 -0.45962586918E+01  0.21733915608E+02  0.28894986125E+03  0.28980253795E+03  0.00000000000E+00 0.  1.
         -1    1    1    2    0  501  0.45962586918E+01 -0.21733915608E+02  0.20368845237E+03  0.20489625255E+03  0.00000000000E+00 0. -1.
</event>
<event>
 4    1  0.6754235E+001  0.2167939E+02  0.7546771E-02  0.1509782E+00
          2   -1    0    0  502    0  0.00000000000E+00  0.00000000000E+00  0.16031197977E+04  0.16031197977E+04  0.00000000000E+00 0.  1.
         -2   -1    0    0    0  501 -0.00000000000E+00 -0.00000000000E+00 -0.31719924857E+00  0.31719924857E+00  0.00000000000E+00 0. -1.
          1    1    1    2  502    0 -0.18026716139E+02 -0.12042981791E+02  0.10220359096E+04  0.10222658150E+04  0.00000000000E+00 0.  1.
         -1    1    1    2    0  501  0.18026716139E+02  0.12042981791E+02  0.58076668881E+03  0.58117118195E+03  0.00000000000E+00 0. -1.
</event>
<event>
 4    1  0.6754235E+001  0.2083689E+02  0.7546771E-02  0.1521606E+00
          2   -1    0    0  502    0  0.00000000000E+00  0.00000000000E+00  0.23414871227E+04  0.23414871227E+04  0.00000000000E+00 0.  1.
         -2   -1    0    0    0  501 -0.00000000000E+00 -0.00000000000E+00 -0.20199414721E+00  0.20199414721E+00  0.00000000000E+00 0. -1.
          1    1    1    2  502    0  0.62851647713E+01 -0.19866369065E+02  0.15059538802E+04  0.15060980264E+04  0.00000000000E+00 0.  1.
         -1    1    1    2    0  501 -0.62851647713E+01  0.19866369065E+02  0.83533124837E+03  0.83559109044E+03  0.00000000000E+00 0. -1.
</event>
<event>
 4    1  0.6754235E+001  0.2377438E+02  0.7546771E-02  0.1482997E+00
          2   -1    0    0  502    0  0.00000000000E+00  0.00000000000E+00  0.19467790143E+04  0.19467790143E+04  0.00000000000E+00 0.  1.
         -2   -1    0    0    0  501 -0.00000000000E+00 -0.00000000000E+00 -0.30721191530E+00  0.30721191530E+00  0.00000000000E+00 0. -1.
          1    1    1    2  502    0  0.14422110157E+02 -0.18900373243E+02  0.12014071841E+04  0.12016423941E+04  0.00000000000E+00 0.  1.
         -1    1    1    2    0  501 -0.14422110157E+02  0.18900373243E+02  0.74506461830E+03  0.74544383209E+03  0.00000000000E+00 0. -1.
</event>
<event>
 4    1  0.6754235E+001  0.2368844E+02  0.7546771E-02  0.1484030E+00
          2   -1    0    0  502    0  0.00000000000E+00  0.00000000000E+00  0.19464764718E+03  0.19464764718E+03  0.00000000000E+00 0.  1.
         -2   -1    0    0    0  501 -0.00000000000E+00 -0.00000000000E+00 -0.31728469151E+01  0.31728469151E+01  0.00000000000E+00 0. -1.
          1    1    1    2  502    0 -0.17923385275E+02 -0.15488521921E+02  0.12563975626E+03  0.12785339418E+03  0.00000000000E+00 0.  1.
         -1    1    1    2    0  501  0.17923385275E+02  0.15488521921E+02  0.65835044004E+02  0.69967099912E+02  0.00000000000E+00 0. -1.
</event>
<event>
 4    1  0.6754235E+001  0.2706813E+02  0.7546771E-02  0.1446925E+00
          2   -1    0    0  502    0  0.00000000000E+00  0.00000000000E+00  0.35933857626E+01  0.35933857626E+01  0.00000000000E+00 0. -1.
         -2   -1    0    0    0  501 -0.00000000000E+00 -0.00000000000E+00 -0.20390084524E+03  0.20390084524E+03  0.00000000000E+00 0.  1.
          1    1    1    2  502    0 -0.15103587682E+02 -0.22462534651E+02 -0.10054778832E+03  0.10412752547E+03  0.00000000000E+00 0. -1.
         -1    1    1    2    0  501  0.15103587682E+02  0.22462534651E+02 -0.99759671153E+02  0.10336670553E+03  0.00000000000E+00 0.  1.
</event>
<event>
 4    1  0.6754235E+001  0.2533665E+02  0.7546771E-02  0.1465072E+00
          2   -1    0    0  502    0  0.00000000000E+00  0.00000000000E+00  0.49051956774E+03  0.49051956774E+03  0.00000000000E+00 0.  1.
         -2   -1    0    0    0  501 -0.00000000000E+00 -0.00000000000E+00 -0.14619081459E+01  0.14619081459E+01  0.00000000000E+00 0. -1.
          1    1    1    2  502    0  0.25293258907E+02 -0.14821309319E+01  0.32416160281E+03  0.32515025818E+03  0.00000000000E+00 0.  1.
         -1    1    1    2    0  501 -0.25293258907E+02  0.14821309319E+01  0.16489605679E+03  0.16683121771E+03  0.00000000000E+00 0. -1.
</event>
<event>
 4    1  0.6754235E+001  0.2276390E+02  0.7546771E-02  0.1495484E+00
          2   -1    0    0  502    0  0.00000000000E+00  0.00000000000E+00  0.35323134421E+01  0.35323134421E+01  0.00000000000E+00 0.  1.
         -2   -1    0    0    0  501 -0.00000000000E+00 -0.00000000000E+00 -0.25810344625E+03  0.25810344625E+03  0.00000000000E+00 0. -1.
          1    1    1    2  502    0 -0.17811950999E+02 -0.14174963625E+02 -0.21322982375E+03  0.21444149069E+03  0.00000000000E+00 0. -1.
         -1    1    1    2    0  501  0.17811950999E+02  0.14174963625E+02 -0.41341309059E+02  0.47194269004E+02  0.00000000000E+00 0.  1.
</event>
<event>
 4    1  0.6754235E+001  0.2892237E+02  0.7546771E-02  0.1429198E+00
          2   -1    0    0  502    0  0.00000000000E+00  0.00000000000E+00  0.68117111515E+03  0.68117111515E+03  0.00000000000E+00 0. -1.
         -2   -1    0    0    0  501 -0.00000000000E+00 -0.00000000000E+00 -0.15152126459E+01  0.15152126459E+01  0.00000000000E+00 0.  1.
          1    1    1    2  502    0 -0.20547088676E+02 -0.20354871869E+02  0.48843104616E+03  0.48928661387E+03  0.00000000000E+00 0. -1.
         -1    1    1    2    0  501  0.20547088676E+02  0.20354871869E+02  0.19122485634E+03  0.19339971392E+03  0.00000000000E+00 0.  1.
</event>
<event>
 4    1  0.6754235E+001  0.2959608E+02  0.7546771E-02  0.1423139E+00
          2   -1    0    0  502    0  0.00000000000E+00  0.00000000000E+00  0.57272851146E+02  0.57272851146E+02  0.00000000000E+00 0. -1.
         -2   -1    0    0    0  501 -0.00000000000E+00 -0.00000000000E+00 -0.23285482835E+02  0.23285482835E+02  0.00000000000E+00 0.  1.
          1    1    1    2  502    0  0.19720689227E+02 -0.22068578036E+02  0.40590483047E+02  0.50234599970E+02  0.00000000000E+00 0. -1.
         -1    1    1    2    0  501 -0.19720689227E+02  0.22068578036E+02 -0.66031147363E+01  0.30323734011E+02  0.00000000000E+00 0.  1.
</event>
<event>
 4    1  0.6754235E+001  0.2221385E+02  0.7546771E-02  0.1502613E+00
          2   -1    0    0  502    0  0.00000000000E+00  0.00000000000E+00  0.12926389794E+04  0.12926389794E+04  0.00000000000E+00 0. -1.
         -2   -1    0    0    0  501 -0.00000000000E+00 -0.00000000000E+00 -0.55499741011E+00  0.55499741011E+00  0.00000000000E+00 0.  1.
          1    1    1    2  502    0  0.22094722256E+02  0.22974299793E+01  0.10073114639E+04  0.10075563707E+04  0.00000000000E+00 0. -1.
         -1    1    1    2    0  501 -0.22094722256E+02 -0.22974299793E+01  0.28477251809E+03  0.28563760606E+03  0.00000000000E+00 0.  1.
</event>
<event>
 4    1  0.6754235E+001  0.3382141E+02  0.7546771E-02  0.1389044E+00
          2   -1    0    0  502    0  0.00000000000E+00  0.00000000000E+00  0.12570596280E+03  0.12570596280E+03  0.00000000000E+00 0. -1.
         -2   -1    0    0    0  501 -0.00000000000E+00 -0.00000000000E+00 -0.15940893681E+02  0.15940893681E+02  0.00000000000E+00 0.  1.
          1    1    1    2  502    0 -0.13472483853E+02  0.31022247724E+02  0.10127914688E+03  0.10677711959E+03  0.00000000000E+00 0. -1.
         -1    1    1    2    0  501  0.13472483853E+02 -0.31022247724E+02  0.84859222467E+01  0.34869736899E+02  0.00000000000E+00 0.  1.
</event>
<event>
 4    1  0.6754235E+001  0.2112325E+02  0.7546771E-02  0.1517512E+00
          2   -1    0    0  502    0  0.00000000000E+00  0.00000000000E+00  0.83956577544E+00  0.83956577544E+00  0.00000000000E+00 0.  1.
         -2   -1    0    0    0  501 -0.00000000000E+00 -0.00000000000E+00 -0.66015576724E+03  0.66015576724E+03  0.00000000000E+00 0. -1.
          1    1    1    2  502    0 -0.14624236724E-01 -0.21123241591E+02 -0.18373114804E+03  0.18494141318E+03  0.00000000000E+00 0. -1.
         -1    1    1    2    0  501  0.14624236724E-01  0.21123241591E+02 -0.47558505342E+03  0.47605391983E+03  0.00000000000E+00 0.  1.
</event>
<event>
 4    1  0.6754235E+001  0.8819462E+02  0.7546771E-02  0.1186004E+00
          2   -1    0    0  502    0  0.00000000000E+00  0.00000000000E+00  0.10546152526E+04  0.10546152526E+04  0.00000000000E+00 0. -1.
         -2   -1    0    0    0  501 -0.00000000000E+00 -0.00000000000E+00 -0.78062504405E+01  0.78062504405E+01  0.00000000000E+00 0.  1.
          1    1    1    2  502    0  0.85559291309E+02  0.21398569295E+02  0.39861736740E+03  0.40825739025E+03  0.00000000000E+00 0.  1.
         -1    1    1    2    0  501 -0.85559291309E+02 -0.21398569295E+02  0.64819163478E+03  0.65416411282E+03  0.00000000000E+00 0. -1.
</event>
<event>
 4    1  0.6754235E+001  0.2218473E+02  0.7546771E-02  0.1502997E+00
          2   -1    0    0  502    0  0.00000000000E+00  0.00000000000E+00  0.11262336241E+04  0.11262336241E+04  0.00000000000E+00 0.  1.
         -2   -1    0    0    0  501 -0.00000000000E+00 -0.00000000000E+00 -0.50832348122E+00  0.50832348122E+00  0.00000000000E+00 0. -1.
          1    1    1    2  502    0 -0.64634345127E+01 -0.21222300604E+02  0.35183166328E+03  0.35253039772E+03  0.00000000000E+00 0. -1.
         -1    1    1    2    0  501  0.64634345127E+01  0.21222300604E+02  0.77389363735E+03  0.77421154988E+03  0.00000000000E+00 0.  1.
</event>
<event>
 4    1  0.6754235E+001  0.3069947E+02  0.7546771E-02  0.1413614E+00
          2   -1    0    0  502    0  0.00000000000E+00  0.00000000000E+00  0.24639909017E+03  0.24639909017E+03  0.00000000000E+00 0.  1.
         -2   -1    0    0    0  501 -0.00000000000E+00 -0.00000000000E+00 -0.53437657994E+01  0.53437657994E+01  0.00000000000E+00 0. -1.
          1    1    1    2  502    0  0.10457771915E+02 -0.28863345261E+02  0.53421905197E+02  0.61614589570E+02  0.00000000000E+00 0. -1.
         -1    1    1    2    0  501 -0.10457771915E+02  0.28863345261E+02  0.18763341917E+03  0.19012826640E+03  0.00000000000E+00 0.  1.
</event>
<event>
 4    1  0.6754235E+001  0.2650655E+02  0.7546771E-02  0.1452629E+00
          2   -1    0    0  502    0  0.00000000000E+00  0.00000000000E+00  0.48523635635E+03  0.48523635635E+03  0.00000000000E+00 0. -1.
         -2   -1    0    0    0  501 -0.00000000000E+00 -0.00000000000E+00 -0.34135028526E+01  0.34135028526E+01  0.00000000000E+00 0.  1.
          1    1    1    2  502    0  0.20236594454E+02 -0.17119499313E+02  0.55511212664E+02  0.61514971700E+02  0.00000000000E+00 0.  1.
         -1    1    1    2    0  501 -0.20236594454E+02  0.17119499313E+02  0.42631164083E+03  0.42713488750E+03  0.00000000000E+00 0. -1.
</event>
<event>
 4    1  0.6754235E+001  0.5071370E+02  0.7546771E-02  0.1295107E+00
          2   -1    0    0  502    0  0.00000000000E+00  0.00000000000E+00  0.51815341908E+03  0.51815341908E+03  0.00000000000E+00 0. -1.
         -2   -1    0    0    0  501 -0.00000000000E+00 -0.00000000000E+00 -0.66228287280E+01  0.66228287280E+01  0.00000000000E+00 0.  1.
          1    1    1    2  502    0  0.48487664607E+02 -0.14860197028E+02  0.12442970783E+03  0.13436752311E+03  0.00000000000E+00 0.  1.
         -1    1    1    2    0  501 -0.48487664607E+02  0.14860197028E+02  0.38710088252E+03  0.39040872470E+03  0.00000000000E+00 0. -1.
</event>
<event>
 4    1  0.6754235E+001  0.4044411E+02  0.7546771E-02  0.1345903E+00
          2   -1    0    0  502    0  0.00000000000E+00  0.00000000000E+00  0.17589703605E+04  0.17589703605E+04  0.00000000000E+00 0.  1.
         -2   -1    0    0    0  501 -0.00000000000E+00 -0.00000000000E+00 -0.42650139428E+01  0.42650139428E+01  0.00000000000E+00 0. -1.
          1    1    1    2  502    0  0.56519279054E+01 -0.40047240150E+02  0.97750190112E+02  0.10578669765E+03  0.00000000000E+00 0. -1.
         -1    1    1    2    0  501 -0.56519279054E+01  0.40047240150E+02  0.16569551564E+04  0.16574486768E+04  0.00000000000E+00 0.  1.
</event>
<event>
 4    1  0.6754235E+001  0.2238589E+02  0.7546771E-02  0.1500357E+00
          2   -1    0    0  502    0  0.00000000000E+00  0.00000000000E+00  0.29783138115E+02  0.29783138115E+02  0.00000000000E+00 0.  1.
         -2   -1    0    0    0  501 -0.00000000000E+00 -0.00000000000E+00 -0.24552356561E+02  0.24552356561E+02  0.00000000000E+00 0. -1.
          1    1    1    2  502    0  0.62640445136E+01 -0.21491622722E+02 -0.12625039365E+02  0.25700578201E+02  0.00000000000E+00 0. -1.
         -1    1    1    2    0  501 -0.62640445136E+01  0.21491622722E+02  0.17855820919E+02  0.28634916476E+02  0.00000000000E+00 0.  1.
</event>
<event>
 4    1  0.6754235E+001  0.2642919E+02  0.7546771E-02  0.1453428E+00
          2   -1    0    0  502    0  0.00000000000E+00  0.00000000000E+00  0.20551473928E+03  0.20551473928E+03  0.00000000000E+00 0.  1.
         -2   -1    0    0    0  501 -0.00000000000E+00 -0.00000000000E+00 -0.38036310424E+01  0.38036310424E+01  0.00000000000E+00 0. -1.
          1    1    1    2  502    0 -0.25972142521E+02 -0.48938746841E+01  0.13499987288E+03  0.13756259621E+03  0.00000000000E+00 0.  1.
         -1    1    1    2    0  501  0.25972142521E+02  0.48938746841E+01  0.66711235359E+02  0.71755774121E+02  0.00000000000E+00 0. -1.
</event>
<event>
 4    1  0.6754235E+001  0.2073315E+02  0.7546771E-02  0.1523109E+00
          2   -1    0    0  502    0  0.00000000000E+00  0.00000000000E+00  0.84816325977E+03  0.84816325977E+03  0.00000000000E+00 0. -1.
         -2   -1    0    0    0  501 -0.00000000000E+00 -0.00000000000E+00 -0.55076770090E+00  0.55076770090E+00  0.00000000000E+00 0.  1.
          1    1    1    2  502    0 -0.52630198054E+01  0.20054034409E+02  0.30393103435E+03  0.30463738660E+03  0.00000000000E+00 0.  1.
         -1    1    1    2    0  501  0.52630198054E+01 -0.20054034409E+02  0.54368145773E+03  0.54407664088E+03  0.00000000000E+00 0. -1.
</event>
<event>
 4    1  0.6754235E+001  0.2236558E+02  0.7546771E-02  0.1500622E+00
          2   -1    0    0  502    0  0.00000000000E+00  0.00000000000E+00  0.44298231028E+03  0.44298231028E+03  0.00000000000E+00 0.  1.
         -2   -1    0    0    0  501 -0.00000000000E+00 -0.00000000000E+00 -0.13265095717E+01  0.13265095717E+01  0.00000000000E+00 0. -1.
          1    1    1    2  502    0 -0.20850325161E+02  0.80921505679E+01  0.30650515365E+03  0.30732007448E+03  0.00000000000E+00 0.  1.
         -1    1    1    2    0  501  0.20850325161E+02 -0.80921505679E+01  0.13515064705E+03  0.13698874537E+03  0.00000000000E+00 0. -1.
</event>
<event>
 4    1  0.6754235E+001  0.2993623E+02  0.7546771E-02  0.1420152E+00
          2   -1    0    0  502    0  0.00000000000E+00  0.00000000000E+00  0.88158948114E+01  0.88158948114E+01  0.00000000000E+00 0. -1.
         -2   -1    0    0    0  501 -0.00000000000E+00 -0.00000000000E+00 -0.10569373402E+03  0.10569373402E+03  0.00000000000E+00 0.  1.
          1    1    1    2  502    0 -0.13261344299E+02  0.26838676772E+02 -0.59631287877E+02  0.66723821214E+02  0.00000000000E+00 0. -1.
         -1    1    1    2    0  501  0.13261344299E+02 -0.26838676772E+02 -0.37246551327E+02  0.47785807613E+02  0.00000000000E+00 0.  1.
</event>
<event>
 4    1  0.6754235E+001  0.2533073E+02  0.7546771E-02  0.1465137E+00
          2   -1    0    0  502    0  0.00000000000E+00  0.00000000000E+00  0.45405971916E+03  0.45405971916E+03  0.00000000000E+00 0. -1.
         -2   -1    0    0    0  501 -0.00000000000E+00 -0.00000000000E+00 -0.15465732824E+01  0.15465732824E+01  0.00000000000E+00 0.  1.
          1    1    1    2  502    0 -0.22260424912E+02  0.12087975791E+02  0.29317132518E+03  0.29426360900E+03  0.00000000000E+00 0. -1.
         -1    1    1    2    0  501  0.22260424912E+02 -0.12087975791E+02  0.15934182070E+03  0.16134268344E+03  0.00000000000E+00 0.  1.
</event>
<event>
 4    1  0.6754235E+001  0.2445454E+02  0.7546771E-02  0.1474999E+00
          2   -1    0    0  502    0  0.00000000000E+00  0.00000000000E+00  0.52201689985E+02  0.52201689985E+02  0.00000000000E+00 0. -1.
         -2   -1    0    0    0  501 -0.00000000000E+00 -0.00000000000E+00 -0.11463594214E+02  0.11463594214E+02  0.00000000000E+00 0.  1.
          1    1    1    2  502    0  0.20436438689E+02 -0.13430425232E+02  0.19551577100E+02  0.31309559487E+02  0.00000000000E+00 0.  1.
         -1    1    1    2    0  501 -0.20436438689E+02  0.13430425232E+02  0.21186518672E+02  0.32355724712E+02  0.00000000000E+00 0. -1.
</event>
<event>
 4    1  0.6754235E+001  0.2371881E+02  0.7546771E-02  0.1483664E+00
          2   -1    0    0  502    0  0.00000000000E+00  0.00000000000E+00  0.19347487233E+04  0.19347487233E+04  0.00000000000E+00 0.  1.
         -2   -1    0    0    0  501 -0.00000000000E+00 -0.00000000000E+00 -0.31242187473E+00  0.31242187473E+00  0.00000000000E+00 0. -1.
          1    1    1    2  502    0  0.74272581653E+01 -0.22525931070E+02  0.12218805063E+04  0.12221106960E+04  0.00000000000E+00 0.  1.
         -1    1    1    2    0  501 -0.74272581653E+01  0.22525931070E+02  0.71255579517E+03  0.71295044916E+03  0.00000000000E+00 0. -1.
</event>
<event>
 4    1  0.6754235E+001  0.3174982E+02  0.7546771E-02  0.1404976E+00
          2   -1    0    0  502    0  0.00000000000E+00  0.00000000000E+00  0.27897849154E+04  0.27897849154E+04  0.00000000000E+00 0. -1.
         -2   -1    0    0    0  501 -0.00000000000E+00 -0.00000000000E+00 -0.66571423657E+00  0.66571423657E+00  0.00000000000E+00 0.  1.
          1    1    1    2  502    0 -0.29513756241E+02 -0.11704253367E+02  0.23379833527E+04  0.23381989242E+04  0.00000000000E+00 0. -1.
         -1    1    1    2    0  501  0.29513756241E+02  0.11704253367E+02  0.45113584847E+03  0.45225170550E+03  0.00000000000E+00 0.  1.
</event>
<event>
 4    1  0.6754235E+001  0.2099251E+02  0.7546771E-02  0.1519372E+00
          2   -1    0    0  502    0  0.00000000000E+00  0.00000000000E+00  0.24608808159E+03  0.24608808159E+03  0.00000000000E+00 0. -1.
         -2   -1    0    0    0  501 -0.00000000000E+00 -0.00000000000E+00 -0.75998055045E+01  0.75998055045E+01  0.00000000000E+00 0.  1.
          1    1    1    2  502    0  0.32093001682E+00 -0.20990059077E+02  0.23014138168E+03  0.23109682200E+03  0.00000000000E+00 0. -1.
         -1    1    1    2    0  501 -0.32093001682E+00  0.20990059077E+02  0.83468944121E+01  0.22591065103E+02  0.00000000000E+00 0.  1.
</event>
<event>
 4    1  0.6754235E+001  0.2288593E+02  0.7546771E-02  0.1493935E+00
          2   -1    0    0  502    0  0.00000000000E+00  0.00000000000E+00  0.37257110475E+03  0.37257110475E+03  0.00000000000E+00 0. -1.
         -2   -1    0    0    0  501 -0.00000000000E+00 -0.00000000000E+00 -0.14469222595E+01  0.14469222595E+01  0.00000000000E+00 0.  1.
          1    1    1    2  502    0  0.70664002445E+01  0.21767680448E+02  0.15404102148E+03  0.15573182791E+03  0.00000000000E+00 0. -1.
         -1    1    1    2    0  501 -0.70664002445E+01 -0.21767680448E+02  0.21708316101E+03  0.21828619910E+03  0.00000000000E+00 0.  1.
</event>
<event>
 4    1  0.6754235E+001  0.3080601E+02  0.7546771E-02  0.1412719E+00
          2   -1    0    0  502    0  0.00000000000E+00  0.00000000000E+00  0.33523060587E+03  0.33523060587E+03  0.00000000000E+00 0. -1.
         -2   -1    0    0    0  501 -0.00000000000E+00 -0.00000000000E+00 -0.32788676902E+01  0.32788676902E+01  0.00000000000E+00 0.  1.
          1    1    1    2  502    0 -0.14447269291E+02 -0.27208215069E+02  0.10341637681E+03  0.10790717098E+03  0.00000000000E+00 0.  1.
         -1    1    1    2    0  501  0.14447269291E+02  0.27208215069E+02  0.22853536137E+03  0.23060230258E+03  0.00000000000E+00 0. -1.
</event>
<event>
 4    1  0.6754235E+001  0.3149691E+02  0.7546771E-02  0.1407019E+00
          2   -1    0    0  502    0  0.00000000000E+00  0.00000000000E+00  0.41496037935E+03  0.41496037935E+03  0.00000000000E+00 0. -1.
         -2   -1    0    0    0  501 -0.00000000000E+00 -0.00000000000E+00 -0.31229958723E+01  0.31229958723E+01  0.00000000000E+00 0.  1.
          1    1    1    2  502    0 -0.23469189326E+01  0.31409352920E+02  0.30714270659E+03  0.30875345778E+03  0.00000000000E+00 0. -1.
         -1    1    1    2    0  501  0.23469189326E+01 -0.31409352920E+02  0.10469467688E+03  0.10932991743E+03  0.00000000000E+00 0.  1.
</event>
<event>
 4    1  0.6754235E+001  0.9694512E+02  0.7546771E-02  0.1169209E+00
          2   -1    0    0  502    0  0.00000000000E+00  0.00000000000E+00  0.31778909974E+04  0.31778909974E+04  0.00000000000E+00 0.  1.
         -2   -1    0    0    0  501 -0.00000000000E+00 -0.00000000000E+00 -0.34422113457E+01  0.34422113457E+01  0.00000000000E+00 0. -1.
          1    1    1    2  502    0  0.78142227748E+02 -0.57377249009E+02  0.99027419725E+03  0.99500821213E+03  0.00000000000E+00 0. -1.
         -1    1    1    2    0  501 -0.78142227748E+02  0.57377249009E+02  0.21841745888E+04  0.21863249966E+04  0.00000000000E+00 0.  1.
</event>
<event>
 4    1  0.6754235E+001  0.2856083E+02  0.7546771E-02  0.1432529E+00
          2   -1    0    0  502    0  0.00000000000E+00  0.00000000000E+00  0.17894944963E+02  0.17894944963E+02  0.00000000000E+00 0. -1.
         -2   -1    0    0    0  501 -0.00000000000E+00 -0.00000000000E+00 -0.45600210221E+02  0.45600210221E+02  0.00000000000E+00 0.  1.
          1    1    1    2  502    0 -0.18915109212E+02 -0.21399521392E+02 -0.14453579040E+02  0.32009792554E+02  0.00000000000E+00 0. -1.
         -1    1    1    2    0  501  0.18915109212E+02  0.21399521392E+02 -0.13251686218E+02  0.31485362630E+02  0.00000000000E+00 0.  1.
</event>
<event>
 4    1  0.6754235E+001  0.2093637E+02  0.7546771E-02  0.1520175E+00
          2   -1    0    0  502    0  0.00000000000E+00  0.00000000000E+00  0.46013968414E+03  0.46013968414E+03  0.00000000000E+00 0. -1.
         -2   -1    0    0    0  501 -0.00000000000E+00 -0.00000000000E+00 -0.10235881029E+01  0.10235881029E+01  0.00000000000E+00 0.  1.
          1    1    1    2  502    0  0.14384466043E+02 -0.15212451877E+02  0.16883713158E+03  0.17013026937E+03  0.00000000000E+00 0. -1.
         -1    1    1    2    0  501 -0.14384466043E+02  0.15212451877E+02  0.29027896446E+03  0.29103300287E+03  0.00000000000E+00 0.  1.
</event>
<event>
 4    1  0.6754235E+001  0.3276120E+02  0.7546771E-02  0.1397025E+00
          2   -1    0    0  502    0  0.00000000000E+00  0.00000000000E+00  0.16529890418E+03  0.16529890418E+03  0.00000000000E+00 0.  1.
         -2   -1    0    0    0  501 -0.00000000000E+00 -0.00000000000E+00 -0.64961022516E+01  0.64961022516E+01  0.00000000000E+00 0. -1.
          1    1    1    2  502    0  0.23539824528E+02  0.22785370186E+02  0.77543870293E+02  0.84180450541E+02  0.00000000000E+00 0. -1.
         -1    1    1    2    0  501 -0.23539824528E+02 -0.22785370186E+02  0.81258931633E+02  0.87614555888E+02  0.00000000000E+00 0.  1.
</event>
<event>
 4    1  0.6754235E+001  0.2298697E+02  0.7546771E-02  0.1492662E+00
          2   -1    0    0  502    0  0.00000000000E+00  0.00000000000E+00  0.86757702477E+01  0.86757702477E+01  0.00000000000E+00 0.  1.
         -2   -1    0    0    0  501 -0.00000000000E+00 -0.00000000000E+00 -0.98944495729E+02  0.98944495729E+02  0.00000000000E+00 0. -1.
          1    1    1    2  502    0  0.22324207020E+02  0.54800317349E+01 -0.78498778844E+02  0.81795227531E+02  0.00000000000E+00 0.  1.
         -1    1    1    2    0  501 -0.22324207020E+02 -0.54800317349E+01 -0.11769946638E+02  0.25825038446E+02  0.00000000000E+00 0. -1.
</event>
<event>
 4    1  0.6754235E+001  0.2125390E+02  0.7546771E-02  0.1515670E+00
          2   -1    0    0  502    0  0.00000000000E+00  0.00000000000E+00  0.30251778377E+03  0.30251778377E+03  0.00000000000E+00 0. -1.
         -2   -1    0    0    0  501 -0.00000000000E+00 -0.00000000000E+00 -0.15635932563E+01  0.15635932563E+01  0.00000000000E+00 0.  1.
          1    1    1    2  502    0  0.67249368724E+01  0.20161936057E+02  0.18273029631E+03  0.18396219620E+03  0.00000000000E+00 0. -1.
         -1    1    1    2    0  501 -0.67249368724E+01 -0.20161936057E+02  0.11822389421E+03  0.12011918083E+03  0.00000000000E+00 0.  1.
</event>
<event>
 4    1  0.6754235E+001  0.2773701E+02  0.7546771E-02  0.1440342E+00
          2   -1    0    0  502    0  0.00000000000E+00  0.00000000000E+00  0.11530461204E+04  0.11530461204E+04  0.00000000000E+00 0.  1.
         -2   -1    0    0    0  501 -0.00000000000E+00 -0.00000000000E+00 -0.98527787118E+00  0.98527787118E+00  0.00000000000E+00 0. -1.
          1    1    1    2  502    0 -0.22616931490E+02  0.16056646893E+02  0.24819358765E+03  0.24973866031E+03  0.00000000000E+00 0. -1.
         -1    1    1    2    0  501  0.22616931490E+02 -0.16056646893E+02  0.90386725489E+03  0.90429273798E+03  0.00000000000E+00 0.  1.
</event>
<event>
 4    1  0.6754235E+001  0.2017322E+02  0.7546771E-02  0.1531404E+00
          2   -1    0    0  502    0  0.00000000000E+00  0.00000000000E+00  0.18025277711E+03  0.18025277711E+03  0.00000000000E+00 0. -1.
         -2   -1    0    0    0  501 -0.00000000000E+00 -0.00000000000E+00 -0.22590358040E+01  0.22590358040E+01  0.00000000000E+00 0.  1.
          1    1    1    2  502    0  0.17713382628E+02 -0.96537518948E+01  0.86787753921E+02  0.89101476309E+02  0.00000000000E+00 0.  1.
         -1    1    1    2    0  501 -0.17713382628E+02  0.96537518948E+01  0.91205987381E+02  0.93410336601E+02  0.00000000000E+00 0. -1.
</event>
<event>
 4    1  0.6754235E+001  0.2331131E+02  0.7546771E-02  0.1488626E+00
          2   -1    0    0  502    0  0.00000000000E+00  0.00000000000E+00  0.74715942354E+02  0.74715942354E+02  0.00000000000E+00 0. -1.
         -2   -1    0    0    0  501 -0.00000000000E+00 -0.00000000000E+00 -0.73157328515E+01  0.73157328515E+01  0.00000000000E+00 0.  1.
          1    1    1    2  502    0 -0.15216689088E+02  0.17659828231E+02  0.36830875365E+02  0.43588192669E+02  0.00000000000E+00 0. -1.
         -1    1    1    2    0  501  0.15216689088E+02 -0.17659828231E+02  0.30569334137E+02  0.38443482537E+02  0.00000000000E+00 0.  1.
</event>
<event>
 4    1  0.6754235E+001  0.2201242E+02  0.7546771E-02  0.1505286E+00
          2   -1    0    0  502    0  0.00000000000E+00  0.00000000000E+00  0.11651257252E+04  0.11651257252E+04  0.00000000000E+00 0.  1.
         -2   -1    0    0    0  501 -0.00000000000E+00 -0.00000000000E+00 -0.12366667686E+01  0.12366667686E+01  0.00000000000E+00 0. -1.
          1    1    1    2  502    0  0.13369475128E+02  0.17487251573E+02  0.10570539304E+04  0.10572831024E+04  0.00000000000E+00 0.  1.
         -1    1    1    2    0  501 -0.13369475128E+02 -0.17487251573E+02  0.10683512805E+03  0.10907928959E+03  0.00000000000E+00 0. -1.
</event>
<event>
 4    1  0.6754235E+001  0.2455964E+02  0.7546771E-02  0.1473790E+00
          2   -1    0    0  502    0  0.00000000000E+00  0.00000000000E+00  0.22482126912E+02  0.22482126912E+02  0.00000000000E+00 0.  1.
         -2   -1    0    0    0  501 -0.00000000000E+00 -0.00000000000E+00 -0.28156060603E+02  0.28156060603E+02  0.00000000000E+00 0. -1.
          1    1    1    2  502    0 -0.85431675152E+01  0.23025856442E+02  0.26595461514E+01  0.24703217641E+02  0.00000000000E+00 0.  1.
         -1    1    1    2    0  501  0.85431675152E+01 -0.23025856442E+02 -0.83334798429E+01  0.25934969874E+02  0.00000000000E+00 0. -1.
</event>
<event>
 4    1  0.6754235E+001  0.2132362E+02  0.7546771E-02  0.1514694E+00
          2   -1    0    0  502    0  0.00000000000E+00  0.00000000000E+00  0.19155836361E+04  0.19155836361E+04  0.00000000000E+00 0. -1.
         -2   -1    0    0    0  501 -0.00000000000E+00 -0.00000000000E+00 -0.30932165836E+00  0.30932165836E+00  0.00000000000E+00 0.  1.
          1    1    1    2  502    0  0.20503987910E+02 -0.58551904058E+01  0.14196614964E+04  0.14198216301E+04  0.00000000000E+00 0. -1.
         -1    1    1    2    0  501 -0.20503987910E+02  0.58551904058E+01  0.49561281801E+03  0.49607132768E+03  0.00000000000E+00 0.  1.
</event>
<event>
 4    1  0.6754235E+001  0.2779688E+02  0.7546771E-02  0.1439763E+00
          2   -1    0    0  502    0  0.00000000000E+00  0.00000000000E+00  0.65237035111E+03  0.65237035111E+03  0.00000000000E+00 0. -1.
         -2   -1    0    0    0  501 -0.00000000000E+00 -0.00000000000E+00 -0.12557128828E+01  0.12557128828E+01  0.00000000000E+00 0.  1.
          1    1    1    2  502    0 -0.27586119249E+02 -0.34165314215E+01  0.24767446900E+03  0.24922943096E+03  0.00000000000E+00 0. -1.
         -1    1    1    2    0  501  0.27586119249E+02  0.34165314215E+01  0.40344016922E+03  0.40439663303E+03  0.00000000000E+00 0.  1.
</event>
<event>
 4    1  0.6754235E+001  0.3064705E+02  0.7546771E-02  0.1414055E+00
          2   -1    0    0  502    0  0.00000000000E+00  0.00000000000E+00  0.61031265658E+03  0.61031265658E+03  0.00000000000E+00 0. -1.
         -2   -1    0    0    0  501 -0.00000000000E+00 -0.00000000000E+00 -0.16660194406E+01  0.16660194406E+01  0.00000000000E+00 0.  1.
          1    1    1    2  502    0  0.12328542491E+02  0.28057955600E+02  0.21981809680E+03  0.22194422163E+03  0.00000000000E+00 0. -1.
         -1    1    1    2    0  501 -0.12328542491E+02 -0.28057955600E+02  0.38882854034E+03  0.39003445439E+03  0.00000000000E+00 0.  1.
</event>
<event>
 4    1  0.6754235E+001  0.2501471E+02  0.7546771E-02  0.1468639E+00
          2   -1    0    0  502    0  0.00000000000E+00  0.00000000000E+00  0.97489440804E+03  0.97489440804E+03  0.00000000000E+00 0.  1.
         -2   -1    0    0    0  501 -0.00000000000E+00 -0.00000000000E+00 -0.11428702851E+01  0.11428702851E+01  0.00000000000E+00 0. -1.
          1    1    1    2  502    0  0.18701484561E+01 -0.24944704703E+02  0.80999714903E+03  0.81038331497E+03  0.00000000000E+00 0.  1.
         -1    1    1    2    0  501 -0.18701484561E+01  0.24944704703E+02  0.16375438873E+03  0.16565396335E+03  0.00000000000E+00 0. -1.
</event>
<event>
 4    1  0.6754235E+001  0.3464544E+02  0.7546771E-02  0.1383073E+00
          2   -1    0    0  502    0  0.00000000000E+00  0.00000000000E+00  0.16148858380E+04  0.16148858380E+04  0.00000000000E+00 0. -1.
         -2   -1    0    0    0  501 -0.00000000000E+00 -0.00000000000E+00 -0.29146734217E+01  0.29146734217E+01  0.00000000000E+00 0.  1.
          1    1    1    2  502    0 -0.86270377953E+01  0.33554151326E+02  0.10780201736E+03  0.11323242380E+03  0.00000000000E+00 0.  1.
         -1    1    1    2    0  501  0.86270377953E+01 -0.33554151326E+02  0.15041691472E+04  0.15045680876E+04  0.00000000000E+00 0. -1.
</event>
<event>
 4    1  0.6754235E+001  0.2586156E+02  0.7546771E-02  0.1459392E+00
          2   -1    0    0  502    0  0.00000000000E+00  0.00000000000E+00  0.17538629916E+02  0.17538629916E+02  0.00000000000E+00 0.  1.
         -2   -1    0    0    0  501 -0.00000000000E+00 -0.00000000000E+00 -0.38509143121E+02  0.38509143121E+02  0.00000000000E+00 0. -1.
          1    1    1    2  502    0  0.24877018233E+02 -0.70678440417E+01 -0.77197951290E+01  0.26989177320E+02  0.00000000000E+00 0.  1.
         -1    1    1    2    0  501 -0.24877018233E+02  0.70678440417E+01 -0.13250718076E+02  0.29058595718E+02  0.00000000000E+00 0. -1.
</event>
<event>
 4    1  0.6754235E+001  0.2074659E+02  0.7546771E-02  0.1522914E+00
          2   -1    0    0  502    0  0.00000000000E+00  0.00000000000E+00  0.30806789252E+01  0.30806789252E+01  0.00000000000E+00 0.  1.
         -2   -1    0    0    0  501 -0.00000000000E+00 -0.00000000000E+00 -0.19708891128E+03  0.19708891128E+03  0.00000000000E+00 0. -1.
          1    1    1    2  502    0  0.12415604369E+02  0.16621484132E+02 -0.15100357825E+03  0.15242211654E+03  0.00000000000E+00 0. -1.
         -1    1    1    2    0  501 -0.12415604369E+02 -0.16621484132E+02 -0.43004654104E+02  0.47747473663E+02  0.00000000000E+00 0.  1.
</event>
<event>
 4    1  0.6754235E+001  0.8687367E+02  0.7546771E-02  0.1188730E+00
          2   -1    0    0  502    0  0.00000000000E+00  0.00000000000E+00  0.81092810350E+03  0.81092810350E+03  0.00000000000E+00 0.  1.
         -2   -1    0    0    0  501 -0.00000000000E+00 -0.00000000000E+00 -0.12978297475E+02  0.12978297475E+02  0.00000000000E+00 0. -1.
          1    1    1    2  502    0  0.85545723097E+02  0.15131551710E+02  0.17986160433E+03  0.19974291304E+03  0.00000000000E+00 0. -1.
         -1    1    1    2    0  501 -0.85545723097E+02 -0.15131551710E+02  0.61808820170E+03  0.62416348794E+03  0.00000000000E+00 0.  1.
</event>
<event>
 4    1  0.6754235E+001  0.2977072E+02  0.7546771E-02  0.1421600E+00
          2   -1    0    0  502    0  0.00000000000E+00  0.00000000000E+00  0.16002407787E+04  0.16002407787E+04  0.00000000000E+00 0. -1.
         -2   -1    0    0    0  501 -0.00000000000E+00 -0.00000000000E+00 -0.61388665697E+00  0.61388665697E+00  0.00000000000E+00 0.  1.
          1    1    1    2  502    0  0.12547812631E+02  0.26997182969E+02  0.10501251975E+04  0.10505471079E+04  0.00000000000E+00 0.  1.
         -1    1    1    2    0  501 -0.12547812631E+02 -0.26997182969E+02  0.54950169462E+03  0.55030755753E+03  0.00000000000E+00 0. -1.
</event>
<event>
 4    1  0.6754235E+001  0.2248940E+02  0.7546771E-02  0.1499011E+00
          2   -1    0    0  502    0  0.00000000000E+00  0.00000000000E+00  0.13560710198E+01  0.13560710198E+01  0.00000000000E+00 0. -1.
         -2   -1    0    0    0  501 -0.00000000000E+00 -0.00000000000E+00 -0.99094515283E+03  0.99094515283E+03  0.00000000000E+00 0.  1.
          1    1    1    2  502    0 -0.13277007694E+02  0.18151969818E+02 -0.10298549924E+03  0.10541245655E+03  0.00000000000E+00 0.  1.
         -1    1    1    2    0  501  0.13277007694E+02 -0.18151969818E+02 -0.88660358257E+03  0.88688876730E+03  0.00000000000E+00 0. -1.
</event>
<event>
 4    1  0.6754235E+001  0.3149032E+02  0.7546771E-02  0.1407073E+00
          2   -1    0    0  502    0  0.00000000000E+00  0.00000000000E+00  0.31317854097E+04  0.31317854097E+04  0.00000000000E+00 0.  1.
         -2   -1    0    0    0  501 -0.00000000000E+00 -0.00000000000E+00 -0.34398288420E+00  0.34398288420E+00  0.00000000000E+00 0. -1.
          1    1    1    2  502    0  0.29559214257E+02 -0.10857852110E+02  0.20072757324E+04  0.20075227286E+04  0.00000000000E+00 0.  1.
         -1    1    1    2    0  501 -0.29559214257E+02  0.10857852110E+02  0.11241656944E+04  0.11246066639E+04  0.00000000000E+00 0. -1.
</event>
<event>
 4    1  0.6754235E+001  0.2025317E+02  0.7546771E-02  0.1530200E+00
          2   -1    0    0  502    0  0.00000000000E+00  0.00000000000E+00  0.19026349298E+01  0.19026349298E+01  0.00000000000E+00 0.  1.
         -2   -1    0    0    0  501 -0.00000000000E+00 -0.00000000000E+00 -0.30227279810E+03  0.30227279810E+03  0.00000000000E+00 0. -1.
          1    1    1    2  502    0 -0.29696735980E+00 -0.20250992379E+02 -0.68741160549E+02  0.71662668353E+02  0.00000000000E+00 0.  1.
         -1    1    1    2    0  501  0.29696735980E+00  0.20250992379E+02 -0.23162900262E+03  0.23251276467E+03  0.00000000000E+00 0. -1.
</event>
<event>
 4    1  0.6754235E+001  0.3928580E+02  0.7546771E-02  0.1352723E+00
          2   -1    0    0  502    0  0.00000000000E+00  0.00000000000E+00  0.13241450265E+03  0.13241450265E+03  0.00000000000E+00 0. -1.
         -2   -1    0    0    0  501 -0.00000000000E+00 -0.00000000000E+00 -0.26542115354E+02  0.26542115354E+02  0.00000000000E+00 0.  1.
          1    1    1    2  502    0  0.24515250569E+02  0.30698156078E+02 -0.65857297031E+01  0.39833982136E+02  0.00000000000E+00 0.  1.
         -1    1    1    2    0  501 -0.24515250569E+02 -0.30698156078E+02  0.11245811700E+03  0.11912263586E+03  0.00000000000E+00 0. -1.
</event>
<event>
 4    1  0.6754235E+001  0.2433292E+02  0.7546771E-02  0.1476406E+00
          2   -1    0    0  502    0  0.00000000000E+00  0.00000000000E+00  0.12844869463E+03  0.12844869463E+03  0.00000000000E+00 0. -1.
         -2   -1    0    0    0  501 -0.00000000000E+00 -0.00000000000E+00 -0.62998485426E+01  0.62998485426E+01  0.00000000000E+00 0.  1.
          1    1    1    2  502    0  0.15321395449E+02 -0.18903591038E+02  0.95973223911E+02  0.99009851129E+02  0.00000000000E+00 0. -1.
         -1    1    1    2    0  501 -0.15321395449E+02  0.18903591038E+02  0.26175622173E+02  0.35738692041E+02  0.00000000000E+00 0.  1.
</event>
<event>
 4    1  0.6754235E+001  0.5865674E+02  0.7546771E-02  0.1264466E+00
          2   -1    0    0  502    0  0.00000000000E+00  0.00000000000E+00  0.11350387021E+04  0.11350387021E+04  0.00000000000E+00 0.  1.
         -2   -1    0    0    0  501 -0.00000000000E+00 -0.00000000000E+00 -0.64142607082E+01  0.64142607082E+01  0.00000000000E+00 0. -1.
          1    1    1    2  502    0 -0.27300160027E+02 -0.51916419110E+02  0.14983099307E+03  0.16090351082E+03  0.00000000000E+00 0. -1.
         -1    1    1    2    0  501  0.27300160027E+02  0.51916419110E+02  0.97879344830E+03  0.98054945196E+03  0.00000000000E+00 0.  1.
</event>
<event>
 4    1  0.6754235E+001  0.2222689E+02  0.7546771E-02  0.1502441E+00
          2   -1    0    0  502    0  0.00000000000E+00  0.00000000000E+00  0.58963490357E+03  0.58963490357E+03  0.00000000000E+00 0.  1.
         -2   -1    0    0    0  501 -0.00000000000E+00 -0.00000000000E+00 -0.85598472490E+00  0.85598472490E+00  0.00000000000E+00 0. -1.
          1    1    1    2  502    0 -0.20883693015E+02  0.76095905006E+01  0.33734556679E+03  0.33807701184E+03  0.00000000000E+00 0.  1.
         -1    1    1    2    0  501  0.20883693015E+02 -0.76095905006E+01  0.25143335205E+03  0.25241387645E+03  0.00000000000E+00 0. -1.
</event>
<event>
 4    1  0.6754235E+001  0.2156869E+02  0.7546771E-02  0.1511298E+00
          2   -1    0    0  502    0  0.00000000000E+00  0.00000000000E+00  0.58154064489E+02  0.58154064489E+02  0.00000000000E+00 0. -1.
         -2   -1    0    0    0  501 -0.00000000000E+00 -0.00000000000E+00 -0.10384613225E+02  0.10384613225E+02  0.00000000000E+00 0.  1.
          1    1    1    2  502    0 -0.29477947440E+01 -0.21366301728E+02  0.74615406410E+01  0.22822859859E+02  0.00000000000E+00 0.  1.
         -1    1    1    2    0  501  0.29477947440E+01  0.21366301728E+02  0.40307910623E+02  0.45715817855E+02  0.00000000000E+00 0. -1.
</event>
<event>
 4    1  0.6754235E+001  0.4305933E+02  0.7546771E-02  0.1331434E+00
          2   -1    0    0  502    0  0.00000000000E+00  0.00000000000E+00  0.97435496634E+03  0.97435496634E+03  0.00000000000E+00 0.  1.
         -2   -1    0    0    0  501 -0.00000000000E+00 -0.00000000000E+00 -0.22227767521E+01  0.22227767521E+01  0.00000000000E+00 0. -1.
          1    1    1    2  502    0  0.21591481156E+02 -0.37254712342E+02  0.30083395170E+03  0.30389993772E+03  0.00000000000E+00 0. -1.
         -1    1    1    2    0  501 -0.21591481156E+02  0.37254712342E+02  0.67129823789E+03  0.67267780537E+03  0.00000000000E+00 0.  1.
</event>
<event>
 4    1  0.6754235E+001  0.2124696E+02  0.7546771E-02  0.1515768E+00
          2   -1    0    0  502    0  0.00000000000E+00  0.00000000000E+00  0.36350854528E+02  0.36350854528E+02  0.00000000000E+00 0. -1.
         -2   -1    0    0    0  501 -0.00000000000E+00 -0.00000000000E+00 -0.13924651231E+02  0.13924651231E+02  0.00000000000E+00 0.  1.
          1    1    1    2  502    0  0.44235504439E+01 -0.20781377684E+02  0.19479711605E+02  0.28825208086E+02  0.00000000000E+00 0. -1.
         -1    1    1    2    0  501 -0.44235504439E+01  0.20781377684E+02  0.29464916916E+01  0.21450297673E+02  0.00000000000E+00 0.  1.
</event>
<event>
 4    1  0.6754235E+001  0.4661308E+02  0.7546771E-02  0.1313565E+00
          2   -1    0    0  502    0  0.00000000000E+00  0.00000000000E+00  0.31998023909E+03  0.31998023909E+03  0.00000000000E+00 0.  1.
         -2   -1    0    0    0  501 -0.00000000000E+00 -0.00000000000E+00 -0.68376467678E+01  0.68376467678E+01  0.00000000000E+00 0. -1.
          1    1    1    2  502    0 -0.42927667616E+02 -0.18165750714E+02  0.14298130592E+03  0.15038760916E+03  0.00000000000E+00 0. -1.
         -1    1    1    2    0  501  0.42927667616E+02  0.18165750714E+02  0.17016128640E+03  0.17643027670E+03  0.00000000000E+00 0.  1.
</event>
<event>
 4    1  0.6754235E+001  0.2045412E+02  0.7546771E-02  0.1527203E+00
          2   -1    0    0  502    0  0.00000000000E+00  0.00000000000E+00  0.96624887341E+02  0.96624887341E+02  0.00000000000E+00 0. -1.
         -2   -1    0    0    0  501 -0.00000000000E+00 -0.00000000000E+00 -0.43365736676E+01  0.43365736676E+01  0.00000000000E+00 0.  1.
          1    1    1    2  502    0 -0.17049392316E+02  0.11299969441E+02  0.44156159531E+02  0.48663513151E+02  0.00000000000E+00 0. -1.
         -1    1    1    2    0  501  0.17049392316E+02 -0.11299969441E+02  0.48132154142E+02  0.52297947857E+02  0.00000000000E+00 0.  1.
</event>
<event>
 4    1  0.6754235E+001  0.6003037E+02  0.7546771E-02  0.1259729E+00
          2   -1    0    0  502    0  0.00000000000E+00  0.00000000000E+00  0.20169397642E+02  0.20169397642E+02  0.00000000000E+00 0. -1.
         -2   -1    0    0    0  501 -0.00000000000E+00 -0.00000000000E+00 -0.25119237280E+03  0.25119237280E+03  0.00000000000E+00 0.  1.
          1    1    1    2  502    0 -0.59568640041E+02  0.74312152083E+01 -0.18841601198E+03  0.19774791884E+03  0.00000000000E+00 0.  1.
         -1    1    1    2    0  501  0.59568640041E+02 -0.74312152083E+01 -0.42606963171E+02  0.73613851594E+02  0.00000000000E+00 0. -1.
</event>
<event>
 4    1  0.6754235E+001  0.2992435E+02  0.7546771E-02  0.1420255E+00
          2   -1    0    0  502    0  0.00000000000E+00  0.00000000000E+00  0.95009251997E+01  0.95009251997E+01  0.00000000000E+00 0.  1.
         -2   -1    0    0    0  501 -0.00000000000E+00 -0.00000000000E+00 -0.14722402831E+03  0.14722402831E+03  0.00000000000E+00 0. -1.
          1    1    1    2  502    0 -0.26874243460E+02 -0.13162136369E+02 -0.11586701325E+03  0.11966884120E+03  0.00000000000E+00 0. -1.
         -1    1    1    2    0  501  0.26874243460E+02  0.13162136369E+02 -0.21856089861E+02  0.37056112308E+02  0.00000000000E+00 0.  1.
</event>
<event>
 4    1  0.6754235E+001  0.5282408E+02  0.7546771E-02  0.1286372E+00
          2   -1    0    0  502    0  0.00000000000E+00  0.00000000000E+00  0.41683434651E+01  0.41683434651E+01  0.00000000000E+00 0. -1.
         -2   -1    0    0    0  501 -0.00000000000E+00 -0.00000000000E+00 -0.79615602145E+03  0.79615602145E+03  0.00000000000E+00 0.  1.
          1    1    1    2  502    0  0.26946411053E+02  0.45434291127E+02 -0.55564875704E+03  0.55815403347E+03  0.00000000000E+00 0. -1.
         -1    1    1    2    0  501 -0.26946411053E+02 -0.45434291127E+02 -0.23633892095E+03  0.24217033145E+03  0.00000000000E+00 0.  1.
</event>
<event>
 4    1  0.6754235E+001  0.3048524E+02  0.7546771E-02  0.1415426E+00
          2   -1    0    0  502    0  0.00000000000E+00  0.00000000000E+00  0.21572424979E+02  0.21572424979E+02  0.00000000000E+00 0.  1.
         -2   -1    0    0    0  501 -0.00000000000E+00 -0.00000000000E+00 -0.60294233717E+02  0.60294233717E+02  0.00000000000E+00 0. -1.
          1    1    1    2  502    0 -0.27330555322E+02 -0.13505206826E+02 -0.41232340368E+02  0.51278219137E+02  0.00000000000E+00 0. -1.
         -1    1    1    2    0  501  0.27330555322E+02  0.13505206826E+02  0.25105316301E+01  0.30588439559E+02  0.00000000000E+00 0.  1.
</event>
<event>
 4    1  0.6754235E+001  0.3606059E+02  0.7546771E-02  0.1373256E+00
          2   -1    0    0  502    0  0.00000000000E+00  0.00000000000E+00  0.55715934203E+02  0.55715934203E+02  0.00000000000E+00 0.  1.
         -2   -1    0    0    0  501 -0.00000000000E+00 -0.00000000000E+00 -0.26223501684E+02  0.26223501684E+02  0.00000000000E+00 0. -1.
          1    1    1    2  502    0  0.35960467014E+02 -0.26852940006E+01  0.11587936969E+01  0.36079201689E+02  0.00000000000E+00 0.  1.
         -1    1    1    2    0  501 -0.35960467014E+02  0.26852940006E+01  0.28333638822E+02  0.45860234197E+02  0.00000000000E+00 0. -1.
</event>
<event>
 4    1  0.6754235E+001  0.3055120E+02  0.7546771E-02  0.1414866E+00
          2   -1    0    0  502    0  0.00000000000E+00  0.00000000000E+00  0.17368621468E+03  0.17368621468E+03  0.00000000000E+00 0.  1.
         -2   -1    0    0    0  501 -0.00000000000E+00 -0.00000000000E+00 -0.55077383007E+01  0.55077383007E+01  0.00000000000E+00 0. -1.
          1    1    1    2  502    0  0.10441284308E+02  0.28711586086E+02  0.70123412967E+02  0.76489663614E+02  0.00000000000E+00 0.  1.
         -1    1    1    2    0  501 -0.10441284308E+02 -0.28711586086E+02  0.98055063410E+02  0.10270428936E+03  0.00000000000E+00 0. -1.
</event>
<event>
 4    1  0.6754235E+001  0.2327702E+02  0.7546771E-02  0.1489049E+00
          2   -1    0    0  502    0  0.00000000000E+00  0.00000000000E+00  0.64189259585E+02  0.64189259585E+02  0.00000000000E+00 0.  1.
         -2   -1    0    0    0  501 -0.00000000000E+00 -0.00000000000E+00 -0.97540986974E+01  0.97540986974E+01  0.00000000000E+00 0. -1.
          1    1    1    2  502    0 -0.57794238514E+01  0.22548127017E+02  0.40782862958E+02  0.46958084320E+02  0.00000000000E+00 0. -1.
         -1    1    1    2    0  501  0.57794238514E+01 -0.22548127017E+02  0.13652297930E+02  0.26985273962E+02  0.00000000000E+00 0.  1.
</event>
<event>
 4    1  0.6754235E+001  0.2084951E+02  0.7546771E-02  0.1521424E+00
          2   -1    0    0  502    0  0.00000000000E+00  0.00000000000E+00  0.23744979520E+03  0.23744979520E+03  0.00000000000E+00 0. -1.
         -2   -1    0    0    0  501 -0.00000000000E+00 -0.00000000000E+00 -0.52936358515E+01  0.52936358515E+01  0.00000000000E+00 0.  1.
          1    1    1    2  502    0 -0.19449828412E+02 -0.75104136612E+01  0.17911887931E+02  0.27487049093E+02  0.00000000000E+00 0.  1.
         -1    1    1    2    0  501  0.19449828412E+02  0.75104136612E+01  0.21424427142E+03  0.21525638196E+03  0.00000000000E+00 0. -1.
</event>
<event>
 4    1  0.6754235E+001  0.2404547E+02  0.7546771E-02  0.1479771E+00
          2   -1    0    0  502    0  0.00000000000E+00  0.00000000000E+00  0.21317208229E+04  0.21317208229E+04  0.00000000000E+00 0.  1.
         -2   -1    0    0    0  501 -0.00000000000E+00 -0.00000000000E+00 -0.43306299323E+00  0.43306299323E+00  0.00000000000E+00 0. -1.
          1    1    1    2  502    0 -0.23519748453E+02  0.50005908725E+01  0.17173441612E+04  0.17175124898E+04  0.00000000000E+00 0.  1.
         -1    1    1    2    0  501  0.23519748453E+02 -0.50005908725E+01  0.41394359868E+03  0.41464139611E+03  0.00000000000E+00 0. -1.
</event>
<event>
 4    1  0.6754235E+001  0.2611959E+02  0.7546771E-02  0.1456658E+00
          2   -1    0    0  502    0  0.00000000000E+00  0.00000000000E+00  0.14533878761E+04  0.14533878761E+04  0.00000000000E+00 0. -1.
         -2   -1    0    0    0  501 -0.00000000000E+00 -0.00000000000E+00 -0.14968868101E+01  0.14968868101E+01  0.00000000000E+00 0.  1.
          1    1    1    2  502    0  0.25622371921E+02 -0.50721938593E+01  0.12326049549E+03  0.12599755093E+03  0.00000000000E+00 0.  1.
         -1    1    1    2    0  501 -0.25622371921E+02  0.50721938593E+01  0.13286304938E+04  0.13288872120E+04  0.00000000000E+00 0. -1.
</event>
<event>
 4    1  0.6754235E+001  0.3693817E+02  0.7546771E-02  0.1367427E+00
          2   -1    0    0  502    0  0.00000000000E+00  0.00000000000E+00  0.31802673770E+03  0.31802673770E+03  0.00000000000E+00 0.  1.
         -2   -1    0    0    0  501 -0.00000000000E+00 -0.00000000000E+00 -0.81243092557E+01  0.81243092557E+01  0.00000000000E+00 0. -1.
          1    1    1    2  502    0  0.35693811297E+02  0.95068406310E+01  0.42924272532E+02  0.56629686173E+02  0.00000000000E+00 0. -1.
         -1    1    1    2    0  501 -0.35693811297E+02 -0.95068406310E+01  0.26697815592E+03  0.26952136079E+03  0.00000000000E+00 0.  1.
</event>
<event>
 4    1  0.6754235E+001  0.5019599E+02  0.7546771E-02  0.1297325E+00
          2   -1    0    0  502    0  0.00000000000E+00  0.00000000000E+00  0.99750017703E+03  0.99750017703E+03  0.00000000000E+00 0.  1.
         -2   -1    0    0    0  501 -0.00000000000E+00 -0.00000000000E+00 -0.25490129385E+01  0.25490129385E+01  0.00000000000E+00 0. -1.
          1    1    1    2  502    0 -0.42851812819E+02 -0.26141144575E+02  0.44991508962E+03  0.45270655525E+03  0.00000000000E+00 0.  1.
         -1    1    1    2    0  501  0.42851812819E+02  0.26141144575E+02  0.54503607447E+03  0.54734263472E+03  0.00000000000E+00 0. -1.
</event>
<event>
 4    1  0.6754235E+001  0.3286063E+02  0.7546771E-02  0.1396261E+00
          2   -1    0    0  502    0  0.00000000000E+00  0.00000000000E+00  0.20125853346E+04  0.20125853346E+04  0.00000000000E+00 0.  1.
         -2   -1    0    0    0  501 -0.00000000000E+00 -0.00000000000E+00 -0.55959970266E+00  0.55959970266E+00  0.00000000000E+00 0. -1.
          1    1    1    2  502    0  0.24376109103E+02  0.22036935059E+02  0.12103682983E+04  0.12108142875E+04  0.00000000000E+00 0. -1.
         -1    1    1    2    0  501 -0.24376109103E+02 -0.22036935059E+02  0.80165743658E+03  0.80233064682E+03  0.00000000000E+00 0.  1.
</event>
<event>
 4    1  0.6754235E+001  0.2265941E+02  0.7546771E-02  0.1496820E+00
          2   -1    0    0  502    0  0.00000000000E+00  0.00000000000E+00  0.34676530943E+03  0.34676530943E+03  0.00000000000E+00 0.  1.
         -2   -1    0    0    0  501 -0.00000000000E+00 -0.00000000000E+00 -0.20493305673E+01  0.20493305673E+01  0.00000000000E+00 0. -1.
          1    1    1    2  502    0 -0.50194827296E+01 -0.22096465358E+02  0.26422949945E+03  0.26519931631E+03  0.00000000000E+00 0.  1.
         -1    1    1    2    0  501  0.50194827296E+01  0.22096465358E+02  0.80486479411E+02  0.83615323692E+02  0.00000000000E+00 0. -1.
</event>
<event>
 4    1  0.6754235E+001  0.4894771E+02  0.7546771E-02  0.1302800E+00
          2   -1    0    0  502    0  0.00000000000E+00  0.00000000000E+00  0.15463845084E+04  0.15463845084E+04  0.00000000000E+00 0. -1.
         -2   -1    0    0    0  501 -0.00000000000E+00 -0.00000000000E+00 -0.29166206352E+01  0.29166206352E+01  0.00000000000E+00 0.  1.
          1    1    1    2  502    0  0.48746700352E+02 -0.44314037914E+01  0.24134505484E+03  0.24625863158E+03  0.00000000000E+00 0.  1.
         -1    1    1    2    0  501 -0.48746700352E+02  0.44314037914E+01  0.13021228329E+04  0.13030424975E+04  0.00000000000E+00 0. -1.
</event>
<event>
 4    1  0.6754235E+001  0.2991007E+02  0.7546771E-02  0.1420380E+00
          2   -1    0    0  502    0  0.00000000000E+00  0.00000000000E+00  0.11212204178E+03  0.11212204178E+03  0.00000000000E+00 0. -1.
         -2   -1    0    0    0  501 -0.00000000000E+00 -0.00000000000E+00 -0.99621670883E+01  0.99621670883E+01  0.00000000000E+00 0.  1.
          1    1    1    2  502    0  0.26492144038E+02 -0.13884473781E+02  0.23844052983E+02  0.38251159074E+02  0.00000000000E+00 0. -1.
         -1    1    1    2    0  501 -0.26492144038E+02  0.13884473781E+02  0.78315821713E+02  0.83833049798E+02  0.00000000000E+00 0.  1.
</event>
<event>
 4    1  0.6754235E+001  0.2389046E+02  0.7546771E-02  0.1481609E+00
          2   -1    0    0  502    0  0.00000000000E+00  0.00000000000E+00  0.16216427204E+04  0.16216427204E+04  0.00000000000E+00 0. -1.
         -2   -1    0    0    0  501 -0.00000000000E+00 -0.00000000000E+00 -0.48863877645E+00  0.48863877645E+00  0.00000000000E+00 0.  1.
          1    1    1    2  502    0  0.20076470100E+02  0.12949492043E+02  0.12395322937E+04  0.12397625019E+04  0.00000000000E+00 0. -1.
         -1    1    1    2    0  501 -0.20076470100E+02 -0.12949492043E+02  0.38162178794E+03  0.38236885729E+03  0.00000000000E+00 0.  1.
</event>
<event>
 4    1  0.6754235E+001  0.3638192E+02  0.7546771E-02  0.1371100E+00
          2   -1    0    0  502    0  0.00000000000E+00  0.00000000000E+00  0.38387718445E+03  0.38387718445E+03  0.00000000000E+00 0.  1.
         -2   -1    0    0    0  501 -0.00000000000E+00 -0.00000000000E+00 -0.34486084319E+01  0.34486084319E+01  0.00000000000E+00 0. -1.
          1    1    1    2  502    0 -0.11013047456E+02 -0.34675014188E+02  0.18784423028E+03  0.19133504299E+03  0.00000000000E+00 0.  1.
         -1    1    1    2    0  501  0.11013047456E+02  0.34675014188E+02  0.19258434573E+03  0.19599074989E+03  0.00000000000E+00 0. -1.
</event>
<event>
 4    1  0.6754235E+001  0.2322438E+02  0.7546771E-02  0.1489700E+00
          2   -1    0    0  502    0  0.00000000000E+00  0.00000000000E+00  0.56755515069E+03  0.56755515069E+03  0.00000000000E+00 0. -1.
         -2   -1    0    0    0  501 -0.00000000000E+00 -0.00000000000E+00 -0.10478218237E+01  0.10478218237E+01  0.00000000000E+00 0.  1.
          1    1    1    2  502    0 -0.23171716253E+02 -0.15631305324E+01  0.19653920029E+03  0.19790661702E+03  0.00000000000E+00 0. -1.
         -1    1    1    2    0  501  0.23171716253E+02  0.15631305324E+01  0.36996812858E+03  0.37069635549E+03  0.00000000000E+00 0.  1.
</event>
<event>
 4    1  0.6754235E+001  0.3862376E+02  0.7546771E-02  0.1356745E+00
          2   -1    0    0  502    0  0.00000000000E+00  0.00000000000E+00  0.74980281197E+03  0.74980281197E+03  0.00000000000E+00 0. -1.
         -2   -1    0    0    0  501 -0.00000000000E+00 -0.00000000000E+00 -0.27002239876E+01  0.27002239876E+01  0.00000000000E+00 0.  1.
          1    1    1    2  502    0  0.21803913391E+01  0.38562164400E+02  0.56657187262E+03  0.56788685623E+03  0.00000000000E+00 0. -1.
         -1    1    1    2    0  501 -0.21803913391E+01 -0.38562164400E+02  0.18053071536E+03  0.18461617973E+03  0.00000000000E+00 0.  1.
</event>
<event>
 4    1  0.6754235E+001  0.2053890E+02  0.7546771E-02  0.1525951E+00
          2   -1    0    0  502    0  0.00000000000E+00  0.00000000000E+00  0.31975701602E+01  0.31975701602E+01  0.00000000000E+00 0. -1.
         -2   -1    0    0    0  501 -0.00000000000E+00 -0.00000000000E+00 -0.13198422265E+03  0.13198422265E+03  0.00000000000E+00 0.  1.
          1    1    1    2  502    0  0.19544735346E+02  0.63126768183E+01 -0.65797896034E+02  0.68929019222E+02  0.00000000000E+00 0.  1.
         -1    1    1    2    0  501 -0.19544735346E+02 -0.63126768183E+01 -0.62988756460E+02  0.66252773593E+02  0.00000000000E+00 0. -1.
</event>
<event>
 4    1  0.6754235E+001  0.6323699E+02  0.7546771E-02  0.1249214E+00
          2   -1    0    0  502    0  0.00000000000E+00  0.00000000000E+00  0.56919675531E+03  0.56919675531E+03  0.00000000000E+00 0.  1.
         -2   -1    0    0    0  501 -0.00000000000E+00 -0.00000000000E+00 -0.76798255214E+01  0.76798255214E+01  0.00000000000E+00 0. -1.
          1    1    1    2  502    0 -0.60846608716E+02  0.17222292956E+02  0.36494824561E+03  0.37038647267E+03  0.00000000000E+00 0.  1.
         -1    1    1    2    0  501  0.60846608716E+02 -0.17222292956E+02  0.19656868419E+03  0.20649010816E+03  0.00000000000E+00 0. -1.
</event>
<event>
 4    1  0.6754235E+001  0.2056487E+02  0.7546771E-02  0.1525569E+00
          2   -1    0    0  502    0  0.00000000000E+00  0.00000000000E+00  0.76787743079E+02  0.76787743079E+02  0.00000000000E+00 0.  1.
         -2   -1    0    0    0  501 -0.00000000000E+00 -0.00000000000E+00 -0.59483072573E+01  0.59483072573E+01  0.00000000000E+00 0. -1.
          1    1    1    2  502    0  0.15880686751E+01 -0.20503459460E+02  0.24159200462E+02  0.31726657229E+02  0.00000000000E+00 0. -1.
         -1    1    1    2    0  501 -0.15880686751E+01  0.20503459460E+02  0.46680235359E+02  0.51009393107E+02  0.00000000000E+00 0.  1.
</event>
<event>
 4    1  0.6754235E+001  0.2156024E+02  0.7546771E-02  0.1511414E+00
          2   -1    0    0  502    0  0.00000000000E+00  0.00000000000E+00  0.79241920367E+02  0.79241920367E+02  0.00000000000E+00 0.  1.
         -2   -1    0    0    0  501 -0.00000000000E+00 -0.00000000000E+00 -0.69310271331E+01  0.69310271331E+01  0.00000000000E+00 0. -1.
          1    1    1    2  502    0 -0.18958442323E+02 -0.10267499771E+02  0.53044069204E+02  0.57258338822E+02  0.00000000000E+00 0.  1.
         -1    1    1    2    0  501  0.18958442323E+02  0.10267499771E+02  0.19266824030E+02  0.28914608679E+02  0.00000000000E+00 0. -1.
</event>
<event>
 4    1  0.6754235E+001  0.2357893E+02  0.7546771E-02  0.1485354E+00
          2   -1    0    0  502    0  0.00000000000E+00  0.00000000000E+00  0.47824430990E+03  0.47824430990E+03  0.00000000000E+00 0. -1.
         -2   -1    0    0    0  501 -0.00000000000E+00 -0.00000000000E+00 -0.20141279866E+01  0.20141279866E+01  0.00000000000E+00 0.  1.
          1    1    1    2  502    0 -0.17892282964E+02  0.15356834084E+02  0.81972049009E+02  0.85295855477E+02  0.00000000000E+00 0.  1.
         -1    1    1    2    0  501  0.17892282964E+02 -0.15356834084E+02  0.39425813290E+03  0.39496258241E+03  0.00000000000E+00 0. -1.
</event>
<event>
 4    1  0.6754235E+001  0.2197241E+02  0.7546771E-02  0.1505821E+00
          2   -1    0    0  502    0  0.00000000000E+00  0.00000000000E+00  0.75860145850E+03  0.75860145850E+03  0.00000000000E+00 0. -1.
         -2   -1    0    0    0  501 -0.00000000000E+00 -0.00000000000E+00 -0.70831085523E+00  0.70831085523E+00  0.00000000000E+00 0.  1.
          1    1    1    2  502    0  0.14286288523E+02 -0.16693973124E+02  0.49990141952E+03  0.50038406851E+03  0.00000000000E+00 0. -1.
         -1    1    1    2    0  501 -0.14286288523E+02  0.16693973124E+02  0.25799172812E+03  0.25892570084E+03  0.00000000000E+00 0.  1.
</event>
<event>
 4    1  0.6754235E+001  0.2391974E+02  0.7546771E-02  0.1481261E+00
          2   -1    0    0  502    0  0.00000000000E+00  0.00000000000E+00  0.28233271566E+03  0.28233271566E+03  0.00000000000E+00 0. -1.
         -2   -1    0    0    0  501 -0.00000000000E+00 -0.00000000000E+00 -0.20267418307E+01  0.20267418307E+01  0.00000000000E+00 0.  1.
          1    1    1    2  502    0  0.11779259945E+02  0.20818333647E+02  0.13867846297E+03  0.14072622382E+03  0.00000000000E+00 0. -1.
         -1    1    1    2    0  501 -0.11779259945E+02 -0.20818333647E+02  0.14162751087E+03  0.14363323367E+03  0.00000000000E+00 0.  1.
</event>
<event>
 4    1  0.6754235E+001  0.2529483E+02  0.7546771E-02  0.1465532E+00
          2   -1    0    0  502    0  0.00000000000E+00  0.00000000000E+00  0.18541904682E+04  0.18541904682E+04  0.00000000000E+00 0. -1.
         -2   -1    0    0    0  501 -0.00000000000E+00 -0.00000000000E+00 -0.36908059897E+00  0.36908059897E+00  0.00000000000E+00 0.  1.
          1    1    1    2  502    0 -0.25265220752E+02  0.12234676923E+01  0.11634145751E+04  0.11636895212E+04  0.00000000000E+00 0. -1.
         -1    1    1    2    0  501  0.25265220752E+02 -0.12234676923E+01  0.69040681254E+03  0.69087002761E+03  0.00000000000E+00 0.  1.
</event>
<event>
 4    1  0.6754235E+001  0.3643450E+02  0.7546771E-02  0.1370749E+00
          2   -1    0    0  502    0  0.00000000000E+00  0.00000000000E+00  0.60812962928E+02  0.60812962928E+02  0.00000000000E+00 0. -1.
         -2   -1    0    0    0  501 -0.00000000000E+00 -0.00000000000E+00 -0.24349522459E+02  0.24349522459E+02  0.00000000000E+00 0.  1.
          1    1    1    2  502    0 -0.96950674261E+01 -0.35120914990E+02  0.31932240010E+02  0.48447300794E+02  0.00000000000E+00 0. -1.
         -1    1    1    2    0  501  0.96950674261E+01  0.35120914990E+02  0.45312004587E+01  0.36715184594E+02  0.00000000000E+00 0.  1.
</event>
<event>
 4    1  0.6754235E+001  0.3188121E+02  0.7546771E-02  0.1403924E+00
          2   -1    0    0  502    0  0.00000000000E+00  0.00000000000E+00  0.89225049173E+03  0.89225049173E+03  0.00000000000E+00 0.  1.
         -2   -1    0    0    0  501 -0.00000000000E+00 -0.00000000000E+00 -0.15135806602E+01  0.15135806602E+01  0.00000000000E+00 0. -1.
          1    1    1    2  502    0 -0.25959585823E+02  0.18507060057E+02  0.66763447452E+03  0.66839524455E+03  0.00000000000E+00 0.  1.
         -1    1    1    2    0  501  0.25959585823E+02 -0.18507060057E+02  0.22310243655E+03  0.22536882784E+03  0.00000000000E+00 0. -1.
</event>
<event>
 4    1  0.6754235E+001  0.2360212E+02  0.7546771E-02  0.1485073E+00
          2   -1    0    0  502    0  0.00000000000E+00  0.00000000000E+00  0.10524863316E+04  0.10524863316E+04  0.00000000000E+00 0. -1.
         -2   -1    0    0    0  501 -0.00000000000E+00 -0.00000000000E+00 -0.59604675267E+00  0.59604675267E+00  0.00000000000E+00 0.  1.
          1    1    1    2  502    0 -0.11605734068E+02 -0.20551573068E+02  0.34971851442E+03  0.35051405043E+03  0.00000000000E+00 0.  1.
         -1    1    1    2    0  501  0.11605734068E+02  0.20551573068E+02  0.70217177042E+03  0.70256832792E+03  0.00000000000E+00 0. -1.
</event>
<event>
 4    1  0.6754235E+001  0.2468975E+02  0.7546771E-02  0.1472304E+00
          2   -1    0    0  502    0  0.00000000000E+00  0.00000000000E+00  0.13337531012E+02  0.13337531012E+02  0.00000000000E+00 0. -1.
         -2   -1    0    0    0  501 -0.00000000000E+00 -0.00000000000E+00 -0.47991124017E+02  0.47991124017E+02  0.00000000000E+00 0.  1.
          1    1    1    2  502    0 -0.54514456178E+00 -0.24683726666E+02 -0.10633161133E+02  0.26882106696E+02  0.00000000000E+00 0. -1.
         -1    1    1    2    0  501  0.54514456178E+00  0.24683726666E+02 -0.24020431873E+02  0.34446548333E+02  0.00000000000E+00 0.  1.
</event>
<event>
 4    1  0.6754235E+001  0.2271851E+02  0.7546771E-02  0.1496063E+00
          2   -1    0    0  502    0  0.00000000000E+00  0.00000000000E+00  0.98696223412E+02  0.98696223412E+02  0.00000000000E+00 0.  1.
         -2   -1    0    0    0  501 -0.00000000000E+00 -0.00000000000E+00 -0.52312059824E+01  0.52312059824E+01  0.00000000000E+00 0. -1.
          1    1    1    2  502    0 -0.16922275310E+01 -0.22655393241E+02  0.47674863822E+02  0.52811202574E+02  0.00000000000E+00 0.  1.
         -1    1    1    2    0  501  0.16922275310E+01  0.22655393241E+02  0.45790153608E+02  0.51116226820E+02  0.00000000000E+00 0. -1.
</event>
<event>
 4    1  0.6754235E+001  0.2218047E+02  0.7546771E-02  0.1503054E+00
          2   -1    0    0  502    0  0.00000000000E+00  0.00000000000E+00  0.84226588960E+02  0.84226588960E+02  0.00000000000E+00 0.  1.
         -2   -1    0    0    0  501 -0.00000000000E+00 -0.00000000000E+00 -0.58456703307E+01  0.58456703307E+01  0.00000000000E+00 0. -1.
          1    1    1    2  502    0 -0.21786553707E+02  0.41616452494E+01  0.37926759334E+02  0.43936457381E+02  0.00000000000E+00 0. -1.
         -1    1    1    2    0  501  0.21786553707E+02 -0.41616452494E+01  0.40454159295E+02  0.46135801910E+02  0.00000000000E+00 0.  1.
</event>
<event>
 4    1  0.6754235E+001  0.2588010E+02  0.7546771E-02  0.1459194E+00
          2   -1    0    0  502    0  0.00000000000E+00  0.00000000000E+00  0.47397138985E+02  0.47397138985E+02  0.00000000000E+00 0.  1.
         -2   -1    0    0    0  501 -0.00000000000E+00 -0.00000000000E+00 -0.29616544595E+02  0.29616544595E+02  0.00000000000E+00 0. -1.
          1    1    1    2  502    0 -0.17621374438E+02  0.18954332846E+02 -0.18953650711E+02  0.32078348555E+02  0.00000000000E+00 0. -1.
         -1    1    1    2    0  501  0.17621374438E+02 -0.18954332846E+02  0.36734245101E+02  0.44935335026E+02  0.00000000000E+00 0.  1.
</event>
<event>
 4    1  0.6754235E+001  0.2014647E+02  0.7546771E-02  0.1531808E+00
          2   -1    0    0  502    0  0.00000000000E+00  0.00000000000E+00  0.46306543317E+01  0.46306543317E+01  0.00000000000E+00 0. -1.
         -2   -1    0    0    0  501 -0.00000000000E+00 -0.00000000000E+00 -0.11170197246E+03  0.11170197246E+03  0.00000000000E+00 0.  1.
          1    1    1    2  502    0 -0.20090098540E+02  0.15060866320E+01 -0.26545239550E+02  0.33324617013E+02  0.00000000000E+00 0. -1.
         -1    1    1    2    0  501  0.20090098540E+02 -0.15060866320E+01 -0.80526078578E+02  0.83008009779E+02  0.00000000000E+00 0.  1.
</event>
<event>
 4    1  0.6754235E+001  0.2264942E+02  0.7546771E-02  0.1496948E+00
          2   -1    0    0  502    0  0.00000000000E+00  0.00000000000E+00  0.17931741464E+04  0.17931741464E+04  0.00000000000E+00 0.  1.
         -2   -1    0    0    0  501 -0.00000000000E+00 -0.00000000000E+00 -0.28687986865E+00  0.28687986865E+00  0.00000000000E+00 0. -1.
          1    1    1    2  502    0 -0.16506086787E+02 -0.15509524680E+02  0.84917604987E+03  0.84947805147E+03  0.00000000000E+00 0. -1.
         -1    1    1    2    0  501  0.16506086787E+02  0.15509524680E+02  0.94371121664E+03  0.94398297477E+03  0.00000000000E+00 0.  1.
</event>
<event>
 4    1  0.6754235E+001  0.2323563E+02  0.7546771E-02  0.1489560E+00
          2   -1    0    0  502    0  0.00000000000E+00  0.00000000000E+00  0.51865513441E+03  0.51865513441E+03  0.00000000000E+00 0.  1.
         -2   -1    0    0    0  501 -0.00000000000E+00 -0.00000000000E+00 -0.10576999220E+01  0.10576999220E+01  0.00000000000E+00 0. -1.
          1    1    1    2  502    0 -0.20132368857E+02 -0.11600954634E+02  0.29149885288E+03  0.29242345264E+03  0.00000000000E+00 0.  1.
         -1    1    1    2    0  501  0.20132368857E+02  0.11600954634E+02  0.22609858161E+03  0.22728938169E+03  0.00000000000E+00 0. -1.
</event>
<event>
 4    1  0.6754235E+001  0.2570376E+02  0.7546771E-02  0.1461082E+00
          2   -1    0    0  502    0  0.00000000000E+00  0.00000000000E+00  0.91293904242E+03  0.91293904242E+03  0.00000000000E+00 0. -1.
         -2   -1    0    0    0  501 -0.00000000000E+00 -0.00000000000E+00 -0.96570586128E+00  0.96570586128E+00  0.00000000000E+00 0.  1.
          1    1    1    2  502    0 -0.25417833246E+02 -0.38232499324E+01  0.22723105254E+03  0.22868020186E+03  0.00000000000E+00 0.  1.
         -1    1    1    2    0  501  0.25417833246E+02  0.38232499324E+01  0.68474228402E+03  0.68522454642E+03  0.00000000000E+00 0. -1.
</event>
<event>
 4    1  0.6754235E+001  0.2405537E+02  0.7546771E-02  0.1479655E+00
          2   -1    0    0  502    0  0.00000000000E+00  0.00000000000E+00  0.16324039264E+01  0.16324039264E+01  0.00000000000E+00 0. -1.
         -2   -1    0    0    0  501 -0.00000000000E+00 -0.00000000000E+00 -0.38729694119E+03  0.38729694119E+03  0.00000000000E+00 0.  1.
          1    1    1    2  502    0  0.19990561899E+02  0.13380517789E+02 -0.24943563821E+03  0.25059289382E+03  0.00000000000E+00 0.  1.
         -1    1    1    2    0  501 -0.19990561899E+02 -0.13380517789E+02 -0.13622889905E+03  0.13833645130E+03  0.00000000000E+00 0. -1.
</event>
<event>
 4    1  0.6754235E+001  0.2024439E+02  0.7546771E-02  0.1530332E+00
          2   -1    0    0  502    0  0.00000000000E+00  0.00000000000E+00  0.28213589106E+03  0.28213589106E+03  0.00000000000E+00 0.  1.
         -2   -1    0    0    0  501 -0.00000000000E+00 -0.00000000000E+00 -0.20330563573E+01  0.20330563573E+01  0.00000000000E+00 0. -1.
          1    1    1    2  502    0  0.20036673025E+02 -0.28925760174E+01  0.64132411502E+02  0.67251776683E+02  0.00000000000E+00 0. -1.
         -1    1    1    2    0  501 -0.20036673025E+02  0.28925760174E+01  0.21597042320E+03  0.21691717073E+03  0.00000000000E+00 0.  1.
</event>
<event>
 4    1  0.6754235E+001  0.3482653E+02  0.7546771E-02  0.1381787E+00
          2   -1    0    0  502    0  0.00000000000E+00  0.00000000000E+00  0.68896000054E+03  0.68896000054E+03  0.00000000000E+00 0.  1.
         -2   -1    0    0    0  501 -0.00000000000E+00 -0.00000000000E+00 -0.18683254088E+01  0.18683254088E+01  0.00000000000E+00 0. -1.
          1    1    1    2  502    0 -0.27566128638E+02 -0.21283691872E+02  0.26055051480E+03  0.26286775715E+03  0.00000000000E+00 0.  1.
         -1    1    1    2    0  501  0.27566128638E+02  0.21283691872E+02  0.42654116033E+03  0.42796056879E+03  0.00000000000E+00 0. -1.
</event>
<event>
 4    1  0.6754235E+001  0.2220276E+02  0.7546771E-02  0.1502759E+00
          2   -1    0    0  502    0  0.00000000000E+00  0.00000000000E+00  0.18875348612E+02  0.18875348612E+02  0.00000000000E+00 0. -1.
         -2   -1    0    0    0  501 -0.00000000000E+00 -0.00000000000E+00 -0.62942609900E+02  0.62942609900E+02  0.00000000000E+00 0.  1.
          1    1    1    2  502    0 -0.18635231362E+02 -0.12070239962E+02 -0.53324871607E+02  0.57762483262E+02  0.00000000000E+00 0.  1.
         -1    1    1    2    0  501  0.18635231362E+02  0.12070239962E+02  0.92576103194E+01  0.24055475250E+02  0.00000000000E+00 0. -1.
</event>
<event>
 4    1  0.6754235E+001  0.2836384E+02  0.7546771E-02  0.1434369E+00
          2   -1    0    0  502    0  0.00000000000E+00  0.00000000000E+00  0.28421832650E+03  0.28421832650E+03  0.00000000000E+00 0. -1.
         -2   -1    0    0    0  501 -0.00000000000E+00 -0.00000000000E+00 -0.29375354602E+01  0.29375354602E+01  0.00000000000E+00 0.  1.
          1    1    1    2  502    0  0.27292053824E+02  0.77234063856E+01  0.11324576277E+03  0.11674377925E+03  0.00000000000E+00 0.  1.
         -1    1    1    2    0  501 -0.27292053824E+02 -0.77234063856E+01  0.16803502827E+03  0.17041208271E+03  0.00000000000E+00 0. -1.
</event>
<event>
 4    1  0.6754235E+001  0.2168550E+02  0.7546771E-02  0.1509699E+00
          2   -1    0    0  502    0  0.00000000000E+00  0.00000000000E+00  0.75238589924E+02  0.75238589924E+02  0.00000000000E+00 0. -1.
         -2   -1    0    0    0  501 -0.00000000000E+00 -0.00000000000E+00 -0.69094562690E+01  0.69094562690E+01  0.00000000000E+00 0.  1.
          1    1    1    2  502    0  0.21241176806E+02  0.43673207019E+01  0.21477792389E+02  0.30521412944E+02  0.00000000000E+00 0.  1.
         -1    1    1    2    0  501 -0.21241176806E+02 -0.43673207019E+01  0.46851341266E+02  0.51626633249E+02  0.00000000000E+00 0. -1.
</event>
<event>
 4    1  0.6754235E+001  0.3134439E+02  0.7546771E-02  0.1408263E+00
          2   -1    0    0  502    0  0.00000000000E+00  0.00000000000E+00  0.65284720760E+03  0.65284720760E+03  0.00000000000E+00 0.  1.
         -2   -1    0    0    0  501 -0.00000000000E+00 -0.00000000000E+00 -0.16535362599E+01  0.16535362599E+01  0.00000000000E+00 0. -1.
          1    1    1    2  502    0  0.29745597781E+02  0.98828130460E+01  0.42371148150E+03  0.42486926241E+03  0.00000000000E+00 0.  1.
         -1    1    1    2    0  501 -0.29745597781E+02 -0.98828130460E+01  0.22748218984E+03  0.22963148146E+03  0.00000000000E+00 0. -1.
</event>
<event>
 4    1  0.6754235E+001  0.2289275E+02  0.7546771E-02  0.1493849E+00
          2   -1    0    0  502    0  0.00000000000E+00  0.00000000000E+00  0.10833887791E+02  0.10833887791E+02  0.00000000000E+00 0. -1.
         -2   -1    0    0    0  501 -0.00000000000E+00 -0.00000000000E+00 -0.77453569910E+02  0.77453569910E+02  0.00000000000E+00 0.  1.
          1    1    1    2  502    0 -0.22657561645E+02 -0.32730290969E+01 -0.60358313673E+02  0.64553883297E+02  0.00000000000E+00 0. -1.
         -1    1    1    2    0  501  0.22657561645E+02  0.32730290969E+01 -0.62613684458E+01  0.23733574404E+02  0.00000000000E+00 0.  1.
</event>
<event>
 4    1  0.6754235E+001  0.3220493E+02  0.7546771E-02  0.1401356E+00
          2   -1    0    0  502    0  0.00000000000E+00  0.00000000000E+00  0.14826468674E+04  0.14826468674E+04  0.00000000000E+00 0. -1.
         -2   -1    0    0    0  501 -0.00000000000E+00 -0.00000000000E+00 -0.13295922400E+01  0.13295922400E+01  0.00000000000E+00 0.  1.
          1    1    1    2  502    0 -0.22126644205E+01 -0.32128830133E+02  0.22988423563E+03  0.23212910072E+03  0.00000000000E+00 0.  1.
         -1    1    1    2    0  501  0.22126644205E+01  0.32128830133E+02  0.12514330395E+04  0.12518473589E+04  0.00000000000E+00 0. -1.
</event>
<event>
 4    1  0.6754235E+001  0.3718587E+02  0.7546771E-02  0.1365815E+00
          2   -1    0    0  502    0  0.00000000000E+00  0.00000000000E+00  0.32228300868E+03  0.32228300868E+03  0.00000000000E+00 0.  1.
         -2   -1    0    0    0  501 -0.00000000000E+00 -0.00000000000E+00 -0.77121336686E+01  0.77121336686E+01  0.00000000000E+00 0. -1.
          1    1    1    2  502    0 -0.31181789650E+02 -0.20260434708E+02  0.47384766812E+02  0.60233755870E+02  0.00000000000E+00 0. -1.
         -1    1    1    2    0  501  0.31181789650E+02  0.20260434708E+02  0.26718610820E+03  0.26976138648E+03  0.00000000000E+00 0.  1.
</event>
<event>
 4    1  0.6754235E+001  0.3248530E+02  0.7546771E-02  0.1399160E+00
          2   -1    0    0  502    0  0.00000000000E+00  0.00000000000E+00  0.52907776697E+01  0.52907776697E+01  0.00000000000E+00 0.  1.
         -2   -1    0    0    0  501 -0.00000000000E+00 -0.00000000000E+00 -0.20165935659E+03  0.20165935659E+03  0.00000000000E+00 0. -1.
          1    1    1    2  502    0 -0.31566154208E+02 -0.76728351337E+01 -0.87376187734E+02  0.93219593828E+02  0.00000000000E+00 0.  1.
         -1    1    1    2    0  501  0.31566154208E+02  0.76728351337E+01 -0.10899239119E+03  0.11373054043E+03  0.00000000000E+00 0. -1.
</event>
<event>
 4    1  0.6754235E+001  0.2163793E+02  0.7546771E-02  0.1510348E+00
          2   -1    0    0  502    0  0.00000000000E+00  0.00000000000E+00  0.60965793272E+02  0.60965793272E+02  0.00000000000E+00 0. -1.
         -2   -1    0    0    0  501 -0.00000000000E+00 -0.00000000000E+00 -0.10089761348E+02  0.10089761348E+02  0.00000000000E+00 0.  1.
          1    1    1    2  502    0 -0.14086781979E+02 -0.16424454935E+02  0.42801623027E+02  0.47960182237E+02  0.00000000000E+00 0.  1.
         -1    1    1    2    0  501  0.14086781979E+02  0.16424454935E+02  0.80744088972E+01  0.23095372383E+02  0.00000000000E+00 0. -1.
</event>
<event>
 4    1  0.6754235E+001  0.2413742E+02  0.7546771E-02  0.1478689E+00
          2   -1    0    0  502    0  0.00000000000E+00  0.00000000000E+00  0.14635421825E+02  0.14635421825E+02  0.00000000000E+00 0. -1.
         -2   -1    0    0    0  501 -0.00000000000E+00 -0.00000000000E+00 -0.61978721561E+02  0.61978721561E+02  0.00000000000E+00 0.  1.
          1    1    1    2  502    0 -0.20256408370E+02 -0.13126034207E+02 -0.76074617967E+00  0.24149401417E+02  0.00000000000E+00 0. -1.
         -1    1    1    2    0  501  0.20256408370E+02  0.13126034207E+02 -0.46582553556E+02  0.52464741969E+02  0.00000000000E+00 0.  1.
</event>
<event>
 4    1  0.6754235E+001  0.3091168E+02  0.7546771E-02  0.1411836E+00
          2   -1    0    0  502    0  0.00000000000E+00  0.00000000000E+00  0.12648382321E+04  0.12648382321E+04  0.00000000000E+00 0.  1.
         -2   -1    0    0    0  501 -0.00000000000E+00 -0.00000000000E+00 -0.10294668608E+01  0.10294668608E+01  0.00000000000E+00 0. -1.
          1    1    1    2  502    0 -0.39507168425E+01  0.30658177252E+02  0.30536576938E+03  0.30692635127E+03  0.00000000000E+00 0. -1.
         -1    1    1    2    0  501  0.39507168425E+01 -0.30658177252E+02  0.95844299590E+03  0.95894134773E+03  0.00000000000E+00 0.  1.
</event>
<event>
 4    1  0.6754235E+001  0.2918953E+02  0.7546771E-02  0.1426773E+00
          2   -1    0    0  502    0  0.00000000000E+00  0.00000000000E+00  0.50824840574E+02  0.50824840574E+02  0.00000000000E+00 0.  1.
         -2   -1    0    0    0  501 -0.00000000000E+00 -0.00000000000E+00 -0.17170004064E+02  0.17170004064E+02  0.00000000000E+00 0. -1.
          1    1    1    2  502    0 -0.28116843133E+02  0.78403784250E+01  0.22055204647E+02  0.36584975791E+02  0.00000000000E+00 0.  1.
         -1    1    1    2    0  501  0.28116843133E+02 -0.78403784250E+01  0.11599631863E+02  0.31409868847E+02  0.00000000000E+00 0. -1.
</event>
<event>
 4    1  0.6754235E+001  0.4591078E+02  0.7546771E-02  0.1316947E+00
          2   -1    0    0  502    0  0.00000000000E+00  0.00000000000E+00  0.68371827561E+03  0.68371827561E+03  0.00000000000E+00 0.  1.
         -2   -1    0    0    0  501 -0.00000000000E+00 -0.00000000000E+00 -0.31083960345E+01  0.31083960345E+01  0.00000000000E+00 0. -1.
          1    1    1    2  502    0 -0.48543156953E+01  0.45653425297E+02  0.37143833180E+03  0.37426492482E+03  0.00000000000E+00 0.  1.
         -1    1    1    2    0  501  0.48543156953E+01 -0.45653425297E+02  0.30917154777E+03  0.31256174682E+03  0.00000000000E+00 0. -1.
</event>
<event>
 4    1  0.6754235E+001  0.2781567E+02  0.7546771E-02  0.1439582E+00
          2   -1    0    0  502    0  0.00000000000E+00  0.00000000000E+00  0.73464300286E+03  0.73464300286E+03  0.00000000000E+00 0.  1.
         -2   -1    0    0    0  501 -0.00000000000E+00 -0.00000000000E+00 -0.22186682344E+01  0.22186682344E+01  0.00000000000E+00 0. -1.
          1    1    1    2  502    0 -0.11845368492E+01 -0.27790437324E+02  0.99179938765E+02  0.10300665895E+03  0.00000000000E+00 0. -1.
         -1    1    1    2    0  501  0.11845368492E+01  0.27790437324E+02  0.63324439586E+03  0.63385501215E+03  0.00000000000E+00 0.  1.
</event>
<event>
 4    1  0.6754235E+001  0.2370869E+02  0.7546771E-02  0.1483786E+00
          2   -1    0    0  502    0  0.00000000000E+00  0.00000000000E+00  0.17323837364E+04  0.17323837364E+04  0.00000000000E+00 0.  1.
         -2   -1    0    0    0  501 -0.00000000000E+00 -0.00000000000E+00 -0.33642144361E+00  0.33642144361E+00  0.00000000000E+00 0. -1.
          1    1    1    2  502    0 -0.23553416612E+02  0.27089725691E+01  0.10293344390E+04  0.10296074443E+04  0.00000000000E+00 0.  1.
         -1    1    1    2    0  501  0.23553416612E+02 -0.27089725691E+01  0.70271287599E+03  0.70311271362E+03  0.00000000000E+00 0. -1.
</event>
<event>
 4    1  0.6754235E+001  0.2516446E+02  0.7546771E-02  0.1466972E+00
          2   -1    0    0  502    0  0.00000000000E+00  0.00000000000E+00  0.48676158908E+03  0.48676158908E+03  0.00000000000E+00 0. -1.
         -2   -1    0    0    0  501 -0.00000000000E+00 -0.00000000000E+00 -0.16720876993E+01  0.16720876993E+01  0.00000000000E+00 0.  1.
          1    1    1    2  502    0  0.14773097780E+02 -0.20371687706E+02  0.35760266907E+03  0.35848698583E+03  0.00000000000E+00 0. -1.
         -1    1    1    2    0  501 -0.14773097780E+02  0.20371687706E+02  0.12748683231E+03  0.12994669096E+03  0.00000000000E+00 0.  1.
</event>
<event>
 4    1  0.6754235E+001  0.2027704E+02  0.7546771E-02  0.1529842E+00
          2   -1    0    0  502    0  0.00000000000E+00  0.00000000000E+00  0.13174968123E+02  0.13174968123E+02  0.00000000000E+00 0.  1.
         -2   -1    0    0    0  501 -0.00000000000E+00 -0.00000000000E+00 -0.33680398720E+02  0.33680398720E+02  0.00000000000E+00 0. -1.
          1    1    1    2  502    0  0.17087453019E+02 -0.10916844683E+02 -0.16600746149E+02  0.26205787933E+02  0.00000000000E+00 0.  1.
         -1    1    1    2    0  501 -0.17087453019E+02  0.10916844683E+02 -0.39046844486E+01  0.20649578910E+02  0.00000000000E+00 0. -1.
</event>
<event>
 4    1  0.6754235E+001  0.2549799E+02  0.7546771E-02  0.1463309E+00
          2   -1    0    0  502    0  0.00000000000E+00  0.00000000000E+00  0.92145725995E+03  0.92145725995E+03  0.00000000000E+00 0.  1.
         -2   -1    0    0    0  501 -0.00000000000E+00 -0.00000000000E+00 -0.93294341193E+00  0.93294341193E+00  0.00000000000E+00 0. -1.
          1    1    1    2  502    0 -0.16856018691E+02 -0.19131709586E+02  0.23257844030E+03  0.23397196107E+03  0.00000000000E+00 0. -1.
         -1    1    1    2    0  501  0.16856018691E+02  0.19131709586E+02  0.68794587624E+03  0.68841824229E+03  0.00000000000E+00 0.  1.
</event>
<event>
 4    1  0.6754235E+001  0.4093853E+02  0.7546771E-02  0.1343072E+00
          2   -1    0    0  502    0  0.00000000000E+00  0.00000000000E+00  0.75973977481E+03  0.75973977481E+03  0.00000000000E+00 0.  1.
         -2   -1    0    0    0  501 -0.00000000000E+00 -0.00000000000E+00 -0.27583246018E+01  0.27583246018E+01  0.00000000000E+00 0. -1.
          1    1    1    2  502    0 -0.26864537206E+02  0.30891103582E+02  0.20788452160E+03  0.21187717660E+03  0.00000000000E+00 0. -1.
         -1    1    1    2    0  501  0.26864537206E+02 -0.30891103582E+02  0.54909692860E+03  0.55062092281E+03  0.00000000000E+00 0.  1.
</event>
<event>
 4    1  0.6754235E+001  0.2677960E+02  0.7546771E-02  0.1449835E+00
          2   -1    0    0  502    0  0.00000000000E+00  0.00000000000E+00  0.87512281398E+03  0.87512281398E+03  0.00000000000E+00 0.  1.
         -2   -1    0    0    0  501 -0.00000000000E+00 -0.00000000000E+00 -0.10635150579E+01  0.10635150579E+01  0.00000000000E+00 0. -1.
          1    1    1    2  502    0 -0.18848315291E+02 -0.19023353356E+02  0.64688469976E+03  0.64743877066E+03  0.00000000000E+00 0.  1.
         -1    1    1    2    0  501  0.18848315291E+02  0.19023353356E+02  0.22717459916E+03  0.22874755839E+03  0.00000000000E+00 0. -1.
</event>
<event>
 4    1  0.6754235E+001  0.2302658E+02  0.7546771E-02  0.1492165E+00
          2   -1    0    0  502    0  0.00000000000E+00  0.00000000000E+00  0.21252804253E+03  0.21252804253E+03  0.00000000000E+00 0.  1.
         -2   -1    0    0    0  501 -0.00000000000E+00 -0.00000000000E+00 -0.25952209260E+01  0.25952209260E+01  0.00000000000E+00 0. -1.
          1    1    1    2  502    0 -0.17377743495E+01  0.22960908354E+02  0.83812105886E+02  0.86917732743E+02  0.00000000000E+00 0.  1.
         -1    1    1    2    0  501  0.17377743495E+01 -0.22960908354E+02  0.12612071572E+03  0.12820553071E+03  0.00000000000E+00 0. -1.
</event>
<event>
 4    1  0.6754235E+001  0.2026194E+02  0.7546771E-02  0.1530068E+00
          2   -1    0    0  502    0  0.00000000000E+00  0.00000000000E+00  0.19697519495E+03  0.19697519495E+03  0.00000000000E+00 0.  1.
         -2   -1    0    0    0  501 -0.00000000000E+00 -0.00000000000E+00 -0.22820105345E+01  0.22820105345E+01  0.00000000000E+00 0. -1.
          1    1    1    2  502    0 -0.18603006114E+02  0.80295944464E+01  0.12667518847E+03  0.12828542238E+03  0.00000000000E+00 0.  1.
         -1    1    1    2    0  501  0.18603006114E+02 -0.80295944464E+01  0.68017995952E+02  0.70971783102E+02  0.00000000000E+00 0. -1.
</event>
<event>
 4    1  0.6754235E+001  0.2027189E+02  0.7546771E-02  0.1529919E+00
          2   -1    0    0  502    0  0.00000000000E+00  0.00000000000E+00  0.58212187647E+02  0.58212187647E+02  0.00000000000E+00 0.  1.
         -2   -1    0    0    0  501 -0.00000000000E+00 -0.00000000000E+00 -0.77983397958E+01  0.77983397958E+01  0.00000000000E+00 0. -1.
          1    1    1    2  502    0  0.19629689784E+02 -0.50620748412E+01  0.15047821691E+02  0.25246509865E+02  0.00000000000E+00 0. -1.
         -1    1    1    2    0  501 -0.19629689784E+02  0.50620748412E+01  0.35366026160E+02  0.40764017578E+02  0.00000000000E+00 0.  1.
</event>
<event>
 4    1  0.6754235E+001  0.2873383E+02  0.7546771E-02  0.1430928E+00
          2   -1    0    0  502    0  0.00000000000E+00  0.00000000000E+00  0.23225875404E+03  0.23225875404E+03  0.00000000000E+00 0. -1.
         -2   -1    0    0    0  501 -0.00000000000E+00 -0.00000000000E+00 -0.74070968927E+01  0.74070968927E+01  0.00000000000E+00 0.  1.
          1    1    1    2  502    0  0.19706585166E+02 -0.20911324631E+02  0.26006253489E+02  0.38755105693E+02  0.00000000000E+00 0.  1.
         -1    1    1    2    0  501 -0.19706585166E+02  0.20911324631E+02  0.19884540366E+03  0.20091074524E+03  0.00000000000E+00 0. -1.
</event>
<event>
 4    1  0.6754235E+001  0.3026066E+02  0.7546771E-02  0.1417344E+00
          2   -1    0    0  502    0  0.00000000000E+00  0.00000000000E+00  0.95064510589E+03  0.95064510589E+03  0.00000000000E+00 0.  1.
         -2   -1    0    0    0  501 -0.00000000000E+00 -0.00000000000E+00 -0.15648867031E+01  0.15648867031E+01  0.00000000000E+00 0. -1.
          1    1    1    2  502    0 -0.26437760523E+02 -0.14722517577E+02  0.76974864023E+03  0.77034322015E+03  0.00000000000E+00 0.  1.
         -1    1    1    2    0  501  0.26437760523E+02  0.14722517577E+02  0.17933157896E+03  0.18186677244E+03  0.00000000000E+00 0. -1.
</event>
<event>
 4    1  0.6754235E+001  0.2661526E+02  0.7546771E-02  0.1451512E+00
          2   -1    0    0  502    0  0.00000000000E+00  0.00000000000E+00  0.10269041846E+03  0.10269041846E+03  0.00000000000E+00 0.  1.
         -2   -1    0    0    0  501 -0.00000000000E+00 -0.00000000000E+00 -0.94278299945E+01  0.94278299945E+01  0.00000000000E+00 0. -1.
          1    1    1    2  502    0  0.14039283451E+01 -0.26578203369E+02  0.75669842668E+02  0.80214069829E+02  0.00000000000E+00 0.  1.
         -1    1    1    2    0  501 -0.14039283451E+01  0.26578203369E+02  0.17592745799E+02  0.31904178627E+02  0.00000000000E+00 0. -1.
</event>
<event>
 4    1  0.6754235E+001  0.2174702E+02  0.7546771E-02  0.1508861E+00
          2   -1    0    0  502    0  0.00000000000E+00  0.00000000000E+00  0.70792277766E+01  0.70792277766E+01  0.00000000000E+00 0. -1.
         -2   -1    0    0    0  501 -0.00000000000E+00 -0.00000000000E+00 -0.68771194578E+02  0.68771194578E+02  0.00000000000E+00 0.  1.
          1    1    1    2  502    0  0.19659346310E+02  0.92974763177E+01 -0.24434513795E+02  0.32710524722E+02  0.00000000000E+00 0. -1.
         -1    1    1    2    0  501 -0.19659346310E+02 -0.92974763177E+01 -0.37257453007E+02  0.43139897633E+02  0.00000000000E+00 0.  1.
</event>
<event>
 4    1  0.6754235E+001  0.4022434E+02  0.7546771E-02  0.1347176E+00
          2   -1    0    0  502    0  0.00000000000E+00  0.00000000000E+00  0.18258662283E+03  0.18258662283E+03  0.00000000000E+00 0.  1.
         -2   -1    0    0    0  501 -0.00000000000E+00 -0.00000000000E+00 -0.16976124295E+02  0.16976124295E+02  0.00000000000E+00 0. -1.
          1    1    1    2  502    0  0.37937701342E+02 -0.13368942837E+02  0.15179164683E+03  0.15703089461E+03  0.00000000000E+00 0.  1.
         -1    1    1    2    0  501 -0.37937701342E+02  0.13368942837E+02  0.13818851705E+02  0.42531852513E+02  0.00000000000E+00 0. -1.
</event>
<event>
 4    1  0.6754235E+001  0.2422485E+02  0.7546771E-02  0.1477665E+00
          2   -1    0    0  502    0  0.00000000000E+00  0.00000000000E+00  0.63395773028E+01  0.63395773028E+01  0.00000000000E+00 0. -1.
         -2   -1    0    0    0  501 -0.00000000000E+00 -0.00000000000E+00 -0.98536436985E+02  0.98536436985E+02  0.00000000000E+00 0.  1.
          1    1    1    2  502    0 -0.17996183034E+02  0.16216685851E+02 -0.33193091940E+02  0.41092880847E+02  0.00000000000E+00 0.  1.
         -1    1    1    2    0  501  0.17996183034E+02 -0.16216685851E+02 -0.59003767742E+02  0.63783133441E+02  0.00000000000E+00 0. -1.
</event>
<event>
 4    1  0.6754235E+001  0.2529801E+02  0.7546771E-02  0.1465497E+00
          2   -1    0    0  502    0  0.00000000000E+00  0.00000000000E+00  0.18986347193E+04  0.18986347193E+04  0.00000000000E+00 0.  1.
         -2   -1    0    0    0  501 -0.00000000000E+00 -0.00000000000E+00 -0.53245446953E+00  0.53245446953E+00  0.00000000000E+00 0. -1.
          1    1    1    2  502    0 -0.12185517317E+01  0.25268644955E+02  0.15242623320E+04  0.15244722516E+04  0.00000000000E+00 0.  1.
         -1    1    1    2    0  501  0.12185517317E+01 -0.25268644955E+02  0.37383993291E+03  0.37469492221E+03  0.00000000000E+00 0. -1.
</event>
<event>
 4    1  0.6754235E+001  0.3098058E+02  0.7546771E-02  0.1411262E+00
          2   -1    0    0  502    0  0.00000000000E+00  0.00000000000E+00  0.71967891426E+03  0.71967891426E+03  0.00000000000E+00 0.  1.
         -2   -1    0    0    0  501 -0.00000000000E+00 -0.00000000000E+00 -0.17667646050E+01  0.17667646050E+01  0.00000000000E+00 0. -1.
          1    1    1    2  502    0  0.10686800895E+02  0.29079011816E+02  0.18035342444E+03  0.18299495717E+03  0.00000000000E+00 0. -1.
         -1    1    1    2    0  501 -0.10686800895E+02 -0.29079011816E+02  0.53755872522E+03  0.53845072170E+03  0.00000000000E+00 0.  1.
</event>
<event>
 4    1  0.6754235E+001  0.2409040E+02  0.7546771E-02  0.1479242E+00
          2   -1    0    0  502    0  0.00000000000E+00  0.00000000000E+00  0.63520430947E+02  0.63520430947E+02  0.00000000000E+00 0. -1.
         -2   -1    0    0    0  501 -0.00000000000E+00 -0.00000000000E+00 -0.95418256557E+01  0.95418256557E+01  0.00000000000E+00 0.  1.
          1    1    1    2  502    0 -0.23783677672E+02 -0.38319846757E+01  0.34519533956E+02  0.42094484849E+02  0.00000000000E+00 0. -1.
         -1    1    1    2    0  501  0.23783677672E+02  0.38319846757E+01  0.19459071336E+02  0.30967771754E+02  0.00000000000E+00 0.  1.
</event>
<event>
 4    1  0.6754235E+001  0.3235636E+02  0.7546771E-02  0.1400167E+00
          2   -1    0    0  502    0  0.00000000000E+00  0.00000000000E+00  0.13186480194E+04  0.13186480194E+04  0.00000000000E+00 0.  1.
         -2   -1    0    0    0  501 -0.00000000000E+00 -0.00000000000E+00 -0.93045482011E+00  0.93045482011E+00  0.00000000000E+00 0. -1.
          1    1    1    2  502    0  0.23875948914E+02 -0.21837424713E+02  0.40613886824E+03  0.40742571636E+03  0.00000000000E+00 0.  1.
         -1    1    1    2    0  501 -0.23875948914E+02  0.21837424713E+02  0.91157869638E+03  0.91215275790E+03  0.00000000000E+00 0. -1.
</event>
<event>
 4    1  0.6754235E+001  0.2163965E+02  0.7546771E-02  0.1510325E+00
          2   -1    0    0  502    0  0.00000000000E+00  0.00000000000E+00  0.77901575424E+03  0.77901575424E+03  0.00000000000E+00 0.  1.
         -2   -1    0    0    0  501 -0.00000000000E+00 -0.00000000000E+00 -0.10450042408E+01  0.10450042408E+01  0.00000000000E+00 0. -1.
          1    1    1    2  502    0  0.15061552641E+02 -0.15537831319E+02  0.64318734189E+03  0.64355126551E+03  0.00000000000E+00 0.  1.
         -1    1    1    2    0  501 -0.15061552641E+02  0.15537831319E+02  0.13478340811E+03  0.13650949298E+03  0.00000000000E+00 0. -1.
</event>
<event>
 4    1  0.6754235E+001  0.2321019E+02  0.7546771E-02  0.1489876E+00
          2   -1    0    0  502    0  0.00000000000E+00  0.00000000000E+00  0.65857314795E+03  0.65857314795E+03  0.00000000000E+00 0.  1.
         -2   -1    0    0    0  501 -0.00000000000E+00 -0.00000000000E+00 -0.10417151164E+01  0.10417151164E+01  0.00000000000E+00 0. -1.
          1    1    1    2  502    0 -0.12644166936E+02 -0.19463760718E+02  0.17592697018E+03  0.17745143498E+03  0.00000000000E+00 0. -1.
         -1    1    1    2    0  501  0.12644166936E+02  0.19463760718E+02  0.48160446266E+03  0.48216342809E+03  0.00000000000E+00 0.  1.
</event>
<event>
 4    1  0.6754235E+001  0.2567570E+02  0.7546771E-02  0.1461384E+00
          2   -1    0    0  502    0  0.00000000000E+00  0.00000000000E+00  0.21091376634E+02  0.21091376634E+02  0.00000000000E+00 0. -1.
         -2   -1    0    0    0  501 -0.00000000000E+00 -0.00000000000E+00 -0.90764520358E+02  0.90764520358E+02  0.00000000000E+00 0.  1.
          1    1    1    2  502    0 -0.10099995591E+02 -0.23605759109E+02  0.10448882284E+02  0.27720406113E+02  0.00000000000E+00 0. -1.
         -1    1    1    2    0  501  0.10099995591E+02  0.23605759109E+02 -0.80122026008E+02  0.84135490880E+02  0.00000000000E+00 0.  1.
</event>
<event>
 4    1  0.6754235E+001  0.2068812E+02  0.7546771E-02  0.1523765E+00
          2   -1    0    0  502    0  0.00000000000E+00  0.00000000000E+00  0.37611224335E+02  0.37611224335E+02  0.00000000000E+00 0.  1.
         -2   -1    0    0    0  501 -0.00000000000E+00 -0.00000000000E+00 -0.16319963763E+02  0.16319963763E+02  0.00000000000E+00 0. -1.
          1    1    1    2  502    0  0.19638137881E+02  0.65070740268E+01 -0.41909035473E+01  0.21108343004E+02  0.00000000000E+00 0.  1.
         -1    1    1    2    0  501 -0.19638137881E+02 -0.65070740268E+01  0.25482164119E+02  0.32822845094E+02  0.00000000000E+00 0. -1.
</event>
<event>
 4    1  0.6754235E+001  0.2059578E+02  0.7546771E-02  0.1525115E+00
          2   -1    0    0  502    0  0.00000000000E+00  0.00000000000E+00  0.11885391892E+01  0.11885391892E+01  0.00000000000E+00 0.  1.
         -2   -1    0    0    0  501 -0.00000000000E+00 -0.00000000000E+00 -0.37577290785E+03  0.37577290785E+03  0.00000000000E+00 0. -1.
          1    1    1    2  502    0 -0.94703260114E+01  0.18289319361E+02 -0.22953531860E+03  0.23045747713E+03  0.00000000000E+00 0. -1.
         -1    1    1    2    0  501  0.94703260114E+01 -0.18289319361E+02 -0.14504905005E+03  0.14650396991E+03  0.00000000000E+00 0.  1.
</event>
<event>
 4    1  0.6754235E+001  0.3396707E+02  0.7546771E-02  0.1387974E+00
          2   -1    0    0  502    0  0.00000000000E+00  0.00000000000E+00  0.25634816561E+03  0.25634816561E+03  0.00000000000E+00 0. -1.
         -2   -1    0    0    0  501 -0.00000000000E+00 -0.00000000000E+00 -0.54277809308E+01  0.54277809308E+01  0.00000000000E+00 0.  1.
          1    1    1    2  502    0  0.33872226428E+02  0.25365980952E+01  0.17955217697E+03  0.18273682253E+03  0.00000000000E+00 0.  1.
         -1    1    1    2    0  501 -0.33872226428E+02 -0.25365980952E+01  0.71368207712E+02  0.79039124016E+02  0.00000000000E+00 0. -1.
</event>
<event>
 4    1  0.6754235E+001  0.2929763E+02  0.7546771E-02  0.1425800E+00
          2   -1    0    0  502    0  0.00000000000E+00  0.00000000000E+00  0.19059055953E+03  0.19059055953E+03  0.00000000000E+00 0.  1.
         -2   -1    0    0    0  501 -0.00000000000E+00 -0.00000000000E+00 -0.46020526111E+01  0.46020526111E+01  0.00000000000E+00 0. -1.
          1    1    1    2  502    0 -0.49404965304E+01  0.28878067761E+02  0.78722328591E+02  0.83997359020E+02  0.00000000000E+00 0.  1.
         -1    1    1    2    0  501  0.49404965304E+01 -0.28878067761E+02  0.10726617833E+03  0.11119525312E+03  0.00000000000E+00 0. -1.
</event>
<event>
 4    1  0.6754235E+001  0.2195603E+02  0.7546771E-02  0.1506040E+00
          2   -1    0    0  502    0  0.00000000000E+00  0.00000000000E+00  0.13768148371E+01  0.13768148371E+01  0.00000000000E+00 0.  1.
         -2   -1    0    0    0  501 -0.00000000000E+00 -0.00000000000E+00 -0.40308615205E+03  0.40308615205E+03  0.00000000000E+00 0. -1.
          1    1    1    2  502    0  0.14638170947E+02 -0.16364329089E+02 -0.27415377798E+03  0.27503156418E+03  0.00000000000E+00 0. -1.
         -1    1    1    2    0  501 -0.14638170947E+02  0.16364329089E+02 -0.12755555923E+03  0.12943140270E+03  0.00000000000E+00 0.  1.
</event>
<event>
 4    1  0.6754235E+001  0.2942233E+02  0.7546771E-02  0.1424684E+00
          2   -1    0    0  502    0  0.00000000000E+00  0.00000000000E+00  0.46157191387E+03  0.46157191387E+03  0.00000000000E+00 0. -1.
         -2   -1    0    0    0  501 -0.00000000000E+00 -0.00000000000E+00 -0.21854894913E+01  0.21854894913E+01  0.00000000000E+00 0.  1.
          1    1    1    2  502    0 -0.22815380924E+02  0.18577729655E+02  0.14236254437E+03  0.14537113773E+03  0.00000000000E+00 0.  1.
         -1    1    1    2    0  501  0.22815380924E+02 -0.18577729655E+02  0.31702388002E+03  0.31838626564E+03  0.00000000000E+00 0. -1.
</event>
<event>
 4    1  0.6754235E+001  0.2553919E+02  0.7546771E-02  0.1462861E+00
          2   -1    0    0  502    0  0.00000000000E+00  0.00000000000E+00  0.72498157457E+03  0.72498157457E+03  0.00000000000E+00 0. -1.
         -2   -1    0    0    0  501 -0.00000000000E+00 -0.00000000000E+00 -0.19463401879E+01  0.19463401879E+01  0.00000000000E+00 0.  1.
          1    1    1    2  502    0 -0.16239899816E+02 -0.19710810435E+02  0.62805315508E+03  0.62857220429E+03  0.00000000000E+00 0. -1.
         -1    1    1    2    0  501  0.16239899816E+02  0.19710810435E+02  0.94982079301E+02  0.98355710472E+02  0.00000000000E+00 0.  1.
</event>
<event>
 4    1  0.6754235E+001  0.2078278E+02  0.7546771E-02  0.1522389E+00
          2   -1    0    0  502    0  0.00000000000E+00  0.00000000000E+00  0.28930896293E+03  0.28930896293E+03  0.00000000000E+00 0.  1.
         -2   -1    0    0    0  501 -0.00000000000E+00 -0.00000000000E+00 -0.22612157252E+01  0.22612157252E+01  0.00000000000E+00 0. -1.
          1    1    1    2  502    0  0.49301192825E+01 -0.20189544258E+02  0.22850018581E+03  0.22944336706E+03  0.00000000000E+00 0.  1.
         -1    1    1    2    0  501 -0.49301192825E+01  0.20189544258E+02  0.58547561395E+02  0.62126811593E+02  0.00000000000E+00 0. -1.
</event>
<event>
 4    1  0.6754235E+001  0.2046442E+02  0.7546771E-02  0.1527051E+00
          2   -1    0    0  502    0  0.00000000000E+00  0.00000000000E+00  0.13785101226E+04  0.13785101226E+04  0.00000000000E+00 0. -1.
         -2   -1    0    0    0  501 -0.00000000000E+00 -0.00000000000E+00 -0.40718026985E+00  0.40718026985E+00  0.00000000000E+00 0.  1.
          1    1    1    2  502    0 -0.60543816335E+01  0.19548322428E+02  0.34164967405E+03  0.34226202276E+03  0.00000000000E+00 0.  1.
         -1    1    1    2    0  501  0.60543816335E+01 -0.19548322428E+02  0.10364532683E+04  0.10366552802E+04  0.00000000000E+00 0. -1.
</event>
<event>
 4    1  0.6754235E+001  0.3219357E+02  0.7546771E-02  0.1401445E+00
          2   -1    0    0  502    0  0.00000000000E+00  0.00000000000E+00  0.89602219969E+01  0.89602219969E+01  0.00000000000E+00 0. -1.
         -2   -1    0    0    0  501 -0.00000000000E+00 -0.00000000000E+00 -0.11571372284E+03  0.11571372284E+03  0.00000000000E+00 0.  1.
          1    1    1    2  502    0  0.20496464066E+02  0.24825813496E+02 -0.54592843482E+02  0.63378266104E+02  0.00000000000E+00 0. -1.
         -1    1    1    2    0  501 -0.20496464066E+02 -0.24825813496E+02 -0.52160657363E+02  0.61295678734E+02  0.00000000000E+00 0.  1.
</event>
<event>
 4    1  0.6754235E+001  0.5127257E+02  0.7546771E-02  0.1292747E+00
          2   -1    0    0  502    0  0.00000000000E+00  0.00000000000E+00  0.45999141736E+03  0.45999141736E+03  0.00000000000E+00 0. -1.
         -2   -1    0    0    0  501 -0.00000000000E+00 -0.00000000000E+00 -0.77001302851E+01  0.77001302851E+01  0.00000000000E+00 0.  1.
          1    1    1    2  502    0 -0.50912290828E+02 -0.60675753784E+01  0.10741335403E+03  0.11902312991E+03  0.00000000000E+00 0.  1.
         -1    1    1    2    0  501  0.50912290828E+02  0.60675753784E+01  0.34487793304E+03  0.34866841774E+03  0.00000000000E+00 0. -1.
</event>
<event>
 4    1  0.6754235E+001  0.3090330E+02  0.7546771E-02  0.1411906E+00
          2   -1    0    0  502    0  0.00000000000E+00  0.00000000000E+00  0.18894694590E+04  0.18894694590E+04  0.00000000000E+00 0.  1.
         -2   -1    0    0    0  501 -0.00000000000E+00 -0.00000000000E+00 -0.95293829465E+00  0.95293829465E+00  0.00000000000E+00 0. -1.
          1    1    1    2  502    0  0.30556122424E+02  0.46192135932E+01  0.15919853811E+04  0.15922852971E+04  0.00000000000E+00 0.  1.
         -1    1    1    2    0  501 -0.30556122424E+02 -0.46192135932E+01  0.29653113963E+03  0.29813710021E+03  0.00000000000E+00 0. -1.
</event>
<event>
 4    1  0.6754235E+001  0.2448559E+02  0.7546771E-02  0.1474641E+00
          2   -1    0    0  502    0  0.00000000000E+00  0.00000000000E+00  0.26649192354E+04  0.26649192354E+04  0.00000000000E+00 0. -1.
         -2   -1    0    0    0  501 -0.00000000000E+00 -0.00000000000E+00 -0.23145808874E+00  0.23145808874E+00  0.00000000000E+00 0.  1.
          1    1    1    2  502    0  0.84316408229E+01 -0.22988071328E+02  0.15553408751E+04  0.15555336003E+04  0.00000000000E+00 0. -1.
         -1    1    1    2    0  501 -0.84316408229E+01  0.22988071328E+02  0.11093469022E+04  0.11096170932E+04  0.00000000000E+00 0.  1.
</event>
<event>
 4    1  0.6754235E+001  0.2742985E+02  0.7546771E-02  0.1443337E+00
          2   -1    0    0  502    0  0.00000000000E+00  0.00000000000E+00  0.93412453399E+02  0.93412453399E+02  0.00000000000E+00 0.  1.
         -2   -1    0    0    0  501 -0.00000000000E+00 -0.00000000000E+00 -0.82048582054E+01  0.82048582054E+01  0.00000000000E+00 0. -1.
          1    1    1    2  502    0  0.35898756156E+01  0.27193919314E+02  0.49480421776E+02  0.56574805291E+02  0.00000000000E+00 0.  1.
         -1    1    1    2    0  501 -0.35898756156E+01 -0.27193919314E+02  0.35727173418E+02  0.45042506314E+02  0.00000000000E+00 0. -1.
</event>
<event>
 4    1  0.6754235E+001  0.3053870E+02  0.7546771E-02  0.1414972E+00
          2   -1    0    0  502    0  0.00000000000E+00  0.00000000000E+00  0.29301272384E+03  0.29301272384E+03  0.00000000000E+00 0. -1.
         -2   -1    0    0    0  501 -0.00000000000E+00 -0.00000000000E+00 -0.47924001402E+01  0.47924001402E+01  0.00000000000E+00 0.  1.
          1    1    1    2  502    0  0.28462381077E+02 -0.11068212822E+02  0.57816419103E+02  0.65386166653E+02  0.00000000000E+00 0.  1.
         -1    1    1    2    0  501 -0.28462381077E+02  0.11068212822E+02  0.23040390460E+03  0.23241895733E+03  0.00000000000E+00 0. -1.
</event>
<event>
 4    1  0.6754235E+001  0.3697488E+02  0.7546771E-02  0.1367187E+00
          2   -1    0    0  502    0  0.00000000000E+00  0.00000000000E+00  0.39496355204E+01  0.39496355204E+01  0.00000000000E+00 0.  1.
         -2   -1    0    0    0  501 -0.00000000000E+00 -0.00000000000E+00 -0.34922368371E+03  0.34922368371E+03  0.00000000000E+00 0. -1.
          1    1    1    2  502    0 -0.16434106036E+02 -0.33121924883E+02 -0.15605357112E+03  0.16037412138E+03  0.00000000000E+00 0.  1.
         -1    1    1    2    0  501  0.16434106036E+02  0.33121924883E+02 -0.18922047707E+03  0.19279919785E+03  0.00000000000E+00 0. -1.
</event>
<event>
 4    1  0.6754235E+001  0.5683942E+02  0.7546771E-02  0.1270966E+00
          2   -1    0    0  502    0  0.00000000000E+00  0.00000000000E+00  0.23159138360E+03  0.23159138360E+03  0.00000000000E+00 0.  1.
         -2   -1    0    0    0  501 -0.00000000000E+00 -0.00000000000E+00 -0.18517035863E+02  0.18517035863E+02  0.00000000000E+00 0. -1.
          1    1    1    2  502    0 -0.56160450185E+02 -0.87592029293E+01  0.44432299565E+02  0.72145332805E+02  0.00000000000E+00 0. -1.
         -1    1    1    2    0  501  0.56160450185E+02  0.87592029293E+01  0.16864204817E+03  0.17796308666E+03  0.00000000000E+00 0.  1.
</event>
<event>
 4    1  0.6754235E+001  0.2693971E+02  0.7546771E-02  0.1448215E+00
          2   -1    0    0  502    0  0.00000000000E+00  0.00000000000E+00  0.56106448729E+03  0.56106448729E+03  0.00000000000E+00 0.  1.
         -2   -1    0    0    0  501 -0.00000000000E+00 -0.00000000000E+00 -0.19251382063E+01  0.19251382063E+01  0.00000000000E+00 0. -1.
          1    1    1    2  502    0 -0.17388992486E+02 -0.20575979928E+02  0.44080746455E+03  0.44162990027E+03  0.00000000000E+00 0.  1.
         -1    1    1    2    0  501  0.17388992486E+02  0.20575979928E+02  0.11833188454E+03  0.12135972523E+03  0.00000000000E+00 0. -1.
</event>
<event>
 4    1  0.6754235E+001  0.2036818E+02  0.7546771E-02  0.1528480E+00
          2   -1    0    0  502    0  0.00000000000E+00  0.00000000000E+00  0.21020673395E+03  0.21020673395E+03  0.00000000000E+00 0. -1.
         -2   -1    0    0    0  501 -0.00000000000E+00 -0.00000000000E+00 -0.21009929717E+01  0.21009929717E+01  0.00000000000E+00 0.  1.
          1    1    1    2  502    0 -0.17858331958E+02  0.97950358284E+01  0.77912816508E+02  0.80531172371E+02  0.00000000000E+00 0.  1.
         -1    1    1    2    0  501  0.17858331958E+02 -0.97950358284E+01  0.13019292448E+03  0.13177655456E+03  0.00000000000E+00 0. -1.
</event>
<event>
 4    1  0.6754235E+001  0.2483742E+02  0.7546771E-02  0.1470630E+00
          2   -1    0    0  502    0  0.00000000000E+00  0.00000000000E+00  0.52203696775E+02  0.52203696775E+02  0.00000000000E+00 0.  1.
         -2   -1    0    0    0  501 -0.00000000000E+00 -0.00000000000E+00 -0.13855150087E+02  0.13855150087E+02  0.00000000000E+00 0. -1.
          1    1    1    2  502    0 -0.21706772484E+02 -0.12071179788E+02  0.65064889572E+01  0.25675508792E+02  0.00000000000E+00 0. -1.
         -1    1    1    2    0  501  0.21706772484E+02  0.12071179788E+02  0.31842057731E+02  0.40383338070E+02  0.00000000000E+00 0.  1.
</event>
<event>
 4    1  0.6754235E+001  0.2422550E+02  0.7546771E-02  0.1477657E+00
          2   -1    0    0  502    0  0.00000000000E+00  0.00000000000E+00  0.91979358005E+02  0.91979358005E+02  0.00000000000E+00 0.  1.
         -2   -1    0    0    0  501 -0.00000000000E+00 -0.00000000000E+00 -0.12541531803E+02  0.12541531803E+02  0.00000000000E+00 0. -1.
          1    1    1    2  502    0 -0.19914043978E+02 -0.13795141369E+02  0.76347843539E+02  0.80099115388E+02  0.00000000000E+00 0.  1.
         -1    1    1    2    0  501  0.19914043978E+02  0.13795141369E+02  0.30899826637E+01  0.24421774420E+02  0.00000000000E+00 0. -1.
</event>
<event>
 4    1  0.6754235E+001  0.2271699E+02  0.7546771E-02  0.1496083E+00
          2   -1    0    0  502    0  0.00000000000E+00  0.00000000000E+00  0.11888657440E+03  0.11888657440E+03  0.00000000000E+00 0. -1.
         -2   -1    0    0    0  501 -0.00000000000E+00 -0.00000000000E+00 -0.10542506484E+02  0.10542506484E+02  0.00000000000E+00 0.  1.
          1    1    1    2  502    0  0.22407429841E+02  0.37374910056E+01  0.45372817158E+01  0.23165678848E+02  0.00000000000E+00 0.  1.
         -1    1    1    2    0  501 -0.22407429841E+02 -0.37374910056E+01  0.10380678620E+03  0.10626340203E+03  0.00000000000E+00 0. -1.
</event>
<event>
 4    1  0.6754235E+001  0.2303024E+02  0.7546771E-02  0.1492119E+00
          2   -1    0    0  502    0  0.00000000000E+00  0.00000000000E+00  0.23069462132E+01  0.23069462132E+01  0.00000000000E+00 0.  1.
         -2   -1    0    0    0  501 -0.00000000000E+00 -0.00000000000E+00 -0.23192343359E+03  0.23192343359E+03  0.00000000000E+00 0. -1.
          1    1    1    2  502    0 -0.28864542740E+01 -0.22848637490E+02 -0.10389828556E+03  0.10642013717E+03  0.00000000000E+00 0. -1.
         -1    1    1    2    0  501  0.28864542740E+01  0.22848637490E+02 -0.12571820181E+03  0.12781024263E+03  0.00000000000E+00 0.  1.
</event>
<event>
 4    1  0.6754235E+001  0.3107618E+02  0.7546771E-02  0.1410469E+00
          2   -1    0    0  502    0  0.00000000000E+00  0.00000000000E+00  0.34432113616E+03  0.34432113616E+03  0.00000000000E+00 0. -1.
         -2   -1    0    0    0  501 -0.00000000000E+00 -0.00000000000E+00 -0.35997526469E+01  0.35997526469E+01  0.00000000000E+00 0.  1.
          1    1    1    2  502    0  0.30798814747E+02  0.41427283856E+01  0.88607852711E+02  0.93899311767E+02  0.00000000000E+00 0. -1.
         -1    1    1    2    0  501 -0.30798814747E+02 -0.41427283856E+01  0.25211353080E+03  0.25402157704E+03  0.00000000000E+00 0.  1.
</event>
<event>
 4    1  0.6754235E+001  0.3178170E+02  0.7546771E-02  0.1404720E+00
          2   -1    0    0  502    0  0.00000000000E+00  0.00000000000E+00  0.30129006725E+02  0.30129006725E+02  0.00000000000E+00 0. -1.
         -2   -1    0    0    0  501 -0.00000000000E+00 -0.00000000000E+00 -0.38727645579E+02  0.38727645579E+02  0.00000000000E+00 0.  1.
          1    1    1    2  502    0  0.67407316631E+01 -0.31058635045E+02  0.83194105688E+01  0.32852532116E+02  0.00000000000E+00 0. -1.
         -1    1    1    2    0  501 -0.67407316631E+01  0.31058635045E+02 -0.16918049422E+02  0.36004120188E+02  0.00000000000E+00 0.  1.
</event>
<event>
 4    1  0.6754235E+001  0.2122129E+02  0.7546771E-02  0.1516129E+00
          2   -1    0    0  502    0  0.00000000000E+00  0.00000000000E+00  0.95700655556E+00  0.95700655556E+00  0.00000000000E+00 0.  1.
         -2   -1    0    0    0  501 -0.00000000000E+00 -0.00000000000E+00 -0.48514622391E+03  0.48514622391E+03  0.00000000000E+00 0. -1.
          1    1    1    2  502    0  0.68770340154E+01  0.20076091316E+02 -0.19997200666E+03  0.20109486937E+03  0.00000000000E+00 0.  1.
         -1    1    1    2    0  501 -0.68770340154E+01 -0.20076091316E+02 -0.28421721069E+03  0.28500836109E+03  0.00000000000E+00 0. -1.
</event>
<event>
 4    1  0.6754235E+001  0.3012398E+02  0.7546771E-02  0.1418522E+00
          2   -1    0    0  502    0  0.00000000000E+00  0.00000000000E+00  0.62582148427E+02  0.62582148427E+02  0.00000000000E+00 0. -1.
         -2   -1    0    0    0  501 -0.00000000000E+00 -0.00000000000E+00 -0.16339535933E+02  0.16339535933E+02  0.00000000000E+00 0.  1.
          1    1    1    2  502    0 -0.23349105858E+02  0.19033481741E+02  0.36360942999E+02  0.47218347571E+02  0.00000000000E+00 0.  1.
         -1    1    1    2    0  501  0.23349105858E+02 -0.19033481741E+02  0.98816694948E+01  0.31703336789E+02  0.00000000000E+00 0. -1.
</event>
<event>
 4    1  0.6754235E+001  0.2239781E+02  0.7546771E-02  0.1500202E+00
          2   -1    0    0  502    0  0.00000000000E+00  0.00000000000E+00  0.25482663193E+03  0.25482663193E+03  0.00000000000E+00 0. -1.
         -2   -1    0    0    0  501 -0.00000000000E+00 -0.00000000000E+00 -0.19885573205E+01  0.19885573205E+01  0.00000000000E+00 0.  1.
          1    1    1    2  502    0 -0.16601643911E+02 -0.15034871758E+02  0.11356809340E+03  0.11575566417E+03  0.00000000000E+00 0.  1.
         -1    1    1    2    0  501  0.16601643911E+02  0.15034871758E+02  0.13926998121E+03  0.14105952508E+03  0.00000000000E+00 0. -1.
</event>
<event>
 4    1  0.6754235E+001  0.2045268E+02  0.7546771E-02  0.1527225E+00
          2   -1    0    0  502    0  0.00000000000E+00  0.00000000000E+00  0.86302153359E+03  0.86302153359E+03  0.00000000000E+00 0. -1.
         -2   -1    0    0    0  501 -0.00000000000E+00 -0.00000000000E+00 -0.53942222150E+00  0.53942222150E+00  0.00000000000E+00 0.  1.
          1    1    1    2  502    0  0.19787096624E+02  0.51752172869E+01  0.56875762205E+03  0.56912524519E+03  0.00000000000E+00 0. -1.
         -1    1    1    2    0  501 -0.19787096624E+02 -0.51752172869E+01  0.29372448932E+03  0.29443571062E+03  0.00000000000E+00 0.  1.
</event>
<event>
 4    1  0.6754235E+001  0.2302935E+02  0.7546771E-02  0.1492130E+00
          2   -1    0    0  502    0  0.00000000000E+00  0.00000000000E+00  0.48310797679E+01  0.48310797679E+01  0.00000000000E+00 0. -1.
         -2   -1    0    0    0  501 -0.00000000000E+00 -0.00000000000E+00 -0.11252323061E+03  0.11252323061E+03  0.00000000000E+00 0.  1.
          1    1    1    2  502    0  0.22237982815E+02 -0.59852323772E+01 -0.63009585300E+02  0.67086203693E+02  0.00000000000E+00 0. -1.
         -1    1    1    2    0  501 -0.22237982815E+02  0.59852323772E+01 -0.44682565545E+02  0.50268106687E+02  0.00000000000E+00 0.  1.
</event>
<event>
 4    1  0.6754235E+001  0.3597576E+02  0.7546771E-02  0.1373830E+00
          2   -1    0    0  502    0  0.00000000000E+00  0.00000000000E+00  0.33845240963E+03  0.33845240963E+03  0.00000000000E+00 0. -1.
         -2   -1    0    0    0  501 -0.00000000000E+00 -0.00000000000E+00 -0.45718453166E+01  0.45718453166E+01  0.00000000000E+00 0.  1.
          1    1    1    2  502    0  0.15429057468E+02 -0.32499225688E+02  0.97574801106E+02  0.10399565998E+03  0.00000000000E+00 0.  1.
         -1    1    1    2    0  501 -0.15429057468E+02  0.32499225688E+02  0.23630576321E+03  0.23902859496E+03  0.00000000000E+00 0. -1.
</event>
<event>
 4    1  0.6754235E+001  0.2237914E+02  0.7546771E-02  0.1500445E+00
          2   -1    0    0  502    0  0.00000000000E+00  0.00000000000E+00  0.16267024220E+04  0.16267024220E+04  0.00000000000E+00 0. -1.
         -2   -1    0    0    0  501 -0.00000000000E+00 -0.00000000000E+00 -0.32074279395E+00  0.32074279395E+00  0.00000000000E+00 0.  1.
          1    1    1    2  502    0  0.22081341042E+01 -0.22269937303E+02  0.97611516116E+03  0.97637166786E+03  0.00000000000E+00 0. -1.
         -1    1    1    2    0  501 -0.22081341042E+01  0.22269937303E+02  0.65026651803E+03  0.65065149691E+03  0.00000000000E+00 0.  1.
</event>
<event>
 4    1  0.6754235E+001  0.3535729E+02  0.7546771E-02  0.1378069E+00
          2   -1    0    0  502    0  0.00000000000E+00  0.00000000000E+00  0.53344871924E+03  0.53344871924E+03  0.00000000000E+00 0.  1.
         -2   -1    0    0    0  501 -0.00000000000E+00 -0.00000000000E+00 -0.11265655271E+02  0.11265655271E+02  0.00000000000E+00 0. -1.
          1    1    1    2  502    0  0.19406638585E+02 -0.29555379529E+02  0.50347079136E+03  0.50471078434E+03  0.00000000000E+00 0.  1.
         -1    1    1    2    0  501 -0.19406638585E+02  0.29555379529E+02  0.18712272614E+02  0.40003590171E+02  0.00000000000E+00 0. -1.
</event>
<event>
 4    1  0.6754235E+001  0.3445523E+02  0.7546771E-02  0.1384434E+00
          2   -1    0    0  502    0  0.00000000000E+00  0.00000000000E+00  0.97846773160E+01  0.97846773160E+01  0.00000000000E+00 0. -1.
         -2   -1    0    0    0  501 -0.00000000000E+00 -0.00000000000E+00 -0.12566525248E+03  0.12566525248E+03  0.00000000000E+00 0.  1.
          1    1    1    2  502    0 -0.59941443793E+01  0.33929822021E+02 -0.45359396953E+02  0.56961719437E+02  0.00000000000E+00 0. -1.
         -1    1    1    2    0  501  0.59941443793E+01 -0.33929822021E+02 -0.70521178210E+02  0.78488210358E+02  0.00000000000E+00 0.  1.
</event>
<event>
 4    1  0.6754235E+001  0.4420843E+02  0.7546771E-02  0.1325445E+00
          2   -1    0    0  502    0  0.00000000000E+00  0.00000000000E+00  0.37069265519E+04  0.37069265519E+04  0.00000000000E+00 0.  1.
         -2   -1    0    0    0  501 -0.00000000000E+00 -0.00000000000E+00 -0.53371509556E+00  0.53371509556E+00  0.00000000000E+00 0. -1.
          1    1    1    2  502    0 -0.40645851874E+02 -0.17386778823E+02  0.20576093076E+04  0.20580841693E+04  0.00000000000E+00 0.  1.
         -1    1    1    2    0  501  0.40645851874E+02  0.17386778823E+02  0.16487835293E+04  0.16493760977E+04  0.00000000000E+00 0. -1.
</event>
<event>
 4    1  0.6754235E+001  0.9289694E+02  0.7546771E-02  0.1176720E+00
          2   -1    0    0  502    0  0.00000000000E+00  0.00000000000E+00  0.45860154254E+03  0.45860154254E+03  0.00000000000E+00 0.  1.
         -2   -1    0    0    0  501 -0.00000000000E+00 -0.00000000000E+00 -0.21861767759E+02  0.21861767759E+02  0.00000000000E+00 0. -1.
          1    1    1    2  502    0 -0.25286208093E+02  0.89389316646E+02  0.12872773750E+03  0.15874719731E+03  0.00000000000E+00 0.  1.
         -1    1    1    2    0  501  0.25286208093E+02 -0.89389316646E+02  0.30801203728E+03  0.32171611299E+03  0.00000000000E+00 0. -1.
</event>
<event>
 4    1  0.6754235E+001  0.2972024E+02  0.7546771E-02  0.1422043E+00
          2   -1    0    0  502    0  0.00000000000E+00  0.00000000000E+00  0.97528086493E+02  0.97528086493E+02  0.00000000000E+00 0.  1.
         -2   -1    0    0    0  501 -0.00000000000E+00 -0.00000000000E+00 -0.11562410924E+02  0.11562410924E+02  0.00000000000E+00 0. -1.
          1    1    1    2  502    0  0.15640545666E+02 -0.25271840030E+02  0.17591278515E+02  0.34536149858E+02  0.00000000000E+00 0. -1.
         -1    1    1    2    0  501 -0.15640545666E+02  0.25271840030E+02  0.68374397054E+02  0.74554347558E+02  0.00000000000E+00 0.  1.
</event>
<event>
 4    1  0.6754235E+001  0.4419117E+02  0.7546771E-02  0.1325534E+00
          2   -1    0    0  502    0  0.00000000000E+00  0.00000000000E+00  0.13164966773E+04  0.13164966773E+04  0.00000000000E+00 0.  1.
         -2   -1    0    0    0  501 -0.00000000000E+00 -0.00000000000E+00 -0.14883849355E+01  0.14883849355E+01  0.00000000000E+00 0. -1.
          1    1    1    2  502    0  0.39344315715E+02  0.20121741207E+02  0.69573316657E+03  0.69713520835E+03  0.00000000000E+00 0. -1.
         -1    1    1    2    0  501 -0.39344315715E+02 -0.20121741207E+02  0.61927512576E+03  0.62084985386E+03  0.00000000000E+00 0.  1.
</event>
<event>
 4    1  0.6754235E+001  0.2156801E+02  0.7546771E-02  0.1511308E+00
          2   -1    0    0  502    0  0.00000000000E+00  0.00000000000E+00  0.10129298751E+02  0.10129298751E+02  0.00000000000E+00 0.  1.
         -2   -1    0    0    0  501 -0.00000000000E+00 -0.00000000000E+00 -0.69421194703E+02  0.69421194703E+02  0.00000000000E+00 0. -1.
          1    1    1    2  502    0  0.12180783853E+02 -0.17799086553E+02 -0.65053871638E+01  0.22527739335E+02  0.00000000000E+00 0.  1.
         -1    1    1    2    0  501 -0.12180783853E+02  0.17799086553E+02 -0.52786508787E+02  0.57022754119E+02  0.00000000000E+00 0. -1.
</event>
<event>
 4    1  0.6754235E+001  0.1834089E+03  0.7546771E-02  0.1067567E+00
          2   -1    0    0  502    0  0.00000000000E+00  0.00000000000E+00  0.30659835783E+03  0.30659835783E+03  0.00000000000E+00 0.  1.
         -2   -1    0    0    0  501 -0.00000000000E+00 -0.00000000000E+00 -0.11405341304E+03  0.11405341304E+03  0.00000000000E+00 0. -1.
          1    1    1    2  502    0  0.17304464904E+02 -0.18259072449E+03  0.55257515705E+02  0.19155210836E+03  0.00000000000E+00 0. -1.
         -1    1    1    2    0  501 -0.17304464904E+02  0.18259072449E+03  0.13728742909E+03  0.22909966251E+03  0.00000000000E+00 0.  1.
</event>
<event>
 4    1  0.6754235E+001  0.2117284E+02  0.7546771E-02  0.1516811E+00
          2   -1    0    0  502    0  0.00000000000E+00  0.00000000000E+00  0.95264117665E+02  0.95264117665E+02  0.00000000000E+00 0. -1.
         -2   -1    0    0    0  501 -0.00000000000E+00 -0.00000000000E+00 -0.75704381180E+01  0.75704381180E+01  0.00000000000E+00 0.  1.
          1    1    1    2  502    0  0.15740157494E+02 -0.14161092307E+02  0.12217708059E+02  0.24445070740E+02  0.00000000000E+00 0.  1.
         -1    1    1    2    0  501 -0.15740157494E+02  0.14161092307E+02  0.75475971488E+02  0.78389485043E+02  0.00000000000E+00 0. -1.
</event>
<event>
 4    1  0.6754235E+001  0.2028869E+02  0.7546771E-02  0.1529667E+00
          2   -1    0    0  502    0  0.00000000000E+00  0.00000000000E+00  0.56818500383E+02  0.56818500383E+02  0.00000000000E+00 0.  1.
         -2   -1    0    0    0  501 -0.00000000000E+00 -0.00000000000E+00 -0.73932566938E+01  0.73932566938E+01  0.00000000000E+00 0. -1.
          1    1    1    2  502    0  0.20259676667E+02  0.10846951273E+01  0.29264203736E+02  0.35609334205E+02  0.00000000000E+00 0. -1.
         -1    1    1    2    0  501 -0.20259676667E+02 -0.10846951273E+01  0.20161039952E+02  0.28602422872E+02  0.00000000000E+00 0.  1.
</event>
<event>
 4    1  0.6754235E+001  0.2763641E+02  0.7546771E-02  0.1441318E+00
          2   -1    0    0  502    0  0.00000000000E+00  0.00000000000E+00  0.10261090609E+03  0.10261090609E+03  0.00000000000E+00 0. -1.
         -2   -1    0    0    0  501 -0.00000000000E+00 -0.00000000000E+00 -0.13910631113E+02  0.13910631113E+02  0.00000000000E+00 0.  1.
          1    1    1    2  502    0 -0.16938770124E+02 -0.21836880645E+02  0.46252316699E+01  0.28020779033E+02  0.00000000000E+00 0.  1.
         -1    1    1    2    0  501  0.16938770124E+02  0.21836880645E+02  0.84075043304E+02  0.88500758167E+02  0.00000000000E+00 0. -1.
</event>
<event>
 4    1  0.6754235E+001  0.2351644E+02  0.7546771E-02  0.1486113E+00
          2   -1    0    0  502    0  0.00000000000E+00  0.00000000000E+00  0.17946989941E+04  0.17946989941E+04  0.00000000000E+00 0. -1.
         -2   -1    0    0    0  501 -0.00000000000E+00 -0.00000000000E+00 -0.39072330664E+00  0.39072330664E+00  0.00000000000E+00 0.  1.
          1    1    1    2  502    0  0.18740730606E+02 -0.14205920797E+02  0.13097842000E+04  0.13099952953E+04  0.00000000000E+00 0. -1.
         -1    1    1    2    0  501 -0.18740730606E+02  0.14205920797E+02  0.48452407074E+03  0.48509442204E+03  0.00000000000E+00 0.  1.
</event>
<event>
 4    1  0.6754235E+001  0.2174462E+02  0.7546771E-02  0.1508894E+00
          2   -1    0    0  502    0  0.00000000000E+00  0.00000000000E+00  0.45303191737E+01  0.45303191737E+01  0.00000000000E+00 0.  1.
         -2   -1    0    0    0  501 -0.00000000000E+00 -0.00000000000E+00 -0.15193091192E+03  0.15193091192E+03  0.00000000000E+00 0. -1.
          1    1    1    2  502    0  0.27517902568E+01  0.21569793550E+02 -0.29929964575E+02  0.36995014838E+02  0.00000000000E+00 0.  1.
         -1    1    1    2    0  501 -0.27517902568E+01 -0.21569793550E+02 -0.11747062817E+03  0.11946621625E+03  0.00000000000E+00 0. -1.
</event>
<event>
 4    1  0.6754235E+001  0.2062205E+02  0.7546771E-02  0.1524730E+00
          2   -1    0    0  502    0  0.00000000000E+00  0.00000000000E+00  0.20872773817E+03  0.20872773817E+03  0.00000000000E+00 0.  1.
         -2   -1    0    0    0  501 -0.00000000000E+00 -0.00000000000E+00 -0.21378717456E+01  0.21378717456E+01  0.00000000000E+00 0. -1.
          1    1    1    2  502    0  0.47953474032E+01  0.20056756428E+02  0.80442364475E+02  0.83043620089E+02  0.00000000000E+00 0. -1.
         -1    1    1    2    0  501 -0.47953474032E+01 -0.20056756428E+02  0.12614750195E+03  0.12782198983E+03  0.00000000000E+00 0.  1.
</event>
<event>
 4    1  0.6754235E+001  0.2586885E+02  0.7546771E-02  0.1459314E+00
          2   -1    0    0  502    0  0.00000000000E+00  0.00000000000E+00  0.86489236407E+03  0.86489236407E+03  0.00000000000E+00 0. -1.
         -2   -1    0    0    0  501 -0.00000000000E+00 -0.00000000000E+00 -0.26406455024E+01  0.26406455024E+01  0.00000000000E+00 0.  1.
          1    1    1    2  502    0 -0.19633634911E+02  0.16843928997E+02  0.79584848152E+03  0.79626880079E+03  0.00000000000E+00 0. -1.
         -1    1    1    2    0  501  0.19633634911E+02 -0.16843928997E+02  0.66403237046E+02  0.71264208787E+02  0.00000000000E+00 0.  1.
</event>
<event>
 4    1  0.6754235E+001  0.2053135E+02  0.7546771E-02  0.1526062E+00
          2   -1    0    0  502    0  0.00000000000E+00  0.00000000000E+00  0.85754486110E+03  0.85754486110E+03  0.00000000000E+00 0. -1.
         -2   -1    0    0    0  501 -0.00000000000E+00 -0.00000000000E+00 -0.61418109329E+00  0.61418109329E+00  0.00000000000E+00 0.  1.
          1    1    1    2  502    0 -0.12412045622E+02 -0.16354738045E+02  0.23674469010E+03  0.23763329864E+03  0.00000000000E+00 0.  1.
         -1    1    1    2    0  501  0.12412045622E+02  0.16354738045E+02  0.62018598991E+03  0.62052574355E+03  0.00000000000E+00 0. -1.
</event>
<event>
 4    1  0.6754235E+001  0.4719797E+02  0.7546771E-02  0.1310801E+00
          2   -1    0    0  502    0  0.00000000000E+00  0.00000000000E+00  0.12519461688E+04  0.12519461688E+04  0.00000000000E+00 0. -1.
         -2   -1    0    0    0  501 -0.00000000000E+00 -0.00000000000E+00 -0.22327247693E+01  0.22327247693E+01  0.00000000000E+00 0.  1.
          1    1    1    2  502    0 -0.19704896779E+02  0.42887825036E+02  0.90743664734E+03  0.90866325855E+03  0.00000000000E+00 0. -1.
         -1    1    1    2    0  501  0.19704896779E+02 -0.42887825036E+02  0.34227679665E+03  0.34551563498E+03  0.00000000000E+00 0.  1.
</event>
<event>
 4    1  0.6754235E+001  0.2383354E+02  0.7546771E-02  0.1482288E+00
          2   -1    0    0  502    0  0.00000000000E+00  0.00000000000E+00  0.58146386573E+03  0.58146386573E+03  0.00000000000E+00 0.  1.
         -2   -1    0    0    0  501 -0.00000000000E+00 -0.00000000000E+00 -0.23161413197E+01  0.23161413197E+01  0.00000000000E+00 0. -1.
          1    1    1    2  502    0  0.66128454203E+01  0.22897772744E+02  0.67619066379E+02  0.71696414549E+02  0.00000000000E+00 0. -1.
         -1    1    1    2    0  501 -0.66128454203E+01 -0.22897772744E+02  0.51152865803E+03  0.51208359250E+03  0.00000000000E+00 0.  1.
</event>
<event>
 4    1  0.6754235E+001  0.2813187E+02  0.7546771E-02  0.1436558E+00
          2   -1    0    0  502    0  0.00000000000E+00  0.00000000000E+00  0.37771473818E+02  0.37771473818E+02  0.00000000000E+00 0. -1.
         -2   -1    0    0    0  501 -0.00000000000E+00 -0.00000000000E+00 -0.23127329950E+02  0.23127329950E+02  0.00000000000E+00 0.  1.
          1    1    1    2  502    0  0.10461831227E+02  0.26114217607E+02 -0.20156437945E+01  0.28203990742E+02  0.00000000000E+00 0. -1.
         -1    1    1    2    0  501 -0.10461831227E+02 -0.26114217607E+02  0.16659787663E+02  0.32694813026E+02  0.00000000000E+00 0.  1.
</event>
<event>
 4    1  0.6754235E+001  0.2726728E+02  0.7546771E-02  0.1444942E+00
          2   -1    0    0  502    0  0.00000000000E+00  0.00000000000E+00  0.11958203572E+04  0.11958203572E+04  0.00000000000E+00 0.  1.
         -2   -1    0    0    0  501 -0.00000000000E+00 -0.00000000000E+00 -0.62734892894E+00  0.62734892894E+00  0.00000000000E+00 0. -1.
          1    1    1    2  502    0 -0.25698985779E+02  0.91140966351E+01  0.54109579411E+03  0.54178239454E+03  0.00000000000E+00 0. -1.
         -1    1    1    2    0  501  0.25698985779E+02 -0.91140966351E+01  0.65409721418E+03  0.65466531161E+03  0.00000000000E+00 0.  1.
</event>
<event>
 4    1  0.6754235E+001  0.5415325E+02  0.7546771E-02  0.1281104E+00
          2   -1    0    0  502    0  0.00000000000E+00  0.00000000000E+00  0.90176268514E+03  0.90176268514E+03  0.00000000000E+00 0.  1.
         -2   -1    0    0    0  501 -0.00000000000E+00 -0.00000000000E+00 -0.33508390665E+01  0.33508390665E+01  0.00000000000E+00 0. -1.
          1    1    1    2  502    0 -0.19548243482E+02 -0.50501892675E+02  0.37149958373E+03  0.37542577921E+03  0.00000000000E+00 0.  1.
         -1    1    1    2    0  501  0.19548243482E+02  0.50501892675E+02  0.52691226235E+03  0.52968774500E+03  0.00000000000E+00 0. -1.
</event>
<event>
 4    1  0.6754235E+001  0.2378862E+02  0.7546771E-02  0.1482826E+00
          2   -1    0    0  502    0  0.00000000000E+00  0.00000000000E+00  0.30531385212E+03  0.30531385212E+03  0.00000000000E+00 0. -1.
         -2   -1    0    0    0  501 -0.00000000000E+00 -0.00000000000E+00 -0.19374248408E+01  0.19374248408E+01  0.00000000000E+00 0.  1.
          1    1    1    2  502    0  0.11290014810E+02 -0.20938821101E+02  0.11971389565E+03  0.12205455942E+03  0.00000000000E+00 0. -1.
         -1    1    1    2    0  501 -0.11290014810E+02  0.20938821101E+02  0.18366253163E+03  0.18519671755E+03  0.00000000000E+00 0.  1.
</event>
<event>
 4    1  0.6754235E+001  0.2696380E+02  0.7546771E-02  0.1447972E+00
          2   -1    0    0  502    0  0.00000000000E+00  0.00000000000E+00  0.10766499700E+04  0.10766499700E+04  0.00000000000E+00 0.  1.
         -2   -1    0    0    0  501 -0.00000000000E+00 -0.00000000000E+00 -0.10642003646E+01  0.10642003646E+01  0.00000000000E+00 0. -1.
          1    1    1    2  502    0 -0.24155070784E+02 -0.11982455947E+02  0.21203955371E+03  0.21374709129E+03  0.00000000000E+00 0. -1.
         -1    1    1    2    0  501  0.24155070784E+02  0.11982455947E+02  0.86354621588E+03  0.86396707903E+03  0.00000000000E+00 0.  1.
</event>
<event>
 4    1  0.6754235E+001  0.2165779E+02  0.7546771E-02  0.1510077E+00
          2   -1    0    0  502    0  0.00000000000E+00  0.00000000000E+00  0.44638763908E+01  0.44638763908E+01  0.00000000000E+00 0. -1.
         -2   -1    0    0    0  501 -0.00000000000E+00 -0.00000000000E+00 -0.10725286146E+03  0.10725286146E+03  0.00000000000E+00 0.  1.
          1    1    1    2  502    0  0.17136119149E+02  0.13244370355E+02 -0.59346814549E+02  0.63175187556E+02  0.00000000000E+00 0.  1.
         -1    1    1    2    0  501 -0.17136119149E+02 -0.13244370355E+02 -0.43442170522E+02  0.48541550297E+02  0.00000000000E+00 0. -1.
</event>
<event>
 4    1  0.6754235E+001  0.2354585E+02  0.7546771E-02  0.1485755E+00
          2   -1    0    0  502    0  0.00000000000E+00  0.00000000000E+00  0.51170239781E+01  0.51170239781E+01  0.00000000000E+00 0. -1.
         -2   -1    0    0    0  501 -0.00000000000E+00 -0.00000000000E+00 -0.11684518993E+03  0.11684518993E+03  0.00000000000E+00 0.  1.
          1    1    1    2  502    0  0.61302156256E+01  0.22733839226E+02 -0.39416992241E+02  0.45914118383E+02  0.00000000000E+00 0. -1.
         -1    1    1    2    0  501 -0.61302156256E+01 -0.22733839226E+02 -0.72311173715E+02  0.76048095529E+02  0.00000000000E+00 0.  1.
</event>
<event>
 4    1  0.6754235E+001  0.2223608E+02  0.7546771E-02  0.1502320E+00
          2   -1    0    0  502    0  0.00000000000E+00  0.00000000000E+00  0.10061703061E+04  0.10061703061E+04  0.00000000000E+00 0.  1.
         -2   -1    0    0    0  501 -0.00000000000E+00 -0.00000000000E+00 -0.50009311340E+00  0.50009311340E+00  0.00000000000E+00 0. -1.
          1    1    1    2  502    0 -0.22217517045E+02 -0.90828074746E+00  0.43651464426E+03  0.43708063065E+03  0.00000000000E+00 0. -1.
         -1    1    1    2    0  501  0.22217517045E+02  0.90828074746E+00  0.56915556872E+03  0.56958976855E+03  0.00000000000E+00 0.  1.
</event>
<event>
 4    1  0.6754235E+001  0.2067188E+02  0.7546771E-02  0.1524001E+00
          2   -1    0    0  502    0  0.00000000000E+00  0.00000000000E+00  0.22714739942E+04  0.22714739942E+04  0.00000000000E+00 0.  1.
         -2   -1    0    0    0  501 -0.00000000000E+00 -0.00000000000E+00 -0.18818584179E+00  0.18818584179E+00  0.00000000000E+00 0. -1.
          1    1    1    2  502    0 -0.20544922666E+02  0.22875550038E+01  0.11556396198E+04  0.11558244926E+04  0.00000000000E+00 0. -1.
         -1    1    1    2    0  501  0.20544922666E+02 -0.22875550038E+01  0.11156461885E+04  0.11158376875E+04  0.00000000000E+00 0.  1.
</event>
<event>
 4    1  0.6754235E+001  0.2667991E+02  0.7546771E-02  0.1450850E+00
          2   -1    0    0  502    0  0.00000000000E+00  0.00000000000E+00  0.40777073913E+03  0.40777073913E+03  0.00000000000E+00 0. -1.
         -2   -1    0    0    0  501 -0.00000000000E+00 -0.00000000000E+00 -0.20868849020E+01  0.20868849020E+01  0.00000000000E+00 0.  1.
          1    1    1    2  502    0 -0.25961607486E+02  0.61491730352E+01  0.28571097596E+03  0.28695396700E+03  0.00000000000E+00 0. -1.
         -1    1    1    2    0  501  0.25961607486E+02 -0.61491730352E+01  0.11997287827E+03  0.12290365703E+03  0.00000000000E+00 0.  1.
</event>
<event>
 4    1  0.6754235E+001  0.2544492E+02  0.7546771E-02  0.1463887E+00
          2   -1    0    0  502    0  0.00000000000E+00  0.00000000000E+00  0.28377721186E+01  0.28377721186E+01  0.00000000000E+00 0. -1.
         -2   -1    0    0    0  501 -0.00000000000E+00 -0.00000000000E+00 -0.28286333821E+03  0.28286333821E+03  0.00000000000E+00 0.  1.
          1    1    1    2  502    0 -0.24747139989E+02 -0.59180256119E+01 -0.77187933335E+02  0.81273741253E+02  0.00000000000E+00 0. -1.
         -1    1    1    2    0  501  0.24747139989E+02  0.59180256119E+01 -0.20283763276E+03  0.20442736908E+03  0.00000000000E+00 0.  1.
</event>
<event>
 4    1  0.6754235E+001  0.3494062E+02  0.7546771E-02  0.1380981E+00
          2   -1    0    0  502    0  0.00000000000E+00  0.00000000000E+00  0.88562723813E+01  0.88562723813E+01  0.00000000000E+00 0. -1.
         -2   -1    0    0    0  501 -0.00000000000E+00 -0.00000000000E+00 -0.15593069155E+03  0.15593069155E+03  0.00000000000E+00 0.  1.
          1    1    1    2  502    0 -0.78243740970E+01  0.34053288031E+02 -0.45481525345E+02  0.57353434103E+02  0.00000000000E+00 0.  1.
         -1    1    1    2    0  501  0.78243740970E+01 -0.34053288031E+02 -0.10159289382E+03  0.10743352982E+03  0.00000000000E+00 0. -1.
</event>
<event>
 4    1  0.6754235E+001  0.2484538E+02  0.7546771E-02  0.1470541E+00
          2   -1    0    0  502    0  0.00000000000E+00  0.00000000000E+00  0.87330612656E+03  0.87330612656E+03  0.00000000000E+00 0.  1.
         -2   -1    0    0    0  501 -0.00000000000E+00 -0.00000000000E+00 -0.74633619971E+00  0.74633619971E+00  0.00000000000E+00 0. -1.
          1    1    1    2  502    0  0.18041667573E+02 -0.17081888054E+02  0.33575198780E+03  0.33667000161E+03  0.00000000000E+00 0. -1.
         -1    1    1    2    0  501 -0.18041667573E+02  0.17081888054E+02  0.53680780256E+03  0.53738246116E+03  0.00000000000E+00 0.  1.
</event>
<event>
 4    1  0.6754235E+001  0.2036584E+02  0.7546771E-02  0.1528515E+00
          2   -1    0    0  502    0  0.00000000000E+00  0.00000000000E+00  0.20160211015E+02  0.20160211015E+02  0.00000000000E+00 0. -1.
         -2   -1    0    0    0  501 -0.00000000000E+00 -0.00000000000E+00 -0.23982662628E+02  0.23982662628E+02  0.00000000000E+00 0.  1.
          1    1    1    2  502    0 -0.13502805415E+02 -0.15246043673E+02  0.64102628580E+01  0.21350856462E+02  0.00000000000E+00 0. -1.
         -1    1    1    2    0  501  0.13502805415E+02  0.15246043673E+02 -0.10232714470E+02  0.22792017181E+02  0.00000000000E+00 0.  1.
</event>
<event>
 4    1  0.6754235E+001  0.2093494E+02  0.7546771E-02  0.1520196E+00
          2   -1    0    0  502    0  0.00000000000E+00  0.00000000000E+00  0.18445278206E+02  0.18445278206E+02  0.00000000000E+00 0.  1.
         -2   -1    0    0    0  501 -0.00000000000E+00 -0.00000000000E+00 -0.59633892132E+02  0.59633892132E+02  0.00000000000E+00 0. -1.
          1    1    1    2  502    0 -0.12520716908E+02  0.16778061381E+02 -0.50873476881E+02  0.55012565342E+02  0.00000000000E+00 0. -1.
         -1    1    1    2    0  501  0.12520716908E+02 -0.16778061381E+02  0.96848629542E+01  0.23066604996E+02  0.00000000000E+00 0.  1.
</event>
<event>
 4    1  0.6754235E+001  0.2161087E+02  0.7546771E-02  0.1510719E+00
          2   -1    0    0  502    0  0.00000000000E+00  0.00000000000E+00  0.34858868128E+03  0.34858868128E+03  0.00000000000E+00 0.  1.
         -2   -1    0    0    0  501 -0.00000000000E+00 -0.00000000000E+00 -0.21139811633E+01  0.21139811633E+01  0.00000000000E+00 0. -1.
          1    1    1    2  502    0 -0.96937446555E+01  0.19314784542E+02  0.27935496419E+03  0.28018962437E+03  0.00000000000E+00 0.  1.
         -1    1    1    2    0  501  0.96937446555E+01 -0.19314784542E+02  0.67119735928E+02  0.70513038074E+02  0.00000000000E+00 0. -1.
</event>
<event>
 4    1  0.6754235E+001  0.2178214E+02  0.7546771E-02  0.1508384E+00
          2   -1    0    0  502    0  0.00000000000E+00  0.00000000000E+00  0.27070112275E+01  0.27070112275E+01  0.00000000000E+00 0.  1.
         -2   -1    0    0    0  501 -0.00000000000E+00 -0.00000000000E+00 -0.17591033979E+03  0.17591033979E+03  0.00000000000E+00 0. -1.
          1    1    1    2  502    0  0.19603546026E+02  0.94954018555E+01 -0.81219279671E+02  0.84089434910E+02  0.00000000000E+00 0.  1.
         -1    1    1    2    0  501 -0.19603546026E+02 -0.94954018555E+01 -0.91984048892E+02  0.94527916108E+02  0.00000000000E+00 0. -1.
</event>
<event>
 4    1  0.6754235E+001  0.4746460E+02  0.7546771E-02  0.1309556E+00
          2   -1    0    0  502    0  0.00000000000E+00  0.00000000000E+00  0.38670625514E+04  0.38670625514E+04  0.00000000000E+00 0. -1.
         -2   -1    0    0    0  501 -0.00000000000E+00 -0.00000000000E+00 -0.16506269593E+01  0.16506269593E+01  0.00000000000E+00 0.  1.
          1    1    1    2  502    0 -0.22315620823E+02 -0.41891536792E+02  0.37671710530E+03  0.37969549011E+03  0.00000000000E+00 0.  1.
         -1    1    1    2    0  501  0.22315620823E+02  0.41891536792E+02  0.34886948191E+04  0.34890176882E+04  0.00000000000E+00 0. -1.
</event>
<event>
 4    1  0.6754235E+001  0.2145479E+02  0.7546771E-02  0.1512870E+00
          2   -1    0    0  502    0  0.00000000000E+00  0.00000000000E+00  0.65740263980E+03  0.65740263980E+03  0.00000000000E+00 0. -1.
         -2   -1    0    0    0  501 -0.00000000000E+00 -0.00000000000E+00 -0.12374362995E+01  0.12374362995E+01  0.00000000000E+00 0.  1.
          1    1    1    2  502    0 -0.19771942468E+02  0.83293557647E+01  0.54507411956E+03  0.54549619952E+03  0.00000000000E+00 0. -1.
         -1    1    1    2    0  501  0.19771942468E+02 -0.83293557647E+01  0.11109108394E+03  0.11314387658E+03  0.00000000000E+00 0.  1.
</event>
<event>
 4    1  0.6754235E+001  0.2179219E+02  0.7546771E-02  0.1508248E+00
          2   -1    0    0  502    0  0.00000000000E+00  0.00000000000E+00  0.12865191245E+04  0.12865191245E+04  0.00000000000E+00 0.  1.
         -2   -1    0    0    0  501 -0.00000000000E+00 -0.00000000000E+00 -0.38054685390E+00  0.38054685390E+00  0.00000000000E+00 0. -1.
          1    1    1    2  502    0  0.21508940011E+02 -0.35021695251E+01  0.53164445333E+03  0.53209089867E+03  0.00000000000E+00 0.  1.
         -1    1    1    2    0  501 -0.21508940011E+02  0.35021695251E+01  0.75449412429E+03  0.75480877266E+03  0.00000000000E+00 0. -1.
</event>
<event>
 4    1  0.6754235E+001  0.2548878E+02  0.7546771E-02  0.1463409E+00
          2   -1    0    0  502    0  0.00000000000E+00  0.00000000000E+00  0.77321564186E+01  0.77321564186E+01  0.00000000000E+00 0.  1.
         -2   -1    0    0    0  501 -0.00000000000E+00 -0.00000000000E+00 -0.97417662751E+02  0.97417662751E+02  0.00000000000E+00 0. -1.
          1    1    1    2  502    0  0.83078938545E+01  0.24096825326E+02 -0.64337941473E+02  0.69202953724E+02  0.00000000000E+00 0. -1.
         -1    1    1    2    0  501 -0.83078938545E+01 -0.24096825326E+02 -0.25347564859E+02  0.35946865446E+02  0.00000000000E+00 0.  1.
</event>
<event>
 4    1  0.6754235E+001  0.2140511E+02  0.7546771E-02  0.1513559E+00
          2   -1    0    0  502    0  0.00000000000E+00  0.00000000000E+00  0.20039965234E+03  0.20039965234E+03  0.00000000000E+00 0.  1.
         -2   -1    0    0    0  501 -0.00000000000E+00 -0.00000000000E+00 -0.37351316356E+01  0.37351316356E+01  0.00000000000E+00 0. -1.
          1    1    1    2  502    0 -0.14312953090E+02 -0.15915967498E+02  0.34764144304E+02  0.40825535842E+02  0.00000000000E+00 0. -1.
         -1    1    1    2    0  501  0.14312953090E+02  0.15915967498E+02  0.16190037640E+03  0.16330924814E+03  0.00000000000E+00 0.  1.
</event>
<event>
 4    1  0.6754235E+001  0.2173537E+02  0.7546771E-02  0.1509019E+00
          2   -1    0    0  502    0  0.00000000000E+00  0.00000000000E+00  0.18916230094E+04  0.18916230094E+04  0.00000000000E+00 0. -1.
         -2   -1    0    0    0  501 -0.00000000000E+00 -0.00000000000E+00 -0.35217546290E+00  0.35217546290E+00  0.00000000000E+00 0.  1.
          1    1    1    2  502    0 -0.19037114142E+02 -0.10488781286E+02  0.43546266850E+03  0.43600477280E+03  0.00000000000E+00 0.  1.
         -1    1    1    2    0  501  0.19037114142E+02  0.10488781286E+02  0.14558081655E+04  0.14559704121E+04  0.00000000000E+00 0. -1.
</event>
<event>
 4    1  0.6754235E+001  0.2438267E+02  0.7546771E-02  0.1475829E+00
          2   -1    0    0  502    0  0.00000000000E+00  0.00000000000E+00  0.10398806718E+04  0.10398806718E+04  0.00000000000E+00 0. -1.
         -2   -1    0    0    0  501 -0.00000000000E+00 -0.00000000000E+00 -0.19578043982E+01  0.19578043982E+01  0.00000000000E+00 0.  1.
          1    1    1    2  502    0  0.78194759256E+01  0.23094811835E+02  0.95727154989E+03  0.95758202509E+03  0.00000000000E+00 0. -1.
         -1    1    1    2    0  501 -0.78194759256E+01 -0.23094811835E+02  0.80651317466E+02  0.84256451067E+02  0.00000000000E+00 0.  1.
</event>
<event>
 4    1  0.6754235E+001  0.2872558E+02  0.7546771E-02  0.1431004E+00
          2   -1    0    0  502    0  0.00000000000E+00  0.00000000000E+00  0.54201640218E+03  0.54201640218E+03  0.00000000000E+00 0. -1.
         -2   -1    0    0    0  501 -0.00000000000E+00 -0.00000000000E+00 -0.16067642304E+01  0.16067642304E+01  0.00000000000E+00 0.  1.
          1    1    1    2  502    0 -0.47891988150E+01 -0.28323532806E+02  0.20791694440E+03  0.20989191196E+03  0.00000000000E+00 0.  1.
         -1    1    1    2    0  501  0.47891988150E+01  0.28323532806E+02  0.33249269355E+03  0.33373125445E+03  0.00000000000E+00 0. -1.
</event>
<event>
 4    1  0.6754235E+001  0.2412260E+02  0.7546771E-02  0.1478863E+00
          2   -1    0    0  502    0  0.00000000000E+00  0.00000000000E+00  0.10901401325E+04  0.10901401325E+04  0.00000000000E+00 0. -1.
         -2   -1    0    0    0  501 -0.00000000000E+00 -0.00000000000E+00 -0.64533321325E+00  0.64533321325E+00  0.00000000000E+00 0.  1.
          1    1    1    2  502    0  0.23474967866E+02 -0.55520812530E+01  0.77149878410E+03  0.77187581488E+03  0.00000000000E+00 0.  1.
         -1    1    1    2    0  501 -0.23474967866E+02  0.55520812530E+01  0.31799601520E+03  0.31890965085E+03  0.00000000000E+00 0. -1.
</event>
<event>
 4    1  0.6754235E+001  0.2159329E+02  0.7546771E-02  0.1510960E+00
          2   -1    0    0  502    0  0.00000000000E+00  0.00000000000E+00  0.11870623496E+04  0.11870623496E+04  0.00000000000E+00 0. -1.
         -2   -1    0    0    0  501 -0.00000000000E+00 -0.00000000000E+00 -0.47625043071E+00  0.47625043071E+00  0.00000000000E+00 0.  1.
          1    1    1    2  502    0 -0.21432552954E+02  0.26298257774E+01  0.84185313874E+03  0.84213002412E+03  0.00000000000E+00 0. -1.
         -1    1    1    2    0  501  0.21432552954E+02 -0.26298257774E+01  0.34473296046E+03  0.34540857595E+03  0.00000000000E+00 0.  1.
</event>
<event>
 4    1  0.6754235E+001  0.2052602E+02  0.7546771E-02  0.1526141E+00
          2   -1    0    0  502    0  0.00000000000E+00  0.00000000000E+00  0.96599482999E+02  0.96599482999E+02  0.00000000000E+00 0.  1.
         -2   -1    0    0    0  501 -0.00000000000E+00 -0.00000000000E+00 -0.86253082436E+01  0.86253082436E+01  0.00000000000E+00 0. -1.
          1    1    1    2  502    0  0.70146045370E+01  0.19290229101E+02  0.80978433883E+02  0.83539358207E+02  0.00000000000E+00 0.  1.
         -1    1    1    2    0  501 -0.70146045370E+01 -0.19290229101E+02  0.69957408725E+01  0.21685433035E+02  0.00000000000E+00 0. -1.
</event>
<event>
 4    1  0.6754235E+001  0.2710170E+02  0.7546771E-02  0.1446589E+00
          2   -1    0    0  502    0  0.00000000000E+00  0.00000000000E+00  0.43760246694E+02  0.43760246694E+02  0.00000000000E+00 0.  1.
         -2   -1    0    0    0  501 -0.00000000000E+00 -0.00000000000E+00 -0.16827591112E+02  0.16827591112E+02  0.00000000000E+00 0. -1.
          1    1    1    2  502    0  0.26552360965E+02  0.54290406083E+01  0.11936797881E+02  0.29614008483E+02  0.00000000000E+00 0.  1.
         -1    1    1    2    0  501 -0.26552360965E+02 -0.54290406083E+01  0.14995857700E+02  0.30973829323E+02  0.00000000000E+00 0. -1.
</event>
<event>
 4    1  0.6754235E+001  0.4787371E+02  0.7546771E-02  0.1307664E+00
          2   -1    0    0  502    0  0.00000000000E+00  0.00000000000E+00  0.30816894984E+03  0.30816894984E+03  0.00000000000E+00 0.  1.
         -2   -1    0    0    0  501 -0.00000000000E+00 -0.00000000000E+00 -0.74950489910E+01  0.74950489910E+01  0.00000000000E+00 0. -1.
          1    1    1    2  502    0  0.18076970115E+01 -0.47839573768E+02  0.13646243680E+03  0.14461635193E+03  0.00000000000E+00 0.  1.
         -1    1    1    2    0  501 -0.18076970115E+01  0.47839573768E+02  0.16421146405E+03  0.17104764690E+03  0.00000000000E+00 0. -1.
</event>
<event>
 4    1  0.6754235E+001  0.2008439E+02  0.7546771E-02  0.1532750E+00
          2   -1    0    0  502    0  0.00000000000E+00  0.00000000000E+00  0.73776992389E+01  0.73776992389E+01  0.00000000000E+00 0.  1.
         -2   -1    0    0    0  501 -0.00000000000E+00 -0.00000000000E+00 -0.56347941676E+02  0.56347941676E+02  0.00000000000E+00 0. -1.
          1    1    1    2  502    0 -0.17175809373E+02 -0.10410294395E+02 -0.29973742424E+02  0.36080574994E+02  0.00000000000E+00 0.  1.
         -1    1    1    2    0  501  0.17175809373E+02  0.10410294395E+02 -0.18996500013E+02  0.27645065921E+02  0.00000000000E+00 0. -1.
</event>
<event>
 4    1  0.6754235E+001  0.2011231E+02  0.7546771E-02  0.1532326E+00
          2   -1    0    0  502    0  0.00000000000E+00  0.00000000000E+00  0.78383605814E+02  0.78383605814E+02  0.00000000000E+00 0.  1.
         -2   -1    0    0    0  501 -0.00000000000E+00 -0.00000000000E+00 -0.98193939347E+01  0.98193939347E+01  0.00000000000E+00 0. -1.
          1    1    1    2  502    0 -0.89104961208E+01 -0.18030752367E+02  0.39048430596E+01  0.20487868883E+02  0.00000000000E+00 0. -1.
         -1    1    1    2    0  501  0.89104961208E+01  0.18030752367E+02  0.64659368820E+02  0.67715130866E+02  0.00000000000E+00 0.  1.
</event>
<event>
 4    1  0.6754235E+001  0.2978571E+02  0.7546771E-02  0.1421468E+00
          2   -1    0    0  502    0  0.00000000000E+00  0.00000000000E+00  0.19487188711E+03  0.19487188711E+03  0.00000000000E+00 0. -1.
         -2   -1    0    0    0  501 -0.00000000000E+00 -0.00000000000E+00 -0.47732025571E+01  0.47732025571E+01  0.00000000000E+00 0.  1.
          1    1    1    2  502    0  0.12672387664E+01  0.29758741110E+02  0.73593076571E+02  0.79392250791E+02  0.00000000000E+00 0. -1.
         -1    1    1    2    0  501 -0.12672387664E+01 -0.29758741110E+02  0.11650560799E+03  0.12025283888E+03  0.00000000000E+00 0.  1.
</event>
<event>
 4    1  0.6754235E+001  0.2008902E+02  0.7546771E-02  0.1532679E+00
          2   -1    0    0  502    0  0.00000000000E+00  0.00000000000E+00  0.10235480165E+03  0.10235480165E+03  0.00000000000E+00 0.  1.
         -2   -1    0    0    0  501 -0.00000000000E+00 -0.00000000000E+00 -0.39576868562E+01  0.39576868562E+01  0.00000000000E+00 0. -1.
          1    1    1    2  502    0  0.86177624107E+01 -0.18146706602E+02  0.52454109333E+02  0.56169407825E+02  0.00000000000E+00 0.  1.
         -1    1    1    2    0  501 -0.86177624107E+01  0.18146706602E+02  0.45943005462E+02  0.50143080683E+02  0.00000000000E+00 0. -1.
</event>
<event>
 4    1  0.6754235E+001  0.2440749E+02  0.7546771E-02  0.1475542E+00
          2   -1    0    0  502    0  0.00000000000E+00  0.00000000000E+00  0.11317013116E+04  0.11317013116E+04  0.00000000000E+00 0. -1.
         -2   -1    0    0    0  501 -0.00000000000E+00 -0.00000000000E+00 -0.55474815397E+00  0.55474815397E+00  0.00000000000E+00 0.  1.
          1    1    1    2  502    0 -0.74256820357E+01 -0.23250476385E+02  0.43759279207E+03  0.43827294814E+03  0.00000000000E+00 0. -1.
         -1    1    1    2    0  501  0.74256820357E+01  0.23250476385E+02  0.69355377142E+03  0.69398311165E+03  0.00000000000E+00 0.  1.
</event>
<event>
 4    1  0.6754235E+001  0.2045415E+02  0.7546771E-02  0.1527203E+00
          2   -1    0    0  502    0  0.00000000000E+00  0.00000000000E+00  0.55685127018E+03  0.55685127018E+03  0.00000000000E+00 0. -1.
         -2   -1    0    0    0  501 -0.00000000000E+00 -0.00000000000E+00 -0.11311221130E+01  0.11311221130E+01  0.00000000000E+00 0.  1.
          1    1    1    2  502    0  0.37730881346E+01  0.20103139599E+02  0.11619524394E+03  0.11798180847E+03  0.00000000000E+00 0.  1.
         -1    1    1    2    0  501 -0.37730881346E+01 -0.20103139599E+02  0.43952490413E+03  0.44000058382E+03  0.00000000000E+00 0. -1.
</event>
<event>
 4    1  0.6754235E+001  0.2031555E+02  0.7546771E-02  0.1529265E+00
          2   -1    0    0  502    0  0.00000000000E+00  0.00000000000E+00  0.17166697394E+04  0.17166697394E+04  0.00000000000E+00 0. -1.
         -2   -1    0    0    0  501 -0.00000000000E+00 -0.00000000000E+00 -0.24912130940E+00  0.24912130940E+00  0.00000000000E+00 0.  1.
          1    1    1    2  502    0 -0.14220400398E+02 -0.14508679096E+02  0.69777155139E+03  0.69806723135E+03  0.00000000000E+00 0.  1.
         -1    1    1    2    0  501  0.14220400398E+02  0.14508679096E+02  0.10186490667E+04  0.10188516293E+04  0.00000000000E+00 0. -1.
</event>
<event>
 4    1  0.6754235E+001  0.2512171E+02  0.7546771E-02  0.1467446E+00
          2   -1    0    0  502    0  0.00000000000E+00  0.00000000000E+00  0.25565223268E+03  0.25565223268E+03  0.00000000000E+00 0.  1.
         -2   -1    0    0    0  501 -0.00000000000E+00 -0.00000000000E+00 -0.24729689103E+01  0.24729689103E+01  0.00000000000E+00 0. -1.
          1    1    1    2  502    0 -0.16206715467E+02  0.19194858038E+02  0.12115786935E+03  0.12373491628E+03  0.00000000000E+00 0.  1.
         -1    1    1    2    0  501  0.16206715467E+02 -0.19194858038E+02  0.13202139442E+03  0.13439028532E+03  0.00000000000E+00 0. -1.
</event>
<event>
 4    1  0.6754235E+001  0.1654272E+03  0.7546771E-02  0.1082777E+00
          2   -1    0    0  502    0  0.00000000000E+00  0.00000000000E+00  0.25631800901E+04  0.25631800901E+04  0.00000000000E+00 0.  1.
         -2   -1    0    0    0  501 -0.00000000000E+00 -0.00000000000E+00 -0.28108958411E+02  0.28108958411E+02  0.00000000000E+00 0. -1.
          1    1    1    2  502    0  0.16143894441E+03  0.36105728984E+02  0.22878664593E+04  0.22938393780E+04  0.00000000000E+00 0.  1.
         -1    1    1    2    0  501 -0.16143894441E+03 -0.36105728984E+02  0.24720467235E+03  0.29744967048E+03  0.00000000000E+00 0. -1.
</event>
<event>
 4    1  0.6754235E+001  0.3644758E+02  0.7546771E-02  0.1370662E+00
          2   -1    0    0  502    0  0.00000000000E+00  0.00000000000E+00  0.16703981773E+03  0.16703981773E+03  0.00000000000E+00 0.  1.
         -2   -1    0    0    0  501 -0.00000000000E+00 -0.00000000000E+00 -0.90262668386E+01  0.90262668386E+01  0.00000000000E+00 0. -1.
          1    1    1    2  502    0  0.18461722609E+02  0.31425958233E+02  0.48647186654E+02  0.60786304559E+02  0.00000000000E+00 0. -1.
         -1    1    1    2    0  501 -0.18461722609E+02 -0.31425958233E+02  0.10936636424E+03  0.11527978001E+03  0.00000000000E+00 0.  1.
</event>
<event>
 4    1  0.6754235E+001  0.2102069E+02  0.7546771E-02  0.1518970E+00
          2   -1    0    0  502    0  0.00000000000E+00  0.00000000000E+00  0.20281931647E+03  0.20281931647E+03  0.00000000000E+00 0. -1.
         -2   -1    0    0    0  501 -0.00000000000E+00 -0.00000000000E+00 -0.23548094596E+01  0.23548094596E+01  0.00000000000E+00 0.  1.
          1    1    1    2  502    0 -0.16072789978E+02 -0.13547504193E+02  0.12829208471E+03  0.13000280169E+03  0.00000000000E+00 0. -1.
         -1    1    1    2    0  501  0.16072789978E+02  0.13547504193E+02  0.72172422299E+02  0.75171324241E+02  0.00000000000E+00 0.  1.
</event>
<event>
 4    1  0.6754235E+001  0.2895522E+02  0.7546771E-02  0.1428898E+00
          2   -1    0    0  502    0  0.00000000000E+00  0.00000000000E+00  0.98965642866E+01  0.98965642866E+01  0.00000000000E+00 0.  1.
         -2   -1    0    0    0  501 -0.00000000000E+00 -0.00000000000E+00 -0.91127095994E+02  0.91127095994E+02  0.00000000000E+00 0. -1.
          1    1    1    2  502    0 -0.26615649919E+02  0.11402280321E+02 -0.54012337729E+02  0.61284071700E+02  0.00000000000E+00 0. -1.
         -1    1    1    2    0  501  0.26615649919E+02 -0.11402280321E+02 -0.27218193979E+02  0.39739588581E+02  0.00000000000E+00 0.  1.
</event>
<event>
 4    1  0.6754235E+001  0.2110231E+02  0.7546771E-02  0.1517809E+00
          2   -1    0    0  502    0  0.00000000000E+00  0.00000000000E+00  0.11170504358E+02  0.11170504358E+02  0.00000000000E+00 0. -1.
         -2   -1    0    0    0  501 -0.00000000000E+00 -0.00000000000E+00 -0.82164544075E+02  0.82164544075E+02  0.00000000000E+00 0.  1.
          1    1    1    2  502    0 -0.77206244090E+01  0.19639228695E+02 -0.20126144948E+01  0.21198065056E+02  0.00000000000E+00 0. -1.
         -1    1    1    2    0  501  0.77206244090E+01 -0.19639228695E+02 -0.68981425223E+02  0.72136983377E+02  0.00000000000E+00 0.  1.
</event>
<event>
 4    1  0.6754235E+001  0.2102922E+02  0.7546771E-02  0.1518848E+00
          2   -1    0    0  502    0  0.00000000000E+00  0.00000000000E+00  0.11984008023E+04  0.11984008023E+04  0.00000000000E+00 0.  1.
         -2   -1    0    0    0  501 -0.00000000000E+00 -0.00000000000E+00 -0.37279271916E+00  0.37279271916E+00  0.00000000000E+00 0. -1.
          1    1    1    2  502    0 -0.52744443425E+01  0.20357017588E+02  0.53867674205E+03  0.53908706195E+03  0.00000000000E+00 0.  1.
         -1    1    1    2    0  501  0.52744443425E+01 -0.20357017588E+02  0.65935126753E+03  0.65968653308E+03  0.00000000000E+00 0. -1.
</event>
<event>
 4    1  0.6754235E+001  0.2971670E+02  0.7546771E-02  0.1422075E+00
          2   -1    0    0  502    0  0.00000000000E+00  0.00000000000E+00  0.76622961900E+02  0.76622961900E+02  0.00000000000E+00 0. -1.
         -2   -1    0    0    0  501 -0.00000000000E+00 -0.00000000000E+00 -0.25338370738E+02  0.25338370738E+02  0.00000000000E+00 0.  1.
          1    1    1    2  502    0  0.25233420905E+02  0.15695746561E+02  0.63283673687E+02  0.69913556239E+02  0.00000000000E+00 0. -1.
         -1    1    1    2    0  501 -0.25233420905E+02 -0.15695746561E+02 -0.11999082526E+02  0.32047776399E+02  0.00000000000E+00 0.  1.
</event>
<event>
 4    1  0.6754235E+001  0.2726241E+02  0.7546771E-02  0.1444990E+00
          2   -1    0    0  502    0  0.00000000000E+00  0.00000000000E+00  0.17324562368E+04  0.17324562368E+04  0.00000000000E+00 0. -1.
         -2   -1    0    0    0  501 -0.00000000000E+00 -0.00000000000E+00 -0.50289367723E+00  0.50289367723E+00  0.00000000000E+00 0.  1.
          1    1    1    2  502    0 -0.17037481958E+02 -0.21282934214E+02  0.11980988136E+04  0.11984089478E+04  0.00000000000E+00 0. -1.
         -1    1    1    2    0  501  0.17037481958E+02  0.21282934214E+02  0.53385452952E+03  0.53455018265E+03  0.00000000000E+00 0.  1.
</event>
<event>
 4    1  0.6754235E+001  0.2629669E+02  0.7546771E-02  0.1454804E+00
          2   -1    0    0  502    0  0.00000000000E+00  0.00000000000E+00  0.28402619653E+03  0.28402619653E+03  0.00000000000E+00 0. -1.
         -2   -1    0    0    0  501 -0.00000000000E+00 -0.00000000000E+00 -0.28147665342E+01  0.28147665342E+01  0.00000000000E+00 0.  1.
          1    1    1    2  502    0  0.72045392424E+01 -0.25290519236E+02  0.87903908954E+02  0.91752999724E+02  0.00000000000E+00 0.  1.
         -1    1    1    2    0  501 -0.72045392424E+01  0.25290519236E+02  0.19330752104E+03  0.19508796334E+03  0.00000000000E+00 0. -1.
</event>
<event>
 4    1  0.6754235E+001  0.2826491E+02  0.7546771E-02  0.1435300E+00
          2   -1    0    0  502    0  0.00000000000E+00  0.00000000000E+00  0.16048393580E+04  0.16048393580E+04  0.00000000000E+00 0. -1.
         -2   -1    0    0    0  501 -0.00000000000E+00 -0.00000000000E+00 -0.49907330494E+00  0.49907330494E+00  0.00000000000E+00 0.  1.
          1    1    1    2  502    0  0.21135245233E+02  0.18767162736E+02  0.84255499035E+03  0.84302895369E+03  0.00000000000E+00 0.  1.
         -1    1    1    2    0  501 -0.21135245233E+02 -0.18767162736E+02  0.76178529438E+03  0.76230947765E+03  0.00000000000E+00 0. -1.
</event>
<event>
 4    1  0.6754235E+001  0.2544762E+02  0.7546771E-02  0.1463858E+00
          2   -1    0    0  502    0  0.00000000000E+00  0.00000000000E+00  0.14615039554E+04  0.14615039554E+04  0.00000000000E+00 0. -1.
         -2   -1    0    0    0  501 -0.00000000000E+00 -0.00000000000E+00 -0.48139394278E+00  0.48139394278E+00  0.00000000000E+00 0.  1.
          1    1    1    2  502    0 -0.21904054419E+02 -0.12953532442E+02  0.93670225706E+03  0.93704786430E+03  0.00000000000E+00 0. -1.
         -1    1    1    2    0  501  0.21904054419E+02  0.12953532442E+02  0.52432030435E+03  0.52493748500E+03  0.00000000000E+00 0.  1.
</event>
<event>
 4    1  0.6754235E+001  0.4368679E+02  0.7546771E-02  0.1328138E+00
          2   -1    0    0  502    0  0.00000000000E+00  0.00000000000E+00  0.17519090852E+04  0.17519090852E+04  0.00000000000E+00 0. -1.
         -2   -1    0    0    0  501 -0.00000000000E+00 -0.00000000000E+00 -0.45349588487E+01  0.45349588487E+01  0.00000000000E+00 0.  1.
          1    1    1    2  502    0  0.34564593425E+02 -0.26717494338E+02  0.16391907256E+04  0.16397727801E+04  0.00000000000E+00 0. -1.
         -1    1    1    2    0  501 -0.34564593425E+02  0.26717494338E+02  0.10818340077E+03  0.11667126392E+03  0.00000000000E+00 0.  1.
</event>
<event>
 4    1  0.6754235E+001  0.2657683E+02  0.7546771E-02  0.1451906E+00
          2   -1    0    0  502    0  0.00000000000E+00  0.00000000000E+00  0.51164819695E+03  0.51164819695E+03  0.00000000000E+00 0. -1.
         -2   -1    0    0    0  501 -0.00000000000E+00 -0.00000000000E+00 -0.13922541050E+01  0.13922541050E+01  0.00000000000E+00 0.  1.
          1    1    1    2  502    0  0.25641407468E+02  0.69889926984E+01  0.23155312694E+03  0.23307333264E+03  0.00000000000E+00 0.  1.
         -1    1    1    2    0  501 -0.25641407468E+02 -0.69889926984E+01  0.27870281591E+03  0.27996711841E+03  0.00000000000E+00 0. -1.
</event>
<event>
 4    1  0.6754235E+001  0.3066979E+02  0.7546771E-02  0.1413864E+00
          2   -1    0    0  502    0  0.00000000000E+00  0.00000000000E+00  0.23088415040E+03  0.23088415040E+03  0.00000000000E+00 0. -1.
         -2   -1    0    0    0  501 -0.00000000000E+00 -0.00000000000E+00 -0.68129189727E+01  0.68129189727E+01  0.00000000000E+00 0.  1.
          1    1    1    2  502    0 -0.19507596169E+02  0.23666208943E+02  0.18739061998E+03  0.18988385979E+03  0.00000000000E+00 0. -1.
         -1    1    1    2    0  501  0.19507596169E+02 -0.23666208943E+02  0.36680611448E+02  0.47813209579E+02  0.00000000000E+00 0.  1.
</event>
<event>
 4    1  0.6754235E+001  0.2455918E+02  0.7546771E-02  0.1473796E+00
          2   -1    0    0  502    0  0.00000000000E+00  0.00000000000E+00  0.10724785240E+04  0.10724785240E+04  0.00000000000E+00 0.  1.
         -2   -1    0    0    0  501 -0.00000000000E+00 -0.00000000000E+00 -0.14835264801E+01  0.14835264801E+01  0.00000000000E+00 0. -1.
          1    1    1    2  502    0 -0.17696971294E+02 -0.17028515091E+02  0.11236843503E+03  0.11502094726E+03  0.00000000000E+00 0. -1.
         -1    1    1    2    0  501  0.17696971294E+02  0.17028515091E+02  0.95862656252E+03  0.95894110325E+03  0.00000000000E+00 0.  1.
</event>
<event>
 4    1  0.6754235E+001  0.2302213E+02  0.7546771E-02  0.1492220E+00
          2   -1    0    0  502    0  0.00000000000E+00  0.00000000000E+00  0.17238565250E+03  0.17238565250E+03  0.00000000000E+00 0. -1.
         -2   -1    0    0    0  501 -0.00000000000E+00 -0.00000000000E+00 -0.43352900722E+01  0.43352900722E+01  0.00000000000E+00 0.  1.
          1    1    1    2  502    0 -0.36690553666E+01  0.22727879902E+02  0.13167393491E+03  0.13367140168E+03  0.00000000000E+00 0. -1.
         -1    1    1    2    0  501  0.36690553666E+01 -0.22727879902E+02  0.36376427514E+02  0.43049540890E+02  0.00000000000E+00 0.  1.
</event>
<event>
 4    1  0.6754235E+001  0.3264103E+02  0.7546771E-02  0.1397952E+00
          2   -1    0    0  502    0  0.00000000000E+00  0.00000000000E+00  0.69257321481E+03  0.69257321481E+03  0.00000000000E+00 0.  1.
         -2   -1    0    0    0  501 -0.00000000000E+00 -0.00000000000E+00 -0.15391594441E+01  0.15391594441E+01  0.00000000000E+00 0. -1.
          1    1    1    2  502    0 -0.22379819162E+02 -0.23760907650E+02  0.35335405541E+03  0.35485845842E+03  0.00000000000E+00 0.  1.
         -1    1    1    2    0  501  0.22379819162E+02  0.23760907650E+02  0.33767999996E+03  0.33925391584E+03  0.00000000000E+00 0. -1.
</event>
<event>
 4    1  0.6754235E+001  0.2208107E+02  0.7546771E-02  0.1504371E+00
          2   -1    0    0  502    0  0.00000000000E+00  0.00000000000E+00  0.65788841358E+03  0.65788841358E+03  0.00000000000E+00 0.  1.
         -2   -1    0    0    0  501 -0.00000000000E+00 -0.00000000000E+00 -0.11186753632E+01  0.11186753632E+01  0.00000000000E+00 0. -1.
          1    1    1    2  502    0  0.14023575286E+02 -0.17056172053E+02  0.51980997388E+03  0.52027875473E+03  0.00000000000E+00 0.  1.
         -1    1    1    2    0  501 -0.14023575286E+02  0.17056172053E+02  0.13695976433E+03  0.13872833422E+03  0.00000000000E+00 0. -1.
</event>
<event>
 4    1  0.6754235E+001  0.2003340E+02  0.7546771E-02  0.1533526E+00
          2   -1    0    0  502    0  0.00000000000E+00  0.00000000000E+00  0.12322574705E+04  0.12322574705E+04  0.00000000000E+00 0. -1.
         -2   -1    0    0    0  501 -0.00000000000E+00 -0.00000000000E+00 -0.45224561144E+00  0.45224561144E+00  0.00000000000E+00 0.  1.
          1    1    1    2  502    0  0.15233296295E+02 -0.13010911331E+02  0.28985584528E+03  0.29054732519E+03  0.00000000000E+00 0.  1.
         -1    1    1    2    0  501 -0.15233296295E+02  0.13010911331E+02  0.94194937963E+03  0.94216239095E+03  0.00000000000E+00 0. -1.
</event>
<event>
 4    1  0.6754235E+001  0.2115520E+02  0.7546771E-02  0.1517060E+00
          2   -1    0    0  502    0  0.00000000000E+00  0.00000000000E+00  0.67314203650E+03  0.67314203650E+03  0.00000000000E+00 0. -1.
         -2   -1    0    0    0  501 -0.00000000000E+00 -0.00000000000E+00 -0.66489427932E+00  0.66489427932E+00  0.00000000000E+00 0.  1.
          1    1    1    2  502    0  0.21120120603E+02 -0.12177510732E+01  0.33880031222E+03  0.33946015079E+03  0.00000000000E+00 0.  1.
         -1    1    1    2    0  501 -0.21120120603E+02  0.12177510732E+01  0.33367683000E+03  0.33434678000E+03  0.00000000000E+00 0. -1.
</event>
<event>
 4    1  0.6754235E+001  0.3283767E+02  0.7546771E-02  0.1396437E+00
          2   -1    0    0  502    0  0.00000000000E+00  0.00000000000E+00  0.17460057274E+04  0.17460057274E+04  0.00000000000E+00 0. -1.
         -2   -1    0    0    0  501 -0.00000000000E+00 -0.00000000000E+00 -0.81479539982E+00  0.81479539982E+00  0.00000000000E+00 0.  1.
          1    1    1    2  502    0 -0.32832637730E+02  0.57513206437E+00  0.13022853930E+04  0.13026993351E+04  0.00000000000E+00 0. -1.
         -1    1    1    2    0  501  0.32832637730E+02 -0.57513206437E+00  0.44290553900E+03  0.44412118769E+03  0.00000000000E+00 0.  1.
</event>
<event>
 4    1  0.6754235E+001  0.3928831E+02  0.7546771E-02  0.1352708E+00
          2   -1    0    0  502    0  0.00000000000E+00  0.00000000000E+00  0.23808787748E+04  0.23808787748E+04  0.00000000000E+00 0.  1.
         -2   -1    0    0    0  501 -0.00000000000E+00 -0.00000000000E+00 -0.67660489091E+00  0.67660489091E+00  0.00000000000E+00 0. -1.
          1    1    1    2  502    0 -0.31507182282E+02  0.23470586561E+02  0.94663328446E+03  0.94744822878E+03  0.00000000000E+00 0.  1.
         -1    1    1    2    0  501  0.31507182282E+02 -0.23470586561E+02  0.14335688854E+04  0.14341071509E+04  0.00000000000E+00 0. -1.
</event>
<event>
 4    1  0.6754235E+001  0.4417767E+02  0.7546771E-02  0.1325603E+00
          2   -1    0    0  502    0  0.00000000000E+00  0.00000000000E+00  0.36434497932E+04  0.36434497932E+04  0.00000000000E+00 0.  1.
         -2   -1    0    0    0  501 -0.00000000000E+00 -0.00000000000E+00 -0.55715584304E+00  0.55715584304E+00  0.00000000000E+00 0. -1.
          1    1    1    2  502    0  0.26569844234E+02 -0.35294618223E+02  0.21792894388E+04  0.21797371688E+04  0.00000000000E+00 0.  1.
         -1    1    1    2    0  501 -0.26569844234E+02  0.35294618223E+02  0.14636031985E+04  0.14642697803E+04  0.00000000000E+00 0. -1.
</event>
<event>
 4    1  0.6754235E+001  0.2058882E+02  0.7546771E-02  0.1525217E+00
          2   -1    0    0  502    0  0.00000000000E+00  0.00000000000E+00  0.65744227203E+01  0.65744227203E+01  0.00000000000E+00 0.  1.
         -2   -1    0    0    0  501 -0.00000000000E+00 -0.00000000000E+00 -0.64815378669E+02  0.64815378669E+02  0.00000000000E+00 0. -1.
          1    1    1    2  502    0 -0.19659349469E+02  0.61163345693E+01 -0.26541674621E+02  0.33591071162E+02  0.00000000000E+00 0.  1.
         -1    1    1    2    0  501  0.19659349469E+02 -0.61163345693E+01 -0.31699281328E+02  0.37798730227E+02  0.00000000000E+00 0. -1.
</event>
<event>
 4    1  0.6754235E+001  0.2672570E+02  0.7546771E-02  0.1450383E+00
          2   -1    0    0  502    0  0.00000000000E+00  0.00000000000E+00  0.63848659774E+03  0.63848659774E+03  0.00000000000E+00 0. -1.
         -2   -1    0    0    0  501 -0.00000000000E+00 -0.00000000000E+00 -0.40706926859E+01  0.40706926859E+01  0.00000000000E+00 0.  1.
          1    1    1    2  502    0  0.20106228599E+02 -0.17606896150E+02  0.43613874980E+02  0.51151083188E+02  0.00000000000E+00 0.  1.
         -1    1    1    2    0  501 -0.20106228599E+02  0.17606896150E+02  0.59080203008E+03  0.59140620724E+03  0.00000000000E+00 0. -1.
</event>
<event>
 4    1  0.6754235E+001  0.2150932E+02  0.7546771E-02  0.1512116E+00
          2   -1    0    0  502    0  0.00000000000E+00  0.00000000000E+00  0.10470968204E+01  0.10470968204E+01  0.00000000000E+00 0.  1.
         -2   -1    0    0    0  501 -0.00000000000E+00 -0.00000000000E+00 -0.44449948547E+03  0.44449948547E+03  0.00000000000E+00 0. -1.
          1    1    1    2  502    0  0.33946259520E+01 -0.21239759659E+02 -0.20449956913E+03  0.20562763591E+03  0.00000000000E+00 0. -1.
         -1    1    1    2    0  501 -0.33946259520E+01  0.21239759659E+02 -0.23895281952E+03  0.23991894638E+03  0.00000000000E+00 0.  1.
</event>
<event>
 4    1  0.6754235E+001  0.2654717E+02  0.7546771E-02  0.1452211E+00
          2   -1    0    0  502    0  0.00000000000E+00  0.00000000000E+00  0.10176690240E+02  0.10176690240E+02  0.00000000000E+00 0. -1.
         -2   -1    0    0    0  501 -0.00000000000E+00 -0.00000000000E+00 -0.82754011058E+02  0.82754011058E+02  0.00000000000E+00 0.  1.
          1    1    1    2  502    0  0.22662241730E+02 -0.13826614424E+02 -0.17519720373E+02  0.31807122922E+02  0.00000000000E+00 0. -1.
         -1    1    1    2    0  501 -0.22662241730E+02  0.13826614424E+02 -0.55057600445E+02  0.61123578376E+02  0.00000000000E+00 0.  1.
</event>
<event>
 4    1  0.6754235E+001  0.2409255E+02  0.7546771E-02  0.1479216E+00
          2   -1    0    0  502    0  0.00000000000E+00  0.00000000000E+00  0.19928002997E+03  0.19928002997E+03  0.00000000000E+00 0. -1.
         -2   -1    0    0    0  501 -0.00000000000E+00 -0.00000000000E+00 -0.29960698500E+01  0.29960698500E+01  0.00000000000E+00 0.  1.
          1    1    1    2  502    0 -0.21165807310E+02  0.11509116189E+02  0.81275060666E+02  0.84770788841E+02  0.00000000000E+00 0.  1.
         -1    1    1    2    0  501  0.21165807310E+02 -0.11509116189E+02  0.11500889945E+03  0.11750531098E+03  0.00000000000E+00 0. -1.
</event>
<event>
 4    1  0.6754235E+001  0.2887710E+02  0.7546771E-02  0.1429612E+00
          2   -1    0    0  502    0  0.00000000000E+00  0.00000000000E+00  0.14508687338E+03  0.14508687338E+03  0.00000000000E+00 0. -1.
         -2   -1    0    0    0  501 -0.00000000000E+00 -0.00000000000E+00 -0.77689281106E+01  0.77689281106E+01  0.00000000000E+00 0.  1.
          1    1    1    2  502    0  0.27078688060E+02  0.10031514198E+02  0.29673692103E+02  0.41405490303E+02  0.00000000000E+00 0.  1.
         -1    1    1    2    0  501 -0.27078688060E+02 -0.10031514198E+02  0.10764425317E+03  0.11145031119E+03  0.00000000000E+00 0. -1.
</event>
<event>
 4    1  0.6754235E+001  0.2662763E+02  0.7546771E-02  0.1451385E+00
          2   -1    0    0  502    0  0.00000000000E+00  0.00000000000E+00  0.32158566647E+04  0.32158566647E+04  0.00000000000E+00 0. -1.
         -2   -1    0    0    0  501 -0.00000000000E+00 -0.00000000000E+00 -0.22850088734E+00  0.22850088734E+00  0.00000000000E+00 0.  1.
          1    1    1    2  502    0  0.17900479463E+02  0.19713026186E+02  0.13065290694E+04  0.13068003825E+04  0.00000000000E+00 0.  1.
         -1    1    1    2    0  501 -0.17900479463E+02 -0.19713026186E+02  0.19090990945E+04  0.19092847831E+04  0.00000000000E+00 0. -1.
</event>
<event>
 4    1  0.6754235E+001  0.2270440E+02  0.7546771E-02  0.1496244E+00
          2   -1    0    0  502    0  0.00000000000E+00  0.00000000000E+00  0.22383694647E+04  0.22383694647E+04  0.00000000000E+00 0.  1.
         -2   -1    0    0    0  501 -0.00000000000E+00 -0.00000000000E+00 -0.23167261928E+00  0.23167261928E+00  0.00000000000E+00 0. -1.
          1    1    1    2  502    0  0.13539482330E+01 -0.22663995058E+02  0.12053177222E+04  0.12055315430E+04  0.00000000000E+00 0. -1.
         -1    1    1    2    0  501 -0.13539482330E+01  0.22663995058E+02  0.10328200699E+04  0.10330695943E+04  0.00000000000E+00 0.  1.
</event>
<event>
 4    1  0.6754235E+001  0.2174743E+02  0.7546771E-02  0.1508856E+00
          2   -1    0    0  502    0  0.00000000000E+00  0.00000000000E+00  0.60363929565E+03  0.60363929565E+03  0.00000000000E+00 0. -1.
         -2   -1    0    0    0  501 -0.00000000000E+00 -0.00000000000E+00 -0.86757686008E+00  0.86757686008E+00  0.00000000000E+00 0.  1.
          1    1    1    2  502    0 -0.17382567604E+02  0.13068932032E+02  0.20729255816E+03  0.20843021689E+03  0.00000000000E+00 0.  1.
         -1    1    1    2    0  501  0.17382567604E+02 -0.13068932032E+02  0.39547916063E+03  0.39607665563E+03  0.00000000000E+00 0. -1.
</event>
<event>
 4    1  0.6754235E+001  0.2262831E+02  0.7546771E-02  0.1497219E+00
          2   -1    0    0  502    0  0.00000000000E+00  0.00000000000E+00  0.32188603235E+01  0.32188603235E+01  0.00000000000E+00 0.  1.
         -2   -1    0    0    0  501 -0.00000000000E+00 -0.00000000000E+00 -0.16403082610E+03  0.16403082610E+03  0.00000000000E+00 0. -1.
          1    1    1    2  502    0  0.18973862050E+02 -0.12330158967E+02 -0.94941478936E+02  0.97600843663E+02  0.00000000000E+00 0.  1.
         -1    1    1    2    0  501 -0.18973862050E+02  0.12330158967E+02 -0.65870486843E+02  0.69648842763E+02  0.00000000000E+00 0. -1.
</event>
<event>
 4    1  0.6754235E+001  0.2383073E+02  0.7546771E-02  0.1482322E+00
          2   -1    0    0  502    0  0.00000000000E+00  0.00000000000E+00  0.46333145437E+01  0.46333145437E+01  0.00000000000E+00 0. -1.
         -2   -1    0    0    0  501 -0.00000000000E+00 -0.00000000000E+00 -0.15194467767E+03  0.15194467767E+03  0.00000000000E+00 0.  1.
          1    1    1    2  502    0  0.22819312082E+02 -0.68689619754E+01 -0.10807856759E+03  0.11067466022E+03  0.00000000000E+00 0.  1.
         -1    1    1    2    0  501 -0.22819312082E+02  0.68689619754E+01 -0.39232795537E+02  0.45903331994E+02  0.00000000000E+00 0. -1.
</event>
<event>
 4    1  0.6754235E+001  0.2608618E+02  0.7546771E-02  0.1457010E+00
          2   -1    0    0  502    0  0.00000000000E+00  0.00000000000E+00  0.53213713893E+03  0.53213713893E+03  0.00000000000E+00 0.  1.
         -2   -1    0    0    0  501 -0.00000000000E+00 -0.00000000000E+00 -0.16438959764E+01  0.16438959764E+01  0.00000000000E+00 0. -1.
          1    1    1    2  502    0 -0.22335011990E+02 -0.13477235669E+02  0.39102581697E+03  0.39189498361E+03  0.00000000000E+00 0.  1.
         -1    1    1    2    0  501  0.22335011990E+02  0.13477235669E+02  0.13946742598E+03  0.14188605130E+03  0.00000000000E+00 0. -1.
</event>
<event>
 4    1  0.6754235E+001  0.4467074E+02  0.7546771E-02  0.1323094E+00
          2   -1    0    0  502    0  0.00000000000E+00  0.00000000000E+00  0.57710674932E+01  0.57710674932E+01  0.00000000000E+00 0. -1.
         -2   -1    0    0    0  501 -0.00000000000E+00 -0.00000000000E+00 -0.56284554081E+03  0.56284554081E+03  0.00000000000E+00 0.  1.
          1    1    1    2  502    0 -0.44219259205E+02 -0.63350222249E+01 -0.10197490481E+03  0.11132994477E+03  0.00000000000E+00 0. -1.
         -1    1    1    2    0  501  0.44219259205E+02  0.63350222249E+01 -0.45509956851E+03  0.45728666354E+03  0.00000000000E+00 0.  1.
</event>
<event>
 4    1  0.6754235E+001  0.2227103E+02  0.7546771E-02  0.1501860E+00
          2   -1    0    0  502    0  0.00000000000E+00  0.00000000000E+00  0.39655273059E+02  0.39655273059E+02  0.00000000000E+00 0.  1.
         -2   -1    0    0    0  501 -0.00000000000E+00 -0.00000000000E+00 -0.12859544785E+02  0.12859544785E+02  0.00000000000E+00 0. -1.
          1    1    1    2  502    0  0.12916753694E+02  0.18142660921E+02  0.17740736648E+02  0.28473363133E+02  0.00000000000E+00 0.  1.
         -1    1    1    2    0  501 -0.12916753694E+02 -0.18142660921E+02  0.90549916254E+01  0.24041454711E+02  0.00000000000E+00 0. -1.
</event>
<event>
 4    1  0.6754235E+001  0.2254902E+02  0.7546771E-02  0.1498240E+00
          2   -1    0    0  502    0  0.00000000000E+00  0.00000000000E+00  0.55958430185E+02  0.55958430185E+02  0.00000000000E+00 0. -1.
         -2   -1    0    0    0  501 -0.00000000000E+00 -0.00000000000E+00 -0.18092945161E+02  0.18092945161E+02  0.00000000000E+00 0.  1.
          1    1    1    2  502    0 -0.22110951373E+02  0.44231214846E+01  0.45056082041E+02  0.50383615424E+02  0.00000000000E+00 0. -1.
         -1    1    1    2    0  501  0.22110951373E+02 -0.44231214846E+01 -0.71905970173E+01  0.23667759922E+02  0.00000000000E+00 0.  1.
</event>
<event>
 4    1  0.6754235E+001  0.5750768E+02  0.7546771E-02  0.1268544E+00
          2   -1    0    0  502    0  0.00000000000E+00  0.00000000000E+00  0.10378242065E+04  0.10378242065E+04  0.00000000000E+00 0.  1.
         -2   -1    0    0    0  501 -0.00000000000E+00 -0.00000000000E+00 -0.32321494931E+01  0.32321494931E+01  0.00000000000E+00 0. -1.
          1    1    1    2  502    0 -0.23241526496E+02 -0.52601949033E+02  0.45550483099E+03  0.45912066459E+03  0.00000000000E+00 0.  1.
         -1    1    1    2    0  501  0.23241526496E+02  0.52601949033E+02  0.57908722603E+03  0.58193569142E+03  0.00000000000E+00 0. -1.
</event>
<event>
 4    1  0.6754235E+001  0.4409195E+02  0.7546771E-02  0.1326043E+00
          2   -1    0    0  502    0  0.00000000000E+00  0.00000000000E+00  0.49106139938E+03  0.49106139938E+03  0.00000000000E+00 0.  1.
         -2   -1    0    0    0  501 -0.00000000000E+00 -0.00000000000E+00 -0.46604999286E+01  0.46604999286E+01  0.00000000000E+00 0. -1.
          1    1    1    2  502    0  0.21490381020E+02 -0.38500172988E+02  0.14703625148E+03  0.15350491538E+03  0.00000000000E+00 0.  1.
         -1    1    1    2    0  501 -0.21490381020E+02  0.38500172988E+02  0.33936464797E+03  0.34221698392E+03  0.00000000000E+00 0. -1.
</event>
<event>
 4    1  0.6754235E+001  0.4358677E+02  0.7546771E-02  0.1328659E+00
          2   -1    0    0  502    0  0.00000000000E+00  0.00000000000E+00  0.30745895964E+04  0.30745895964E+04  0.00000000000E+00 0. -1.
         -2   -1    0    0    0  501 -0.00000000000E+00 -0.00000000000E+00 -0.76116230073E+00  0.76116230073E+00  0.00000000000E+00 0.  1.
          1    1    1    2  502    0  0.21475753129E+02  0.37928862784E+02  0.22040024251E+04  0.22044333731E+04  0.00000000000E+00 0. -1.
         -1    1    1    2    0  501 -0.21475753129E+02 -0.37928862784E+02  0.86982600903E+03  0.87091738563E+03  0.00000000000E+00 0.  1.
</event>
<event>
 4    1  0.6754235E+001  0.2065928E+02  0.7546771E-02  0.1524185E+00
          2   -1    0    0  502    0  0.00000000000E+00  0.00000000000E+00  0.34682283466E+02  0.34682283466E+02  0.00000000000E+00 0.  1.
         -2   -1    0    0    0  501 -0.00000000000E+00 -0.00000000000E+00 -0.25026184944E+02  0.25026184944E+02  0.00000000000E+00 0. -1.
          1    1    1    2  502    0  0.20251855524E+02 -0.40826677617E+01  0.26112014627E+02  0.33296293129E+02  0.00000000000E+00 0. -1.
         -1    1    1    2    0  501 -0.20251855524E+02  0.40826677617E+01 -0.16455916105E+02  0.26412175281E+02  0.00000000000E+00 0.  1.
</event>
<event>
 4    1  0.6754235E+001  0.2262287E+02  0.7546771E-02  0.1497289E+00
          2   -1    0    0  502    0  0.00000000000E+00  0.00000000000E+00  0.12163001704E+02  0.12163001704E+02  0.00000000000E+00 0.  1.
         -2   -1    0    0    0  501 -0.00000000000E+00 -0.00000000000E+00 -0.44026302352E+02  0.44026302352E+02  0.00000000000E+00 0. -1.
          1    1    1    2  502    0 -0.22521821822E+02 -0.21358343201E+01 -0.21841829820E+02  0.31446140881E+02  0.00000000000E+00 0. -1.
         -1    1    1    2    0  501  0.22521821822E+02  0.21358343201E+01 -0.10021470828E+02  0.24743163176E+02  0.00000000000E+00 0.  1.
</event>
<event>
 4    1  0.6754235E+001  0.3236973E+02  0.7546771E-02  0.1400062E+00
          2   -1    0    0  502    0  0.00000000000E+00  0.00000000000E+00  0.66869639276E+00  0.66869639276E+00  0.00000000000E+00 0.  1.
         -2   -1    0    0    0  501 -0.00000000000E+00 -0.00000000000E+00 -0.18818832163E+04  0.18818832163E+04  0.00000000000E+00 0. -1.
          1    1    1    2  502    0 -0.68041025743E+01 -0.31646546871E+02 -0.13256814179E+04  0.13260765519E+04  0.00000000000E+00 0. -1.
         -1    1    1    2    0  501  0.68041025743E+01  0.31646546871E+02 -0.55553310200E+03  0.55647536078E+03  0.00000000000E+00 0.  1.
</event>
<event>
 4    1  0.6754235E+001  0.2334272E+02  0.7546771E-02  0.1488239E+00
          2   -1    0    0  502    0  0.00000000000E+00  0.00000000000E+00  0.16437807578E+04  0.16437807578E+04  0.00000000000E+00 0. -1.
         -2   -1    0    0    0  501 -0.00000000000E+00 -0.00000000000E+00 -0.41344740926E+00  0.41344740926E+00  0.00000000000E+00 0.  1.
          1    1    1    2  502    0 -0.18761854215E+02 -0.13887966952E+02  0.11877247035E+04  0.11879540623E+04  0.00000000000E+00 0. -1.
         -1    1    1    2    0  501  0.18761854215E+02  0.13887966952E+02  0.45564260685E+03  0.45624014288E+03  0.00000000000E+00 0.  1.
</event>
<event>
 4    1  0.6754235E+001  0.2611033E+02  0.7546771E-02  0.1456756E+00
          2   -1    0    0  502    0  0.00000000000E+00  0.00000000000E+00  0.85960235107E+02  0.85960235107E+02  0.00000000000E+00 0. -1.
         -2   -1    0    0    0  501 -0.00000000000E+00 -0.00000000000E+00 -0.11833976839E+02  0.11833976839E+02  0.00000000000E+00 0.  1.
          1    1    1    2  502    0 -0.26027998037E+02  0.20718221639E+01  0.65144399658E+02  0.70182205264E+02  0.00000000000E+00 0. -1.
         -1    1    1    2    0  501  0.26027998037E+02 -0.20718221639E+01  0.89818586104E+01  0.27612006682E+02  0.00000000000E+00 0.  1.
</event>
<event>
 4    1  0.6754235E+001  0.2217323E+02  0.7546771E-02  0.1503149E+00
          2   -1    0    0  502    0  0.00000000000E+00  0.00000000000E+00  0.62018734131E+02  0.62018734131E+02  0.00000000000E+00 0. -1.
         -2   -1    0    0    0  501 -0.00000000000E+00 -0.00000000000E+00 -0.24450541495E+02  0.24450541495E+02  0.00000000000E+00 0.  1.
          1    1    1    2  502    0  0.21717151058E+02 -0.44740667721E+01 -0.16757171703E+02  0.27793069767E+02  0.00000000000E+00 0.  1.
         -1    1    1    2    0  501 -0.21717151058E+02  0.44740667721E+01  0.54325364339E+02  0.58676205860E+02  0.00000000000E+00 0. -1.
</event>
<event>
 4    1  0.6754235E+001  0.2274583E+02  0.7546771E-02  0.1495715E+00
          2   -1    0    0  502    0  0.00000000000E+00  0.00000000000E+00  0.94791535157E+03  0.94791535157E+03  0.00000000000E+00 0. -1.
         -2   -1    0    0    0  501 -0.00000000000E+00 -0.00000000000E+00 -0.54658282533E+00  0.54658282533E+00  0.00000000000E+00 0.  1.
          1    1    1    2  502    0 -0.30250244431E+01  0.22543780160E+02  0.49162425556E+03  0.49215016148E+03  0.00000000000E+00 0.  1.
         -1    1    1    2    0  501  0.30250244431E+01 -0.22543780160E+02  0.45574451319E+03  0.45631177291E+03  0.00000000000E+00 0. -1.
</event>
<event>
 4    1  0.6754235E+001  0.4254625E+02  0.7546771E-02  0.1334178E+00
          2   -1    0    0  502    0  0.00000000000E+00  0.00000000000E+00  0.22681608063E+02  0.22681608063E+02  0.00000000000E+00 0. -1.
         -2   -1    0    0    0  501 -0.00000000000E+00 -0.00000000000E+00 -0.83280144891E+02  0.83280144891E+02  0.00000000000E+00 0.  1.
          1    1    1    2  502    0  0.38363093682E+02  0.18397179151E+02 -0.19481904158E+02  0.46794526894E+02  0.00000000000E+00 0. -1.
         -1    1    1    2    0  501 -0.38363093682E+02 -0.18397179151E+02 -0.41116632670E+02  0.59167226060E+02  0.00000000000E+00 0.  1.
</event>
<event>
 4    1  0.6754235E+001  0.2407798E+02  0.7546771E-02  0.1479388E+00
          2   -1    0    0  502    0  0.00000000000E+00  0.00000000000E+00  0.31626365737E+01  0.31626365737E+01  0.00000000000E+00 0.  1.
         -2   -1    0    0    0  501 -0.00000000000E+00 -0.00000000000E+00 -0.41003534229E+03  0.41003534229E+03  0.00000000000E+00 0. -1.
          1    1    1    2  502    0  0.60946527940E+01  0.23293871512E+02 -0.35706268524E+03  0.35787359561E+03  0.00000000000E+00 0. -1.
         -1    1    1    2    0  501 -0.60946527940E+01 -0.23293871512E+02 -0.49810020470E+02  0.55324383250E+02  0.00000000000E+00 0.  1.
</event>
<event>
 4    1  0.6754235E+001  0.2538263E+02  0.7546771E-02  0.1464568E+00
          2   -1    0    0  502    0  0.00000000000E+00  0.00000000000E+00  0.17725297533E+02  0.17725297533E+02  0.00000000000E+00 0. -1.
         -2   -1    0    0    0  501 -0.00000000000E+00 -0.00000000000E+00 -0.45029733915E+02  0.45029733915E+02  0.00000000000E+00 0.  1.
          1    1    1    2  502    0  0.18608001068E+02 -0.17263265160E+02 -0.27429820192E+02  0.37372089365E+02  0.00000000000E+00 0.  1.
         -1    1    1    2    0  501 -0.18608001068E+02  0.17263265160E+02  0.12538380944E+00  0.25382942084E+02  0.00000000000E+00 0. -1.
</event>
<event>
 4    1  0.6754235E+001  0.2118307E+02  0.7546771E-02  0.1516667E+00
          2   -1    0    0  502    0  0.00000000000E+00  0.00000000000E+00  0.37086654333E+02  0.37086654333E+02  0.00000000000E+00 0.  1.
         -2   -1    0    0    0  501 -0.00000000000E+00 -0.00000000000E+00 -0.12972311785E+02  0.12972311785E+02  0.00000000000E+00 0. -1.
          1    1    1    2  502    0  0.17915976188E+02 -0.11302229199E+02  0.55640571327E+01  0.21901628236E+02  0.00000000000E+00 0. -1.
         -1    1    1    2    0  501 -0.17915976188E+02  0.11302229199E+02  0.18550285415E+02  0.28157337882E+02  0.00000000000E+00 0.  1.
</event>
<event>
 4    1  0.6754235E+001  0.2647328E+02  0.7546771E-02  0.1452972E+00
          2   -1    0    0  502    0  0.00000000000E+00  0.00000000000E+00  0.18221113805E+02  0.18221113805E+02  0.00000000000E+00 0. -1.
         -2   -1    0    0    0  501 -0.00000000000E+00 -0.00000000000E+00 -0.64579772053E+02  0.64579772053E+02  0.00000000000E+00 0.  1.
          1    1    1    2  502    0 -0.26063569363E+02 -0.46394657123E+01  0.31487088296E+01  0.26659869792E+02  0.00000000000E+00 0. -1.
         -1    1    1    2    0  501  0.26063569363E+02  0.46394657123E+01 -0.49507367077E+02  0.56141016066E+02  0.00000000000E+00 0.  1.
</event>
<event>
 4    1  0.6754235E+001  0.2823076E+02  0.7546771E-02  0.1435622E+00
          2   -1    0    0  502    0  0.00000000000E+00  0.00000000000E+00  0.11368606800E+04  0.11368606800E+04  0.00000000000E+00 0.  1.
         -2   -1    0    0    0  501 -0.00000000000E+00 -0.00000000000E+00 -0.73434535390E+00  0.73434535390E+00  0.00000000000E+00 0. -1.
          1    1    1    2  502    0  0.24293207831E+02  0.14381086774E+02  0.68921147124E+03  0.68978940822E+03  0.00000000000E+00 0. -1.
         -1    1    1    2    0  501 -0.24293207831E+02 -0.14381086774E+02  0.44691486340E+03  0.44780561713E+03  0.00000000000E+00 0.  1.
</event>
<event>
 4    1  0.6754235E+001  0.4573649E+02  0.7546771E-02  0.1317797E+00
          2   -1    0    0  502    0  0.00000000000E+00  0.00000000000E+00  0.96781903883E+03  0.96781903883E+03  0.00000000000E+00 0.  1.
         -2   -1    0    0    0  501 -0.00000000000E+00 -0.00000000000E+00 -0.22983937376E+01  0.22983937376E+01  0.00000000000E+00 0. -1.
          1    1    1    2  502    0 -0.15456591598E+02 -0.43045565556E+02  0.36433065408E+03  0.36719021288E+03  0.00000000000E+00 0. -1.
         -1    1    1    2    0  501  0.15456591598E+02  0.43045565556E+02  0.60118999101E+03  0.60292721968E+03  0.00000000000E+00 0.  1.
</event>
<event>
 4    1  0.6754235E+001  0.2620852E+02  0.7546771E-02  0.1455725E+00
          2   -1    0    0  502    0  0.00000000000E+00  0.00000000000E+00  0.10683063458E+04  0.10683063458E+04  0.00000000000E+00 0.  1.
         -2   -1    0    0    0  501 -0.00000000000E+00 -0.00000000000E+00 -0.65372379665E+00  0.65372379665E+00  0.00000000000E+00 0. -1.
          1    1    1    2  502    0 -0.15773827208E+02 -0.20930191871E+02  0.60238462519E+03  0.60295449515E+03  0.00000000000E+00 0.  1.
         -1    1    1    2    0  501  0.15773827208E+02  0.20930191871E+02  0.46526799685E+03  0.46600557448E+03  0.00000000000E+00 0. -1.
</event>
<event>
 4    1  0.6754235E+001  0.2203861E+02  0.7546771E-02  0.1504936E+00
          2   -1    0    0  502    0  0.00000000000E+00  0.00000000000E+00  0.12623352271E+04  0.12623352271E+04  0.00000000000E+00 0.  1.
         -2   -1    0    0    0  501 -0.00000000000E+00 -0.00000000000E+00 -0.54473281381E+00  0.54473281381E+00  0.00000000000E+00 0. -1.
          1    1    1    2  502    0 -0.21968617446E+02  0.17550914606E+01  0.28871205643E+03  0.28955198501E+03  0.00000000000E+00 0. -1.
         -1    1    1    2    0  501  0.21968617446E+02 -0.17550914606E+01  0.97307843788E+03  0.97332797492E+03  0.00000000000E+00 0.  1.
</event>
<event>
 4    1  0.6754235E+001  0.3627018E+02  0.7546771E-02  0.1371847E+00
          2   -1    0    0  502    0  0.00000000000E+00  0.00000000000E+00  0.33478940265E+03  0.33478940265E+03  0.00000000000E+00 0.  1.
         -2   -1    0    0    0  501 -0.00000000000E+00 -0.00000000000E+00 -0.39654384767E+01  0.39654384767E+01  0.00000000000E+00 0. -1.
          1    1    1    2  502    0  0.35683820651E+02 -0.64954425984E+01  0.18155611699E+03  0.18514359142E+03  0.00000000000E+00 0. -1.
         -1    1    1    2    0  501 -0.35683820651E+02  0.64954425984E+01  0.14926784719E+03  0.15361124970E+03  0.00000000000E+00 0.  1.
</event>
<event>
 4    1  0.6754235E+001  0.2262962E+02  0.7546771E-02  0.1497202E+00
          2   -1    0    0  502    0  0.00000000000E+00  0.00000000000E+00  0.12588176519E+03  0.12588176519E+03  0.00000000000E+00 0.  1.
         -2   -1    0    0    0  501 -0.00000000000E+00 -0.00000000000E+00 -0.52849002916E+01  0.52849002916E+01  0.00000000000E+00 0. -1.
          1    1    1    2  502    0  0.38638008675E+01  0.22297329833E+02  0.91767535093E+02  0.94516561363E+02  0.00000000000E+00 0.  1.
         -1    1    1    2    0  501 -0.38638008675E+01 -0.22297329833E+02  0.28829329801E+02  0.36650104115E+02  0.00000000000E+00 0. -1.
</event>
<event>
 4    1  0.6754235E+001  0.2173019E+02  0.7546771E-02  0.1509090E+00
          2   -1    0    0  502    0  0.00000000000E+00  0.00000000000E+00  0.93797329908E+03  0.93797329908E+03  0.00000000000E+00 0. -1.
         -2   -1    0    0    0  501 -0.00000000000E+00 -0.00000000000E+00 -0.62134598810E+00  0.62134598810E+00  0.00000000000E+00 0.  1.
          1    1    1    2  502    0  0.21320517518E+02  0.41996177068E+01  0.67311926653E+03  0.67346993120E+03  0.00000000000E+00 0. -1.
         -1    1    1    2    0  501 -0.21320517518E+02 -0.41996177068E+01  0.26423268656E+03  0.26512471387E+03  0.00000000000E+00 0.  1.
</event>
<event>
 4    1  0.6754235E+001  0.3332456E+02  0.7546771E-02  0.1392741E+00
          2   -1    0    0  502    0  0.00000000000E+00  0.00000000000E+00  0.26644769590E+03  0.26644769590E+03  0.00000000000E+00 0.  1.
         -2   -1    0    0    0  501 -0.00000000000E+00 -0.00000000000E+00 -0.53288401059E+01  0.53288401059E+01  0.00000000000E+00 0. -1.
          1    1    1    2  502    0  0.18985186925E+02 -0.27387753746E+02  0.19398599549E+03  0.19682757130E+03  0.00000000000E+00 0.  1.
         -1    1    1    2    0  501 -0.18985186925E+02  0.27387753746E+02  0.67132860308E+02  0.74948964709E+02  0.00000000000E+00 0. -1.
</event>
<event>
 4    1  0.6754235E+001  0.2503754E+02  0.7546771E-02  0.1468384E+00
          2   -1    0    0  502    0  0.00000000000E+00  0.00000000000E+00  0.21276225155E+03  0.21276225155E+03  0.00000000000E+00 0. -1.
         -2   -1    0    0    0  501 -0.00000000000E+00 -0.00000000000E+00 -0.34950923527E+01  0.34950923527E+01  0.00000000000E+00 0.  1.
          1    1    1    2  502    0  0.22234053157E+02 -0.11511971838E+02  0.14747694605E+03  0.14958719274E+03  0.00000000000E+00 0. -1.
         -1    1    1    2    0  501 -0.22234053157E+02  0.11511971838E+02  0.61790213155E+02  0.66670151171E+02  0.00000000000E+00 0.  1.
</event>
<event>
 4    1  0.6754235E+001  0.2689139E+02  0.7546771E-02  0.1448702E+00
          2   -1    0    0  502    0  0.00000000000E+00  0.00000000000E+00  0.58729821362E+02  0.58729821362E+02  0.00000000000E+00 0.  1.
         -2   -1    0    0    0  501 -0.00000000000E+00 -0.00000000000E+00 -0.18922463836E+02  0.18922463836E+02  0.00000000000E+00 0. -1.
          1    1    1    2  502    0  0.55134457657E+01 -0.26320124871E+02 -0.30427303870E+01  0.27062987005E+02  0.00000000000E+00 0. -1.
         -1    1    1    2    0  501 -0.55134457657E+01  0.26320124871E+02  0.42850087913E+02  0.50589298192E+02  0.00000000000E+00 0.  1.
</event>
<event>
 4    1  0.6754235E+001  0.2721554E+02  0.7546771E-02  0.1445455E+00
          2   -1    0    0  502    0  0.00000000000E+00  0.00000000000E+00  0.34201505306E+03  0.34201505306E+03  0.00000000000E+00 0.  1.
         -2   -1    0    0    0  501 -0.00000000000E+00 -0.00000000000E+00 -0.51538598236E+01  0.51538598236E+01  0.00000000000E+00 0. -1.
          1    1    1    2  502    0 -0.20769587153E+02 -0.17587208980E+02  0.36255415697E+02  0.45333661198E+02  0.00000000000E+00 0. -1.
         -1    1    1    2    0  501  0.20769587153E+02  0.17587208980E+02  0.30060577754E+03  0.30183525168E+03  0.00000000000E+00 0.  1.
</event>
<event>
 4    1  0.6754235E+001  0.2745292E+02  0.7546771E-02  0.1443111E+00
          2   -1    0    0  502    0  0.00000000000E+00  0.00000000000E+00  0.10955107164E+04  0.10955107164E+04  0.00000000000E+00 0. -1.
         -2   -1    0    0    0  501 -0.00000000000E+00 -0.00000000000E+00 -0.76670846015E+00  0.76670846015E+00  0.00000000000E+00 0.  1.
          1    1    1    2  502    0 -0.85250348289E+01 -0.26095716186E+02  0.72304653079E+03  0.72356751469E+03  0.00000000000E+00 0. -1.
         -1    1    1    2    0  501  0.85250348289E+01  0.26095716186E+02  0.37169747713E+03  0.37270991015E+03  0.00000000000E+00 0.  1.
</event>
<event>
 4    1  0.6754235E+001  0.3480056E+02  0.7546771E-02  0.1381971E+00
          2   -1    0    0  502    0  0.00000000000E+00  0.00000000000E+00  0.13100232800E+03  0.13100232800E+03  0.00000000000E+00 0.  1.
         -2   -1    0    0    0  501 -0.00000000000E+00 -0.00000000000E+00 -0.12608044847E+02  0.12608044847E+02  0.00000000000E+00 0. -1.
          1    1    1    2  502    0 -0.32959104620E+02  0.11170334787E+02  0.22110561607E+02  0.41230521355E+02  0.00000000000E+00 0. -1.
         -1    1    1    2    0  501  0.32959104620E+02 -0.11170334787E+02  0.96283721546E+02  0.10237985149E+03  0.00000000000E+00 0.  1.
</event>
<event>
 4    1  0.6754235E+001  0.2649713E+02  0.7546771E-02  0.1452726E+00
          2   -1    0    0  502    0  0.00000000000E+00  0.00000000000E+00  0.10529106306E+04  0.10529106306E+04  0.00000000000E+00 0. -1.
         -2   -1    0    0    0  501 -0.00000000000E+00 -0.00000000000E+00 -0.70373682735E+00  0.70373682735E+00  0.00000000000E+00 0.  1.
          1    1    1    2  502    0 -0.26442724169E+02  0.16971439976E+01  0.64676823713E+03  0.64731078357E+03  0.00000000000E+00 0. -1.
         -1    1    1    2    0  501  0.26442724169E+02 -0.16971439976E+01  0.40543865664E+03  0.40630358386E+03  0.00000000000E+00 0.  1.
</event>
<event>
 4    1  0.6754235E+001  0.3542731E+02  0.7546771E-02  0.1377584E+00
          2   -1    0    0  502    0  0.00000000000E+00  0.00000000000E+00  0.32013411001E+02  0.32013411001E+02  0.00000000000E+00 0. -1.
         -2   -1    0    0    0  501 -0.00000000000E+00 -0.00000000000E+00 -0.62583291210E+02  0.62583291210E+02  0.00000000000E+00 0.  1.
          1    1    1    2  502    0  0.13754742103E+02  0.32648146997E+02 -0.44193114932E+02  0.56640319915E+02  0.00000000000E+00 0.  1.
         -1    1    1    2    0  501 -0.13754742103E+02 -0.32648146997E+02  0.13623234723E+02  0.37956382296E+02  0.00000000000E+00 0. -1.
</event>
<event>
 4    1  0.6754235E+001  0.3367354E+02  0.7546771E-02  0.1390136E+00
          2   -1    0    0  502    0  0.00000000000E+00  0.00000000000E+00  0.58903945581E+03  0.58903945581E+03  0.00000000000E+00 0. -1.
         -2   -1    0    0    0  501 -0.00000000000E+00 -0.00000000000E+00 -0.47667900195E+01  0.47667900195E+01  0.00000000000E+00 0.  1.
          1    1    1    2  502    0  0.15223277081E+02  0.30035960389E+02  0.62892874208E+02  0.71340175972E+02  0.00000000000E+00 0.  1.
         -1    1    1    2    0  501 -0.15223277081E+02 -0.30035960389E+02  0.52137979158E+03  0.52246606986E+03  0.00000000000E+00 0. -1.
</event>
<event>
 4    1  0.6754235E+001  0.2872176E+02  0.7546771E-02  0.1431039E+00
          2   -1    0    0  502    0  0.00000000000E+00  0.00000000000E+00  0.20233668024E+04  0.20233668024E+04  0.00000000000E+00 0.  1.
         -2   -1    0    0    0  501 -0.00000000000E+00 -0.00000000000E+00 -0.46632049340E+00  0.46632049340E+00  0.00000000000E+00 0. -1.
          1    1    1    2  502    0  0.22282136709E+02 -0.18123072777E+02  0.65269036391E+03  0.65332201136E+03  0.00000000000E+00 0. -1.
         -1    1    1    2    0  501 -0.22282136709E+02  0.18123072777E+02  0.13702101180E+04  0.13705111116E+04  0.00000000000E+00 0.  1.
</event>
<event>
 4    1  0.6754235E+001  0.3447590E+02  0.7546771E-02  0.1384286E+00
          2   -1    0    0  502    0  0.00000000000E+00  0.00000000000E+00  0.29184019990E+04  0.29184019990E+04  0.00000000000E+00 0.  1.
         -2   -1    0    0    0  501 -0.00000000000E+00 -0.00000000000E+00 -0.40743615030E+00  0.40743615030E+00  0.00000000000E+00 0. -1.
          1    1    1    2  502    0 -0.30922930406E+02 -0.15243365922E+02  0.14881553193E+04  0.14885546151E+04  0.00000000000E+00 0.  1.
         -1    1    1    2    0  501  0.30922930406E+02  0.15243365922E+02  0.14298392435E+04  0.14302548200E+04  0.00000000000E+00 0. -1.
</event>
<event>
 4    1  0.6754235E+001  0.3906301E+02  0.7546771E-02  0.1354066E+00
          2   -1    0    0  502    0  0.00000000000E+00  0.00000000000E+00  0.13181016099E+02  0.13181016099E+02  0.00000000000E+00 0. -1.
         -2   -1    0    0    0  501 -0.00000000000E+00 -0.00000000000E+00 -0.11715191376E+03  0.11715191376E+03  0.00000000000E+00 0.  1.
          1    1    1    2  502    0 -0.36488230700E+02 -0.13947310183E+02 -0.44898505721E+02  0.59512975534E+02  0.00000000000E+00 0.  1.
         -1    1    1    2    0  501  0.36488230700E+02  0.13947310183E+02 -0.59072391937E+02  0.70819954322E+02  0.00000000000E+00 0. -1.
</event>
<event>
 4    1  0.6754235E+001  0.2104358E+02  0.7546771E-02  0.1518644E+00
          2   -1    0    0  502    0  0.00000000000E+00  0.00000000000E+00  0.20370948175E+04  0.20370948175E+04  0.00000000000E+00 0.  1.
         -2   -1    0    0    0  501 -0.00000000000E+00 -0.00000000000E+00 -0.22543460322E+00  0.22543460322E+00  0.00000000000E+00 0. -1.
          1    1    1    2  502    0  0.20662171727E+02  0.39883230879E+01  0.12109343785E+04  0.12111172119E+04  0.00000000000E+00 0.  1.
         -1    1    1    2    0  501 -0.20662171727E+02 -0.39883230879E+01  0.82593500446E+03  0.82620304021E+03  0.00000000000E+00 0. -1.
</event>
<event>
 4    1  0.6754235E+001  0.3918094E+02  0.7546771E-02  0.1353353E+00
          2   -1    0    0  502    0  0.00000000000E+00  0.00000000000E+00  0.20903655831E+03  0.20903655831E+03  0.00000000000E+00 0.  1.
         -2   -1    0    0    0  501 -0.00000000000E+00 -0.00000000000E+00 -0.90993569256E+01  0.90993569256E+01  0.00000000000E+00 0. -1.
          1    1    1    2  502    0  0.15211317329E+02 -0.36107640130E+02  0.14787412257E+03  0.15297680209E+03  0.00000000000E+00 0.  1.
         -1    1    1    2    0  501 -0.15211317329E+02  0.36107640130E+02  0.52063078810E+02  0.65159113145E+02  0.00000000000E+00 0. -1.
</event>
<event>
 4    1  0.6754235E+001  0.2055427E+02  0.7546771E-02  0.1525725E+00
          2   -1    0    0  502    0  0.00000000000E+00  0.00000000000E+00  0.72283604305E+03  0.72283604305E+03  0.00000000000E+00 0.  1.
         -2   -1    0    0    0  501 -0.00000000000E+00 -0.00000000000E+00 -0.79226803654E+00  0.79226803654E+00  0.00000000000E+00 0. -1.
          1    1    1    2  502    0 -0.39738721881E+00  0.20550426412E+02  0.54631845422E+03  0.54670497654E+03  0.00000000000E+00 0.  1.
         -1    1    1    2    0  501  0.39738721881E+00 -0.20550426412E+02  0.17572532079E+03  0.17692333455E+03  0.00000000000E+00 0. -1.
</event>
<event>
 4    1  0.6754235E+001  0.2591428E+02  0.7546771E-02  0.1458830E+00
          2   -1    0    0  502    0  0.00000000000E+00  0.00000000000E+00  0.26284344136E+04  0.26284344136E+04  0.00000000000E+00 0. -1.
         -2   -1    0    0    0  501 -0.00000000000E+00 -0.00000000000E+00 -0.25658474100E+00  0.25658474100E+00  0.00000000000E+00 0.  1.
          1    1    1    2  502    0 -0.16655041074E+02  0.19853451324E+02  0.13997733378E+04  0.14000131953E+04  0.00000000000E+00 0.  1.
         -1    1    1    2    0  501  0.16655041074E+02 -0.19853451324E+02  0.12284044911E+04  0.12286778031E+04  0.00000000000E+00 0. -1.
</event>
<event>
 4    1  0.6754235E+001  0.2315518E+02  0.7546771E-02  0.1490559E+00
          2   -1    0    0  502    0  0.00000000000E+00  0.00000000000E+00  0.77187427362E+03  0.77187427362E+03  0.00000000000E+00 0.  1.
         -2   -1    0    0    0  501 -0.00000000000E+00 -0.00000000000E+00 -0.78099849087E+00  0.78099849087E+00  0.00000000000E+00 0. -1.
          1    1    1    2  502    0  0.14327398834E+02  0.18190328035E+02  0.51402306239E+03  0.51454433342E+03  0.00000000000E+00 0.  1.
         -1    1    1    2    0  501 -0.14327398834E+02 -0.18190328035E+02  0.25707021274E+03  0.25811093869E+03  0.00000000000E+00 0. -1.
</event>
<event>
 4    1  0.6754235E+001  0.3148432E+02  0.7546771E-02  0.1407122E+00
          2   -1    0    0  502    0  0.00000000000E+00  0.00000000000E+00  0.29539654569E+02  0.29539654569E+02  0.00000000000E+00 0.  1.
         -2   -1    0    0    0  501 -0.00000000000E+00 -0.00000000000E+00 -0.33567853280E+02  0.33567853280E+02  0.00000000000E+00 0. -1.
          1    1    1    2  502    0 -0.31137434250E+02  0.46607404394E+01 -0.14468353270E+01  0.31517545044E+02  0.00000000000E+00 0.  1.
         -1    1    1    2    0  501  0.31137434250E+02 -0.46607404394E+01 -0.25813633841E+01  0.31589962806E+02  0.00000000000E+00 0. -1.
</event>
<event>
 4    1  0.6754235E+001  0.2480569E+02  0.7546771E-02  0.1470989E+00
          2   -1    0    0  502    0  0.00000000000E+00  0.00000000000E+00  0.13513961886E+02  0.13513961886E+02  0.00000000000E+00 0.  1.
         -2   -1    0    0    0  501 -0.00000000000E+00 -0.00000000000E+00 -0.53983951041E+02  0.53983951041E+02  0.00000000000E+00 0. -1.
          1    1    1    2  502    0  0.50100887994E+01  0.24294468328E+02 -0.33588583602E+02  0.41755420361E+02  0.00000000000E+00 0. -1.
         -1    1    1    2    0  501 -0.50100887994E+01 -0.24294468328E+02 -0.68814055521E+01  0.25742492566E+02  0.00000000000E+00 0.  1.
</event>
<event>
 4    1  0.6754235E+001  0.4525126E+02  0.7546771E-02  0.1320188E+00
          2   -1    0    0  502    0  0.00000000000E+00  0.00000000000E+00  0.53685262752E+03  0.53685262752E+03  0.00000000000E+00 0. -1.
         -2   -1    0    0    0  501 -0.00000000000E+00 -0.00000000000E+00 -0.10941282447E+02  0.10941282447E+02  0.00000000000E+00 0.  1.
          1    1    1    2  502    0 -0.45031249589E+02  0.44568225595E+01  0.48401468188E+03  0.48612538401E+03  0.00000000000E+00 0. -1.
         -1    1    1    2    0  501  0.45031249589E+02 -0.44568225595E+01  0.41896663198E+02  0.61668525959E+02  0.00000000000E+00 0.  1.
</event>
<event>
 4    1  0.6754235E+001  0.2324199E+02  0.7546771E-02  0.1489482E+00
          2   -1    0    0  502    0  0.00000000000E+00  0.00000000000E+00  0.39731041849E+01  0.39731041849E+01  0.00000000000E+00 0. -1.
         -2   -1    0    0    0  501 -0.00000000000E+00 -0.00000000000E+00 -0.17533547171E+03  0.17533547171E+03  0.00000000000E+00 0.  1.
          1    1    1    2  502    0 -0.15084050454E+02  0.17682237857E+02 -0.43195802185E+02  0.49051681318E+02  0.00000000000E+00 0. -1.
         -1    1    1    2    0  501  0.15084050454E+02 -0.17682237857E+02 -0.12816656534E+03  0.13025689458E+03  0.00000000000E+00 0.  1.
</event>
<event>
 4    1  0.6754235E+001  0.2331558E+02  0.7546771E-02  0.1488573E+00
          2   -1    0    0  502    0  0.00000000000E+00  0.00000000000E+00  0.13247376529E+03  0.13247376529E+03  0.00000000000E+00 0.  1.
         -2   -1    0    0    0  501 -0.00000000000E+00 -0.00000000000E+00 -0.41429129257E+01  0.41429129257E+01  0.00000000000E+00 0. -1.
          1    1    1    2  502    0 -0.19561232169E+02  0.12687562412E+02  0.70821621064E+02  0.74560834585E+02  0.00000000000E+00 0. -1.
         -1    1    1    2    0  501  0.19561232169E+02 -0.12687562412E+02  0.57509231303E+02  0.62055843633E+02  0.00000000000E+00 0.  1.
</event>
<event>
 4    1  0.6754235E+001  0.3641676E+02  0.7546771E-02  0.1370867E+00
          2   -1    0    0  502    0  0.00000000000E+00  0.00000000000E+00  0.13648399168E+04  0.13648399168E+04  0.00000000000E+00 0.  1.
         -2   -1    0    0    0  501 -0.00000000000E+00 -0.00000000000E+00 -0.13552967468E+01  0.13552967468E+01  0.00000000000E+00 0. -1.
          1    1    1    2  502    0  0.36104253238E+02  0.47605816443E+01  0.10451695020E+04  0.10458037426E+04  0.00000000000E+00 0. -1.
         -1    1    1    2    0  501 -0.36104253238E+02 -0.47605816443E+01  0.31831511810E+03  0.32039147094E+03  0.00000000000E+00 0.  1.
</event>
<event>
 4    1  0.6754235E+001  0.3858384E+02  0.7546771E-02  0.1356990E+00
          2   -1    0    0  502    0  0.00000000000E+00  0.00000000000E+00  0.11347032749E+04  0.11347032749E+04  0.00000000000E+00 0.  1.
         -2   -1    0    0    0  501 -0.00000000000E+00 -0.00000000000E+00 -0.16261150811E+01  0.16261150811E+01  0.00000000000E+00 0. -1.
          1    1    1    2  502    0 -0.32016915526E+01 -0.38450776806E+02  0.31681834203E+03  0.31915916861E+03  0.00000000000E+00 0. -1.
         -1    1    1    2    0  501  0.32016915526E+01  0.38450776806E+02  0.81625881778E+03  0.81717022135E+03  0.00000000000E+00 0.  1.
</event>
<event>
 4    1  0.6754235E+001  0.2137453E+02  0.7546771E-02  0.1513984E+00
          2   -1    0    0  502    0  0.00000000000E+00  0.00000000000E+00  0.93631091690E+03  0.93631091690E+03  0.00000000000E+00 0.  1.
         -2   -1    0    0    0  501 -0.00000000000E+00 -0.00000000000E+00 -0.55183971862E+00  0.55183971862E+00  0.00000000000E+00 0. -1.
          1    1    1    2  502    0 -0.35661319085E+01 -0.21074943337E+02  0.30848860201E+03  0.30922821363E+03  0.00000000000E+00 0. -1.
         -1    1    1    2    0  501  0.35661319085E+01  0.21074943337E+02  0.62727047517E+03  0.62763454299E+03  0.00000000000E+00 0.  1.
</event>
<event>
 4    1  0.6754235E+001  0.2815399E+02  0.7546771E-02  0.1436348E+00
          2   -1    0    0  502    0  0.00000000000E+00  0.00000000000E+00  0.28971128839E+04  0.28971128839E+04  0.00000000000E+00 0.  1.
         -2   -1    0    0    0  501 -0.00000000000E+00 -0.00000000000E+00 -0.29187114296E+00  0.29187114296E+00  0.00000000000E+00 0. -1.
          1    1    1    2  502    0  0.19009931167E+02  0.20767027817E+02  0.10859343829E+04  0.10862992824E+04  0.00000000000E+00 0. -1.
         -1    1    1    2    0  501 -0.19009931167E+02 -0.20767027817E+02  0.18108866298E+04  0.18111054726E+04  0.00000000000E+00 0.  1.
</event>
<event>
 4    1  0.6754235E+001  0.3062237E+02  0.7546771E-02  0.1414264E+00
          2   -1    0    0  502    0  0.00000000000E+00  0.00000000000E+00  0.24551509451E+02  0.24551509451E+02  0.00000000000E+00 0. -1.
         -2   -1    0    0    0  501 -0.00000000000E+00 -0.00000000000E+00 -0.45916146519E+02  0.45916146519E+02  0.00000000000E+00 0.  1.
          1    1    1    2  502    0  0.14534247612E+02 -0.26953392498E+02  0.37666019558E+01  0.30853152368E+02  0.00000000000E+00 0. -1.
         -1    1    1    2    0  501 -0.14534247612E+02  0.26953392498E+02 -0.25131239024E+02  0.39614503602E+02  0.00000000000E+00 0.  1.
</event>
<event>
 4    1  0.6754235E+001  0.2295481E+02  0.7546771E-02  0.1493066E+00
          2   -1    0    0  502    0  0.00000000000E+00  0.00000000000E+00  0.11894301470E+02  0.11894301470E+02  0.00000000000E+00 0. -1.
         -2   -1    0    0    0  501 -0.00000000000E+00 -0.00000000000E+00 -0.48655338384E+02  0.48655338384E+02  0.00000000000E+00 0.  1.
          1    1    1    2  502    0  0.75705148583E+00 -0.22942319088E+02 -0.93231112607E+01  0.24775865993E+02  0.00000000000E+00 0. -1.
         -1    1    1    2    0  501 -0.75705148583E+00  0.22942319088E+02 -0.27437925653E+02  0.35773773861E+02  0.00000000000E+00 0.  1.
</event>
<event>
 4    1  0.6754235E+001  0.2364046E+02  0.7546771E-02  0.1484609E+00
          2   -1    0    0  502    0  0.00000000000E+00  0.00000000000E+00  0.23486638147E+04  0.23486638147E+04  0.00000000000E+00 0. -1.
         -2   -1    0    0    0  501 -0.00000000000E+00 -0.00000000000E+00 -0.24215231958E+00  0.24215231958E+00  0.00000000000E+00 0.  1.
          1    1    1    2  502    0 -0.15486601262E+02  0.17861588761E+02  0.10195464793E+04  0.10198205208E+04  0.00000000000E+00 0. -1.
         -1    1    1    2    0  501  0.15486601262E+02 -0.17861588761E+02  0.13288751831E+04  0.13290854463E+04  0.00000000000E+00 0.  1.
</event>
<event>
 4    1  0.6754235E+001  0.2934329E+02  0.7546771E-02  0.1425390E+00
          2   -1    0    0  502    0  0.00000000000E+00  0.00000000000E+00  0.17101672849E+02  0.17101672849E+02  0.00000000000E+00 0.  1.
         -2   -1    0    0    0  501 -0.00000000000E+00 -0.00000000000E+00 -0.66222925006E+02  0.66222925006E+02  0.00000000000E+00 0. -1.
          1    1    1    2  502    0  0.17724281869E+02  0.23385434906E+02 -0.41620466442E+01  0.29636993197E+02  0.00000000000E+00 0.  1.
         -1    1    1    2    0  501 -0.17724281869E+02 -0.23385434906E+02 -0.44959205513E+02  0.53687604657E+02  0.00000000000E+00 0. -1.
</event>
<event>
 4    1  0.6754235E+001  0.2448481E+02  0.7546771E-02  0.1474650E+00
          2   -1    0    0  502    0  0.00000000000E+00  0.00000000000E+00  0.50946678671E+02  0.50946678671E+02  0.00000000000E+00 0. -1.
         -2   -1    0    0    0  501 -0.00000000000E+00 -0.00000000000E+00 -0.11922807636E+02  0.11922807636E+02  0.00000000000E+00 0.  1.
          1    1    1    2  502    0 -0.20174574437E+02 -0.13874162614E+02  0.15922142820E+02  0.29206514238E+02  0.00000000000E+00 0. -1.
         -1    1    1    2    0  501  0.20174574437E+02  0.13874162614E+02  0.23101728215E+02  0.33662972069E+02  0.00000000000E+00 0.  1.
</event>
<event>
 4    1  0.6754235E+001  0.2035669E+02  0.7546771E-02  0.1528651E+00
          2   -1    0    0  502    0  0.00000000000E+00  0.00000000000E+00  0.20459289064E+04  0.20459289064E+04  0.00000000000E+00 0.  1.
         -2   -1    0    0    0  501 -0.00000000000E+00 -0.00000000000E+00 -0.20268051434E+00  0.20268051434E+00  0.00000000000E+00 0. -1.
          1    1    1    2  502    0 -0.12619523605E+02 -0.15973182545E+02  0.99651752298E+03  0.99672542285E+03  0.00000000000E+00 0.  1.
         -1    1    1    2    0  501  0.12619523605E+02  0.15973182545E+02  0.10492087029E+04  0.10494061641E+04  0.00000000000E+00 0. -1.
</event>
<event>
 4    1  0.6754235E+001  0.2103172E+02  0.7546771E-02  0.1518812E+00
          2   -1    0    0  502    0  0.00000000000E+00  0.00000000000E+00  0.16531885221E+01  0.16531885221E+01  0.00000000000E+00 0.  1.
         -2   -1    0    0    0  501 -0.00000000000E+00 -0.00000000000E+00 -0.26857355133E+03  0.26857355133E+03  0.00000000000E+00 0. -1.
          1    1    1    2  502    0  0.57229159913E+01 -0.20238114317E+02 -0.14174573124E+03  0.14329754137E+03  0.00000000000E+00 0.  1.
         -1    1    1    2    0  501 -0.57229159913E+01  0.20238114317E+02 -0.12517463156E+03  0.12692919848E+03  0.00000000000E+00 0. -1.
</event>
<event>
 4    1  0.6754235E+001  0.5382274E+02  0.7546771E-02  0.1282398E+00
          2   -1    0    0  502    0  0.00000000000E+00  0.00000000000E+00  0.27850038905E+03  0.27850038905E+03  0.00000000000E+00 0. -1.
         -2   -1    0    0    0  501 -0.00000000000E+00 -0.00000000000E+00 -0.10509897089E+02  0.10509897089E+02  0.00000000000E+00 0.  1.
          1    1    1    2  502    0  0.52191967988E+02 -0.13148607883E+02  0.11933570408E+03  0.13091179351E+03  0.00000000000E+00 0. -1.
         -1    1    1    2    0  501 -0.52191967988E+02  0.13148607883E+02  0.14865478788E+03  0.15809849263E+03  0.00000000000E+00 0.  1.
</event>
<event>
 4    1  0.6754235E+001  0.4065043E+02  0.7546771E-02  0.1344716E+00
          2   -1    0    0  502    0  0.00000000000E+00  0.00000000000E+00  0.25134936207E+03  0.25134936207E+03  0.00000000000E+00 0. -1.
         -2   -1    0    0    0  501 -0.00000000000E+00 -0.00000000000E+00 -0.77629185691E+01  0.77629185691E+01  0.00000000000E+00 0.  1.
          1    1    1    2  502    0 -0.39686946380E+02  0.87979431021E+01  0.71099000983E+02  0.81899483861E+02  0.00000000000E+00 0.  1.
         -1    1    1    2    0  501  0.39686946380E+02 -0.87979431021E+01  0.17248744252E+03  0.17721279678E+03  0.00000000000E+00 0. -1.
</event>
<event>
 4    1  0.6754235E+001  0.4123824E+02  0.7546771E-02  0.1341379E+00
          2   -1    0    0  502    0  0.00000000000E+00  0.00000000000E+00  0.58887860273E+03  0.58887860273E+03  0.00000000000E+00 0. -1.
         -2   -1    0    0    0  501 -0.00000000000E+00 -0.00000000000E+00 -0.29784151809E+01  0.29784151809E+01  0.00000000000E+00 0.  1.
          1    1    1    2  502    0  0.24138800620E+02 -0.33435177111E+02  0.24134696011E+03  0.24484474247E+03  0.00000000000E+00 0.  1.
         -1    1    1    2    0  501 -0.24138800620E+02  0.33435177111E+02  0.34455322744E+03  0.34701227543E+03  0.00000000000E+00 0. -1.
</event>
<event>
 4    1  0.6754235E+001  0.3015609E+02  0.7546771E-02  0.1418245E+00
          2   -1    0    0  502    0  0.00000000000E+00  0.00000000000E+00  0.39819807755E+02  0.39819807755E+02  0.00000000000E+00 0. -1.
         -2   -1    0    0    0  501 -0.00000000000E+00 -0.00000000000E+00 -0.24694604569E+02  0.24694604569E+02  0.00000000000E+00 0.  1.
          1    1    1    2  502    0 -0.24740821475E+02  0.17241852779E+02 -0.12830448262E+01  0.30183371889E+02  0.00000000000E+00 0.  1.
         -1    1    1    2    0  501  0.24740821475E+02 -0.17241852779E+02  0.16408248012E+02  0.34331040435E+02  0.00000000000E+00 0. -1.
</event>
<event>
 4    1  0.6754235E+001  0.2120033E+02  0.7546771E-02  0.1516424E+00
          2   -1    0    0  502    0  0.00000000000E+00  0.00000000000E+00  0.44508214844E+02  0.44508214844E+02  0.00000000000E+00 0.  1.
         -2   -1    0    0    0  501 -0.00000000000E+00 -0.00000000000E+00 -0.31625549945E+02  0.31625549945E+02  0.00000000000E+00 0. -1.
          1    1    1    2  502    0 -0.10784185439E+02 -0.18252548455E+02  0.37848100863E+02  0.43381250784E+02  0.00000000000E+00 0.  1.
         -1    1    1    2    0  501  0.10784185439E+02  0.18252548455E+02 -0.24965435964E+02  0.32752514004E+02  0.00000000000E+00 0. -1.
</event>
<event>
 4    1  0.6754235E+001  0.2289674E+02  0.7546771E-02  0.1493799E+00
          2   -1    0    0  502    0  0.00000000000E+00  0.00000000000E+00  0.28223835242E+03  0.28223835242E+03  0.00000000000E+00 0.  1.
         -2   -1    0    0    0  501 -0.00000000000E+00 -0.00000000000E+00 -0.22408539541E+01  0.22408539541E+01  0.00000000000E+00 0. -1.
          1    1    1    2  502    0 -0.14328140061E+02  0.17859589244E+02  0.81167490839E+02  0.84335177089E+02  0.00000000000E+00 0. -1.
         -1    1    1    2    0  501  0.14328140061E+02 -0.17859589244E+02  0.19883000763E+03  0.20014402929E+03  0.00000000000E+00 0.  1.
</event>
<event>
 4    1  0.6754235E+001  0.2145123E+02  0.7546771E-02  0.1512919E+00
          2   -1    0    0  502    0  0.00000000000E+00  0.00000000000E+00  0.13319445857E+02  0.13319445857E+02  0.00000000000E+00 0. -1.
         -2   -1    0    0    0  501 -0.00000000000E+00 -0.00000000000E+00 -0.67089144110E+02  0.67089144110E+02  0.00000000000E+00 0.  1.
          1    1    1    2  502    0 -0.11082242363E+02  0.18366797571E+02 -0.54885309529E+02  0.58928367964E+02  0.00000000000E+00 0.  1.
         -1    1    1    2    0  501  0.11082242363E+02 -0.18366797571E+02  0.11156112757E+01  0.21480222004E+02  0.00000000000E+00 0. -1.
</event>
<event>
 4    1  0.6754235E+001  0.2168423E+02  0.7546771E-02  0.1509716E+00
          2   -1    0    0  502    0  0.00000000000E+00  0.00000000000E+00  0.39468541267E+03  0.39468541267E+03  0.00000000000E+00 0. -1.
         -2   -1    0    0    0  501 -0.00000000000E+00 -0.00000000000E+00 -0.30803105185E+01  0.30803105185E+01  0.00000000000E+00 0.  1.
          1    1    1    2  502    0 -0.67910482490E+01  0.20593388639E+02  0.35154689076E+03  0.35221502295E+03  0.00000000000E+00 0. -1.
         -1    1    1    2    0  501  0.67910482490E+01 -0.20593388639E+02  0.40058211395E+02  0.45550700238E+02  0.00000000000E+00 0.  1.
</event>
<event>
 4    1  0.6754235E+001  0.4273500E+02  0.7546771E-02  0.1333163E+00
          2   -1    0    0  502    0  0.00000000000E+00  0.00000000000E+00  0.35929845436E+03  0.35929845436E+03  0.00000000000E+00 0.  1.
         -2   -1    0    0    0  501 -0.00000000000E+00 -0.00000000000E+00 -0.60357492414E+01  0.60357492414E+01  0.00000000000E+00 0. -1.
          1    1    1    2  502    0 -0.60149082929E+01 -0.42309584738E+02  0.24920945203E+03  0.25284705073E+03  0.00000000000E+00 0.  1.
         -1    1    1    2    0  501  0.60149082929E+01  0.42309584738E+02  0.10405325309E+03  0.11248715287E+03  0.00000000000E+00 0. -1.
</event>
<event>
 4    1  0.6754235E+001  0.2690480E+02  0.7546771E-02  0.1448567E+00
          2   -1    0    0  502    0  0.00000000000E+00  0.00000000000E+00  0.63906785724E+03  0.63906785724E+03  0.00000000000E+00 0.  1.
         -2   -1    0    0    0  501 -0.00000000000E+00 -0.00000000000E+00 -0.12109243217E+01  0.12109243217E+01  0.00000000000E+00 0. -1.
          1    1    1    2  502    0  0.20402876557E+02  0.17538264448E+02  0.23755755220E+03  0.23907626126E+03  0.00000000000E+00 0. -1.
         -1    1    1    2    0  501 -0.20402876557E+02 -0.17538264448E+02  0.40029938072E+03  0.40120252030E+03  0.00000000000E+00 0.  1.
</event>
<event>
 4    1  0.6754235E+001  0.2018903E+02  0.7546771E-02  0.1531165E+00
          2   -1    0    0  502    0  0.00000000000E+00  0.00000000000E+00  0.20995654811E+02  0.20995654811E+02  0.00000000000E+00 0. -1.
         -2   -1    0    0    0  501 -0.00000000000E+00 -0.00000000000E+00 -0.51146857059E+02  0.51146857059E+02  0.00000000000E+00 0.  1.
          1    1    1    2  502    0 -0.19520961106E+02 -0.51506359077E+01 -0.43488170233E+02  0.47945989645E+02  0.00000000000E+00 0.  1.
         -1    1    1    2    0  501  0.19520961106E+02  0.51506359077E+01  0.13336967986E+02  0.24196522226E+02  0.00000000000E+00 0. -1.
</event>
<event>
 4    1  0.6754235E+001  0.2909200E+02  0.7546771E-02  0.1427654E+00
          2   -1    0    0  502    0  0.00000000000E+00  0.00000000000E+00  0.27539218527E+04  0.27539218527E+04  0.00000000000E+00 0.  1.
         -2   -1    0    0    0  501 -0.00000000000E+00 -0.00000000000E+00 -0.38623685092E+00  0.38623685092E+00  0.00000000000E+00 0. -1.
          1    1    1    2  502    0  0.28493971116E+02 -0.58684085879E+01  0.19992561234E+04  0.19994677771E+04  0.00000000000E+00 0.  1.
         -1    1    1    2    0  501 -0.28493971116E+02  0.58684085879E+01  0.75427949242E+03  0.75484031244E+03  0.00000000000E+00 0. -1.
</event>
<event>
 4    1  0.6754235E+001  0.2095425E+02  0.7546771E-02  0.1519919E+00
          2   -1    0    0  502    0  0.00000000000E+00  0.00000000000E+00  0.15475123254E+02  0.15475123254E+02  0.00000000000E+00 0.  1.
         -2   -1    0    0    0  501 -0.00000000000E+00 -0.00000000000E+00 -0.85712247151E+02  0.85712247151E+02  0.00000000000E+00 0. -1.
          1    1    1    2  502    0 -0.16273346521E+02  0.13200713919E+02 -0.76499434833E+02  0.79317363702E+02  0.00000000000E+00 0. -1.
         -1    1    1    2    0  501  0.16273346521E+02 -0.13200713919E+02  0.62623109359E+01  0.21870006703E+02  0.00000000000E+00 0.  1.
</event>
<event>
 4    1  0.6754235E+001  0.4269249E+02  0.7546771E-02  0.1333391E+00
          2   -1    0    0  502    0  0.00000000000E+00  0.00000000000E+00  0.16445852722E+04  0.16445852722E+04  0.00000000000E+00 0. -1.
         -2   -1    0    0    0  501 -0.00000000000E+00 -0.00000000000E+00 -0.12250532744E+01  0.12250532744E+01  0.00000000000E+00 0.  1.
          1    1    1    2  502    0 -0.42334947810E+02  0.55136717658E+01  0.56760726138E+03  0.56921055116E+03  0.00000000000E+00 0.  1.
         -1    1    1    2    0  501  0.42334947810E+02 -0.55136717658E+01  0.10757529575E+04  0.10765997743E+04  0.00000000000E+00 0. -1.
</event>
<event>
 4    1  0.6754235E+001  0.2256499E+02  0.7546771E-02  0.1498034E+00
          2   -1    0    0  502    0  0.00000000000E+00  0.00000000000E+00  0.16082729418E+03  0.16082729418E+03  0.00000000000E+00 0. -1.
         -2   -1    0    0    0  501 -0.00000000000E+00 -0.00000000000E+00 -0.45767089431E+01  0.45767089431E+01  0.00000000000E+00 0.  1.
          1    1    1    2  502    0 -0.15936778409E+02  0.15974914829E+02  0.32209882334E+02  0.39327539077E+02  0.00000000000E+00 0.  1.
         -1    1    1    2    0  501  0.15936778409E+02 -0.15974914829E+02  0.12404070290E+03  0.12607646405E+03  0.00000000000E+00 0. -1.
</event>
<event>
 4    1  0.6754235E+001  0.4740513E+02  0.7546771E-02  0.1309833E+00
          2   -1    0    0  502    0  0.00000000000E+00  0.00000000000E+00  0.10363124204E+04  0.10363124204E+04  0.00000000000E+00 0. -1.
         -2   -1    0    0    0  501 -0.00000000000E+00 -0.00000000000E+00 -0.39183459636E+01  0.39183459636E+01  0.00000000000E+00 0.  1.
          1    1    1    2  502    0 -0.47390523555E+02  0.11766971861E+01  0.86377151401E+03  0.86507136974E+03  0.00000000000E+00 0. -1.
         -1    1    1    2    0  501  0.47390523555E+02 -0.11766971861E+01  0.16862256046E+03  0.17515939665E+03  0.00000000000E+00 0.  1.
</event>
<event>
 4    1  0.6754235E+001  0.2478540E+02  0.7546771E-02  0.1471219E+00
          2   -1    0    0  502    0  0.00000000000E+00  0.00000000000E+00  0.89884236104E+01  0.89884236104E+01  0.00000000000E+00 0.  1.
         -2   -1    0    0    0  501 -0.00000000000E+00 -0.00000000000E+00 -0.10677853341E+03  0.10677853341E+03  0.00000000000E+00 0. -1.
          1    1    1    2  502    0  0.12443296565E+02 -0.21435491853E+02 -0.14168119033E+02  0.28549107470E+02  0.00000000000E+00 0.  1.
         -1    1    1    2    0  501 -0.12443296565E+02  0.21435491853E+02 -0.83621990769E+02  0.87217849553E+02  0.00000000000E+00 0. -1.
</event>
<event>
 4    1  0.6754235E+001  0.6253878E+02  0.7546771E-02  0.1251442E+00
          2   -1    0    0  502    0  0.00000000000E+00  0.00000000000E+00  0.11200794835E+04  0.11200794835E+04  0.00000000000E+00 0.  1.
         -2   -1    0    0    0  501 -0.00000000000E+00 -0.00000000000E+00 -0.59832205204E+01  0.59832205204E+01  0.00000000000E+00 0. -1.
          1    1    1    2  502    0 -0.84883537174E+01 -0.61960041999E+02  0.19372908022E+03  0.20357321896E+03  0.00000000000E+00 0. -1.
         -1    1    1    2    0  501  0.84883537174E+01  0.61960041999E+02  0.92036718279E+03  0.92248948509E+03  0.00000000000E+00 0.  1.
</event>
<event>
 4    1  0.6754235E+001  0.2353507E+02  0.7546771E-02  0.1485886E+00
          2   -1    0    0  502    0  0.00000000000E+00  0.00000000000E+00  0.10171207941E+01  0.10171207941E+01  0.00000000000E+00 0.  1.
         -2   -1    0    0    0  501 -0.00000000000E+00 -0.00000000000E+00 -0.67600254178E+03  0.67600254178E+03  0.00000000000E+00 0. -1.
          1    1    1    2  502    0  0.20236932154E+02  0.12015250917E+02 -0.48675101127E+03  0.48731965552E+03  0.00000000000E+00 0. -1.
         -1    1    1    2    0  501 -0.20236932154E+02 -0.12015250917E+02 -0.18823440971E+03  0.18970000705E+03  0.00000000000E+00 0.  1.
</event>
<event>
 4    1  0.6754235E+001  0.2192880E+02  0.7546771E-02  0.1506406E+00
          2   -1    0    0  502    0  0.00000000000E+00  0.00000000000E+00  0.44202347974E+00  0.44202347974E+00  0.00000000000E+00 0. -1.
         -2   -1    0    0    0  501 -0.00000000000E+00 -0.00000000000E+00 -0.16572483796E+04  0.16572483796E+04  0.00000000000E+00 0.  1.
          1    1    1    2  502    0  0.18885894203E+02  0.11144293121E+02 -0.13142205597E+04  0.13144034966E+04  0.00000000000E+00 0.  1.
         -1    1    1    2    0  501 -0.18885894203E+02 -0.11144293121E+02 -0.34258579639E+03  0.34328690647E+03  0.00000000000E+00 0. -1.
</event>
<event>
 4    1  0.6754235E+001  0.2039440E+02  0.7546771E-02  0.1528090E+00
          2   -1    0    0  502    0  0.00000000000E+00  0.00000000000E+00  0.93086541422E+03  0.93086541422E+03  0.00000000000E+00 0. -1.
         -2   -1    0    0    0  501 -0.00000000000E+00 -0.00000000000E+00 -0.77736856647E+00  0.77736856647E+00  0.00000000000E+00 0.  1.
          1    1    1    2  502    0 -0.31022310007E+01  0.20157075560E+02  0.16129003163E+03  0.16257430866E+03  0.00000000000E+00 0.  1.
         -1    1    1    2    0  501  0.31022310007E+01 -0.20157075560E+02  0.76879801402E+03  0.76906847412E+03  0.00000000000E+00 0. -1.
</event>
<event>
 4    1  0.6754235E+001  0.5477927E+02  0.7546771E-02  0.1278683E+00
          2   -1    0    0  502    0  0.00000000000E+00  0.00000000000E+00  0.46394559268E+03  0.46394559268E+03  0.00000000000E+00 0. -1.
         -2   -1    0    0    0  501 -0.00000000000E+00 -0.00000000000E+00 -0.65108936881E+01  0.65108936881E+01  0.00000000000E+00 0.  1.
          1    1    1    2  502    0 -0.41017542105E+02  0.36308809628E+02  0.24782517334E+03  0.25380718067E+03  0.00000000000E+00 0.  1.
         -1    1    1    2    0  501  0.41017542105E+02 -0.36308809628E+02  0.20960952566E+03  0.21664930571E+03  0.00000000000E+00 0. -1.
</event>
<event>
 4    1  0.6754235E+001  0.2224344E+02  0.7546771E-02  0.1502223E+00
          2   -1    0    0  502    0  0.00000000000E+00  0.00000000000E+00  0.14382918721E+04  0.14382918721E+04  0.00000000000E+00 0. -1.
         -2   -1    0    0    0  501 -0.00000000000E+00 -0.00000000000E+00 -0.38145376972E+00  0.38145376972E+00  0.00000000000E+00 0.  1.
          1    1    1    2  502    0 -0.68767460971E+01 -0.21153745393E+02  0.94436166814E+03  0.94462359215E+03  0.00000000000E+00 0. -1.
         -1    1    1    2    0  501  0.68767460971E+01  0.21153745393E+02  0.49354875020E+03  0.49404973374E+03  0.00000000000E+00 0.  1.
</event>
<event>
 4    1  0.6754235E+001  0.2350216E+02  0.7546771E-02  0.1486287E+00
          2   -1    0    0  502    0  0.00000000000E+00  0.00000000000E+00  0.10626092881E+04  0.10626092881E+04  0.00000000000E+00 0. -1.
         -2   -1    0    0    0  501 -0.00000000000E+00 -0.00000000000E+00 -0.52976236668E+00  0.52976236668E+00  0.00000000000E+00 0.  1.
          1    1    1    2  502    0  0.13697710847E+02  0.19097750503E+02  0.60391100109E+03  0.60436813996E+03  0.00000000000E+00 0.  1.
         -1    1    1    2    0  501 -0.13697710847E+02 -0.19097750503E+02  0.45816852467E+03  0.45877091054E+03  0.00000000000E+00 0. -1.
</event>
<event>
 4    1  0.6754235E+001  0.2413940E+02  0.7546771E-02  0.1478666E+00
          2   -1    0    0  502    0  0.00000000000E+00  0.00000000000E+00  0.88074000226E+03  0.88074000226E+03  0.00000000000E+00 0. -1.
         -2   -1    0    0    0  501 -0.00000000000E+00 -0.00000000000E+00 -0.78366478216E+00  0.78366478216E+00  0.00000000000E+00 0.  1.
          1    1    1    2  502    0  0.10956469240E+02 -0.21509676828E+02  0.61392162298E+03  0.61439602015E+03  0.00000000000E+00 0. -1.
         -1    1    1    2    0  501 -0.10956469240E+02  0.21509676828E+02  0.26603471449E+03  0.26712764688E+03  0.00000000000E+00 0.  1.
</event>
<event>
 4    1  0.6754235E+001  0.2194953E+02  0.7546771E-02  0.1506128E+00
          2   -1    0    0  502    0  0.00000000000E+00  0.00000000000E+00  0.10799944295E+04  0.10799944295E+04  0.00000000000E+00 0.  1.
         -2   -1    0    0    0  501 -0.00000000000E+00 -0.00000000000E+00 -0.52672655208E+00  0.52672655208E+00  0.00000000000E+00 0. -1.
          1    1    1    2  502    0 -0.20263347481E+02  0.84367415850E+01  0.75111138811E+03  0.75143203233E+03  0.00000000000E+00 0. -1.
         -1    1    1    2    0  501  0.20263347481E+02 -0.84367415850E+01  0.32835631487E+03  0.32908912375E+03  0.00000000000E+00 0.  1.
</event>
<event>
 4    1  0.6754235E+001  0.4361791E+02  0.7546771E-02  0.1328497E+00
          2   -1    0    0  502    0  0.00000000000E+00  0.00000000000E+00  0.41285655503E+03  0.41285655503E+03  0.00000000000E+00 0.  1.
         -2   -1    0    0    0  501 -0.00000000000E+00 -0.00000000000E+00 -0.49232838073E+01  0.49232838073E+01  0.00000000000E+00 0. -1.
          1    1    1    2  502    0 -0.38509944618E+02  0.20481858368E+02  0.25681219071E+03  0.26048996843E+03  0.00000000000E+00 0.  1.
         -1    1    1    2    0  501  0.38509944618E+02 -0.20481858368E+02  0.15112108051E+03  0.15728987041E+03  0.00000000000E+00 0. -1.
</event>
<event>
 4    1  0.6754235E+001  0.2906912E+02  0.7546771E-02  0.1427862E+00
          2   -1    0    0  502    0  0.00000000000E+00  0.00000000000E+00  0.69737225989E+03  0.69737225989E+03  0.00000000000E+00 0.  1.
         -2   -1    0    0    0  501 -0.00000000000E+00 -0.00000000000E+00 -0.22577264795E+01  0.22577264795E+01  0.00000000000E+00 0. -1.
          1    1    1    2  502    0  0.28557748244E+02 -0.54285391300E+01  0.10945052184E+03  0.11324500321E+03  0.00000000000E+00 0. -1.
         -1    1    1    2    0  501 -0.28557748244E+02  0.54285391300E+01  0.58566401157E+03  0.58638498316E+03  0.00000000000E+00 0.  1.
</event>
<event>
 4    1  0.6754235E+001  0.2196114E+02  0.7546771E-02  0.1505972E+00
          2   -1    0    0  502    0  0.00000000000E+00  0.00000000000E+00  0.52169505988E+01  0.52169505988E+01  0.00000000000E+00 0. -1.
         -2   -1    0    0    0  501 -0.00000000000E+00 -0.00000000000E+00 -0.95239727086E+02  0.95239727086E+02  0.00000000000E+00 0.  1.
          1    1    1    2  502    0  0.21375766716E+02 -0.50366920991E+01 -0.36410358568E+02  0.42520652406E+02  0.00000000000E+00 0. -1.
         -1    1    1    2    0  501 -0.21375766716E+02  0.50366920991E+01 -0.53612417919E+02  0.57936025279E+02  0.00000000000E+00 0.  1.
</event>
<event>
 4    1  0.6754235E+001  0.2393160E+02  0.7546771E-02  0.1481120E+00
          2   -1    0    0  502    0  0.00000000000E+00  0.00000000000E+00  0.46066841222E+03  0.46066841222E+03  0.00000000000E+00 0. -1.
         -2   -1    0    0    0  501 -0.00000000000E+00 -0.00000000000E+00 -0.21630740568E+01  0.21630740568E+01  0.00000000000E+00 0.  1.
          1    1    1    2  502    0 -0.23783087511E+02 -0.26619786469E+01  0.78344775710E+02  0.81918406130E+02  0.00000000000E+00 0.  1.
         -1    1    1    2    0  501  0.23783087511E+02  0.26619786469E+01  0.38016056245E+03  0.38091308015E+03  0.00000000000E+00 0. -1.
</event>
<event>
 4    1  0.6754235E+001  0.2212896E+02  0.7546771E-02  0.1503735E+00
          2   -1    0    0  502    0  0.00000000000E+00  0.00000000000E+00  0.96676188792E+03  0.96676188792E+03  0.00000000000E+00 0. -1.
         -2   -1    0    0    0  501 -0.00000000000E+00 -0.00000000000E+00 -0.50675613092E+00  0.50675613092E+00  0.00000000000E+00 0.  1.
          1    1    1    2  502    0 -0.16492181238E+02  0.14754627821E+02  0.49340952362E+03  0.49390550623E+03  0.00000000000E+00 0.  1.
         -1    1    1    2    0  501  0.16492181238E+02 -0.14754627821E+02  0.47284560817E+03  0.47336313782E+03  0.00000000000E+00 0. -1.
</event>
<event>
 4    1  0.6754235E+001  0.2223373E+02  0.7546771E-02  0.1502351E+00
          2   -1    0    0  502    0  0.00000000000E+00  0.00000000000E+00  0.19879123026E+04  0.19879123026E+04  0.00000000000E+00 0. -1.
         -2   -1    0    0    0  501 -0.00000000000E+00 -0.00000000000E+00 -0.29203291543E+00  0.29203291543E+00  0.00000000000E+00 0.  1.
          1    1    1    2  502    0  0.18774717685E+02  0.11910019410E+02  0.61075332705E+03  0.61115788884E+03  0.00000000000E+00 0.  1.
         -1    1    1    2    0  501 -0.18774717685E+02 -0.11910019410E+02  0.13768669426E+04  0.13770464467E+04  0.00000000000E+00 0. -1.
</event>
<event>
 4    1  0.6754235E+001  0.2742478E+02  0.7546771E-02  0.1443387E+00
          2   -1    0    0  502    0  0.00000000000E+00  0.00000000000E+00  0.28170987605E+04  0.28170987605E+04  0.00000000000E+00 0. -1.
         -2   -1    0    0    0  501 -0.00000000000E+00 -0.00000000000E+00 -0.27599134393E+00  0.27599134393E+00  0.00000000000E+00 0.  1.
          1    1    1    2  502    0 -0.26426367604E+02  0.73325203316E+01  0.11539168782E+04  0.11542427303E+04  0.00000000000E+00 0. -1.
         -1    1    1    2    0  501  0.26426367604E+02 -0.73325203316E+01  0.16629058909E+04  0.16631320215E+04  0.00000000000E+00 0.  1.
</event>
<event>
 4    1  0.6754235E+001  0.3060177E+02  0.7546771E-02  0.1414438E+00
          2   -1    0    0  502    0  0.00000000000E+00  0.00000000000E+00  0.38231863124E+02  0.38231863124E+02  0.00000000000E+00 0. -1.
         -2   -1    0    0    0  501 -0.00000000000E+00 -0.00000000000E+00 -0.28835880956E+02  0.28835880956E+02  0.00000000000E+00 0.  1.
          1    1    1    2  502    0  0.28356425565E+02 -0.11505722086E+02 -0.83136918620E+01  0.31710975764E+02  0.00000000000E+00 0.  1.
         -1    1    1    2    0  501 -0.28356425565E+02  0.11505722086E+02  0.17709674030E+02  0.35356768316E+02  0.00000000000E+00 0. -1.
</event>
<event>
 4    1  0.6754235E+001  0.3175744E+02  0.7546771E-02  0.1404915E+00
          2   -1    0    0  502    0  0.00000000000E+00  0.00000000000E+00  0.24892933288E+03  0.24892933288E+03  0.00000000000E+00 0. -1.
         -2   -1    0    0    0  501 -0.00000000000E+00 -0.00000000000E+00 -0.75359293646E+01  0.75359293646E+01  0.00000000000E+00 0.  1.
          1    1    1    2  502    0 -0.18553321628E+01 -0.31703196879E+02  0.33500706774E+02  0.46160939160E+02  0.00000000000E+00 0.  1.
         -1    1    1    2    0  501  0.18553321628E+01  0.31703196879E+02  0.20789269674E+03  0.21030432308E+03  0.00000000000E+00 0. -1.
</event>
<event>
 4    1  0.6754235E+001  0.3132559E+02  0.7546771E-02  0.1408416E+00
          2   -1    0    0  502    0  0.00000000000E+00  0.00000000000E+00  0.81454208942E+02  0.81454208942E+02  0.00000000000E+00 0.  1.
         -2   -1    0    0    0  501 -0.00000000000E+00 -0.00000000000E+00 -0.12657595797E+02  0.12657595797E+02  0.00000000000E+00 0. -1.
          1    1    1    2  502    0  0.36497110398E+00 -0.31323463565E+02  0.44731998172E+02  0.54609927981E+02  0.00000000000E+00 0.  1.
         -1    1    1    2    0  501 -0.36497110398E+00  0.31323463565E+02  0.24064614972E+02  0.39501876758E+02  0.00000000000E+00 0. -1.
</event>
<event>
 4    1  0.6754235E+001  0.2408727E+02  0.7546771E-02  0.1479279E+00
          2   -1    0    0  502    0  0.00000000000E+00  0.00000000000E+00  0.13052548369E+02  0.13052548369E+02  0.00000000000E+00 0. -1.
         -2   -1    0    0    0  501 -0.00000000000E+00 -0.00000000000E+00 -0.61396899529E+02  0.61396899529E+02  0.00000000000E+00 0.  1.
          1    1    1    2  502    0  0.13656614343E+02  0.19841710007E+02 -0.46156007404E+01  0.24525503899E+02  0.00000000000E+00 0. -1.
         -1    1    1    2    0  501 -0.13656614343E+02 -0.19841710007E+02 -0.43728750419E+02  0.49923944000E+02  0.00000000000E+00 0.  1.
</event>
<event>
 4    1  0.6754235E+001  0.3303159E+02  0.7546771E-02  0.1394956E+00
          2   -1    0    0  502    0  0.00000000000E+00  0.00000000000E+00  0.14899078548E+04  0.14899078548E+04  0.00000000000E+00 0. -1.
         -2   -1    0    0    0  501 -0.00000000000E+00 -0.00000000000E+00 -0.93679053249E+00  0.93679053249E+00  0.00000000000E+00 0.  1.
          1    1    1    2  502    0 -0.23176011363E+02  0.23536324729E+02  0.39622936325E+03  0.39760381586E+03  0.00000000000E+00 0.  1.
         -1    1    1    2    0  501  0.23176011363E+02 -0.23536324729E+02  0.10927417010E+04  0.10932408294E+04  0.00000000000E+00 0. -1.
</event>
<event>
 4    1  0.6754235E+001  0.3811488E+02  0.7546771E-02  0.1359901E+00
          2   -1    0    0  502    0  0.00000000000E+00  0.00000000000E+00  0.57103896517E+03  0.57103896517E+03  0.00000000000E+00 0.  1.
         -2   -1    0    0    0  501 -0.00000000000E+00 -0.00000000000E+00 -0.26220180075E+01  0.26220180075E+01  0.00000000000E+00 0. -1.
          1    1    1    2  502    0  0.38029509557E+02  0.25496351490E+01  0.23474301982E+03  0.23781721887E+03  0.00000000000E+00 0.  1.
         -1    1    1    2    0  501 -0.38029509557E+02 -0.25496351490E+01  0.33367392734E+03  0.33584376430E+03  0.00000000000E+00 0. -1.
</event>
<event>
 4    1  0.6754235E+001  0.4510395E+02  0.7546771E-02  0.1320920E+00
          2   -1    0    0  502    0  0.00000000000E+00  0.00000000000E+00  0.50241968552E+03  0.50241968552E+03  0.00000000000E+00 0.  1.
         -2   -1    0    0    0  501 -0.00000000000E+00 -0.00000000000E+00 -0.72688415578E+01  0.72688415578E+01  0.00000000000E+00 0. -1.
          1    1    1    2  502    0 -0.41704696980E+02 -0.17178032587E+02  0.77965905381E+02  0.90072465025E+02  0.00000000000E+00 0. -1.
         -1    1    1    2    0  501  0.41704696980E+02  0.17178032587E+02  0.41718493858E+03  0.41961606205E+03  0.00000000000E+00 0.  1.
</event>
<event>
 4    1  0.6754235E+001  0.3191607E+02  0.7546771E-02  0.1403645E+00
          2   -1    0    0  502    0  0.00000000000E+00  0.00000000000E+00  0.15505686917E+03  0.15505686917E+03  0.00000000000E+00 0. -1.
         -2   -1    0    0    0  501 -0.00000000000E+00 -0.00000000000E+00 -0.74830546611E+01  0.74830546611E+01  0.00000000000E+00 0.  1.
          1    1    1    2  502    0  0.15110993830E+01  0.31880276330E+02  0.45389792941E+02  0.55487554852E+02  0.00000000000E+00 0.  1.
         -1    1    1    2    0  501 -0.15110993830E+01 -0.31880276330E+02  0.10218402157E+03  0.10705236898E+03  0.00000000000E+00 0. -1.
</event>
<event>
 4    1  0.6754235E+001  0.2067733E+02  0.7546771E-02  0.1523922E+00
          2   -1    0    0  502    0  0.00000000000E+00  0.00000000000E+00  0.11119865870E+03  0.11119865870E+03  0.00000000000E+00 0. -1.
         -2   -1    0    0    0  501 -0.00000000000E+00 -0.00000000000E+00 -0.45178819348E+01  0.45178819348E+01  0.00000000000E+00 0.  1.
          1    1    1    2  502    0 -0.19684212045E+02 -0.63311869100E+01  0.75670295556E+02  0.78444539396E+02  0.00000000000E+00 0.  1.
         -1    1    1    2    0  501  0.19684212045E+02  0.63311869100E+01  0.31010481207E+02  0.37272001237E+02  0.00000000000E+00 0. -1.
</event>
<event>
 4    1  0.6754235E+001  0.2320558E+02  0.7546771E-02  0.1489933E+00
          2   -1    0    0  502    0  0.00000000000E+00  0.00000000000E+00  0.43898818885E+03  0.43898818885E+03  0.00000000000E+00 0. -1.
         -2   -1    0    0    0  501 -0.00000000000E+00 -0.00000000000E+00 -0.18540221858E+01  0.18540221858E+01  0.00000000000E+00 0.  1.
          1    1    1    2  502    0  0.12411994238E+02  0.19607178068E+02  0.90349623168E+02  0.93282117469E+02  0.00000000000E+00 0.  1.
         -1    1    1    2    0  501 -0.12411994238E+02 -0.19607178068E+02  0.34678454349E+03  0.34756009357E+03  0.00000000000E+00 0. -1.
</event>
<event>
 4    1  0.6754235E+001  0.2393784E+02  0.7546771E-02  0.1481046E+00
          2   -1    0    0  502    0  0.00000000000E+00  0.00000000000E+00  0.98516418420E+03  0.98516418420E+03  0.00000000000E+00 0. -1.
         -2   -1    0    0    0  501 -0.00000000000E+00 -0.00000000000E+00 -0.58228170228E+00  0.58228170228E+00  0.00000000000E+00 0.  1.
          1    1    1    2  502    0 -0.21757716272E+02  0.99810689371E+01  0.47604663326E+03  0.47664810605E+03  0.00000000000E+00 0.  1.
         -1    1    1    2    0  501  0.21757716272E+02 -0.99810689371E+01  0.50853526923E+03  0.50909835985E+03  0.00000000000E+00 0. -1.
</event>
<event>
 4    1  0.6754235E+001  0.3280142E+02  0.7546771E-02  0.1396716E+00
          2   -1    0    0  502    0  0.00000000000E+00  0.00000000000E+00  0.56565797207E+03  0.56565797207E+03  0.00000000000E+00 0.  1.
         -2   -1    0    0    0  501 -0.00000000000E+00 -0.00000000000E+00 -0.19515173961E+01  0.19515173961E+01  0.00000000000E+00 0. -1.
          1    1    1    2  502    0  0.31734771020E+02 -0.82968436799E+01  0.32701906248E+03  0.32866000750E+03  0.00000000000E+00 0.  1.
         -1    1    1    2    0  501 -0.31734771020E+02  0.82968436799E+01  0.23668739220E+03  0.23894948196E+03  0.00000000000E+00 0. -1.
</event>
<event>
 4    1  0.6754235E+001  0.4326816E+02  0.7546771E-02  0.1330330E+00
          2   -1    0    0  502    0  0.00000000000E+00  0.00000000000E+00  0.25844228523E+02  0.25844228523E+02  0.00000000000E+00 0. -1.
         -2   -1    0    0    0  501 -0.00000000000E+00 -0.00000000000E+00 -0.84291845044E+02  0.84291845044E+02  0.00000000000E+00 0.  1.
          1    1    1    2  502    0 -0.40750922611E+02 -0.14542908450E+02 -0.49873587659E+02  0.66026575148E+02  0.00000000000E+00 0.  1.
         -1    1    1    2    0  501  0.40750922611E+02  0.14542908450E+02 -0.85740288615E+01  0.44109498419E+02  0.00000000000E+00 0. -1.
</event>
<event>
 4    1  0.6754235E+001  0.2471353E+02  0.7546771E-02  0.1472034E+00
          2   -1    0    0  502    0  0.00000000000E+00  0.00000000000E+00  0.33818010922E+03  0.33818010922E+03  0.00000000000E+00 0. -1.
         -2   -1    0    0    0  501 -0.00000000000E+00 -0.00000000000E+00 -0.26633159783E+01  0.26633159783E+01  0.00000000000E+00 0.  1.
          1    1    1    2  502    0  0.19758151157E+02 -0.14845004100E+02  0.26444804648E+03  0.26560031621E+03  0.00000000000E+00 0. -1.
         -1    1    1    2    0  501 -0.19758151157E+02  0.14845004100E+02  0.71068746758E+02  0.75243108984E+02  0.00000000000E+00 0.  1.
</event>
<event>
 4    1  0.6754235E+001  0.2859244E+02  0.7546771E-02  0.1432236E+00
          2   -1    0    0  502    0  0.00000000000E+00  0.00000000000E+00  0.16461139026E+04  0.16461139026E+04  0.00000000000E+00 0. -1.
         -2   -1    0    0    0  501 -0.00000000000E+00 -0.00000000000E+00 -0.71619787773E+00  0.71619787773E+00  0.00000000000E+00 0.  1.
          1    1    1    2  502    0 -0.18975036484E+02 -0.21388677321E+02  0.12786054589E+04  0.12789251139E+04  0.00000000000E+00 0. -1.
         -1    1    1    2    0  501  0.18975036484E+02  0.21388677321E+02  0.36679224586E+03  0.36790498658E+03  0.00000000000E+00 0.  1.
</event>
<event>
 4    1  0.6754235E+001  0.2598513E+02  0.7546771E-02  0.1458078E+00
          2   -1    0    0  502    0  0.00000000000E+00  0.00000000000E+00  0.20585863386E+04  0.20585863386E+04  0.00000000000E+00 0.  1.
         -2   -1    0    0    0  501 -0.00000000000E+00 -0.00000000000E+00 -0.46026572954E+00  0.46026572954E+00  0.00000000000E+00 0. -1.
          1    1    1    2  502    0  0.14785638022E+02  0.21368481531E+02  0.15809459306E+04  0.15811594678E+04  0.00000000000E+00 0.  1.
         -1    1    1    2    0  501 -0.14785638022E+02 -0.21368481531E+02  0.47718014224E+03  0.47788713651E+03  0.00000000000E+00 0. -1.
</event>
<event>
 4    1  0.6754235E+001  0.2056759E+02  0.7546771E-02  0.1525529E+00
          2   -1    0    0  502    0  0.00000000000E+00  0.00000000000E+00  0.57816072812E+03  0.57816072812E+03  0.00000000000E+00 0.  1.
         -2   -1    0    0    0  501 -0.00000000000E+00 -0.00000000000E+00 -0.86836377486E+00  0.86836377486E+00  0.00000000000E+00 0. -1.
          1    1    1    2  502    0 -0.20365761196E+02 -0.28743145142E+01  0.40351060093E+03  0.40403444281E+03  0.00000000000E+00 0.  1.
         -1    1    1    2    0  501  0.20365761196E+02  0.28743145142E+01  0.17378176342E+03  0.17499464909E+03  0.00000000000E+00 0. -1.
</event>
<event>
 4    1  0.6754235E+001  0.3890625E+02  0.7546771E-02  0.1355017E+00
          2   -1    0    0  502    0  0.00000000000E+00  0.00000000000E+00  0.67749564080E+03  0.67749564080E+03  0.00000000000E+00 0. -1.
         -2   -1    0    0    0  501 -0.00000000000E+00 -0.00000000000E+00 -0.22674783170E+01  0.22674783170E+01  0.00000000000E+00 0.  1.
          1    1    1    2  502    0 -0.37518632154E+02 -0.10297983313E+02  0.29647117861E+03  0.29901313678E+03  0.00000000000E+00 0.  1.
         -1    1    1    2    0  501  0.37518632154E+02  0.10297983313E+02  0.37875698387E+03  0.38074998233E+03  0.00000000000E+00 0. -1.
</event>
<event>
 4    1  0.6754235E+001  0.2085879E+02  0.7546771E-02  0.1521291E+00
          2   -1    0    0  502    0  0.00000000000E+00  0.00000000000E+00  0.11497922516E+01  0.11497922516E+01  0.00000000000E+00 0. -1.
         -2   -1    0    0    0  501 -0.00000000000E+00 -0.00000000000E+00 -0.38014701599E+03  0.38014701599E+03  0.00000000000E+00 0.  1.
          1    1    1    2  502    0  0.17745061797E+02 -0.10963656037E+02 -0.17659876866E+03  0.17782635930E+03  0.00000000000E+00 0. -1.
         -1    1    1    2    0  501 -0.17745061797E+02  0.10963656037E+02 -0.20239845508E+03  0.20347044894E+03  0.00000000000E+00 0.  1.
</event>
<event>
 4    1  0.6754235E+001  0.2536020E+02  0.7546771E-02  0.1464814E+00
          2   -1    0    0  502    0  0.00000000000E+00  0.00000000000E+00  0.12655049981E+04  0.12655049981E+04  0.00000000000E+00 0. -1.
         -2   -1    0    0    0  501 -0.00000000000E+00 -0.00000000000E+00 -0.52719606632E+00  0.52719606632E+00  0.00000000000E+00 0.  1.
          1    1    1    2  502    0  0.88600826040E+01 -0.23762121889E+02  0.51235338283E+03  0.51298063160E+03  0.00000000000E+00 0.  1.
         -1    1    1    2    0  501 -0.88600826040E+01  0.23762121889E+02  0.75262441920E+03  0.75305156256E+03  0.00000000000E+00 0. -1.
</event>
<event>
 4    1  0.6754235E+001  0.3618035E+02  0.7546771E-02  0.1372450E+00
          2   -1    0    0  502    0  0.00000000000E+00  0.00000000000E+00  0.12055289810E+04  0.12055289810E+04  0.00000000000E+00 0.  1.
         -2   -1    0    0    0  501 -0.00000000000E+00 -0.00000000000E+00 -0.15273120190E+01  0.15273120190E+01  0.00000000000E+00 0. -1.
          1    1    1    2  502    0  0.83653132278E+00  0.36170674125E+02  0.92647703176E+03  0.92718321158E+03  0.00000000000E+00 0.  1.
         -1    1    1    2    0  501 -0.83653132278E+00 -0.36170674125E+02  0.27752463723E+03  0.27987308146E+03  0.00000000000E+00 0. -1.
</event>
<event>
 4    1  0.6754235E+001  0.2632089E+02  0.7546771E-02  0.1454552E+00
          2   -1    0    0  502    0  0.00000000000E+00  0.00000000000E+00  0.15309910857E+01  0.15309910857E+01  0.00000000000E+00 0. -1.
         -2   -1    0    0    0  501 -0.00000000000E+00 -0.00000000000E+00 -0.53295844299E+03  0.53295844299E+03  0.00000000000E+00 0.  1.
          1    1    1    2  502    0 -0.75092097643E+01  0.25226989362E+02 -0.36954316035E+03  0.37047933355E+03  0.00000000000E+00 0.  1.
         -1    1    1    2    0  501  0.75092097643E+01 -0.25226989362E+02 -0.16188429155E+03  0.16401010053E+03  0.00000000000E+00 0. -1.
</event>
<event>
 4    1  0.6754235E+001  0.5325175E+02  0.7546771E-02  0.1284658E+00
          2   -1    0    0  502    0  0.00000000000E+00  0.00000000000E+00  0.35323969238E+02  0.35323969238E+02  0.00000000000E+00 0. -1.
         -2   -1    0    0    0  501 -0.00000000000E+00 -0.00000000000E+00 -0.40629314497E+03  0.40629314497E+03  0.00000000000E+00 0.  1.
          1    1    1    2  502    0 -0.52754699745E+02  0.72587912964E+01 -0.38327937273E+03  0.38696101348E+03  0.00000000000E+00 0.  1.
         -1    1    1    2    0  501  0.52754699745E+02 -0.72587912964E+01  0.12310196998E+02  0.54656100724E+02  0.00000000000E+00 0. -1.
</event>
<event>
 4    1  0.6754235E+001  0.2176218E+02  0.7546771E-02  0.1508655E+00
          2   -1    0    0  502    0  0.00000000000E+00  0.00000000000E+00  0.13394420564E+04  0.13394420564E+04  0.00000000000E+00 0.  1.
         -2   -1    0    0    0  501 -0.00000000000E+00 -0.00000000000E+00 -0.45087060329E+00  0.45087060329E+00  0.00000000000E+00 0. -1.
          1    1    1    2  502    0 -0.27811962259E+01 -0.21583728209E+02  0.35827941739E+03  0.35893973491E+03  0.00000000000E+00 0. -1.
         -1    1    1    2    0  501  0.27811962259E+01  0.21583728209E+02  0.98071176844E+03  0.98095319212E+03  0.00000000000E+00 0.  1.
</event>
<event>
 4    1  0.6754235E+001  0.2558214E+02  0.7546771E-02  0.1462395E+00
          2   -1    0    0  502    0  0.00000000000E+00  0.00000000000E+00  0.13475441730E+03  0.13475441730E+03  0.00000000000E+00 0. -1.
         -2   -1    0    0    0  501 -0.00000000000E+00 -0.00000000000E+00 -0.30708050270E+02  0.30708050270E+02  0.00000000000E+00 0.  1.
          1    1    1    2  502    0 -0.47603792858E+01 -0.25135331558E+02  0.12793090803E+03  0.13046364756E+03  0.00000000000E+00 0. -1.
         -1    1    1    2    0  501  0.47603792858E+01  0.25135331558E+02 -0.23884541003E+02  0.34998820015E+02  0.00000000000E+00 0.  1.
</event>
<event>
 4    1  0.6754235E+001  0.2138135E+02  0.7546771E-02  0.1513889E+00
          2   -1    0    0  502    0  0.00000000000E+00  0.00000000000E+00  0.98319490244E+02  0.98319490244E+02  0.00000000000E+00 0.  1.
         -2   -1    0    0    0  501 -0.00000000000E+00 -0.00000000000E+00 -0.47195339903E+01  0.47195339903E+01  0.00000000000E+00 0. -1.
          1    1    1    2  502    0 -0.20747798933E+02 -0.51663494033E+01  0.53064092285E+02  0.57209791267E+02  0.00000000000E+00 0.  1.
         -1    1    1    2    0  501  0.20747798933E+02  0.51663494033E+01  0.40535863969E+02  0.45829232968E+02  0.00000000000E+00 0. -1.
</event>
<event>
 4    1  0.6754235E+001  0.3414151E+02  0.7546771E-02  0.1386701E+00
          2   -1    0    0  502    0  0.00000000000E+00  0.00000000000E+00  0.46916832119E+03  0.46916832119E+03  0.00000000000E+00 0. -1.
         -2   -1    0    0    0  501 -0.00000000000E+00 -0.00000000000E+00 -0.36864643807E+01  0.36864643807E+01  0.00000000000E+00 0.  1.
          1    1    1    2  502    0 -0.32394092325E+02  0.10782654519E+02  0.97738736760E+02  0.10353020583E+03  0.00000000000E+00 0.  1.
         -1    1    1    2    0  501  0.32394092325E+02 -0.10782654519E+02  0.36774312005E+03  0.36932457974E+03  0.00000000000E+00 0. -1.
</event>
<event>
 4    1  0.6754235E+001  0.3201495E+02  0.7546771E-02  0.1402858E+00
          2   -1    0    0  502    0  0.00000000000E+00  0.00000000000E+00  0.86286793371E+03  0.86286793371E+03  0.00000000000E+00 0. -1.
         -2   -1    0    0    0  501 -0.00000000000E+00 -0.00000000000E+00 -0.16074836774E+01  0.16074836774E+01  0.00000000000E+00 0.  1.
          1    1    1    2  502    0 -0.30333227662E+02 -0.10239734094E+02  0.65147393072E+03  0.65226010093E+03  0.00000000000E+00 0. -1.
         -1    1    1    2    0  501  0.30333227662E+02  0.10239734094E+02  0.20978651932E+03  0.21221531646E+03  0.00000000000E+00 0.  1.
</event>
<event>
 4    1  0.6754235E+001  0.3190333E+02  0.7546771E-02  0.1403747E+00
          2   -1    0    0  502    0  0.00000000000E+00  0.00000000000E+00  0.33950017199E+02  0.33950017199E+02  0.00000000000E+00 0.  1.
         -2   -1    0    0    0  501 -0.00000000000E+00 -0.00000000000E+00 -0.33392817220E+02  0.33392817220E+02  0.00000000000E+00 0. -1.
          1    1    1    2  502    0 -0.18724501120E+02  0.25830518958E+02  0.11042985700E+02  0.33760482595E+02  0.00000000000E+00 0.  1.
         -1    1    1    2    0  501  0.18724501120E+02 -0.25830518958E+02 -0.10485785721E+02  0.33582351824E+02  0.00000000000E+00 0. -1.
</event>
<event>
 4    1  0.6754235E+001  0.3350201E+02  0.7546771E-02  0.1391412E+00
          2   -1    0    0  502    0  0.00000000000E+00  0.00000000000E+00  0.24951228258E+03  0.24951228258E+03  0.00000000000E+00 0. -1.
         -2   -1    0    0    0  501 -0.00000000000E+00 -0.00000000000E+00 -0.11853166486E+02  0.11853166486E+02  0.00000000000E+00 0.  1.
          1    1    1    2  502    0  0.15216803127E+02  0.29846839442E+02  0.15888664772E+02  0.37078761985E+02  0.00000000000E+00 0.  1.
         -1    1    1    2    0  501 -0.15216803127E+02 -0.29846839442E+02  0.22177045133E+03  0.22428668709E+03  0.00000000000E+00 0. -1.
</event>
<event>
 4    1  0.6754235E+001  0.2460114E+02  0.7546771E-02  0.1473315E+00
          2   -1    0    0  502    0  0.00000000000E+00  0.00000000000E+00  0.80206451930E+02  0.80206451930E+02  0.00000000000E+00 0.  1.
         -2   -1    0    0    0  501 -0.00000000000E+00 -0.00000000000E+00 -0.76713236005E+01  0.76713236005E+01  0.00000000000E+00 0. -1.
          1    1    1    2  502    0 -0.85940327667E+01  0.23051218899E+02  0.30645437174E+02  0.39298332172E+02  0.00000000000E+00 0.  1.
         -1    1    1    2    0  501  0.85940327667E+01 -0.23051218899E+02  0.41889691156E+02  0.48579443359E+02  0.00000000000E+00 0. -1.
</event>
<event>
 4    1  0.6754235E+001  0.2115043E+02  0.7546771E-02  0.1517128E+00
          2   -1    0    0  502    0  0.00000000000E+00  0.00000000000E+00  0.14838755056E+04  0.14838755056E+04  0.00000000000E+00 0. -1.
         -2   -1    0    0    0  501 -0.00000000000E+00 -0.00000000000E+00 -0.64058863749E+00  0.64058863749E+00  0.00000000000E+00 0.  1.
          1    1    1    2  502    0 -0.87498828704E+01 -0.19255651084E+02  0.20155673295E+03  0.20266340850E+03  0.00000000000E+00 0.  1.
         -1    1    1    2    0  501  0.87498828704E+01  0.19255651084E+02  0.12816781840E+04  0.12818526857E+04  0.00000000000E+00 0. -1.
</event>
<event>
 4    1  0.6754235E+001  0.2483396E+02  0.7546771E-02  0.1470670E+00
          2   -1    0    0  502    0  0.00000000000E+00  0.00000000000E+00  0.72017160862E+03  0.72017160862E+03  0.00000000000E+00 0.  1.
         -2   -1    0    0    0  501 -0.00000000000E+00 -0.00000000000E+00 -0.13450045894E+01  0.13450045894E+01  0.00000000000E+00 0. -1.
          1    1    1    2  502    0  0.44566064137E+01 -0.24430803149E+02  0.57685930076E+03  0.57739360783E+03  0.00000000000E+00 0.  1.
         -1    1    1    2    0  501 -0.44566064137E+01  0.24430803149E+02  0.14196730327E+03  0.14412300538E+03  0.00000000000E+00 0. -1.
</event>
<event>
 4    1  0.6754235E+001  0.6429373E+02  0.7546771E-02  0.1245903E+00
          2   -1    0    0  502    0  0.00000000000E+00  0.00000000000E+00  0.91783123351E+01  0.91783123351E+01  0.00000000000E+00 0.  1.
         -2   -1    0    0    0  501 -0.00000000000E+00 -0.00000000000E+00 -0.49634486366E+03  0.49634486366E+03  0.00000000000E+00 0. -1.
          1    1    1    2  502    0  0.27516993328E+02  0.58107649477E+02 -0.32050609266E+03  0.32689117345E+03  0.00000000000E+00 0.  1.
         -1    1    1    2    0  501 -0.27516993328E+02 -0.58107649477E+02 -0.16666045866E+03  0.17863200254E+03  0.00000000000E+00 0. -1.
</event>
<event>
 4    1  0.6754235E+001  0.2050049E+02  0.7546771E-02  0.1526517E+00
          2   -1    0    0  502    0  0.00000000000E+00  0.00000000000E+00  0.48661484604E+01  0.48661484604E+01  0.00000000000E+00 0. -1.
         -2   -1    0    0    0  501 -0.00000000000E+00 -0.00000000000E+00 -0.92771190146E+02  0.92771190146E+02  0.00000000000E+00 0.  1.
          1    1    1    2  502    0 -0.11058186316E+02  0.17262286963E+02 -0.56780067122E+02  0.60367591124E+02  0.00000000000E+00 0. -1.
         -1    1    1    2    0  501  0.11058186316E+02 -0.17262286963E+02 -0.31124974564E+02  0.37269747482E+02  0.00000000000E+00 0.  1.
</event>
<event>
 4    1  0.6754235E+001  0.2662738E+02  0.7546771E-02  0.1451387E+00
          2   -1    0    0  502    0  0.00000000000E+00  0.00000000000E+00  0.85353511500E+03  0.85353511500E+03  0.00000000000E+00 0.  1.
         -2   -1    0    0    0  501 -0.00000000000E+00 -0.00000000000E+00 -0.84261384087E+00  0.84261384087E+00  0.00000000000E+00 0. -1.
          1    1    1    2  502    0  0.25703141484E+02  0.69545580067E+01  0.47717809174E+03  0.47792044170E+03  0.00000000000E+00 0.  1.
         -1    1    1    2    0  501 -0.25703141484E+02 -0.69545580067E+01  0.37551440942E+03  0.37645728714E+03  0.00000000000E+00 0. -1.
</event>
<event>
 4    1  0.6754235E+001  0.2248030E+02  0.7546771E-02  0.1499129E+00
          2   -1    0    0  502    0  0.00000000000E+00  0.00000000000E+00  0.55901194294E+03  0.55901194294E+03  0.00000000000E+00 0. -1.
         -2   -1    0    0    0  501 -0.00000000000E+00 -0.00000000000E+00 -0.10470547604E+01  0.10470547604E+01  0.00000000000E+00 0.  1.
          1    1    1    2  502    0  0.13011101245E+02 -0.18332346363E+02  0.17548624617E+03  0.17692028225E+03  0.00000000000E+00 0.  1.
         -1    1    1    2    0  501 -0.13011101245E+02  0.18332346363E+02  0.38247864201E+03  0.38313871545E+03  0.00000000000E+00 0. -1.
</event>
<event>
 4    1  0.6754235E+001  0.2173436E+02  0.7546771E-02  0.1509033E+00
          2   -1    0    0  502    0  0.00000000000E+00  0.00000000000E+00  0.94759297789E+02  0.94759297789E+02  0.00000000000E+00 0.  1.
         -2   -1    0    0    0  501 -0.00000000000E+00 -0.00000000000E+00 -0.11728487648E+02  0.11728487648E+02  0.00000000000E+00 0. -1.
          1    1    1    2  502    0  0.10581218308E+02  0.18984731692E+02  0.11426249651E+01  0.21764370198E+02  0.00000000000E+00 0. -1.
         -1    1    1    2    0  501 -0.10581218308E+02 -0.18984731692E+02  0.81888185176E+02  0.84723415238E+02  0.00000000000E+00 0.  1.
</event>
<event>
 4    1  0.6754235E+001  0.2542260E+02  0.7546771E-02  0.1464131E+00
          2   -1    0    0  502    0  0.00000000000E+00  0.00000000000E+00  0.48325181297E+03  0.48325181297E+03  0.00000000000E+00 0. -1.
         -2   -1    0    0    0  501 -0.00000000000E+00 -0.00000000000E+00 -0.13915430086E+01  0.13915430086E+01  0.00000000000E+00 0.  1.
          1    1    1    2  502    0 -0.20632391160E+02  0.14853054128E+02  0.19313867040E+03  0.19480465802E+03  0.00000000000E+00 0. -1.
         -1    1    1    2    0  501  0.20632391160E+02 -0.14853054128E+02  0.28872159957E+03  0.28983869797E+03  0.00000000000E+00 0.  1.
</event>
<event>
 4    1  0.6754235E+001  0.2469488E+02  0.7546771E-02  0.1472246E+00
          2   -1    0    0  502    0  0.00000000000E+00  0.00000000000E+00  0.92127780645E+01  0.92127780645E+01  0.00000000000E+00 0.  1.
         -2   -1    0    0    0  501 -0.00000000000E+00 -0.00000000000E+00 -0.10149119784E+03  0.10149119784E+03  0.00000000000E+00 0. -1.
          1    1    1    2  502    0  0.23859568658E+02  0.63685344481E+01 -0.78781808913E+02  0.82561556812E+02  0.00000000000E+00 0. -1.
         -1    1    1    2    0  501 -0.23859568658E+02 -0.63685344481E+01 -0.13496610862E+02  0.28142419092E+02  0.00000000000E+00 0.  1.
</event>
<event>
 4    1  0.6754235E+001  0.4296165E+02  0.7546771E-02  0.1331953E+00
          2   -1    0    0  502    0  0.00000000000E+00  0.00000000000E+00  0.10485716383E+03  0.10485716383E+03  0.00000000000E+00 0. -1.
         -2   -1    0    0    0  501 -0.00000000000E+00 -0.00000000000E+00 -0.21128486432E+02  0.21128486432E+02  0.00000000000E+00 0.  1.
          1    1    1    2  502    0 -0.33295702455E+02 -0.27149575569E+02  0.67599306071E+02  0.80096001379E+02  0.00000000000E+00 0. -1.
         -1    1    1    2    0  501  0.33295702455E+02  0.27149575569E+02  0.16129371331E+02  0.45889648888E+02  0.00000000000E+00 0.  1.
</event>
<event>
 4    1  0.6754235E+001  0.2268774E+02  0.7546771E-02  0.1496457E+00
          2   -1    0    0  502    0  0.00000000000E+00  0.00000000000E+00  0.77917058401E+03  0.77917058401E+03  0.00000000000E+00 0. -1.
         -2   -1    0    0    0  501 -0.00000000000E+00 -0.00000000000E+00 -0.16383291716E+01  0.16383291716E+01  0.00000000000E+00 0.  1.
          1    1    1    2  502    0 -0.47044826455E+00 -0.22682862568E+02  0.87174260002E+02  0.90078217027E+02  0.00000000000E+00 0.  1.
         -1    1    1    2    0  501  0.47044826455E+00  0.22682862568E+02  0.69035799484E+03  0.69073069615E+03  0.00000000000E+00 0. -1.
</event>
<event>
 4    1  0.6754235E+001  0.2445963E+02  0.7546771E-02  0.1474940E+00
          2   -1    0    0  502    0  0.00000000000E+00  0.00000000000E+00  0.56913852998E+03  0.56913852998E+03  0.00000000000E+00 0. -1.
         -2   -1    0    0    0  501 -0.00000000000E+00 -0.00000000000E+00 -0.10781584980E+01  0.10781584980E+01  0.00000000000E+00 0.  1.
          1    1    1    2  502    0  0.15863939509E+01 -0.24408133956E+02  0.32912057862E+03  0.33002822443E+03  0.00000000000E+00 0.  1.
         -1    1    1    2    0  501 -0.15863939509E+01  0.24408133956E+02  0.23893979286E+03  0.24018846405E+03  0.00000000000E+00 0. -1.
</event>
<event>
 4    1  0.6754235E+001  0.3685106E+02  0.7546771E-02  0.1367997E+00
          2   -1    0    0  502    0  0.00000000000E+00  0.00000000000E+00  0.16107249645E+03  0.16107249645E+03  0.00000000000E+00 0. -1.
         -2   -1    0    0    0  501 -0.00000000000E+00 -0.00000000000E+00 -0.11953205625E+02  0.11953205625E+02  0.00000000000E+00 0.  1.
          1    1    1    2  502    0  0.10508765974E+02 -0.35320911968E+02  0.27597681085E+02  0.46039472041E+02  0.00000000000E+00 0.  1.
         -1    1    1    2    0  501 -0.10508765974E+02  0.35320911968E+02  0.12152160974E+03  0.12698623003E+03  0.00000000000E+00 0. -1.
</event>
<event>
 4    1  0.6754235E+001  0.3902233E+02  0.7546771E-02  0.1354312E+00
          2   -1    0    0  502    0  0.00000000000E+00  0.00000000000E+00  0.25633946233E+02  0.25633946233E+02  0.00000000000E+00 0.  1.
         -2   -1    0    0    0  501 -0.00000000000E+00 -0.00000000000E+00 -0.62430995388E+02  0.62430995388E+02  0.00000000000E+00 0. -1.
          1    1    1    2  502    0 -0.50806880566E+00 -0.39019026895E+02 -0.28095237807E+02  0.48084144800E+02  0.00000000000E+00 0. -1.
         -1    1    1    2    0  501  0.50806880566E+00  0.39019026895E+02 -0.87018113484E+01  0.39980796821E+02  0.00000000000E+00 0.  1.
</event>
<event>
 4    1  0.6754235E+001  0.3683180E+02  0.7546771E-02  0.1368123E+00
          2   -1    0    0  502    0  0.00000000000E+00  0.00000000000E+00  0.53814986287E+02  0.53814986287E+02  0.00000000000E+00 0. -1.
         -2   -1    0    0    0  501 -0.00000000000E+00 -0.00000000000E+00 -0.32867826101E+02  0.32867826101E+02  0.00000000000E+00 0.  1.
          1    1    1    2  502    0 -0.93623086915E+01 -0.35622022421E+02 -0.10449231541E+02  0.38285346351E+02  0.00000000000E+00 0. -1.
         -1    1    1    2    0  501  0.93623086915E+01  0.35622022421E+02  0.31396391727E+02  0.48397466038E+02  0.00000000000E+00 0.  1.
</event>
<event>
 4    1  0.6754235E+001  0.4338019E+02  0.7546771E-02  0.1329741E+00
          2   -1    0    0  502    0  0.00000000000E+00  0.00000000000E+00  0.82966496846E+01  0.82966496846E+01  0.00000000000E+00 0.  1.
         -2   -1    0    0    0  501 -0.00000000000E+00 -0.00000000000E+00 -0.22702622543E+03  0.22702622543E+03  0.00000000000E+00 0. -1.
          1    1    1    2  502    0  0.41711654808E+02  0.11915479380E+02 -0.10581308156E+03  0.11436017237E+03  0.00000000000E+00 0. -1.
         -1    1    1    2    0  501 -0.41711654808E+02 -0.11915479380E+02 -0.11291649418E+03  0.12096270274E+03  0.00000000000E+00 0.  1.
</event>
<event>
 4    1  0.6754235E+001  0.3164000E+02  0.7546771E-02  0.1405861E+00
          2   -1    0    0  502    0  0.00000000000E+00  0.00000000000E+00  0.22589825117E+04  0.22589825117E+04  0.00000000000E+00 0. -1.
         -2   -1    0    0    0  501 -0.00000000000E+00 -0.00000000000E+00 -0.47111009635E+00  0.47111009635E+00  0.00000000000E+00 0.  1.
          1    1    1    2  502    0 -0.30574843101E+02 -0.81405652294E+01  0.85408205890E+03  0.85466791982E+03  0.00000000000E+00 0.  1.
         -1    1    1    2    0  501  0.30574843101E+02  0.81405652294E+01  0.14044293427E+04  0.14047857020E+04  0.00000000000E+00 0. -1.
</event>
<event>
 4    1  0.6754235E+001  0.2415291E+02  0.7546771E-02  0.1478507E+00
          2   -1    0    0  502    0  0.00000000000E+00  0.00000000000E+00  0.66140640530E+03  0.66140640530E+03  0.00000000000E+00 0. -1.
         -2   -1    0    0    0  501 -0.00000000000E+00 -0.00000000000E+00 -0.10144811618E+01  0.10144811618E+01  0.00000000000E+00 0.  1.
          1    1    1    2  502    0 -0.10146827060E+02 -0.21918143603E+02  0.21050744716E+03  0.21188852831E+03  0.00000000000E+00 0. -1.
         -1    1    1    2    0  501  0.10146827060E+02  0.21918143603E+02  0.44988447698E+03  0.45053235816E+03  0.00000000000E+00 0.  1.
</event>
<event>
 4    1  0.6754235E+001  0.2676469E+02  0.7546771E-02  0.1449986E+00
          2   -1    0    0  502    0  0.00000000000E+00  0.00000000000E+00  0.61376772999E+03  0.61376772999E+03  0.00000000000E+00 0. -1.
         -2   -1    0    0    0  501 -0.00000000000E+00 -0.00000000000E+00 -0.35230158270E+01  0.35230158270E+01  0.00000000000E+00 0.  1.
          1    1    1    2  502    0 -0.38979290085E+01  0.26479323825E+02  0.55751653718E+03  0.55815861336E+03  0.00000000000E+00 0. -1.
         -1    1    1    2    0  501  0.38979290085E+01 -0.26479323825E+02  0.52728176985E+02  0.59132132458E+02  0.00000000000E+00 0.  1.
</event>
<event>
 4    1  0.6754235E+001  0.4537618E+02  0.7546771E-02  0.1319569E+00
          2   -1    0    0  502    0  0.00000000000E+00  0.00000000000E+00  0.44499529834E+02  0.44499529834E+02  0.00000000000E+00 0.  1.
         -2   -1    0    0    0  501 -0.00000000000E+00 -0.00000000000E+00 -0.48159727536E+02  0.48159727536E+02  0.00000000000E+00 0. -1.
          1    1    1    2  502    0  0.28279744307E+02  0.35485959795E+02 -0.11007209844E+02  0.46692140122E+02  0.00000000000E+00 0. -1.
         -1    1    1    2    0  501 -0.28279744307E+02 -0.35485959795E+02  0.73470121428E+01  0.45967117248E+02  0.00000000000E+00 0.  1.
</event>
<event>
 4    1  0.6754235E+001  0.2285216E+02  0.7546771E-02  0.1494363E+00
          2   -1    0    0  502    0  0.00000000000E+00  0.00000000000E+00  0.22355506468E+03  0.22355506468E+03  0.00000000000E+00 0.  1.
         -2   -1    0    0    0  501 -0.00000000000E+00 -0.00000000000E+00 -0.24518941665E+01  0.24518941665E+01  0.00000000000E+00 0. -1.
          1    1    1    2  502    0  0.20539053485E+02  0.10018410370E+02  0.13512129121E+03  0.13704008393E+03  0.00000000000E+00 0.  1.
         -1    1    1    2    0  501 -0.20539053485E+02 -0.10018410370E+02  0.85981879301E+02  0.88966874917E+02  0.00000000000E+00 0. -1.
</event>
<event>
 4    1  0.6754235E+001  0.2170547E+02  0.7546771E-02  0.1509426E+00
          2   -1    0    0  502    0  0.00000000000E+00  0.00000000000E+00  0.27358623572E+04  0.27358623572E+04  0.00000000000E+00 0.  1.
         -2   -1    0    0    0  501 -0.00000000000E+00 -0.00000000000E+00 -0.17220671117E+00  0.17220671117E+00  0.00000000000E+00 0. -1.
          1    1    1    2  502    0  0.11565203360E+02 -0.18367728657E+02  0.13729161990E+04  0.13730877673E+04  0.00000000000E+00 0.  1.
         -1    1    1    2    0  501 -0.11565203360E+02  0.18367728657E+02  0.13627739515E+04  0.13629467966E+04  0.00000000000E+00 0. -1.
</event>
<event>
 4    1  0.6754235E+001  0.2032475E+02  0.7546771E-02  0.1529128E+00
          2   -1    0    0  502    0  0.00000000000E+00  0.00000000000E+00  0.18082620299E+03  0.18082620299E+03  0.00000000000E+00 0.  1.
         -2   -1    0    0    0  501 -0.00000000000E+00 -0.00000000000E+00 -0.35021274486E+01  0.35021274486E+01  0.00000000000E+00 0. -1.
          1    1    1    2  502    0  0.61004598105E+01 -0.19387622188E+02  0.14300649619E+03  0.14444359957E+03  0.00000000000E+00 0.  1.
         -1    1    1    2    0  501 -0.61004598105E+01  0.19387622188E+02  0.34317579351E+02  0.39884730869E+02  0.00000000000E+00 0. -1.
</event>
<event>
 4    1  0.6754235E+001  0.2211341E+02  0.7546771E-02  0.1503942E+00
          2   -1    0    0  502    0  0.00000000000E+00  0.00000000000E+00  0.21565805580E+03  0.21565805580E+03  0.00000000000E+00 0. -1.
         -2   -1    0    0    0  501 -0.00000000000E+00 -0.00000000000E+00 -0.22676047422E+01  0.22676047422E+01  0.00000000000E+00 0.  1.
          1    1    1    2  502    0  0.93247627271E+01 -0.20051225495E+02  0.10592576851E+03  0.10820938627E+03  0.00000000000E+00 0.  1.
         -1    1    1    2    0  501 -0.93247627271E+01  0.20051225495E+02  0.10746468254E+03  0.10971627426E+03  0.00000000000E+00 0. -1.
</event>
<event>
 4    1  0.6754235E+001  0.2903247E+02  0.7546771E-02  0.1428195E+00
          2   -1    0    0  502    0  0.00000000000E+00  0.00000000000E+00  0.65517444090E+03  0.65517444090E+03  0.00000000000E+00 0. -1.
         -2   -1    0    0    0  501 -0.00000000000E+00 -0.00000000000E+00 -0.13733690545E+01  0.13733690545E+01  0.00000000000E+00 0.  1.
          1    1    1    2  502    0 -0.24312803363E+02 -0.15867317269E+02  0.40945997026E+03  0.41048794308E+03  0.00000000000E+00 0.  1.
         -1    1    1    2    0  501  0.24312803363E+02  0.15867317269E+02  0.24434110158E+03  0.24605986688E+03  0.00000000000E+00 0. -1.
</event>
<event>
 4    1  0.6754235E+001  0.2530265E+02  0.7546771E-02  0.1465446E+00
          2   -1    0    0  502    0  0.00000000000E+00  0.00000000000E+00  0.68292595250E+01  0.68292595250E+01  0.00000000000E+00 0.  1.
         -2   -1    0    0    0  501 -0.00000000000E+00 -0.00000000000E+00 -0.10155732022E+03  0.10155732022E+03  0.00000000000E+00 0. -1.
          1    1    1    2  502    0  0.24268607108E+02  0.71595423010E+01 -0.32335475563E+02  0.41058583960E+02  0.00000000000E+00 0. -1.
         -1    1    1    2    0  501 -0.24268607108E+02 -0.71595423010E+01 -0.62392585128E+02  0.67327995781E+02  0.00000000000E+00 0.  1.
</event>
<event>
 4    1  0.6754235E+001  0.3000201E+02  0.7546771E-02  0.1419579E+00
          2   -1    0    0  502    0  0.00000000000E+00  0.00000000000E+00  0.65101947681E+03  0.65101947681E+03  0.00000000000E+00 0.  1.
         -2   -1    0    0    0  501 -0.00000000000E+00 -0.00000000000E+00 -0.13860306043E+01  0.13860306043E+01  0.00000000000E+00 0. -1.
          1    1    1    2  502    0 -0.52725850963E+01  0.29535069722E+02  0.34096916484E+03  0.34228656396E+03  0.00000000000E+00 0.  1.
         -1    1    1    2    0  501  0.52725850963E+01 -0.29535069722E+02  0.30866428137E+03  0.31011894346E+03  0.00000000000E+00 0. -1.
</event>
<event>
 4    1  0.6754235E+001  0.3030925E+02  0.7546771E-02  0.1416928E+00
          2   -1    0    0  502    0  0.00000000000E+00  0.00000000000E+00  0.17163125079E+03  0.17163125079E+03  0.00000000000E+00 0. -1.
         -2   -1    0    0    0  501 -0.00000000000E+00 -0.00000000000E+00 -0.76246682372E+01  0.76246682372E+01  0.00000000000E+00 0.  1.
          1    1    1    2  502    0  0.17087891746E+02 -0.25033065619E+02  0.33075396032E+02  0.44862369992E+02  0.00000000000E+00 0.  1.
         -1    1    1    2    0  501 -0.17087891746E+02  0.25033065619E+02  0.13093118652E+03  0.13439354904E+03  0.00000000000E+00 0. -1.
</event>
<event>
 4    1  0.6754235E+001  0.2079104E+02  0.7546771E-02  0.1522269E+00
          2   -1    0    0  502    0  0.00000000000E+00  0.00000000000E+00  0.17680621858E+03  0.17680621858E+03  0.00000000000E+00 0. -1.
         -2   -1    0    0    0  501 -0.00000000000E+00 -0.00000000000E+00 -0.26098069153E+01  0.26098069153E+01  0.00000000000E+00 0.  1.
          1    1    1    2  502    0  0.16323346647E+02  0.12876952192E+02  0.64545896715E+02  0.67811800789E+02  0.00000000000E+00 0. -1.
         -1    1    1    2    0  501 -0.16323346647E+02 -0.12876952192E+02  0.10965051495E+03  0.11160422470E+03  0.00000000000E+00 0.  1.
</event>
<event>
 4    1  0.6754235E+001  0.4311681E+02  0.7546771E-02  0.1331130E+00
          2   -1    0    0  502    0  0.00000000000E+00  0.00000000000E+00  0.96410170031E+03  0.96410170031E+03  0.00000000000E+00 0.  1.
         -2   -1    0    0    0  501 -0.00000000000E+00 -0.00000000000E+00 -0.19403637408E+01  0.19403637408E+01  0.00000000000E+00 0. -1.
          1    1    1    2  502    0  0.41617136379E+02  0.11272685280E+02  0.44296546926E+03  0.44505894714E+03  0.00000000000E+00 0.  1.
         -1    1    1    2    0  501 -0.41617136379E+02 -0.11272685280E+02  0.51919586731E+03  0.52098311691E+03  0.00000000000E+00 0. -1.
</event>
<event>
 4    1  0.6754235E+001  0.2085431E+02  0.7546771E-02  0.1521355E+00
          2   -1    0    0  502    0  0.00000000000E+00  0.00000000000E+00  0.70624500246E+01  0.70624500246E+01  0.00000000000E+00 0.  1.
         -2   -1    0    0    0  501 -0.00000000000E+00 -0.00000000000E+00 -0.61601379129E+02  0.61601379129E+02  0.00000000000E+00 0. -1.
          1    1    1    2  502    0 -0.83416214611E+01 -0.19113332405E+02 -0.27916520469E+02  0.34845864020E+02  0.00000000000E+00 0. -1.
         -1    1    1    2    0  501  0.83416214611E+01  0.19113332405E+02 -0.26622408636E+02  0.33817965134E+02  0.00000000000E+00 0.  1.
</event>
<event>
 4    1  0.6754235E+001  0.3244501E+02  0.7546771E-02  0.1399474E+00
          2   -1    0    0  502    0  0.00000000000E+00  0.00000000000E+00  0.47365551513E+03  0.47365551513E+03  0.00000000000E+00 0.  1.
         -2   -1    0    0    0  501 -0.00000000000E+00 -0.00000000000E+00 -0.22359042709E+01  0.22359042709E+01  0.00000000000E+00 0. -1.
          1    1    1    2  502    0 -0.17308603878E+01  0.32398806927E+02  0.25416351147E+03  0.25622601182E+03  0.00000000000E+00 0. -1.
         -1    1    1    2    0  501  0.17308603878E+01 -0.32398806927E+02  0.21725609938E+03  0.21966540758E+03  0.00000000000E+00 0.  1.
</event>
<event>
 4    1  0.6754235E+001  0.2623967E+02  0.7546771E-02  0.1455399E+00
          2   -1    0    0  502    0  0.00000000000E+00  0.00000000000E+00  0.68613644728E+00  0.68613644728E+00  0.00000000000E+00 0.  1.
         -2   -1    0    0    0  501 -0.00000000000E+00 -0.00000000000E+00 -0.10069244105E+04  0.10069244105E+04  0.00000000000E+00 0. -1.
          1    1    1    2  502    0 -0.26176146777E+02  0.18247125617E+01 -0.47362838620E+03  0.47435468634E+03  0.00000000000E+00 0.  1.
         -1    1    1    2    0  501  0.26176146777E+02 -0.18247125617E+01 -0.53260988784E+03  0.53325586059E+03  0.00000000000E+00 0. -1.
</event>
<event>
 4    1  0.6754235E+001  0.3467440E+02  0.7546771E-02  0.1382867E+00
          2   -1    0    0  502    0  0.00000000000E+00  0.00000000000E+00  0.16571091193E+02  0.16571091193E+02  0.00000000000E+00 0. -1.
         -2   -1    0    0    0  501 -0.00000000000E+00 -0.00000000000E+00 -0.82753334470E+02  0.82753334470E+02  0.00000000000E+00 0.  1.
          1    1    1    2  502    0 -0.33595198821E+02  0.85835274509E+01 -0.15657023927E+02  0.38045456043E+02  0.00000000000E+00 0. -1.
         -1    1    1    2    0  501  0.33595198821E+02 -0.85835274509E+01 -0.50525219350E+02  0.61278969620E+02  0.00000000000E+00 0.  1.
</event>
<event>
 4    1  0.6754235E+001  0.2195032E+02  0.7546771E-02  0.1506117E+00
          2   -1    0    0  502    0  0.00000000000E+00  0.00000000000E+00  0.91921544813E+03  0.91921544813E+03  0.00000000000E+00 0. -1.
         -2   -1    0    0    0  501 -0.00000000000E+00 -0.00000000000E+00 -0.10139655815E+01  0.10139655815E+01  0.00000000000E+00 0.  1.
          1    1    1    2  502    0 -0.20856725115E+02 -0.68420561842E+01  0.13930990595E+03  0.14102860211E+03  0.00000000000E+00 0.  1.
         -1    1    1    2    0  501  0.20856725115E+02  0.68420561842E+01  0.77889157660E+03  0.77920081161E+03  0.00000000000E+00 0. -1.
</event>
<event>
 4    1  0.6754235E+001  0.2344189E+02  0.7546771E-02  0.1487023E+00
          2   -1    0    0  502    0  0.00000000000E+00  0.00000000000E+00  0.45168403676E+03  0.45168403676E+03  0.00000000000E+00 0. -1.
         -2   -1    0    0    0  501 -0.00000000000E+00 -0.00000000000E+00 -0.12247849476E+01  0.12247849476E+01  0.00000000000E+00 0.  1.
          1    1    1    2  502    0  0.50994407408E+01  0.22880513316E+02  0.24373337899E+03  0.24485808587E+03  0.00000000000E+00 0.  1.
         -1    1    1    2    0  501 -0.50994407408E+01 -0.22880513316E+02  0.20672587282E+03  0.20805073583E+03  0.00000000000E+00 0. -1.
</event>
<event>
 4    1  0.6754235E+001  0.2671452E+02  0.7546771E-02  0.1450497E+00
          2   -1    0    0  502    0  0.00000000000E+00  0.00000000000E+00  0.68650531737E+01  0.68650531737E+01  0.00000000000E+00 0. -1.
         -2   -1    0    0    0  501 -0.00000000000E+00 -0.00000000000E+00 -0.11667516036E+03  0.11667516036E+03  0.00000000000E+00 0.  1.
          1    1    1    2  502    0 -0.25866341514E+02  0.66781720901E+01 -0.75299553160E+02  0.79897986907E+02  0.00000000000E+00 0.  1.
         -1    1    1    2    0  501  0.25866341514E+02 -0.66781720901E+01 -0.34510554030E+02  0.43642226630E+02  0.00000000000E+00 0. -1.
</event>
<event>
 4    1  0.6754235E+001  0.2754759E+02  0.7546771E-02  0.1442184E+00
          2   -1    0    0  502    0  0.00000000000E+00  0.00000000000E+00  0.13096591381E+04  0.13096591381E+04  0.00000000000E+00 0. -1.
         -2   -1    0    0    0  501 -0.00000000000E+00 -0.00000000000E+00 -0.63066574430E+00  0.63066574430E+00  0.00000000000E+00 0.  1.
          1    1    1    2  502    0 -0.18092167877E+02  0.20773612329E+02  0.84122952783E+03  0.84168045481E+03  0.00000000000E+00 0. -1.
         -1    1    1    2    0  501  0.18092167877E+02 -0.20773612329E+02  0.46779894453E+03  0.46860934905E+03  0.00000000000E+00 0.  1.
</event>
<event>
 4    1  0.6754235E+001  0.2082156E+02  0.7546771E-02  0.1521828E+00
          2   -1    0    0  502    0  0.00000000000E+00  0.00000000000E+00  0.34307412529E+02  0.34307412529E+02  0.00000000000E+00 0. -1.
         -2   -1    0    0    0  501 -0.00000000000E+00 -0.00000000000E+00 -0.15632912523E+02  0.15632912523E+02  0.00000000000E+00 0.  1.
          1    1    1    2  502    0  0.20282079628E+02  0.47089816130E+01 -0.15941962951E+01  0.20882498023E+02  0.00000000000E+00 0.  1.
         -1    1    1    2    0  501 -0.20282079628E+02 -0.47089816130E+01  0.20268696301E+02  0.29057827028E+02  0.00000000000E+00 0. -1.
</event>
<event>
 4    1  0.6754235E+001  0.1078368E+03  0.7546771E-02  0.1150879E+00
          2   -1    0    0  502    0  0.00000000000E+00  0.00000000000E+00  0.33628964252E+02  0.33628964252E+02  0.00000000000E+00 0. -1.
         -2   -1    0    0    0  501 -0.00000000000E+00 -0.00000000000E+00 -0.34871176173E+03  0.34871176173E+03  0.00000000000E+00 0.  1.
          1    1    1    2  502    0  0.95889916195E+02 -0.49334525197E+02 -0.17502137969E+03  0.20557542351E+03  0.00000000000E+00 0. -1.
         -1    1    1    2    0  501 -0.95889916195E+02  0.49334525197E+02 -0.14006141779E+03  0.17676530247E+03  0.00000000000E+00 0.  1.
</event>
<event>
 4    1  0.6754235E+001  0.3772785E+02  0.7546771E-02  0.1362341E+00
          2   -1    0    0  502    0  0.00000000000E+00  0.00000000000E+00  0.22205066318E+03  0.22205066318E+03  0.00000000000E+00 0.  1.
         -2   -1    0    0    0  501 -0.00000000000E+00 -0.00000000000E+00 -0.67315853974E+01  0.67315853974E+01  0.00000000000E+00 0. -1.
          1    1    1    2  502    0 -0.10853065163E+02  0.36133109330E+02  0.13265391496E+03  0.13791465393E+03  0.00000000000E+00 0.  1.
         -1    1    1    2    0  501  0.10853065163E+02 -0.36133109330E+02  0.82665162822E+02  0.90867594651E+02  0.00000000000E+00 0. -1.
</event>
<event>
 4    1  0.6754235E+001  0.3862358E+02  0.7546771E-02  0.1356746E+00
          2   -1    0    0  502    0  0.00000000000E+00  0.00000000000E+00  0.23007015488E+01  0.23007015488E+01  0.00000000000E+00 0.  1.
         -2   -1    0    0    0  501 -0.00000000000E+00 -0.00000000000E+00 -0.79444159331E+03  0.79444159331E+03  0.00000000000E+00 0. -1.
          1    1    1    2  502    0 -0.21127218764E+02  0.32332978171E+02 -0.22526908949E+03  0.22855621525E+03  0.00000000000E+00 0.  1.
         -1    1    1    2    0  501  0.21127218764E+02 -0.32332978171E+02 -0.56687180227E+03  0.56818607961E+03  0.00000000000E+00 0. -1.
</event>
<event>
 4    1  0.6754235E+001  0.2123691E+02  0.7546771E-02  0.1515909E+00
          2   -1    0    0  502    0  0.00000000000E+00  0.00000000000E+00  0.96198309987E+00  0.96198309987E+00  0.00000000000E+00 0.  1.
         -2   -1    0    0    0  501 -0.00000000000E+00 -0.00000000000E+00 -0.51759303750E+03  0.51759303750E+03  0.00000000000E+00 0. -1.
          1    1    1    2  502    0  0.46351599542E+01 -0.20724901514E+02 -0.33789798263E+03  0.33856469532E+03  0.00000000000E+00 0. -1.
         -1    1    1    2    0  501 -0.46351599542E+01  0.20724901514E+02 -0.17873307177E+03  0.17999032528E+03  0.00000000000E+00 0.  1.
</event>
<event>
 4    1  0.6754235E+001  0.3246484E+02  0.7546771E-02  0.1399319E+00
          2   -1    0    0  502    0  0.00000000000E+00  0.00000000000E+00  0.46744061102E+01  0.46744061102E+01  0.00000000000E+00 0.  1.
         -2   -1    0    0    0  501 -0.00000000000E+00 -0.00000000000E+00 -0.28764999349E+03  0.28764999349E+03  0.00000000000E+00 0. -1.
          1    1    1    2  502    0 -0.31953811265E+02  0.57375497494E+01 -0.20944068046E+03  0.21194188865E+03  0.00000000000E+00 0. -1.
         -1    1    1    2    0  501  0.31953811265E+02 -0.57375497494E+01 -0.73534906918E+02  0.80382510952E+02  0.00000000000E+00 0.  1.
</event>
<event>
 4    1  0.6754235E+001  0.3650151E+02  0.7546771E-02  0.1370304E+00
          2   -1    0    0  502    0  0.00000000000E+00  0.00000000000E+00  0.69507549184E+03  0.69507549184E+03  0.00000000000E+00 0.  1.
         -2   -1    0    0    0  501 -0.00000000000E+00 -0.00000000000E+00 -0.19182855048E+01  0.19182855048E+01  0.00000000000E+00 0. -1.
          1    1    1    2  502    0  0.19700535273E+02  0.30728640411E+02  0.35608813622E+03  0.35795407693E+03  0.00000000000E+00 0.  1.
         -1    1    1    2    0  501 -0.19700535273E+02 -0.30728640411E+02  0.33706907011E+03  0.33903970041E+03  0.00000000000E+00 0. -1.
</event>
<event>
 4    1  0.6754235E+001  0.2122032E+02  0.7546771E-02  0.1516142E+00
          2   -1    0    0  502    0  0.00000000000E+00  0.00000000000E+00  0.94405912077E+01  0.94405912077E+01  0.00000000000E+00 0.  1.
         -2   -1    0    0    0  501 -0.00000000000E+00 -0.00000000000E+00 -0.47900195142E+02  0.47900195142E+02  0.00000000000E+00 0. -1.
          1    1    1    2  502    0 -0.17423416306E+02 -0.12113065419E+02 -0.21090351537E+02  0.29918300713E+02  0.00000000000E+00 0.  1.
         -1    1    1    2    0  501  0.17423416306E+02  0.12113065419E+02 -0.17369252397E+02  0.27422485636E+02  0.00000000000E+00 0. -1.
</event>
<event>
 4    1  0.6754235E+001  0.2054564E+02  0.7546771E-02  0.1525852E+00
          2   -1    0    0  502    0  0.00000000000E+00  0.00000000000E+00  0.91551049029E+01  0.91551049029E+01  0.00000000000E+00 0. -1.
         -2   -1    0    0    0  501 -0.00000000000E+00 -0.00000000000E+00 -0.47943258635E+02  0.47943258635E+02  0.00000000000E+00 0.  1.
          1    1    1    2  502    0  0.28371036891E+01 -0.20348808179E+02 -0.13808294323E+02  0.24754638833E+02  0.00000000000E+00 0. -1.
         -1    1    1    2    0  501 -0.28371036891E+01  0.20348808179E+02 -0.24979859410E+02  0.32343724705E+02  0.00000000000E+00 0.  1.
</event>
<event>
 4    1  0.6754235E+001  0.2677066E+02  0.7546771E-02  0.1449926E+00
          2   -1    0    0  502    0  0.00000000000E+00  0.00000000000E+00  0.24652706606E+04  0.24652706606E+04  0.00000000000E+00 0. -1.
         -2   -1    0    0    0  501 -0.00000000000E+00 -0.00000000000E+00 -0.29089299876E+00  0.29089299876E+00  0.00000000000E+00 0.  1.
          1    1    1    2  502    0  0.22056303352E+02 -0.15171935385E+02  0.12012053256E+04  0.12015036007E+04  0.00000000000E+00 0. -1.
         -1    1    1    2    0  501 -0.22056303352E+02  0.15171935385E+02  0.12637744420E+04  0.12640579529E+04  0.00000000000E+00 0.  1.
</event>
<event>
 4    1  0.6754235E+001  0.2237947E+02  0.7546771E-02  0.1500441E+00
          2   -1    0    0  502    0  0.00000000000E+00  0.00000000000E+00  0.10430987292E+03  0.10430987292E+03  0.00000000000E+00 0. -1.
         -2   -1    0    0    0  501 -0.00000000000E+00 -0.00000000000E+00 -0.49503588772E+01  0.49503588772E+01  0.00000000000E+00 0.  1.
          1    1    1    2  502    0  0.22221874463E+02  0.26511834759E+01  0.59154083832E+02  0.63245917754E+02  0.00000000000E+00 0.  1.
         -1    1    1    2    0  501 -0.22221874463E+02 -0.26511834759E+01  0.40205430208E+02  0.46014314041E+02  0.00000000000E+00 0. -1.
</event>
<event>
 4    1  0.6754235E+001  0.3363930E+02  0.7546771E-02  0.1390390E+00
          2   -1    0    0  502    0  0.00000000000E+00  0.00000000000E+00  0.89624268101E+03  0.89624268101E+03  0.00000000000E+00 0. -1.
         -2   -1    0    0    0  501 -0.00000000000E+00 -0.00000000000E+00 -0.20910352616E+01  0.20910352616E+01  0.00000000000E+00 0.  1.
          1    1    1    2  502    0  0.25399283613E+02  0.22056266594E+02  0.72979444427E+03  0.73056932142E+03  0.00000000000E+00 0. -1.
         -1    1    1    2    0  501 -0.25399283613E+02 -0.22056266594E+02  0.16435720148E+03  0.16776439486E+03  0.00000000000E+00 0.  1.
</event>
<event>
 4    1  0.6754235E+001  0.3098870E+02  0.7546771E-02  0.1411195E+00
          2   -1    0    0  502    0  0.00000000000E+00  0.00000000000E+00  0.10505043418E+03  0.10505043418E+03  0.00000000000E+00 0. -1.
         -2   -1    0    0    0  501 -0.00000000000E+00 -0.00000000000E+00 -0.12001182121E+02  0.12001182121E+02  0.00000000000E+00 0.  1.
          1    1    1    2  502    0 -0.30304683904E+02  0.64750039629E+01  0.17954772059E+02  0.35814429809E+02  0.00000000000E+00 0.  1.
         -1    1    1    2    0  501  0.30304683904E+02 -0.64750039629E+01  0.75094480004E+02  0.81237186497E+02  0.00000000000E+00 0. -1.
</event>
<event>
 4    1  0.6754235E+001  0.2108931E+02  0.7546771E-02  0.1517994E+00
          2   -1    0    0  502    0  0.00000000000E+00  0.00000000000E+00  0.93168612156E+03  0.93168612156E+03  0.00000000000E+00 0.  1.
         -2   -1    0    0    0  501 -0.00000000000E+00 -0.00000000000E+00 -0.52572709563E+00  0.52572709563E+00  0.00000000000E+00 0. -1.
          1    1    1    2  502    0  0.19627845533E+02 -0.77140438485E+01  0.60694313577E+03  0.60730941772E+03  0.00000000000E+00 0.  1.
         -1    1    1    2    0  501 -0.19627845533E+02  0.77140438485E+01  0.32421725869E+03  0.32490243093E+03  0.00000000000E+00 0. -1.
</event>
<event>
 4    1  0.6754235E+001  0.2438573E+02  0.7546771E-02  0.1475794E+00
          2   -1    0    0  502    0  0.00000000000E+00  0.00000000000E+00  0.93056535975E+03  0.93056535975E+03  0.00000000000E+00 0.  1.
         -2   -1    0    0    0  501 -0.00000000000E+00 -0.00000000000E+00 -0.84179790943E+00  0.84179790943E+00  0.00000000000E+00 0. -1.
          1    1    1    2  502    0 -0.24368219327E+02  0.92402370058E+00  0.23630200690E+03  0.23755694559E+03  0.00000000000E+00 0. -1.
         -1    1    1    2    0  501  0.24368219327E+02 -0.92402370058E+00  0.69342155495E+03  0.69385021208E+03  0.00000000000E+00 0.  1.
</event>
<event>
 4    1  0.6754235E+001  0.5026707E+02  0.7546771E-02  0.1297019E+00
          2   -1    0    0  502    0  0.00000000000E+00  0.00000000000E+00  0.14651251970E+04  0.14651251970E+04  0.00000000000E+00 0.  1.
         -2   -1    0    0    0  501 -0.00000000000E+00 -0.00000000000E+00 -0.20444413719E+01  0.20444413719E+01  0.00000000000E+00 0. -1.
          1    1    1    2  502    0 -0.10053937469E+02 -0.49251366095E+02  0.44139257036E+03  0.44424563013E+03  0.00000000000E+00 0. -1.
         -1    1    1    2    0  501  0.10053937469E+02  0.49251366095E+02  0.10216881853E+04  0.10229240083E+04  0.00000000000E+00 0.  1.
</event>
<event>
 4    1  0.6754235E+001  0.2018331E+02  0.7546771E-02  0.1531252E+00
          2   -1    0    0  502    0  0.00000000000E+00  0.00000000000E+00  0.20989078938E+03  0.20989078938E+03  0.00000000000E+00 0. -1.
         -2   -1    0    0    0  501 -0.00000000000E+00 -0.00000000000E+00 -0.19662414262E+01  0.19662414262E+01  0.00000000000E+00 0.  1.
          1    1    1    2  502    0 -0.12920459880E+02  0.15505729582E+02  0.91924043072E+02  0.94113737723E+02  0.00000000000E+00 0.  1.
         -1    1    1    2    0  501  0.12920459880E+02 -0.15505729582E+02  0.11600050488E+03  0.11774329308E+03  0.00000000000E+00 0. -1.
</event>
<event>
 4    1  0.6754235E+001  0.5890040E+02  0.7546771E-02  0.1263615E+00
          2   -1    0    0  502    0  0.00000000000E+00  0.00000000000E+00  0.58712099785E+01  0.58712099785E+01  0.00000000000E+00 0. -1.
         -2   -1    0    0    0  501 -0.00000000000E+00 -0.00000000000E+00 -0.73401125398E+03  0.73401125398E+03  0.00000000000E+00 0.  1.
          1    1    1    2  502    0 -0.13461437404E+02  0.57341495000E+02 -0.52742364568E+03  0.53070232652E+03  0.00000000000E+00 0.  1.
         -1    1    1    2    0  501  0.13461437404E+02 -0.57341495000E+02 -0.20071639832E+03  0.20918013744E+03  0.00000000000E+00 0. -1.
</event>
<event>
 4    1  0.6754235E+001  0.2144620E+02  0.7546771E-02  0.1512989E+00
          2   -1    0    0  502    0  0.00000000000E+00  0.00000000000E+00  0.77711097001E+03  0.77711097001E+03  0.00000000000E+00 0.  1.
         -2   -1    0    0    0  501 -0.00000000000E+00 -0.00000000000E+00 -0.13878586657E+01  0.13878586657E+01  0.00000000000E+00 0. -1.
          1    1    1    2  502    0 -0.74348896087E+01 -0.20116212450E+02  0.93072078076E+02  0.95511000959E+02  0.00000000000E+00 0. -1.
         -1    1    1    2    0  501  0.74348896087E+01  0.20116212450E+02  0.68265103327E+03  0.68298782772E+03  0.00000000000E+00 0.  1.
</event>
<event>
 4    1  0.6754235E+001  0.2070520E+02  0.7546771E-02  0.1523516E+00
          2   -1    0    0  502    0  0.00000000000E+00  0.00000000000E+00  0.11363022961E+04  0.11363022961E+04  0.00000000000E+00 0. -1.
         -2   -1    0    0    0  501 -0.00000000000E+00 -0.00000000000E+00 -0.47978346823E+00  0.47978346823E+00  0.00000000000E+00 0.  1.
          1    1    1    2  502    0 -0.19133553996E+02 -0.79128070097E+01  0.83063026091E+03  0.83088828115E+03  0.00000000000E+00 0. -1.
         -1    1    1    2    0  501  0.19133553996E+02  0.79128070097E+01  0.30519225171E+03  0.30589379841E+03  0.00000000000E+00 0.  1.
</event>
<event>
 4    1  0.6754235E+001  0.2299683E+02  0.7546771E-02  0.1492538E+00
          2   -1    0    0  502    0  0.00000000000E+00  0.00000000000E+00  0.10492027352E+01  0.10492027352E+01  0.00000000000E+00 0.  1.
         -2   -1    0    0    0  501 -0.00000000000E+00 -0.00000000000E+00 -0.50475564020E+03  0.50475564020E+03  0.00000000000E+00 0. -1.
          1    1    1    2  502    0 -0.22372572035E+02  0.53218638229E+01 -0.24242015280E+03  0.24350848999E+03  0.00000000000E+00 0. -1.
         -1    1    1    2    0  501  0.22372572035E+02 -0.53218638229E+01 -0.26128628466E+03  0.26229635294E+03  0.00000000000E+00 0.  1.
</event>
<event>
 4    1  0.6754235E+001  0.2134828E+02  0.7546771E-02  0.1514350E+00
          2   -1    0    0  502    0  0.00000000000E+00  0.00000000000E+00  0.32961164675E+01  0.32961164675E+01  0.00000000000E+00 0. -1.
         -2   -1    0    0    0  501 -0.00000000000E+00 -0.00000000000E+00 -0.13838730371E+03  0.13838730371E+03  0.00000000000E+00 0.  1.
          1    1    1    2  502    0  0.96996589998E+01 -0.19017512081E+02 -0.65470122398E+02  0.68862806196E+02  0.00000000000E+00 0. -1.
         -1    1    1    2    0  501 -0.96996589998E+01  0.19017512081E+02 -0.69621064840E+02  0.72820613976E+02  0.00000000000E+00 0.  1.
</event>
<event>
 4    1  0.6754235E+001  0.2450034E+02  0.7546771E-02  0.1474471E+00
          2   -1    0    0  502    0  0.00000000000E+00  0.00000000000E+00  0.14316929491E+04  0.14316929491E+04  0.00000000000E+00 0.  1.
         -2   -1    0    0    0  501 -0.00000000000E+00 -0.00000000000E+00 -0.80446294656E+00  0.80446294656E+00  0.00000000000E+00 0. -1.
          1    1    1    2  502    0  0.42597916936E+00  0.24496641203E+02  0.21982335386E+03  0.22118447909E+03  0.00000000000E+00 0. -1.
         -1    1    1    2    0  501 -0.42597916936E+00 -0.24496641203E+02  0.12110651323E+04  0.12113129330E+04  0.00000000000E+00 0.  1.
</event>
<event>
 4    1  0.6754235E+001  0.2745308E+02  0.7546771E-02  0.1443109E+00
          2   -1    0    0  502    0  0.00000000000E+00  0.00000000000E+00  0.14455578389E+02  0.14455578389E+02  0.00000000000E+00 0.  1.
         -2   -1    0    0    0  501 -0.00000000000E+00 -0.00000000000E+00 -0.13478072358E+03  0.13478072358E+03  0.00000000000E+00 0. -1.
          1    1    1    2  502    0 -0.52374655086E+01  0.26948852147E+02 -0.11859249558E+03  0.12172859847E+03  0.00000000000E+00 0. -1.
         -1    1    1    2    0  501  0.52374655086E+01 -0.26948852147E+02 -0.17326496062E+01  0.27507703497E+02  0.00000000000E+00 0.  1.
</event>
<event>
 4    1  0.6754235E+001  0.2071452E+02  0.7546771E-02  0.1523380E+00
          2   -1    0    0  502    0  0.00000000000E+00  0.00000000000E+00  0.31819181981E+03  0.31819181981E+03  0.00000000000E+00 0.  1.
         -2   -1    0    0    0  501 -0.00000000000E+00 -0.00000000000E+00 -0.16811369195E+01  0.16811369195E+01  0.00000000000E+00 0. -1.
          1    1    1    2  502    0  0.14915160987E+02 -0.14374607161E+02  0.87115755730E+02  0.89544660671E+02  0.00000000000E+00 0. -1.
         -1    1    1    2    0  501 -0.14915160987E+02  0.14374607161E+02  0.22939492716E+03  0.23032829606E+03  0.00000000000E+00 0.  1.
</event>
<event>
 4    1  0.6754235E+001  0.2247076E+02  0.7546771E-02  0.1499253E+00
          2   -1    0    0  502    0  0.00000000000E+00  0.00000000000E+00  0.65811459844E+03  0.65811459844E+03  0.00000000000E+00 0. -1.
         -2   -1    0    0    0  501 -0.00000000000E+00 -0.00000000000E+00 -0.53561463758E+01  0.53561463758E+01  0.00000000000E+00 0.  1.
          1    1    1    2  502    0  0.70041723296E+01  0.21351264477E+02  0.19321562719E+02  0.29635413118E+02  0.00000000000E+00 0.  1.
         -1    1    1    2    0  501 -0.70041723296E+01 -0.21351264477E+02  0.63343688934E+03  0.63383533170E+03  0.00000000000E+00 0. -1.
</event>
<event>
 4    1  0.6754235E+001  0.2150866E+02  0.7546771E-02  0.1512125E+00
          2   -1    0    0  502    0  0.00000000000E+00  0.00000000000E+00  0.11449988591E+04  0.11449988591E+04  0.00000000000E+00 0. -1.
         -2   -1    0    0    0  501 -0.00000000000E+00 -0.00000000000E+00 -0.61023918538E+00  0.61023918538E+00  0.00000000000E+00 0.  1.
          1    1    1    2  502    0 -0.15505971450E+02  0.14905955247E+02  0.90516220160E+03  0.90541771236E+03  0.00000000000E+00 0. -1.
         -1    1    1    2    0  501  0.15505971450E+02 -0.14905955247E+02  0.23922641830E+03  0.24019138591E+03  0.00000000000E+00 0.  1.
</event>
<event>
 4    1  0.6754235E+001  0.4231352E+02  0.7546771E-02  0.1335437E+00
          2   -1    0    0  502    0  0.00000000000E+00  0.00000000000E+00  0.16962311146E+03  0.16962311146E+03  0.00000000000E+00 0.  1.
         -2   -1    0    0    0  501 -0.00000000000E+00 -0.00000000000E+00 -0.19851157731E+02  0.19851157731E+02  0.00000000000E+00 0. -1.
          1    1    1    2  502    0  0.31736461699E+01 -0.42194336534E+02  0.10056799375E+02  0.43492220905E+02  0.00000000000E+00 0. -1.
         -1    1    1    2    0  501 -0.31736461699E+01  0.42194336534E+02  0.13971515435E+03  0.14598204828E+03  0.00000000000E+00 0.  1.
</event>
<event>
 4    1  0.6754235E+001  0.6545163E+02  0.7546771E-02  0.1242356E+00
          2   -1    0    0  502    0  0.00000000000E+00  0.00000000000E+00  0.45026104768E+03  0.45026104768E+03  0.00000000000E+00 0.  1.
         -2   -1    0    0    0  501 -0.00000000000E+00 -0.00000000000E+00 -0.53023934117E+02  0.53023934117E+02  0.00000000000E+00 0. -1.
          1    1    1    2  502    0 -0.10287685488E+02 -0.64638060551E+02  0.42656916458E+03  0.43156131373E+03  0.00000000000E+00 0.  1.
         -1    1    1    2    0  501  0.10287685488E+02  0.64638060551E+02 -0.29332051009E+02  0.71723668067E+02  0.00000000000E+00 0. -1.
</event>
<event>
 4    1  0.6754235E+001  0.2320828E+02  0.7546771E-02  0.1489899E+00
          2   -1    0    0  502    0  0.00000000000E+00  0.00000000000E+00  0.12045897170E+04  0.12045897170E+04  0.00000000000E+00 0.  1.
         -2   -1    0    0    0  501 -0.00000000000E+00 -0.00000000000E+00 -0.51370375936E+00  0.51370375936E+00  0.00000000000E+00 0. -1.
          1    1    1    2  502    0  0.23052623994E+02 -0.26834605706E+01  0.38514500883E+03  0.38584362410E+03  0.00000000000E+00 0. -1.
         -1    1    1    2    0  501 -0.23052623994E+02  0.26834605706E+01  0.81893100437E+03  0.81925979661E+03  0.00000000000E+00 0.  1.
</event>
<event>
 4    1  0.6754235E+001  0.2052419E+02  0.7546771E-02  0.1526168E+00
          2   -1    0    0  502    0  0.00000000000E+00  0.00000000000E+00  0.44407400293E+02  0.44407400293E+02  0.00000000000E+00 0. -1.
         -2   -1    0    0    0  501 -0.00000000000E+00 -0.00000000000E+00 -0.11830322790E+02  0.11830322790E+02  0.00000000000E+00 0.  1.
          1    1    1    2  502    0 -0.18030880783E+02  0.98045657085E+01  0.28806152584E+02  0.35369995720E+02  0.00000000000E+00 0. -1.
         -1    1    1    2    0  501  0.18030880783E+02 -0.98045657085E+01  0.37709249193E+01  0.20867727363E+02  0.00000000000E+00 0.  1.
</event>
<event>
 4    1  0.6754235E+001  0.2041275E+02  0.7546771E-02  0.1527817E+00
          2   -1    0    0  502    0  0.00000000000E+00  0.00000000000E+00  0.31966769921E+03  0.31966769921E+03  0.00000000000E+00 0. -1.
         -2   -1    0    0    0  501 -0.00000000000E+00 -0.00000000000E+00 -0.14339363195E+01  0.14339363195E+01  0.00000000000E+00 0.  1.
          1    1    1    2  502    0 -0.19961783375E+02 -0.42670112963E+01  0.11069055058E+03  0.11255699964E+03  0.00000000000E+00 0. -1.
         -1    1    1    2    0  501  0.19961783375E+02  0.42670112963E+01  0.20754321232E+03  0.20854463589E+03  0.00000000000E+00 0.  1.
</event>
<event>
 4    1  0.6754235E+001  0.2181666E+02  0.7546771E-02  0.1507917E+00
          2   -1    0    0  502    0  0.00000000000E+00  0.00000000000E+00  0.98966658179E+01  0.98966658179E+01  0.00000000000E+00 0.  1.
         -2   -1    0    0    0  501 -0.00000000000E+00 -0.00000000000E+00 -0.49341124048E+02  0.49341124048E+02  0.00000000000E+00 0. -1.
          1    1    1    2  502    0 -0.14049500709E+02 -0.16690659457E+02 -0.15012633846E+02  0.26482933340E+02  0.00000000000E+00 0. -1.
         -1    1    1    2    0  501  0.14049500709E+02  0.16690659457E+02 -0.24431824384E+02  0.32754856526E+02  0.00000000000E+00 0.  1.
</event>
<event>
 4    1  0.6754235E+001  0.2130750E+02  0.7546771E-02  0.1514920E+00
          2   -1    0    0  502    0  0.00000000000E+00  0.00000000000E+00  0.10807847565E+04  0.10807847565E+04  0.00000000000E+00 0. -1.
         -2   -1    0    0    0  501 -0.00000000000E+00 -0.00000000000E+00 -0.66077868543E+00  0.66077868543E+00  0.00000000000E+00 0.  1.
          1    1    1    2  502    0  0.20760338731E+02 -0.47976799143E+01  0.21370789504E+03  0.21476748776E+03  0.00000000000E+00 0.  1.
         -1    1    1    2    0  501 -0.20760338731E+02  0.47976799143E+01  0.86641608275E+03  0.86667804740E+03  0.00000000000E+00 0. -1.
</event>
<event>
 4    1  0.6754235E+001  0.2910067E+02  0.7546771E-02  0.1427576E+00
          2   -1    0    0  502    0  0.00000000000E+00  0.00000000000E+00  0.26551981507E+02  0.26551981507E+02  0.00000000000E+00 0.  1.
         -2   -1    0    0    0  501 -0.00000000000E+00 -0.00000000000E+00 -0.32513109623E+02  0.32513109623E+02  0.00000000000E+00 0. -1.
          1    1    1    2  502    0  0.21182612622E+02  0.19953591348E+02 -0.70558264587E+01  0.29943840304E+02  0.00000000000E+00 0. -1.
         -1    1    1    2    0  501 -0.21182612622E+02 -0.19953591348E+02  0.10946983422E+01  0.29121250825E+02  0.00000000000E+00 0.  1.
</event>
<event>
 4    1  0.6754235E+001  0.2008354E+02  0.7546771E-02  0.1532762E+00
          2   -1    0    0  502    0  0.00000000000E+00  0.00000000000E+00  0.11425622148E+03  0.11425622148E+03  0.00000000000E+00 0.  1.
         -2   -1    0    0    0  501 -0.00000000000E+00 -0.00000000000E+00 -0.36191374316E+01  0.36191374316E+01  0.00000000000E+00 0. -1.
          1    1    1    2  502    0 -0.19861646696E+02 -0.29771938309E+01  0.64557081211E+02  0.67608915293E+02  0.00000000000E+00 0. -1.
         -1    1    1    2    0  501  0.19861646696E+02  0.29771938309E+01  0.46080002837E+02  0.50266443619E+02  0.00000000000E+00 0.  1.
</event>
<event>
 4    1  0.6754235E+001  0.2411484E+02  0.7546771E-02  0.1478954E+00
          2   -1    0    0  502    0  0.00000000000E+00  0.00000000000E+00  0.21643798818E+03  0.21643798818E+03  0.00000000000E+00 0.  1.
         -2   -1    0    0    0  501 -0.00000000000E+00 -0.00000000000E+00 -0.37455014923E+01  0.37455014923E+01  0.00000000000E+00 0. -1.
          1    1    1    2  502    0  0.15634873836E+02 -0.18359634514E+02  0.16487733861E+03  0.16663151636E+03  0.00000000000E+00 0.  1.
         -1    1    1    2    0  501 -0.15634873836E+02  0.18359634514E+02  0.47815148083E+02  0.53551973312E+02  0.00000000000E+00 0. -1.
</event>
<event>
 4    1  0.6754235E+001  0.2007713E+02  0.7546771E-02  0.1532860E+00
          2   -1    0    0  502    0  0.00000000000E+00  0.00000000000E+00  0.20799192319E+04  0.20799192319E+04  0.00000000000E+00 0.  1.
         -2   -1    0    0    0  501 -0.00000000000E+00 -0.00000000000E+00 -0.21083753971E+00  0.21083753971E+00  0.00000000000E+00 0. -1.
          1    1    1    2  502    0 -0.15498398282E+01 -0.20017217799E+02  0.13355013067E+04  0.13356522119E+04  0.00000000000E+00 0.  1.
         -1    1    1    2    0  501  0.15498398282E+01  0.20017217799E+02  0.74420708764E+03  0.74447785750E+03  0.00000000000E+00 0. -1.
</event>
<event>
 4    1  0.6754235E+001  0.4005749E+02  0.7546771E-02  0.1348149E+00
          2   -1    0    0  502    0  0.00000000000E+00  0.00000000000E+00  0.19613441395E+04  0.19613441395E+04  0.00000000000E+00 0.  1.
         -2   -1    0    0    0  501 -0.00000000000E+00 -0.00000000000E+00 -0.18599965725E+01  0.18599965725E+01  0.00000000000E+00 0. -1.
          1    1    1    2  502    0 -0.36045452636E+02  0.17473636744E+02  0.24507795364E+03  0.24833003442E+03  0.00000000000E+00 0. -1.
         -1    1    1    2    0  501  0.36045452636E+02 -0.17473636744E+02  0.17144061893E+04  0.17148741017E+04  0.00000000000E+00 0.  1.
</event>
<event>
 4    1  0.6754235E+001  0.2255654E+02  0.7546771E-02  0.1498143E+00
          2   -1    0    0  502    0  0.00000000000E+00  0.00000000000E+00  0.56659180961E+01  0.56659180961E+01  0.00000000000E+00 0. -1.
         -2   -1    0    0    0  501 -0.00000000000E+00 -0.00000000000E+00 -0.89893267240E+02  0.89893267240E+02  0.00000000000E+00 0.  1.
          1    1    1    2  502    0  0.21541952250E+02 -0.66889205379E+01 -0.40571631233E+02  0.46420411735E+02  0.00000000000E+00 0.  1.
         -1    1    1    2    0  501 -0.21541952250E+02  0.66889205379E+01 -0.43655717911E+02  0.49138773601E+02  0.00000000000E+00 0. -1.
</event>
<event>
 4    1  0.6754235E+001  0.2391481E+02  0.7546771E-02  0.1481320E+00
          2   -1    0    0  502    0  0.00000000000E+00  0.00000000000E+00  0.58481509120E+02  0.58481509120E+02  0.00000000000E+00 0. -1.
         -2   -1    0    0    0  501 -0.00000000000E+00 -0.00000000000E+00 -0.17977000178E+02  0.17977000178E+02  0.00000000000E+00 0.  1.
          1    1    1    2  502    0  0.20467443322E+02  0.12369389799E+02 -0.55631413005E+01  0.24553341550E+02  0.00000000000E+00 0.  1.
         -1    1    1    2    0  501 -0.20467443322E+02 -0.12369389799E+02  0.46067650243E+02  0.51905167749E+02  0.00000000000E+00 0. -1.
</event>
<event>
 4    1  0.6754235E+001  0.2136486E+02  0.7546771E-02  0.1514119E+00
          2   -1    0    0  502    0  0.00000000000E+00  0.00000000000E+00  0.10829542005E+04  0.10829542005E+04  0.00000000000E+00 0.  1.
         -2   -1    0    0    0  501 -0.00000000000E+00 -0.00000000000E+00 -0.37295901925E+01  0.37295901925E+01  0.00000000000E+00 0. -1.
          1    1    1    2  502    0 -0.20846525867E+02 -0.46775440045E+01  0.10513316090E+04  0.10515486718E+04  0.00000000000E+00 0.  1.
         -1    1    1    2    0  501  0.20846525867E+02  0.46775440045E+01  0.27893001322E+02  0.35135118918E+02  0.00000000000E+00 0. -1.
</event>
<event>
 4    1  0.6754235E+001  0.3096296E+02  0.7546771E-02  0.1411409E+00
          2   -1    0    0  502    0  0.00000000000E+00  0.00000000000E+00  0.31384103758E+03  0.31384103758E+03  0.00000000000E+00 0.  1.
         -2   -1    0    0    0  501 -0.00000000000E+00 -0.00000000000E+00 -0.49978388540E+01  0.49978388540E+01  0.00000000000E+00 0. -1.
          1    1    1    2  502    0 -0.13994031272E+02 -0.27620140724E+02  0.55019221434E+02  0.63133349445E+02  0.00000000000E+00 0. -1.
         -1    1    1    2    0  501  0.13994031272E+02  0.27620140724E+02  0.25382397729E+03  0.25570552699E+03  0.00000000000E+00 0.  1.
</event>
<event>
 4    1  0.6754235E+001  0.2040781E+02  0.7546771E-02  0.1527890E+00
          2   -1    0    0  502    0  0.00000000000E+00  0.00000000000E+00  0.15268507844E+02  0.15268507844E+02  0.00000000000E+00 0.  1.
         -2   -1    0    0    0  501 -0.00000000000E+00 -0.00000000000E+00 -0.31110524740E+02  0.31110524740E+02  0.00000000000E+00 0. -1.
          1    1    1    2  502    0 -0.15136637015E+02  0.13687990046E+02 -0.16061263930E+02  0.25970041407E+02  0.00000000000E+00 0.  1.
         -1    1    1    2    0  501  0.15136637015E+02 -0.13687990046E+02  0.21924703407E+00  0.20408991178E+02  0.00000000000E+00 0. -1.
</event>
<event>
 4    1  0.6754235E+001  0.2350124E+02  0.7546771E-02  0.1486298E+00
          2   -1    0    0  502    0  0.00000000000E+00  0.00000000000E+00  0.13524106114E+01  0.13524106114E+01  0.00000000000E+00 0. -1.
         -2   -1    0    0    0  501 -0.00000000000E+00 -0.00000000000E+00 -0.42762246175E+03  0.42762246175E+03  0.00000000000E+00 0.  1.
          1    1    1    2  502    0 -0.16060837254E+02 -0.17156859822E+02 -0.16764553651E+03  0.16928477263E+03  0.00000000000E+00 0.  1.
         -1    1    1    2    0  501  0.16060837254E+02  0.17156859822E+02 -0.25862451463E+03  0.25969009973E+03  0.00000000000E+00 0. -1.
</event>
<event>
 4    1  0.6754235E+001  0.2475984E+02  0.7546771E-02  0.1471508E+00
          2   -1    0    0  502    0  0.00000000000E+00  0.00000000000E+00  0.10773185979E+03  0.10773185979E+03  0.00000000000E+00 0. -1.
         -2   -1    0    0    0  501 -0.00000000000E+00 -0.00000000000E+00 -0.77457451768E+01  0.77457451768E+01  0.00000000000E+00 0.  1.
          1    1    1    2  502    0 -0.72106722894E+01 -0.23686622120E+02  0.79734792834E+02  0.83490640497E+02  0.00000000000E+00 0. -1.
         -1    1    1    2    0  501  0.72106722894E+01  0.23686622120E+02  0.20251321784E+02  0.31986964474E+02  0.00000000000E+00 0.  1.
</event>
<event>
 4    1  0.6754235E+001  0.2061072E+02  0.7546771E-02  0.1524896E+00
          2   -1    0    0  502    0  0.00000000000E+00  0.00000000000E+00  0.26995684776E+02  0.26995684776E+02  0.00000000000E+00 0. -1.
         -2   -1    0    0    0  501 -0.00000000000E+00 -0.00000000000E+00 -0.17354340676E+02  0.17354340676E+02  0.00000000000E+00 0.  1.
          1    1    1    2  502    0  0.20561375953E+02  0.14253405956E+01  0.11592506277E+02  0.23647155826E+02  0.00000000000E+00 0. -1.
         -1    1    1    2    0  501 -0.20561375953E+02 -0.14253405956E+01 -0.19511621770E+01  0.20702869625E+02  0.00000000000E+00 0.  1.
</event>
<event>
 4    1  0.6754235E+001  0.3015120E+02  0.7546771E-02  0.1418287E+00
          2   -1    0    0  502    0  0.00000000000E+00  0.00000000000E+00  0.83422698817E+03  0.83422698817E+03  0.00000000000E+00 0. -1.
         -2   -1    0    0    0  501 -0.00000000000E+00 -0.00000000000E+00 -0.10914439694E+01  0.10914439694E+01  0.00000000000E+00 0.  1.
          1    1    1    2  502    0  0.24572901751E+02 -0.17471896411E+02  0.40008926410E+03  0.40122377037E+03  0.00000000000E+00 0.  1.
         -1    1    1    2    0  501 -0.24572901751E+02  0.17471896411E+02  0.43304628011E+03  0.43409466177E+03  0.00000000000E+00 0. -1.
</event>
<event>
 4    1  0.6754235E+001  0.2705625E+02  0.7546771E-02  0.1447044E+00
          2   -1    0    0  502    0  0.00000000000E+00  0.00000000000E+00  0.15581050270E+04  0.15581050270E+04  0.00000000000E+00 0. -1.
         -2   -1    0    0    0  501 -0.00000000000E+00 -0.00000000000E+00 -0.47330065132E+00  0.47330065132E+00  0.00000000000E+00 0.  1.
          1    1    1    2  502    0  0.91370055931E+01  0.25466754405E+02  0.71205875850E+03  0.71257260402E+03  0.00000000000E+00 0. -1.
         -1    1    1    2    0  501 -0.91370055931E+01 -0.25466754405E+02  0.84557296785E+03  0.84600572362E+03  0.00000000000E+00 0.  1.
</event>
<event>
 4    1  0.6754235E+001  0.2242775E+02  0.7546771E-02  0.1499812E+00
          2   -1    0    0  502    0  0.00000000000E+00  0.00000000000E+00  0.11154218225E+02  0.11154218225E+02  0.00000000000E+00 0.  1.
         -2   -1    0    0    0  501 -0.00000000000E+00 -0.00000000000E+00 -0.46383995939E+02  0.46383995939E+02  0.00000000000E+00 0. -1.
          1    1    1    2  502    0  0.11597670759E+02  0.19196298393E+02 -0.12819739995E+02  0.25833110006E+02  0.00000000000E+00 0.  1.
         -1    1    1    2    0  501 -0.11597670759E+02 -0.19196298393E+02 -0.22410037720E+02  0.31705104158E+02  0.00000000000E+00 0. -1.
</event>
<event>
 4    1  0.6754235E+001  0.2011408E+02  0.7546771E-02  0.1532299E+00
          2   -1    0    0  502    0  0.00000000000E+00  0.00000000000E+00  0.20069917107E+03  0.20069917107E+03  0.00000000000E+00 0. -1.
         -2   -1    0    0    0  501 -0.00000000000E+00 -0.00000000000E+00 -0.20355615221E+01  0.20355615221E+01  0.00000000000E+00 0.  1.
          1    1    1    2  502    0 -0.10557737963E+02  0.17120466077E+02  0.10931095564E+03  0.11114612550E+03  0.00000000000E+00 0.  1.
         -1    1    1    2    0  501  0.10557737963E+02 -0.17120466077E+02  0.89352653906E+02  0.91588607095E+02  0.00000000000E+00 0. -1.
</event>
<event>
 4    1  0.6754235E+001  0.2754992E+02  0.7546771E-02  0.1442161E+00
          2   -1    0    0  502    0  0.00000000000E+00  0.00000000000E+00  0.80558110458E+02  0.80558110458E+02  0.00000000000E+00 0.  1.
         -2   -1    0    0    0  501 -0.00000000000E+00 -0.00000000000E+00 -0.12358085376E+02  0.12358085376E+02  0.00000000000E+00 0. -1.
          1    1    1    2  502    0 -0.24608970953E+02 -0.12385334482E+02  0.11454140994E+02  0.29836140963E+02  0.00000000000E+00 0. -1.
         -1    1    1    2    0  501  0.24608970953E+02  0.12385334482E+02  0.56745884088E+02  0.63080054871E+02  0.00000000000E+00 0.  1.
</event>
<event>
 4    1  0.6754235E+001  0.3854891E+02  0.7546771E-02  0.1357206E+00
          2   -1    0    0  502    0  0.00000000000E+00  0.00000000000E+00  0.59510435300E+03  0.59510435300E+03  0.00000000000E+00 0.  1.
         -2   -1    0    0    0  501 -0.00000000000E+00 -0.00000000000E+00 -0.32030756679E+01  0.32030756679E+01  0.00000000000E+00 0. -1.
          1    1    1    2  502    0  0.33993683827E+02  0.18178221901E+02  0.43639824560E+03  0.43809753144E+03  0.00000000000E+00 0.  1.
         -1    1    1    2    0  501 -0.33993683827E+02 -0.18178221901E+02  0.15550303173E+03  0.16020989723E+03  0.00000000000E+00 0. -1.
</event>
<event>
 4    1  0.6754235E+001  0.2994800E+02  0.7546771E-02  0.1420049E+00
          2   -1    0    0  502    0  0.00000000000E+00  0.00000000000E+00  0.37322693339E+03  0.37322693339E+03  0.00000000000E+00 0.  1.
         -2   -1    0    0    0  501 -0.00000000000E+00 -0.00000000000E+00 -0.35873144842E+01  0.35873144842E+01  0.00000000000E+00 0. -1.
          1    1    1    2  502    0  0.49468652932E+01  0.29536610621E+02  0.29307208027E+03  0.29459824691E+03  0.00000000000E+00 0.  1.
         -1    1    1    2    0  501 -0.49468652932E+01 -0.29536610621E+02  0.76567538628E+02  0.82216000965E+02  0.00000000000E+00 0. -1.
</event>
<event>
 4    1  0.6754235E+001  0.2691003E+02  0.7546771E-02  0.1448514E+00
          2   -1    0    0  502    0  0.00000000000E+00  0.00000000000E+00  0.27019898522E+03  0.27019898522E+03  0.00000000000E+00 0. -1.
         -2   -1    0    0    0  501 -0.00000000000E+00 -0.00000000000E+00 -0.26813985055E+01  0.26813985055E+01  0.00000000000E+00 0.  1.
          1    1    1    2  502    0  0.23578139255E+01  0.26806534170E+02  0.13680690338E+03  0.13942839873E+03  0.00000000000E+00 0. -1.
         -1    1    1    2    0  501 -0.23578139255E+01 -0.26806534170E+02  0.13071068334E+03  0.13345198500E+03  0.00000000000E+00 0.  1.
</event>
<event>
 4    1  0.6754235E+001  0.2060543E+02  0.7546771E-02  0.1524973E+00
          2   -1    0    0  502    0  0.00000000000E+00  0.00000000000E+00  0.17481664766E+02  0.17481664766E+02  0.00000000000E+00 0.  1.
         -2   -1    0    0    0  501 -0.00000000000E+00 -0.00000000000E+00 -0.32534576797E+02  0.32534576797E+02  0.00000000000E+00 0. -1.
          1    1    1    2  502    0 -0.18969360739E+02  0.80465700542E+01 -0.20117493118E+02  0.28797525342E+02  0.00000000000E+00 0. -1.
         -1    1    1    2    0  501  0.18969360739E+02 -0.80465700542E+01  0.50645810866E+01  0.21218716221E+02  0.00000000000E+00 0.  1.
</event>
<event>
 4    1  0.6754235E+001  0.4161606E+02  0.7546771E-02  0.1339267E+00
          2   -1    0    0  502    0  0.00000000000E+00  0.00000000000E+00  0.59639777672E+02  0.59639777672E+02  0.00000000000E+00 0.  1.
         -2   -1    0    0    0  501 -0.00000000000E+00 -0.00000000000E+00 -0.35486630377E+02  0.35486630377E+02  0.00000000000E+00 0. -1.
          1    1    1    2  502    0  0.30427658814E+02  0.28391084034E+02  0.32350106271E+02  0.52710771663E+02  0.00000000000E+00 0.  1.
         -1    1    1    2    0  501 -0.30427658814E+02 -0.28391084034E+02 -0.81969589756E+01  0.42415636386E+02  0.00000000000E+00 0. -1.
</event>
<event>
 4    1  0.6754235E+001  0.2278043E+02  0.7546771E-02  0.1495274E+00
          2   -1    0    0  502    0  0.00000000000E+00  0.00000000000E+00  0.73640698139E+03  0.73640698139E+03  0.00000000000E+00 0.  1.
         -2   -1    0    0    0  501 -0.00000000000E+00 -0.00000000000E+00 -0.97990435669E+00  0.97990435669E+00  0.00000000000E+00 0. -1.
          1    1    1    2  502    0  0.22435489599E+02  0.39492954455E+01  0.17232506427E+03  0.17382426731E+03  0.00000000000E+00 0. -1.
         -1    1    1    2    0  501 -0.22435489599E+02 -0.39492954455E+01  0.56310201276E+03  0.56356261844E+03  0.00000000000E+00 0.  1.
</event>
<event>
 4    1  0.6754235E+001  0.3570994E+02  0.7546771E-02  0.1375640E+00
          2   -1    0    0  502    0  0.00000000000E+00  0.00000000000E+00  0.55304988130E+02  0.55304988130E+02  0.00000000000E+00 0. -1.
         -2   -1    0    0    0  501 -0.00000000000E+00 -0.00000000000E+00 -0.31488932049E+02  0.31488932049E+02  0.00000000000E+00 0.  1.
          1    1    1    2  502    0  0.25505899050E+02 -0.24992981948E+02  0.34363829568E+02  0.49558781418E+02  0.00000000000E+00 0. -1.
         -1    1    1    2    0  501 -0.25505899050E+02  0.24992981948E+02 -0.10547773488E+02  0.37235138761E+02  0.00000000000E+00 0.  1.
</event>
<event>
 4    1  0.6754235E+001  0.2374315E+02  0.7546771E-02  0.1483371E+00
          2   -1    0    0  502    0  0.00000000000E+00  0.00000000000E+00  0.58496794007E+01  0.58496794007E+01  0.00000000000E+00 0.  1.
         -2   -1    0    0    0  501 -0.00000000000E+00 -0.00000000000E+00 -0.12460109143E+03  0.12460109143E+03  0.00000000000E+00 0. -1.
          1    1    1    2  502    0  0.96910157148E+01  0.21675368275E+02 -0.28329066029E+02  0.36963135115E+02  0.00000000000E+00 0.  1.
         -1    1    1    2    0  501 -0.96910157148E+01 -0.21675368275E+02 -0.90422345996E+02  0.93487635711E+02  0.00000000000E+00 0. -1.
</event>
<event>
 4    1  0.6754235E+001  0.3527746E+02  0.7546771E-02  0.1378623E+00
          2   -1    0    0  502    0  0.00000000000E+00  0.00000000000E+00  0.10150750643E+02  0.10150750643E+02  0.00000000000E+00 0. -1.
         -2   -1    0    0    0  501 -0.00000000000E+00 -0.00000000000E+00 -0.12266713645E+03  0.12266713645E+03  0.00000000000E+00 0.  1.
          1    1    1    2  502    0 -0.35273924790E+02  0.49960232664E+00 -0.57791904597E+02  0.67708224091E+02  0.00000000000E+00 0.  1.
         -1    1    1    2    0  501  0.35273924790E+02 -0.49960232664E+00 -0.54724481213E+02  0.65109663005E+02  0.00000000000E+00 0. -1.
</event>
<event>
 4    1  0.6754235E+001  0.5227362E+02  0.7546771E-02  0.1288605E+00
          2   -1    0    0  502    0  0.00000000000E+00  0.00000000000E+00  0.53025645469E+02  0.53025645469E+02  0.00000000000E+00 0. -1.
         -2   -1    0    0    0  501 -0.00000000000E+00 -0.00000000000E+00 -0.61046527075E+02  0.61046527075E+02  0.00000000000E+00 0.  1.
          1    1    1    2  502    0  0.36754914875E+02 -0.37169988011E+02 -0.26527243456E+02  0.58619334879E+02  0.00000000000E+00 0. -1.
         -1    1    1    2    0  501 -0.36754914875E+02  0.37169988011E+02  0.18506361851E+02  0.55452837666E+02  0.00000000000E+00 0.  1.
</event>
<event>
 4    1  0.6754235E+001  0.3748150E+02  0.7546771E-02  0.1363911E+00
          2   -1    0    0  502    0  0.00000000000E+00  0.00000000000E+00  0.10348690583E+02  0.10348690583E+02  0.00000000000E+00 0. -1.
         -2   -1    0    0    0  501 -0.00000000000E+00 -0.00000000000E+00 -0.13620912001E+03  0.13620912001E+03  0.00000000000E+00 0.  1.
          1    1    1    2  502    0  0.33259439738E+01 -0.37333647431E+02 -0.58688536385E+02  0.69636250882E+02  0.00000000000E+00 0. -1.
         -1    1    1    2    0  501 -0.33259439738E+01  0.37333647431E+02 -0.67171893045E+02  0.76921559716E+02  0.00000000000E+00 0.  1.
</event>
<event>
 4    1  0.6754235E+001  0.2051945E+02  0.7546771E-02  0.1526238E+00
          2   -1    0    0  502    0  0.00000000000E+00  0.00000000000E+00  0.27788571340E+01  0.27788571340E+01  0.00000000000E+00 0. -1.
         -2   -1    0    0    0  501 -0.00000000000E+00 -0.00000000000E+00 -0.21106837644E+03  0.21106837644E+03  0.00000000000E+00 0.  1.
          1    1    1    2  502    0  0.18006959847E+01  0.20440286111E+02 -0.47350676234E+02  0.51605565031E+02  0.00000000000E+00 0. -1.
         -1    1    1    2    0  501 -0.18006959847E+01 -0.20440286111E+02 -0.16093884308E+03  0.16224166855E+03  0.00000000000E+00 0.  1.
</event>
<event>
 4    1  0.6754235E+001  0.2287314E+02  0.7546771E-02  0.1494097E+00
          2   -1    0    0  502    0  0.00000000000E+00  0.00000000000E+00  0.47611495120E+02  0.47611495120E+02  0.00000000000E+00 0. -1.
         -2   -1    0    0    0  501 -0.00000000000E+00 -0.00000000000E+00 -0.14872114366E+02  0.14872114366E+02  0.00000000000E+00 0.  1.
          1    1    1    2  502    0  0.13866480122E+02 -0.18190691615E+02  0.32334579420E+02  0.39606887768E+02  0.00000000000E+00 0. -1.
         -1    1    1    2    0  501 -0.13866480122E+02  0.18190691615E+02  0.40480133410E+00  0.22876721717E+02  0.00000000000E+00 0.  1.
</event>
<event>
 4    1  0.6754235E+001  0.3650858E+02  0.7546771E-02  0.1370257E+00
          2   -1    0    0  502    0  0.00000000000E+00  0.00000000000E+00  0.28386449477E+02  0.28386449477E+02  0.00000000000E+00 0. -1.
         -2   -1    0    0    0  501 -0.00000000000E+00 -0.00000000000E+00 -0.56495582773E+02  0.56495582773E+02  0.00000000000E+00 0.  1.
          1    1    1    2  502    0 -0.34145991297E+02  0.12920048951E+02 -0.31495650671E+02  0.48216723217E+02  0.00000000000E+00 0.  1.
         -1    1    1    2    0  501  0.34145991297E+02 -0.12920048951E+02  0.33865173747E+01  0.36665309033E+02  0.00000000000E+00 0. -1.
</event>
<event>
 4    1  0.6754235E+001  0.1040413E+03  0.7546771E-02  0.1156984E+00
          2   -1    0    0  502    0  0.00000000000E+00  0.00000000000E+00  0.67799498860E+03  0.67799498860E+03  0.00000000000E+00 0.  1.
         -2   -1    0    0    0  501 -0.00000000000E+00 -0.00000000000E+00 -0.39884385533E+02  0.39884385533E+02  0.00000000000E+00 0. -1.
          1    1    1    2  502    0 -0.54096493431E+02 -0.88871586847E+02  0.59702002711E+03  0.60601774093E+03  0.00000000000E+00 0.  1.
         -1    1    1    2    0  501  0.54096493431E+02  0.88871586847E+02  0.41090575955E+02  0.11186163320E+03  0.00000000000E+00 0. -1.
</event>
<event>
 4    1  0.6754235E+001  0.2014431E+02  0.7546771E-02  0.1531841E+00
          2   -1    0    0  502    0  0.00000000000E+00  0.00000000000E+00  0.72608898969E+02  0.72608898969E+02  0.00000000000E+00 0. -1.
         -2   -1    0    0    0  501 -0.00000000000E+00 -0.00000000000E+00 -0.69783021703E+01  0.69783021703E+01  0.00000000000E+00 0.  1.
          1    1    1    2  502    0 -0.11280479759E+02 -0.16689632871E+02  0.15058052994E+02  0.25150308724E+02  0.00000000000E+00 0.  1.
         -1    1    1    2    0  501  0.11280479759E+02  0.16689632871E+02  0.50572543804E+02  0.54436892415E+02  0.00000000000E+00 0. -1.
</event>
<event>
 4    1  0.6754235E+001  0.3538304E+02  0.7546771E-02  0.1377890E+00
          2   -1    0    0  502    0  0.00000000000E+00  0.00000000000E+00  0.17420944853E+04  0.17420944853E+04  0.00000000000E+00 0. -1.
         -2   -1    0    0    0  501 -0.00000000000E+00 -0.00000000000E+00 -0.77441652042E+00  0.77441652042E+00  0.00000000000E+00 0.  1.
          1    1    1    2  502    0 -0.35227580501E+02 -0.33131899709E+01  0.63681590357E+03  0.63779813005E+03  0.00000000000E+00 0. -1.
         -1    1    1    2    0  501  0.35227580501E+02  0.33131899709E+01  0.11045041652E+04  0.11050707717E+04  0.00000000000E+00 0.  1.
</event>
<event>
 4    1  0.6754235E+001  0.2208135E+02  0.7546771E-02  0.1504367E+00
          2   -1    0    0  502    0  0.00000000000E+00  0.00000000000E+00  0.62408178352E+03  0.62408178352E+03  0.00000000000E+00 0. -1.
         -2   -1    0    0    0  501 -0.00000000000E+00 -0.00000000000E+00 -0.80740578509E+00  0.80740578509E+00  0.00000000000E+00 0.  1.
          1    1    1    2  502    0  0.43957917311E+00  0.22076973929E+02  0.25543974219E+03  0.25639237098E+03  0.00000000000E+00 0.  1.
         -1    1    1    2    0  501 -0.43957917311E+00 -0.22076973929E+02  0.36783463554E+03  0.36849681832E+03  0.00000000000E+00 0. -1.
</event>
<event>
 4    1  0.6754235E+001  0.2158627E+02  0.7546771E-02  0.1511057E+00
          2   -1    0    0  502    0  0.00000000000E+00  0.00000000000E+00  0.37466561461E+03  0.37466561461E+03  0.00000000000E+00 0. -1.
         -2   -1    0    0    0  501 -0.00000000000E+00 -0.00000000000E+00 -0.29840173499E+01  0.29840173499E+01  0.00000000000E+00 0.  1.
          1    1    1    2  502    0  0.24703829282E+01 -0.21444446570E+02  0.41637851439E+02  0.46900722308E+02  0.00000000000E+00 0.  1.
         -1    1    1    2    0  501 -0.24703829282E+01  0.21444446570E+02  0.33004374582E+03  0.33074890965E+03  0.00000000000E+00 0. -1.
</event>
<event>
 4    1  0.6754235E+001  0.3826588E+02  0.7546771E-02  0.1358959E+00
          2   -1    0    0  502    0  0.00000000000E+00  0.00000000000E+00  0.26080888678E+03  0.26080888678E+03  0.00000000000E+00 0. -1.
         -2   -1    0    0    0  501 -0.00000000000E+00 -0.00000000000E+00 -0.57279092198E+01  0.57279092198E+01  0.00000000000E+00 0.  1.
          1    1    1    2  502    0 -0.19492332011E+02 -0.32929109825E+02  0.14630357739E+03  0.15122504435E+03  0.00000000000E+00 0. -1.
         -1    1    1    2    0  501  0.19492332011E+02  0.32929109825E+02  0.10877740017E+03  0.11531175165E+03  0.00000000000E+00 0.  1.
</event>
<event>
 4    1  0.6754235E+001  0.2642030E+02  0.7546771E-02  0.1453520E+00
          2   -1    0    0  502    0  0.00000000000E+00  0.00000000000E+00  0.24835983639E+04  0.24835983639E+04  0.00000000000E+00 0. -1.
         -2   -1    0    0    0  501 -0.00000000000E+00 -0.00000000000E+00 -0.33135453484E+00  0.33135453484E+00  0.00000000000E+00 0.  1.
          1    1    1    2  502    0 -0.23893645430E+02 -0.11275004274E+02  0.75775380589E+03  0.75821425887E+03  0.00000000000E+00 0.  1.
         -1    1    1    2    0  501  0.23893645430E+02  0.11275004274E+02  0.17255132035E+04  0.17257154596E+04  0.00000000000E+00 0. -1.
</event>
<event>
 4    1  0.6754235E+001  0.2857931E+02  0.7546771E-02  0.1432358E+00
          2   -1    0    0  502    0  0.00000000000E+00  0.00000000000E+00  0.17704598940E+03  0.17704598940E+03  0.00000000000E+00 0. -1.
         -2   -1    0    0    0  501 -0.00000000000E+00 -0.00000000000E+00 -0.46900386073E+01  0.46900386073E+01  0.00000000000E+00 0.  1.
          1    1    1    2  502    0 -0.25198309292E+02 -0.13484151549E+02  0.97796633188E+02  0.10188698934E+03  0.00000000000E+00 0.  1.
         -1    1    1    2    0  501  0.25198309292E+02  0.13484151549E+02  0.74559317605E+02  0.79849038667E+02  0.00000000000E+00 0. -1.
</event>
<event>
 4    1  0.6754235E+001  0.2126377E+02  0.7546771E-02  0.1515532E+00
          2   -1    0    0  502    0  0.00000000000E+00  0.00000000000E+00  0.11522804058E+03  0.11522804058E+03  0.00000000000E+00 0. -1.
         -2   -1    0    0    0  501 -0.00000000000E+00 -0.00000000000E+00 -0.79266665738E+01  0.79266665738E+01  0.00000000000E+00 0.  1.
          1    1    1    2  502    0 -0.19861393411E+02 -0.75942638912E+01  0.98930615905E+01  0.23452515002E+02  0.00000000000E+00 0.  1.
         -1    1    1    2    0  501  0.19861393411E+02  0.75942638912E+01  0.97408312420E+02  0.99702192156E+02  0.00000000000E+00 0. -1.
</event>
<event>
 4    1  0.6754235E+001  0.2054041E+02  0.7546771E-02  0.1525929E+00
          2   -1    0    0  502    0  0.00000000000E+00  0.00000000000E+00  0.32503833931E+01  0.32503833931E+01  0.00000000000E+00 0.  1.
         -2   -1    0    0    0  501 -0.00000000000E+00 -0.00000000000E+00 -0.21355259201E+03  0.21355259201E+03  0.00000000000E+00 0. -1.
          1    1    1    2  502    0 -0.14073601680E+02 -0.14961361388E+02 -0.37265935818E+02  0.42551833935E+02  0.00000000000E+00 0.  1.
         -1    1    1    2    0  501  0.14073601680E+02  0.14961361388E+02 -0.17303627280E+03  0.17425114147E+03  0.00000000000E+00 0. -1.
</event>
<event>
 4    1  0.6754235E+001  0.2269852E+02  0.7546771E-02  0.1496319E+00
          2   -1    0    0  502    0  0.00000000000E+00  0.00000000000E+00  0.12401026115E+04  0.12401026115E+04  0.00000000000E+00 0. -1.
         -2   -1    0    0    0  501 -0.00000000000E+00 -0.00000000000E+00 -0.44335550863E+00  0.44335550863E+00  0.00000000000E+00 0.  1.
          1    1    1    2  502    0 -0.22526822231E+02 -0.27865786643E+01  0.77539502333E+03  0.77572718461E+03  0.00000000000E+00 0. -1.
         -1    1    1    2    0  501  0.22526822231E+02  0.27865786643E+01  0.46426423271E+03  0.46481878244E+03  0.00000000000E+00 0.  1.
</event>
<event>
 4    1  0.6754235E+001  0.2439556E+02  0.7546771E-02  0.1475680E+00
          2   -1    0    0  502    0  0.00000000000E+00  0.00000000000E+00  0.70783602837E+03  0.70783602837E+03  0.00000000000E+00 0. -1.
         -2   -1    0    0    0  501 -0.00000000000E+00 -0.00000000000E+00 -0.90770757851E+00  0.90770757851E+00  0.00000000000E+00 0.  1.
          1    1    1    2  502    0  0.65102733881E+01  0.23510843232E+02  0.44968018390E+03  0.45034143847E+03  0.00000000000E+00 0.  1.
         -1    1    1    2    0  501 -0.65102733881E+01 -0.23510843232E+02  0.25724813689E+03  0.25840229748E+03  0.00000000000E+00 0. -1.
</event>
<event>
 4    1  0.6754235E+001  0.2002018E+02  0.7546771E-02  0.1533727E+00
          2   -1    0    0  502    0  0.00000000000E+00  0.00000000000E+00  0.61327614441E+03  0.61327614441E+03  0.00000000000E+00 0. -1.
         -2   -1    0    0    0  501 -0.00000000000E+00 -0.00000000000E+00 -0.86879736016E+00  0.86879736016E+00  0.00000000000E+00 0.  1.
          1    1    1    2  502    0  0.54406527554E+01  0.19266731146E+02  0.45904785034E+03  0.45948420706E+03  0.00000000000E+00 0. -1.
         -1    1    1    2    0  501 -0.54406527554E+01 -0.19266731146E+02  0.15335949671E+03  0.15466073472E+03  0.00000000000E+00 0.  1.
</event>
<event>
 4    1  0.6754235E+001  0.2746013E+02  0.7546771E-02  0.1443040E+00
          2   -1    0    0  502    0  0.00000000000E+00  0.00000000000E+00  0.21916406122E+04  0.21916406122E+04  0.00000000000E+00 0.  1.
         -2   -1    0    0    0  501 -0.00000000000E+00 -0.00000000000E+00 -0.72975622942E+00  0.72975622942E+00  0.00000000000E+00 0. -1.
          1    1    1    2  502    0  0.22863017662E+02 -0.15209907965E+02  0.18923795018E+04  0.18925787270E+04  0.00000000000E+00 0.  1.
         -1    1    1    2    0  501 -0.22863017662E+02  0.15209907965E+02  0.29853135412E+03  0.29979164143E+03  0.00000000000E+00 0. -1.
</event>
<event>
 4    1  0.6754235E+001  0.2036394E+02  0.7546771E-02  0.1528543E+00
          2   -1    0    0  502    0  0.00000000000E+00  0.00000000000E+00  0.11358973306E+02  0.11358973306E+02  0.00000000000E+00 0. -1.
         -2   -1    0    0    0  501 -0.00000000000E+00 -0.00000000000E+00 -0.36514008128E+02  0.36514008128E+02  0.00000000000E+00 0.  1.
          1    1    1    2  502    0 -0.94748070217E+01 -0.18025483146E+02 -0.12892087438E+02  0.24101782699E+02  0.00000000000E+00 0. -1.
         -1    1    1    2    0  501  0.94748070217E+01  0.18025483146E+02 -0.12262947384E+02  0.23771198735E+02  0.00000000000E+00 0.  1.
</event>
<event>
 4    1  0.6754235E+001  0.2114454E+02  0.7546771E-02  0.1517211E+00
          2   -1    0    0  502    0  0.00000000000E+00  0.00000000000E+00  0.45560313560E+03  0.45560313560E+03  0.00000000000E+00 0. -1.
         -2   -1    0    0    0  501 -0.00000000000E+00 -0.00000000000E+00 -0.12069896898E+01  0.12069896898E+01  0.00000000000E+00 0.  1.
          1    1    1    2  502    0 -0.21140951970E+02  0.38942942031E+00  0.32596069164E+03  0.32664577756E+03  0.00000000000E+00 0. -1.
         -1    1    1    2    0  501  0.21140951970E+02 -0.38942942031E+00  0.12843545427E+03  0.13016434772E+03  0.00000000000E+00 0.  1.
</event>
<event>
 4    1  0.6754235E+001  0.2051055E+02  0.7546771E-02  0.1526369E+00
          2   -1    0    0  502    0  0.00000000000E+00  0.00000000000E+00  0.74334193047E+03  0.74334193047E+03  0.00000000000E+00 0.  1.
         -2   -1    0    0    0  501 -0.00000000000E+00 -0.00000000000E+00 -0.16101757208E+01  0.16101757208E+01  0.00000000000E+00 0. -1.
          1    1    1    2  502    0  0.19926556789E+02  0.48595432224E+01  0.67082504597E+03  0.67113852901E+03  0.00000000000E+00 0. -1.
         -1    1    1    2    0  501 -0.19926556789E+02 -0.48595432224E+01  0.70906708783E+02  0.73813577181E+02  0.00000000000E+00 0.  1.
</event>
<event>
 4    1  0.6754235E+001  0.2960894E+02  0.7546771E-02  0.1423026E+00
          2   -1    0    0  502    0  0.00000000000E+00  0.00000000000E+00  0.11785172277E+04  0.11785172277E+04  0.00000000000E+00 0. -1.
         -2   -1    0    0    0  501 -0.00000000000E+00 -0.00000000000E+00 -0.12918592275E+01  0.12918592275E+01  0.00000000000E+00 0.  1.
          1    1    1    2  502    0  0.29584083143E+02 -0.12130194579E+01  0.20441788024E+03  0.20655110543E+03  0.00000000000E+00 0.  1.
         -1    1    1    2    0  501 -0.29584083143E+02  0.12130194579E+01  0.97280748822E+03  0.97325798149E+03  0.00000000000E+00 0. -1.
</event>
<event>
 4    1  0.6754235E+001  0.2324148E+02  0.7546771E-02  0.1489488E+00
          2   -1    0    0  502    0  0.00000000000E+00  0.00000000000E+00  0.13632365563E+03  0.13632365563E+03  0.00000000000E+00 0.  1.
         -2   -1    0    0    0  501 -0.00000000000E+00 -0.00000000000E+00 -0.39624346409E+01  0.39624346409E+01  0.00000000000E+00 0. -1.
          1    1    1    2  502    0  0.18109589128E+02 -0.14567401739E+02  0.66436048196E+02  0.70384052964E+02  0.00000000000E+00 0. -1.
         -1    1    1    2    0  501 -0.18109589128E+02  0.14567401739E+02  0.65925172790E+02  0.69902037304E+02  0.00000000000E+00 0.  1.
</event>
<event>
 4    1  0.6754235E+001  0.2020699E+02  0.7546771E-02  0.1530895E+00
          2   -1    0    0  502    0  0.00000000000E+00  0.00000000000E+00  0.11011186872E+04  0.11011186872E+04  0.00000000000E+00 0.  1.
         -2   -1    0    0    0  501 -0.00000000000E+00 -0.00000000000E+00 -0.52325330212E+00  0.52325330212E+00  0.00000000000E+00 0. -1.
          1    1    1    2  502    0  0.19783564248E+02 -0.41149652546E+01  0.84759248213E+03  0.84783331977E+03  0.00000000000E+00 0.  1.
         -1    1    1    2    0  501 -0.19783564248E+02  0.41149652546E+01  0.25300295180E+03  0.25380862077E+03  0.00000000000E+00 0. -1.
</event>
<event>
 4    1  0.6754235E+001  0.2317263E+02  0.7546771E-02  0.1490342E+00
          2   -1    0    0  502    0  0.00000000000E+00  0.00000000000E+00  0.27824859362E+04  0.27824859362E+04  0.00000000000E+00 0. -1.
         -2   -1    0    0    0  501 -0.00000000000E+00 -0.00000000000E+00 -0.19784219785E+00  0.19784219785E+00  0.00000000000E+00 0.  1.
          1    1    1    2  502    0 -0.89900024027E+01 -0.21357679423E+02  0.11730786699E+04  0.11733075200E+04  0.00000000000E+00 0.  1.
         -1    1    1    2    0  501  0.89900024027E+01  0.21357679423E+02  0.16092094240E+04  0.16093762584E+04  0.00000000000E+00 0. -1.
</event>
<event>
 4    1  0.6754235E+001  0.2876876E+02  0.7546771E-02  0.1430606E+00
          2   -1    0    0  502    0  0.00000000000E+00  0.00000000000E+00  0.85126307530E+03  0.85126307530E+03  0.00000000000E+00 0.  1.
         -2   -1    0    0    0  501 -0.00000000000E+00 -0.00000000000E+00 -0.11930324355E+01  0.11930324355E+01  0.00000000000E+00 0. -1.
          1    1    1    2  502    0  0.27812464130E+02 -0.73558337009E+01  0.60839185320E+03  0.60907166121E+03  0.00000000000E+00 0. -1.
         -1    1    1    2    0  501 -0.27812464130E+02  0.73558337009E+01  0.24167818966E+03  0.24338444652E+03  0.00000000000E+00 0.  1.
</event>
<event>
 4    1  0.6754235E+001  0.2190665E+02  0.7546771E-02  0.1506703E+00
          2   -1    0    0  502    0  0.00000000000E+00  0.00000000000E+00  0.12746484305E+02  0.12746484305E+02  0.00000000000E+00 0. -1.
         -2   -1    0    0    0  501 -0.00000000000E+00 -0.00000000000E+00 -0.37698240765E+02  0.37698240765E+02  0.00000000000E+00 0.  1.
          1    1    1    2  502    0  0.24925977055E+01 -0.21764380037E+02 -0.13380961411E+02  0.25670048890E+02  0.00000000000E+00 0. -1.
         -1    1    1    2    0  501 -0.24925977055E+01  0.21764380037E+02 -0.11570795049E+02  0.24774676180E+02  0.00000000000E+00 0.  1.
</event>
<event>
 4    1  0.6754235E+001  0.2420467E+02  0.7546771E-02  0.1477901E+00
          2   -1    0    0  502    0  0.00000000000E+00  0.00000000000E+00  0.61452220270E+03  0.61452220270E+03  0.00000000000E+00 0. -1.
         -2   -1    0    0    0  501 -0.00000000000E+00 -0.00000000000E+00 -0.12768639430E+01  0.12768639430E+01  0.00000000000E+00 0.  1.
          1    1    1    2  502    0 -0.19150557527E+02  0.14802782553E+02  0.15164444608E+03  0.15356400702E+03  0.00000000000E+00 0.  1.
         -1    1    1    2    0  501  0.19150557527E+02 -0.14802782553E+02  0.46160089268E+03  0.46223505962E+03  0.00000000000E+00 0. -1.
</event>
<event>
 4    1  0.6754235E+001  0.6982467E+02  0.7546771E-02  0.1229671E+00
          2   -1    0    0  502    0  0.00000000000E+00  0.00000000000E+00  0.83900654560E+03  0.83900654560E+03  0.00000000000E+00 0. -1.
         -2   -1    0    0    0  501 -0.00000000000E+00 -0.00000000000E+00 -0.59539357583E+01  0.59539357583E+01  0.00000000000E+00 0.  1.
          1    1    1    2  502    0 -0.45727564065E+02  0.52768114833E+02  0.48198147430E+03  0.48701296248E+03  0.00000000000E+00 0. -1.
         -1    1    1    2    0  501  0.45727564065E+02 -0.52768114833E+02  0.35107113554E+03  0.35794751888E+03  0.00000000000E+00 0.  1.
</event>
<event>
 4    1  0.6754235E+001  0.2549834E+02  0.7546771E-02  0.1463305E+00
          2   -1    0    0  502    0  0.00000000000E+00  0.00000000000E+00  0.80846471953E+03  0.80846471953E+03  0.00000000000E+00 0.  1.
         -2   -1    0    0    0  501 -0.00000000000E+00 -0.00000000000E+00 -0.85598005309E+00  0.85598005309E+00  0.00000000000E+00 0. -1.
          1    1    1    2  502    0  0.38102630006E+01 -0.25212048911E+02  0.30427540649E+03  0.30534192065E+03  0.00000000000E+00 0. -1.
         -1    1    1    2    0  501 -0.38102630006E+01  0.25212048911E+02  0.50333333299E+03  0.50397877893E+03  0.00000000000E+00 0.  1.
</event>
<event>
 4    1  0.6754235E+001  0.2059602E+02  0.7546771E-02  0.1525112E+00
          2   -1    0    0  502    0  0.00000000000E+00  0.00000000000E+00  0.73811731585E+02  0.73811731585E+02  0.00000000000E+00 0.  1.
         -2   -1    0    0    0  501 -0.00000000000E+00 -0.00000000000E+00 -0.59311752295E+01  0.59311752295E+01  0.00000000000E+00 0. -1.
          1    1    1    2  502    0  0.20499452185E+02 -0.19920960830E+01  0.26914282892E+02  0.33890627174E+02  0.00000000000E+00 0. -1.
         -1    1    1    2    0  501 -0.20499452185E+02  0.19920960830E+01  0.40966273463E+02  0.45852279640E+02  0.00000000000E+00 0.  1.
</event>
<event>
 4    1  0.6754235E+001  0.7695115E+02  0.7546771E-02  0.1211108E+00
          2   -1    0    0  502    0  0.00000000000E+00  0.00000000000E+00  0.86956837316E+01  0.86956837316E+01  0.00000000000E+00 0. -1.
         -2   -1    0    0    0  501 -0.00000000000E+00 -0.00000000000E+00 -0.68115009888E+03  0.68115009888E+03  0.00000000000E+00 0.  1.
          1    1    1    2  502    0  0.49664395350E+02 -0.58778627311E+02 -0.33058189633E+03  0.33941990126E+03  0.00000000000E+00 0. -1.
         -1    1    1    2    0  501 -0.49664395350E+02  0.58778627311E+02 -0.34187251882E+03  0.35042588135E+03  0.00000000000E+00 0.  1.
</event>
<event>
 4    1  0.6754235E+001  0.2525230E+02  0.7546771E-02  0.1466001E+00
          2   -1    0    0  502    0  0.00000000000E+00  0.00000000000E+00  0.50271272586E+02  0.50271272586E+02  0.00000000000E+00 0. -1.
         -2   -1    0    0    0  501 -0.00000000000E+00 -0.00000000000E+00 -0.18729333860E+02  0.18729333860E+02  0.00000000000E+00 0.  1.
          1    1    1    2  502    0 -0.12692531518E+02 -0.21830670329E+02 -0.38285287825E+01  0.25540872264E+02  0.00000000000E+00 0.  1.
         -1    1    1    2    0  501  0.12692531518E+02  0.21830670329E+02  0.35370467509E+02  0.43459734182E+02  0.00000000000E+00 0. -1.
</event>
<event>
 4    1  0.6754235E+001  0.2988041E+02  0.7546771E-02  0.1420639E+00
          2   -1    0    0  502    0  0.00000000000E+00  0.00000000000E+00  0.57224129834E+03  0.57224129834E+03  0.00000000000E+00 0.  1.
         -2   -1    0    0    0  501 -0.00000000000E+00 -0.00000000000E+00 -0.17134489535E+01  0.17134489535E+01  0.00000000000E+00 0. -1.
          1    1    1    2  502    0 -0.24628445176E+02  0.16919762297E+02  0.37107473369E+03  0.37227583409E+03  0.00000000000E+00 0. -1.
         -1    1    1    2    0  501  0.24628445176E+02 -0.16919762297E+02  0.19945311570E+03  0.20167891320E+03  0.00000000000E+00 0.  1.
</event>
<event>
 4    1  0.6754235E+001  0.2725121E+02  0.7546771E-02  0.1445101E+00
          2   -1    0    0  502    0  0.00000000000E+00  0.00000000000E+00  0.12572463834E+04  0.12572463834E+04  0.00000000000E+00 0. -1.
         -2   -1    0    0    0  501 -0.00000000000E+00 -0.00000000000E+00 -0.14301597187E+01  0.14301597187E+01  0.00000000000E+00 0.  1.
          1    1    1    2  502    0 -0.18040411886E+02  0.20424795113E+02  0.11100749091E+04  0.11104093536E+04  0.00000000000E+00 0. -1.
         -1    1    1    2    0  501  0.18040411886E+02 -0.20424795113E+02  0.14574131462E+03  0.14826718957E+03  0.00000000000E+00 0.  1.
</event>
<event>
 4    1  0.6754235E+001  0.2068946E+02  0.7546771E-02  0.1523745E+00
          2   -1    0    0  502    0  0.00000000000E+00  0.00000000000E+00  0.13250448785E+04  0.13250448785E+04  0.00000000000E+00 0.  1.
         -2   -1    0    0    0  501 -0.00000000000E+00 -0.00000000000E+00 -0.39857965893E+00  0.39857965893E+00  0.00000000000E+00 0. -1.
          1    1    1    2  502    0  0.17271998290E+02  0.11389991230E+02  0.37382928677E+03  0.37440137483E+03  0.00000000000E+00 0. -1.
         -1    1    1    2    0  501 -0.17271998290E+02 -0.11389991230E+02  0.95081701203E+03  0.95104208329E+03  0.00000000000E+00 0.  1.
</event>
<event>
 4    1  0.6754235E+001  0.3382836E+02  0.7546771E-02  0.1388993E+00
          2   -1    0    0  502    0  0.00000000000E+00  0.00000000000E+00  0.26048228795E+03  0.26048228795E+03  0.00000000000E+00 0. -1.
         -2   -1    0    0    0  501 -0.00000000000E+00 -0.00000000000E+00 -0.44327634476E+01  0.44327634476E+01  0.00000000000E+00 0.  1.
          1    1    1    2  502    0 -0.30994888768E+02 -0.13552656963E+02  0.14053432058E+03  0.14454844482E+03  0.00000000000E+00 0.  1.
         -1    1    1    2    0  501  0.30994888768E+02  0.13552656963E+02  0.11551520392E+03  0.12036660657E+03  0.00000000000E+00 0. -1.
</event>
<event>
 4    1  0.6754235E+001  0.2048517E+02  0.7546771E-02  0.1526744E+00
          2   -1    0    0  502    0  0.00000000000E+00  0.00000000000E+00  0.68375981620E+02  0.68375981620E+02  0.00000000000E+00 0. -1.
         -2   -1    0    0    0  501 -0.00000000000E+00 -0.00000000000E+00 -0.93322755274E+01  0.93322755274E+01  0.00000000000E+00 0.  1.
          1    1    1    2  502    0  0.18625440033E+02 -0.85284900651E+01  0.52256012772E+02  0.56127827591E+02  0.00000000000E+00 0. -1.
         -1    1    1    2    0  501 -0.18625440033E+02  0.85284900651E+01  0.67876933198E+01  0.21580429556E+02  0.00000000000E+00 0.  1.
</event>
<event>
 4    1  0.6754235E+001  0.3326087E+02  0.7546771E-02  0.1393220E+00
          2   -1    0    0  502    0  0.00000000000E+00  0.00000000000E+00  0.14394174466E+03  0.14394174466E+03  0.00000000000E+00 0. -1.
         -2   -1    0    0    0  501 -0.00000000000E+00 -0.00000000000E+00 -0.11449667175E+02  0.11449667175E+02  0.00000000000E+00 0.  1.
          1    1    1    2  502    0 -0.25909321046E+02 -0.20856469219E+02  0.11079387782E+03  0.11567873006E+03  0.00000000000E+00 0. -1.
         -1    1    1    2    0  501  0.25909321046E+02  0.20856469219E+02  0.21698199668E+02  0.39712681780E+02  0.00000000000E+00 0.  1.
</event>
<event>
 4    1  0.6754235E+001  0.5192935E+02  0.7546771E-02  0.1290017E+00
          2   -1    0    0  502    0  0.00000000000E+00  0.00000000000E+00  0.13616523470E+04  0.13616523470E+04  0.00000000000E+00 0. -1.
         -2   -1    0    0    0  501 -0.00000000000E+00 -0.00000000000E+00 -0.20679644053E+01  0.20679644053E+01  0.00000000000E+00 0.  1.
          1    1    1    2  502    0 -0.24545477198E+02  0.45762183647E+02  0.53950700336E+03  0.54200042858E+03  0.00000000000E+00 0.  1.
         -1    1    1    2    0  501  0.24545477198E+02 -0.45762183647E+02  0.82007737919E+03  0.82171988278E+03  0.00000000000E+00 0. -1.
</event>
<event>
 4    1  0.6754235E+001  0.1006818E+03  0.7546771E-02  0.1162632E+00
          2   -1    0    0  502    0  0.00000000000E+00  0.00000000000E+00  0.34757243683E+04  0.34757243683E+04  0.00000000000E+00 0. -1.
         -2   -1    0    0    0  501 -0.00000000000E+00 -0.00000000000E+00 -0.33443092660E+01  0.33443092660E+01  0.00000000000E+00 0.  1.
          1    1    1    2  502    0 -0.10045000458E+03 -0.68277545405E+01  0.23583809134E+04  0.23605290412E+04  0.00000000000E+00 0. -1.
         -1    1    1    2    0  501  0.10045000458E+03  0.68277545405E+01  0.11139991456E+04  0.11185396363E+04  0.00000000000E+00 0.  1.
</event>
<event>
 4    1  0.6754235E+001  0.2161324E+02  0.7546771E-02  0.1510687E+00
          2   -1    0    0  502    0  0.00000000000E+00  0.00000000000E+00  0.24028001323E+04  0.24028001323E+04  0.00000000000E+00 0.  1.
         -2   -1    0    0    0  501 -0.00000000000E+00 -0.00000000000E+00 -0.19676359258E+00  0.19676359258E+00  0.00000000000E+00 0. -1.
          1    1    1    2  502    0 -0.17830965708E+02  0.12214287608E+02  0.13326640793E+04  0.13328393303E+04  0.00000000000E+00 0. -1.
         -1    1    1    2    0  501  0.17830965708E+02 -0.12214287608E+02  0.10699392894E+04  0.10701575656E+04  0.00000000000E+00 0.  1.
</event>
<event>
 4    1  0.6754235E+001  0.7691818E+02  0.7546771E-02  0.1211189E+00
          2   -1    0    0  502    0  0.00000000000E+00  0.00000000000E+00  0.22169558011E+04  0.22169558011E+04  0.00000000000E+00 0.  1.
         -2   -1    0    0    0  501 -0.00000000000E+00 -0.00000000000E+00 -0.46676650437E+01  0.46676650437E+01  0.00000000000E+00 0. -1.
          1    1    1    2  502    0  0.14756972741E+02  0.75489328714E+02  0.37921442124E+03  0.38693666700E+03  0.00000000000E+00 0. -1.
         -1    1    1    2    0  501 -0.14756972741E+02 -0.75489328714E+02  0.18330737148E+04  0.18346867991E+04  0.00000000000E+00 0.  1.
</event>
<event>
 4    1  0.6754235E+001  0.3852826E+02  0.7546771E-02  0.1357333E+00
          2   -1    0    0  502    0  0.00000000000E+00  0.00000000000E+00  0.18861970891E+02  0.18861970891E+02  0.00000000000E+00 0.  1.
         -2   -1    0    0    0  501 -0.00000000000E+00 -0.00000000000E+00 -0.94365634240E+02  0.94365634240E+02  0.00000000000E+00 0. -1.
          1    1    1    2  502    0  0.93895982290E+01  0.37366592474E+02 -0.14684520707E+02  0.41231807339E+02  0.00000000000E+00 0.  1.
         -1    1    1    2    0  501 -0.93895982290E+01 -0.37366592474E+02 -0.60819142642E+02  0.71995797792E+02  0.00000000000E+00 0. -1.
</event>
<event>
 4    1  0.6754235E+001  0.3332386E+02  0.7546771E-02  0.1392746E+00
          2   -1    0    0  502    0  0.00000000000E+00  0.00000000000E+00  0.15536467695E+04  0.15536467695E+04  0.00000000000E+00 0.  1.
         -2   -1    0    0    0  501 -0.00000000000E+00 -0.00000000000E+00 -0.12918358611E+01  0.12918358611E+01  0.00000000000E+00 0. -1.
          1    1    1    2  502    0 -0.30526347472E+02 -0.13364946806E+02  0.12958110564E+04  0.12962394738E+04  0.00000000000E+00 0.  1.
         -1    1    1    2    0  501  0.30526347472E+02  0.13364946806E+02  0.25654387729E+03  0.25869913156E+03  0.00000000000E+00 0. -1.
</event>
<event>
 4    1  0.6754235E+001  0.2582081E+02  0.7546771E-02  0.1459827E+00
          2   -1    0    0  502    0  0.00000000000E+00  0.00000000000E+00  0.10389138412E+04  0.10389138412E+04  0.00000000000E+00 0. -1.
         -2   -1    0    0    0  501 -0.00000000000E+00 -0.00000000000E+00 -0.84630415561E+00  0.84630415561E+00  0.00000000000E+00 0.  1.
          1    1    1    2  502    0 -0.19414300424E+02 -0.17023487120E+02  0.77462918529E+03  0.77505940990E+03  0.00000000000E+00 0. -1.
         -1    1    1    2    0  501  0.19414300424E+02  0.17023487120E+02  0.26343835180E+03  0.26470073550E+03  0.00000000000E+00 0.  1.
</event>
<event>
 4    1  0.6754235E+001  0.2427835E+02  0.7546771E-02  0.1477041E+00
          2   -1    0    0  502    0  0.00000000000E+00  0.00000000000E+00  0.61163532515E+03  0.61163532515E+03  0.00000000000E+00 0. -1.
         -2   -1    0    0    0  501 -0.00000000000E+00 -0.00000000000E+00 -0.11953533024E+01  0.11953533024E+01  0.00000000000E+00 0.  1.
          1    1    1    2  502    0  0.23113072467E+02 -0.74312931606E+01  0.44010805084E+03  0.44077719388E+03  0.00000000000E+00 0. -1.
         -1    1    1    2    0  501 -0.23113072467E+02  0.74312931606E+01  0.17033192101E+03  0.17205348457E+03  0.00000000000E+00 0.  1.
</event>
<event>
 4    1  0.6754235E+001  0.2805308E+02  0.7546771E-02  0.1437307E+00
          2   -1    0    0  502    0  0.00000000000E+00  0.00000000000E+00  0.88655837507E+01  0.88655837507E+01  0.00000000000E+00 0. -1.
         -2   -1    0    0    0  501 -0.00000000000E+00 -0.00000000000E+00 -0.88806546875E+02  0.88806546875E+02  0.00000000000E+00 0.  1.
          1    1    1    2  502    0  0.21081101527E+02 -0.18508437512E+02 -0.40995402602E+02  0.49674924612E+02  0.00000000000E+00 0.  1.
         -1    1    1    2    0  501 -0.21081101527E+02  0.18508437512E+02 -0.38945560522E+02  0.47997206014E+02  0.00000000000E+00 0. -1.
</event>
<event>
 4    1  0.6754235E+001  0.2265890E+02  0.7546771E-02  0.1496826E+00
          2   -1    0    0  502    0  0.00000000000E+00  0.00000000000E+00  0.77159604416E+02  0.77159604416E+02  0.00000000000E+00 0. -1.
         -2   -1    0    0    0  501 -0.00000000000E+00 -0.00000000000E+00 -0.73662464050E+01  0.73662464050E+01  0.00000000000E+00 0.  1.
          1    1    1    2  502    0 -0.19239457335E+02 -0.11969504236E+02  0.21755665058E+02  0.31412333761E+02  0.00000000000E+00 0.  1.
         -1    1    1    2    0  501  0.19239457335E+02  0.11969504236E+02  0.48037692953E+02  0.53113517059E+02  0.00000000000E+00 0. -1.
</event>
<event>
 4    1  0.6754235E+001  0.2298560E+02  0.7546771E-02  0.1492679E+00
          2   -1    0    0  502    0  0.00000000000E+00  0.00000000000E+00  0.90227586023E+03  0.90227586023E+03  0.00000000000E+00 0.  1.
         -2   -1    0    0    0  501 -0.00000000000E+00 -0.00000000000E+00 -0.76108570651E+00  0.76108570651E+00  0.00000000000E+00 0. -1.
          1    1    1    2  502    0 -0.21679951519E+02 -0.76365762651E+01  0.23392317157E+03  0.23504975599E+03  0.00000000000E+00 0. -1.
         -1    1    1    2    0  501  0.21679951519E+02  0.76365762651E+01  0.66759160296E+03  0.66798718995E+03  0.00000000000E+00 0.  1.
</event>
<event>
 4    1  0.6754235E+001  0.3098193E+02  0.7546771E-02  0.1411251E+00
          2   -1    0    0  502    0  0.00000000000E+00  0.00000000000E+00  0.25400281536E+03  0.25400281536E+03  0.00000000000E+00 0. -1.
         -2   -1    0    0    0  501 -0.00000000000E+00 -0.00000000000E+00 -0.38417583832E+01  0.38417583832E+01  0.00000000000E+00 0.  1.
          1    1    1    2  502    0 -0.26516909009E+02  0.16022910434E+02  0.14155651398E+03  0.14490730407E+03  0.00000000000E+00 0. -1.
         -1    1    1    2    0  501  0.26516909009E+02 -0.16022910434E+02  0.10860454300E+03  0.11293726968E+03  0.00000000000E+00 0.  1.
</event>
<event>
 4    1  0.6754235E+001  0.2574307E+02  0.7546771E-02  0.1460660E+00
          2   -1    0    0  502    0  0.00000000000E+00  0.00000000000E+00  0.95887989296E+02  0.95887989296E+02  0.00000000000E+00 0. -1.
         -2   -1    0    0    0  501 -0.00000000000E+00 -0.00000000000E+00 -0.69799545630E+01  0.69799545630E+01  0.00000000000E+00 0.  1.
          1    1    1    2  502    0  0.56552566810E+01  0.25114218580E+02  0.39351137581E+02  0.47023589101E+02  0.00000000000E+00 0. -1.
         -1    1    1    2    0  501 -0.56552566810E+01 -0.25114218580E+02  0.49556897151E+02  0.55844354757E+02  0.00000000000E+00 0.  1.
</event>
<event>
 4    1  0.6754235E+001  0.2094079E+02  0.7546771E-02  0.1520112E+00
          2   -1    0    0  502    0  0.00000000000E+00  0.00000000000E+00  0.67445955245E+02  0.67445955245E+02  0.00000000000E+00 0.  1.
         -2   -1    0    0    0  501 -0.00000000000E+00 -0.00000000000E+00 -0.84578089292E+01  0.84578089292E+01  0.00000000000E+00 0. -1.
          1    1    1    2  502    0 -0.16818779961E+02  0.12475794469E+02  0.11242712828E+02  0.23767948980E+02  0.00000000000E+00 0. -1.
         -1    1    1    2    0  501  0.16818779961E+02 -0.12475794469E+02  0.47745433488E+02  0.52135815194E+02  0.00000000000E+00 0.  1.
</event>
<event>
 4    1  0.6754235E+001  0.2104059E+02  0.7546771E-02  0.1518686E+00
          2   -1    0    0  502    0  0.00000000000E+00  0.00000000000E+00  0.33475629810E+01  0.33475629810E+01  0.00000000000E+00 0.  1.
         -2   -1    0    0    0  501 -0.00000000000E+00 -0.00000000000E+00 -0.27533436452E+03  0.27533436452E+03  0.00000000000E+00 0. -1.
          1    1    1    2  502    0 -0.17659084776E+02 -0.11439550317E+02 -0.23644308982E+03  0.23737742376E+03  0.00000000000E+00 0. -1.
         -1    1    1    2    0  501  0.17659084776E+02  0.11439550317E+02 -0.35543711713E+02  0.41304503737E+02  0.00000000000E+00 0.  1.
</event>
<event>
 4    1  0.6754235E+001  0.2235508E+02  0.7546771E-02  0.1500759E+00
          2   -1    0    0  502    0  0.00000000000E+00  0.00000000000E+00  0.21027585525E+04  0.21027585525E+04  0.00000000000E+00 0.  1.
         -2   -1    0    0    0  501 -0.00000000000E+00 -0.00000000000E+00 -0.26323067815E+00  0.26323067815E+00  0.00000000000E+00 0. -1.
          1    1    1    2  502    0 -0.99879113674E+01 -0.19999784428E+02  0.13789531518E+04  0.13791343461E+04  0.00000000000E+00 0.  1.
         -1    1    1    2    0  501  0.99879113674E+01  0.19999784428E+02  0.72354217003E+03  0.72388743708E+03  0.00000000000E+00 0. -1.
</event>
<event>
 4    1  0.6754235E+001  0.2038953E+02  0.7546771E-02  0.1528162E+00
          2   -1    0    0  502    0  0.00000000000E+00  0.00000000000E+00  0.10354637027E+04  0.10354637027E+04  0.00000000000E+00 0.  1.
         -2   -1    0    0    0  501 -0.00000000000E+00 -0.00000000000E+00 -0.43064090574E+00  0.43064090574E+00  0.00000000000E+00 0. -1.
          1    1    1    2  502    0  0.15524915659E+02  0.13217793637E+02  0.65226370246E+03  0.65258230946E+03  0.00000000000E+00 0.  1.
         -1    1    1    2    0  501 -0.15524915659E+02 -0.13217793637E+02  0.38276935931E+03  0.38331203412E+03  0.00000000000E+00 0. -1.
</event>
<event>
 4    1  0.6754235E+001  0.4382644E+02  0.7546771E-02  0.1327413E+00
          2   -1    0    0  502    0  0.00000000000E+00  0.00000000000E+00  0.32629755663E+03  0.32629755663E+03  0.00000000000E+00 0. -1.
         -2   -1    0    0    0  501 -0.00000000000E+00 -0.00000000000E+00 -0.62212090350E+01  0.62212090350E+01  0.00000000000E+00 0.  1.
          1    1    1    2  502    0 -0.10303762390E+02  0.42597994779E+02  0.19860113126E+03  0.20337936478E+03  0.00000000000E+00 0.  1.
         -1    1    1    2    0  501  0.10303762390E+02 -0.42597994779E+02  0.12147521634E+03  0.12913940089E+03  0.00000000000E+00 0. -1.
</event>
<event>
 4    1  0.6754235E+001  0.2481880E+02  0.7546771E-02  0.1470841E+00
          2   -1    0    0  502    0  0.00000000000E+00  0.00000000000E+00  0.37262274015E+03  0.37262274015E+03  0.00000000000E+00 0.  1.
         -2   -1    0    0    0  501 -0.00000000000E+00 -0.00000000000E+00 -0.17150122609E+01  0.17150122609E+01  0.00000000000E+00 0. -1.
          1    1    1    2  502    0 -0.15137060760E+02 -0.19668299854E+02  0.14988396082E+03  0.15192489704E+03  0.00000000000E+00 0. -1.
         -1    1    1    2    0  501  0.15137060760E+02  0.19668299854E+02  0.22102376707E+03  0.22241285537E+03  0.00000000000E+00 0.  1.
</event>
<event>
 4    1  0.6754235E+001  0.2663325E+02  0.7546771E-02  0.1451327E+00
          2   -1    0    0  502    0  0.00000000000E+00  0.00000000000E+00  0.84666558255E+03  0.84666558255E+03  0.00000000000E+00 0.  1.
         -2   -1    0    0    0  501 -0.00000000000E+00 -0.00000000000E+00 -0.10088960509E+01  0.10088960509E+01  0.00000000000E+00 0. -1.
          1    1    1    2  502    0  0.26049678100E+02 -0.55447562348E+01  0.59737255395E+03  0.59796596748E+03  0.00000000000E+00 0.  1.
         -1    1    1    2    0  501 -0.26049678100E+02  0.55447562348E+01  0.24828413255E+03  0.24970851113E+03  0.00000000000E+00 0. -1.
</event>
<event>
 4    1  0.6754235E+001  0.2369448E+02  0.7546771E-02  0.1483957E+00
          2   -1    0    0  502    0  0.00000000000E+00  0.00000000000E+00  0.93380264972E+02  0.93380264972E+02  0.00000000000E+00 0.  1.
         -2   -1    0    0    0  501 -0.00000000000E+00 -0.00000000000E+00 -0.14369750373E+02  0.14369750373E+02  0.00000000000E+00 0. -1.
          1    1    1    2  502    0  0.22098513981E+02  0.85489079956E+01  0.80591856743E+02  0.84002830436E+02  0.00000000000E+00 0.  1.
         -1    1    1    2    0  501 -0.22098513981E+02 -0.85489079956E+01 -0.15813421442E+01  0.23747184908E+02  0.00000000000E+00 0. -1.
</event>
<event>
 4    1  0.6754235E+001  0.2054907E+02  0.7546771E-02  0.1525801E+00
          2   -1    0    0  502    0  0.00000000000E+00  0.00000000000E+00  0.67052537772E+02  0.67052537772E+02  0.00000000000E+00 0. -1.
         -2   -1    0    0    0  501 -0.00000000000E+00 -0.00000000000E+00 -0.13119908355E+02  0.13119908355E+02  0.00000000000E+00 0.  1.
          1    1    1    2  502    0 -0.19777238792E+02 -0.55789973600E+01  0.55872987390E+02  0.59531967090E+02  0.00000000000E+00 0. -1.
         -1    1    1    2    0  501  0.19777238792E+02  0.55789973600E+01 -0.19403579736E+01  0.20640479037E+02  0.00000000000E+00 0.  1.
</event>
<event>
 4    1  0.6754235E+001  0.4866068E+02  0.7546771E-02  0.1304086E+00
          2   -1    0    0  502    0  0.00000000000E+00  0.00000000000E+00  0.77808966195E+03  0.77808966195E+03  0.00000000000E+00 0.  1.
         -2   -1    0    0    0  501 -0.00000000000E+00 -0.00000000000E+00 -0.44157102525E+01  0.44157102525E+01  0.00000000000E+00 0. -1.
          1    1    1    2  502    0 -0.43727845623E+02  0.21347993407E+02  0.60496885860E+03  0.60692271433E+03  0.00000000000E+00 0.  1.
         -1    1    1    2    0  501  0.43727845623E+02 -0.21347993407E+02  0.16870509311E+03  0.17558265787E+03  0.00000000000E+00 0. -1.
</event>
<event>
 4    1  0.6754235E+001  0.2116563E+02  0.7546771E-02  0.1516913E+00
          2   -1    0    0  502    0  0.00000000000E+00  0.00000000000E+00  0.77383880270E+02  0.77383880270E+02  0.00000000000E+00 0.  1.
         -2   -1    0    0    0  501 -0.00000000000E+00 -0.00000000000E+00 -0.71781663955E+01  0.71781663955E+01  0.00000000000E+00 0. -1.
          1    1    1    2  502    0 -0.19753061611E+02  0.76026599068E+01  0.16503475730E+02  0.26839310569E+02  0.00000000000E+00 0. -1.
         -1    1    1    2    0  501  0.19753061611E+02 -0.76026599068E+01  0.53702238145E+02  0.57722736096E+02  0.00000000000E+00 0.  1.
</event>
<event>
 4    1  0.6754235E+001  0.2652902E+02  0.7546771E-02  0.1452397E+00
          2   -1    0    0  502    0  0.00000000000E+00  0.00000000000E+00  0.38892208575E+01  0.38892208575E+01  0.00000000000E+00 0. -1.
         -2   -1    0    0    0  501 -0.00000000000E+00 -0.00000000000E+00 -0.18283389974E+03  0.18283389974E+03  0.00000000000E+00 0.  1.
          1    1    1    2  502    0 -0.12554645717E+02 -0.23370277138E+02 -0.80017706284E+02  0.84300784703E+02  0.00000000000E+00 0.  1.
         -1    1    1    2    0  501  0.12554645717E+02  0.23370277138E+02 -0.98926972597E+02  0.10242233589E+03  0.00000000000E+00 0. -1.
</event>
<event>
 4    1  0.6754235E+001  0.2442902E+02  0.7546771E-02  0.1475293E+00
          2   -1    0    0  502    0  0.00000000000E+00  0.00000000000E+00  0.35456741763E+02  0.35456741763E+02  0.00000000000E+00 0. -1.
         -2   -1    0    0    0  501 -0.00000000000E+00 -0.00000000000E+00 -0.17140741262E+02  0.17140741262E+02  0.00000000000E+00 0.  1.
          1    1    1    2  502    0 -0.16043416138E+02  0.18422422023E+02  0.12692536231E+02  0.27529571565E+02  0.00000000000E+00 0. -1.
         -1    1    1    2    0  501  0.16043416138E+02 -0.18422422023E+02  0.56234642701E+01  0.25067911460E+02  0.00000000000E+00 0.  1.
</event>
<event>
 4    1  0.6754235E+001  0.2614038E+02  0.7546771E-02  0.1456440E+00
          2   -1    0    0  502    0  0.00000000000E+00  0.00000000000E+00  0.59698288742E+02  0.59698288742E+02  0.00000000000E+00 0.  1.
         -2   -1    0    0    0  501 -0.00000000000E+00 -0.00000000000E+00 -0.12767977034E+02  0.12767977034E+02  0.00000000000E+00 0. -1.
          1    1    1    2  502    0 -0.23607735738E+02  0.11224725234E+02  0.11807239364E+02  0.28683279879E+02  0.00000000000E+00 0. -1.
         -1    1    1    2    0  501  0.23607735738E+02 -0.11224725234E+02  0.35123072344E+02  0.43782985898E+02  0.00000000000E+00 0.  1.
</event>
<event>
 4    1  0.6754235E+001  0.2144130E+02  0.7546771E-02  0.1513057E+00
          2   -1    0    0  502    0  0.00000000000E+00  0.00000000000E+00  0.16917780713E+04  0.16917780713E+04  0.00000000000E+00 0. -1.
         -2   -1    0    0    0  501 -0.00000000000E+00 -0.00000000000E+00 -0.27386301336E+00  0.27386301336E+00  0.00000000000E+00 0.  1.
          1    1    1    2  502    0 -0.21185177867E+02 -0.33041812189E+01  0.77132100534E+03  0.77161896209E+03  0.00000000000E+00 0. -1.
         -1    1    1    2    0  501  0.21185177867E+02  0.33041812189E+01  0.92018320296E+03  0.92043297224E+03  0.00000000000E+00 0.  1.
</event>
<event>
 4    1  0.6754235E+001  0.2005941E+02  0.7546771E-02  0.1533129E+00
          2   -1    0    0  502    0  0.00000000000E+00  0.00000000000E+00  0.28422528385E+03  0.28422528385E+03  0.00000000000E+00 0. -1.
         -2   -1    0    0    0  501 -0.00000000000E+00 -0.00000000000E+00 -0.14288636750E+01  0.14288636750E+01  0.00000000000E+00 0.  1.
          1    1    1    2  502    0 -0.59589323133E+01  0.19153877308E+02  0.15510319478E+03  0.15639495171E+03  0.00000000000E+00 0. -1.
         -1    1    1    2    0  501  0.59589323133E+01 -0.19153877308E+02  0.12769322539E+03  0.12925919581E+03  0.00000000000E+00 0.  1.
</event>
<event>
 4    1  0.6754235E+001  0.2496100E+02  0.7546771E-02  0.1469240E+00
          2   -1    0    0  502    0  0.00000000000E+00  0.00000000000E+00  0.10537855182E+04  0.10537855182E+04  0.00000000000E+00 0. -1.
         -2   -1    0    0    0  501 -0.00000000000E+00 -0.00000000000E+00 -0.69467621409E+01  0.69467621409E+01  0.00000000000E+00 0.  1.
          1    1    1    2  502    0  0.28688529954E+01 -0.24795588393E+02  0.16125262294E+02  0.29716588050E+02  0.00000000000E+00 0.  1.
         -1    1    1    2    0  501 -0.28688529954E+01  0.24795588393E+02  0.10307134937E+04  0.10310156923E+04  0.00000000000E+00 0. -1.
</event>
<event>
 4    1  0.6754235E+001  0.3516692E+02  0.7546771E-02  0.1379394E+00
          2   -1    0    0  502    0  0.00000000000E+00  0.00000000000E+00  0.62970345436E+03  0.62970345436E+03  0.00000000000E+00 0.  1.
         -2   -1    0    0    0  501 -0.00000000000E+00 -0.00000000000E+00 -0.19639892537E+01  0.19639892537E+01  0.00000000000E+00 0. -1.
          1    1    1    2  502    0 -0.22344499536E+02 -0.27155763390E+02  0.31264251072E+03  0.31461413137E+03  0.00000000000E+00 0. -1.
         -1    1    1    2    0  501  0.22344499536E+02  0.27155763390E+02  0.31509695439E+03  0.31705331225E+03  0.00000000000E+00 0.  1.
</event>
<event>
 4    1  0.6754235E+001  0.2078273E+02  0.7546771E-02  0.1522390E+00
          2   -1    0    0  502    0  0.00000000000E+00  0.00000000000E+00  0.54326345953E+02  0.54326345953E+02  0.00000000000E+00 0.  1.
         -2   -1    0    0    0  501 -0.00000000000E+00 -0.00000000000E+00 -0.12163301044E+02  0.12163301044E+02  0.00000000000E+00 0. -1.
          1    1    1    2  502    0  0.20301000978E+02  0.44487137022E+01  0.15163490346E+01  0.20837970360E+02  0.00000000000E+00 0. -1.
         -1    1    1    2    0  501 -0.20301000978E+02 -0.44487137022E+01  0.40646695875E+02  0.45651676638E+02  0.00000000000E+00 0.  1.
</event>
<event>
 4    1  0.6754235E+001  0.2492017E+02  0.7546771E-02  0.1469698E+00
          2   -1    0    0  502    0  0.00000000000E+00  0.00000000000E+00  0.12804428554E+04  0.12804428554E+04  0.00000000000E+00 0. -1.
         -2   -1    0    0    0  501 -0.00000000000E+00 -0.00000000000E+00 -0.72116113750E+00  0.72116113750E+00  0.00000000000E+00 0.  1.
          1    1    1    2  502    0 -0.14321415498E+02  0.20393922164E+02  0.27328602003E+03  0.27441986762E+03  0.00000000000E+00 0. -1.
         -1    1    1    2    0  501  0.14321415498E+02 -0.20393922164E+02  0.10064356742E+04  0.10067441489E+04  0.00000000000E+00 0.  1.
</event>
<event>
 4    1  0.6754235E+001  0.2174481E+02  0.7546771E-02  0.1508891E+00
          2   -1    0    0  502    0  0.00000000000E+00  0.00000000000E+00  0.18284187317E+03  0.18284187317E+03  0.00000000000E+00 0. -1.
         -2   -1    0    0    0  501 -0.00000000000E+00 -0.00000000000E+00 -0.27851728909E+01  0.27851728909E+01  0.00000000000E+00 0.  1.
          1    1    1    2  502    0 -0.17569494007E+02  0.12812095080E+02  0.65211098640E+02  0.68740994216E+02  0.00000000000E+00 0.  1.
         -1    1    1    2    0  501  0.17569494007E+02 -0.12812095080E+02  0.11484560164E+03  0.11688605184E+03  0.00000000000E+00 0. -1.
</event>
<event>
 4    1  0.6754235E+001  0.2494645E+02  0.7546771E-02  0.1469403E+00
          2   -1    0    0  502    0  0.00000000000E+00  0.00000000000E+00  0.34031198761E+01  0.34031198761E+01  0.00000000000E+00 0.  1.
         -2   -1    0    0    0  501 -0.00000000000E+00 -0.00000000000E+00 -0.55045155103E+03  0.55045155103E+03  0.00000000000E+00 0. -1.
          1    1    1    2  502    0 -0.21349531724E+02 -0.12904382397E+02 -0.49982373973E+03  0.50044589757E+03  0.00000000000E+00 0. -1.
         -1    1    1    2    0  501  0.21349531724E+02  0.12904382397E+02 -0.47224691419E+02  0.53408773338E+02  0.00000000000E+00 0.  1.
</event>
<event>
 4    1  0.6754235E+001  0.2241522E+02  0.7546771E-02  0.1499975E+00
          2   -1    0    0  502    0  0.00000000000E+00  0.00000000000E+00  0.89389798226E+02  0.89389798226E+02  0.00000000000E+00 0. -1.
         -2   -1    0    0    0  501 -0.00000000000E+00 -0.00000000000E+00 -0.77975734158E+01  0.77975734158E+01  0.00000000000E+00 0.  1.
          1    1    1    2  502    0 -0.18366332059E+02  0.12849895537E+02  0.15121319382E+02  0.27038791920E+02  0.00000000000E+00 0.  1.
         -1    1    1    2    0  501  0.18366332059E+02 -0.12849895537E+02  0.66470905428E+02  0.70148579722E+02  0.00000000000E+00 0. -1.
</event>
<event>
 4    1  0.6754235E+001  0.2960774E+02  0.7546771E-02  0.1423036E+00
          2   -1    0    0  502    0  0.00000000000E+00  0.00000000000E+00  0.83271855174E+02  0.83271855174E+02  0.00000000000E+00 0. -1.
         -2   -1    0    0    0  501 -0.00000000000E+00 -0.00000000000E+00 -0.12536143571E+02  0.12536143571E+02  0.00000000000E+00 0.  1.
          1    1    1    2  502    0  0.17804756354E+02  0.23656060596E+02  0.16191112265E+02  0.33745676288E+02  0.00000000000E+00 0. -1.
         -1    1    1    2    0  501 -0.17804756354E+02 -0.23656060596E+02  0.54544599338E+02  0.62062322457E+02  0.00000000000E+00 0.  1.
</event>
<event>
 4    1  0.6754235E+001  0.2970106E+02  0.7546771E-02  0.1422212E+00
          2   -1    0    0  502    0  0.00000000000E+00  0.00000000000E+00  0.10656346833E+04  0.10656346833E+04  0.00000000000E+00 0. -1.
         -2   -1    0    0    0  501 -0.00000000000E+00 -0.00000000000E+00 -0.96530655938E+00  0.96530655938E+00  0.00000000000E+00 0.  1.
          1    1    1    2  502    0 -0.29310200979E+02 -0.48026371559E+01  0.73360040853E+03  0.73420141146E+03  0.00000000000E+00 0. -1.
         -1    1    1    2    0  501  0.29310200979E+02  0.48026371559E+01  0.33106896823E+03  0.33239857841E+03  0.00000000000E+00 0.  1.
</event>
<event>
 4    1  0.6754235E+001  0.2264981E+02  0.7546771E-02  0.1496943E+00
          2   -1    0    0  502    0  0.00000000000E+00  0.00000000000E+00  0.19220339530E+02  0.19220339530E+02  0.00000000000E+00 0. -1.
         -2   -1    0    0    0  501 -0.00000000000E+00 -0.00000000000E+00 -0.30118895384E+02  0.30118895384E+02  0.00000000000E+00 0.  1.
          1    1    1    2  502    0 -0.22927068786E+01  0.22533475361E+02  0.28730285974E+01  0.22831301102E+02  0.00000000000E+00 0.  1.
         -1    1    1    2    0  501  0.22927068786E+01 -0.22533475361E+02 -0.13771584451E+02  0.26507933812E+02  0.00000000000E+00 0. -1.
</event>
<event>
 4    1  0.6754235E+001  0.4605223E+02  0.7546771E-02  0.1316260E+00
          2   -1    0    0  502    0  0.00000000000E+00  0.00000000000E+00  0.15843482811E+04  0.15843482811E+04  0.00000000000E+00 0.  1.
         -2   -1    0    0    0  501 -0.00000000000E+00 -0.00000000000E+00 -0.18650202304E+01  0.18650202304E+01  0.00000000000E+00 0. -1.
          1    1    1    2  502    0 -0.17726903766E+02 -0.42503704851E+02  0.36987877254E+03  0.37273464344E+03  0.00000000000E+00 0. -1.
         -1    1    1    2    0  501  0.17726903766E+02  0.42503704851E+02  0.12126044883E+04  0.12134786579E+04  0.00000000000E+00 0.  1.
</event>
<event>
 4    1  0.6754235E+001  0.2853523E+02  0.7546771E-02  0.1432767E+00
          2   -1    0    0  502    0  0.00000000000E+00  0.00000000000E+00  0.14293792556E+02  0.14293792556E+02  0.00000000000E+00 0. -1.
         -2   -1    0    0    0  501 -0.00000000000E+00 -0.00000000000E+00 -0.78669244534E+02  0.78669244534E+02  0.00000000000E+00 0.  1.
          1    1    1    2  502    0 -0.26383173714E+02  0.10871394204E+02 -0.77736139277E+01  0.29575127061E+02  0.00000000000E+00 0.  1.
         -1    1    1    2    0  501  0.26383173714E+02 -0.10871394204E+02 -0.56601838051E+02  0.63387910029E+02  0.00000000000E+00 0. -1.
</event>
<event>
 4    1  0.6754235E+001  0.4308130E+02  0.7546771E-02  0.1331318E+00
          2   -1    0    0  502    0  0.00000000000E+00  0.00000000000E+00  0.10877419440E+03  0.10877419440E+03  0.00000000000E+00 0. -1.
         -2   -1    0    0    0  501 -0.00000000000E+00 -0.00000000000E+00 -0.17578883306E+02  0.17578883306E+02  0.00000000000E+00 0.  1.
          1    1    1    2  502    0 -0.26570666721E+02  0.33911627878E+02  0.34773478044E+02  0.55364190689E+02  0.00000000000E+00 0.  1.
         -1    1    1    2    0  501  0.26570666721E+02 -0.33911627878E+02  0.56421833052E+02  0.70988887020E+02  0.00000000000E+00 0. -1.
</event>
<event>
 4    1  0.6754235E+001  0.2221232E+02  0.7546771E-02  0.1502633E+00
          2   -1    0    0  502    0  0.00000000000E+00  0.00000000000E+00  0.90531717987E+03  0.90531717987E+03  0.00000000000E+00 0. -1.
         -2   -1    0    0    0  501 -0.00000000000E+00 -0.00000000000E+00 -0.57022448847E+00  0.57022448847E+00  0.00000000000E+00 0.  1.
          1    1    1    2  502    0  0.10943570103E+02 -0.19329391101E+02  0.54766075597E+03  0.54811102043E+03  0.00000000000E+00 0. -1.
         -1    1    1    2    0  501 -0.10943570103E+02  0.19329391101E+02  0.35708619941E+03  0.35777638393E+03  0.00000000000E+00 0.  1.
</event>
<event>
 4    1  0.6754235E+001  0.2702539E+02  0.7546771E-02  0.1447353E+00
          2   -1    0    0  502    0  0.00000000000E+00  0.00000000000E+00  0.39457218514E+01  0.39457218514E+01  0.00000000000E+00 0. -1.
         -2   -1    0    0    0  501 -0.00000000000E+00 -0.00000000000E+00 -0.22947598224E+03  0.22947598224E+03  0.00000000000E+00 0.  1.
          1    1    1    2  502    0  0.26722525271E+02  0.40346699175E+01 -0.16408591507E+03  0.16629660082E+03  0.00000000000E+00 0.  1.
         -1    1    1    2    0  501 -0.26722525271E+02 -0.40346699175E+01 -0.61444345310E+02  0.67125103269E+02  0.00000000000E+00 0. -1.
</event>
<event>
 4    1  0.6754235E+001  0.3425834E+02  0.7546771E-02  0.1385854E+00
          2   -1    0    0  502    0  0.00000000000E+00  0.00000000000E+00  0.14612721979E+03  0.14612721979E+03  0.00000000000E+00 0. -1.
         -2   -1    0    0    0  501 -0.00000000000E+00 -0.00000000000E+00 -0.81609868921E+01  0.81609868921E+01  0.00000000000E+00 0.  1.
          1    1    1    2  502    0 -0.10918431674E+02  0.32471862300E+02  0.78696990436E+02  0.85830357654E+02  0.00000000000E+00 0. -1.
         -1    1    1    2    0  501  0.10918431674E+02 -0.32471862300E+02  0.59269242461E+02  0.68457849027E+02  0.00000000000E+00 0.  1.
</event>
<event>
 4    1  0.6754235E+001  0.2896954E+02  0.7546771E-02  0.1428767E+00
          2   -1    0    0  502    0  0.00000000000E+00  0.00000000000E+00  0.22974515279E+02  0.22974515279E+02  0.00000000000E+00 0. -1.
         -2   -1    0    0    0  501 -0.00000000000E+00 -0.00000000000E+00 -0.42994627015E+02  0.42994627015E+02  0.00000000000E+00 0.  1.
          1    1    1    2  502    0 -0.16004710696E+02 -0.24147117405E+02  0.27811660418E+01  0.29102730593E+02  0.00000000000E+00 0. -1.
         -1    1    1    2    0  501  0.16004710696E+02  0.24147117405E+02 -0.22801277778E+02  0.36866411701E+02  0.00000000000E+00 0.  1.
</event>
<event>
 4    1  0.6754235E+001  0.2411411E+02  0.7546771E-02  0.1478963E+00
          2   -1    0    0  502    0  0.00000000000E+00  0.00000000000E+00  0.16431009216E+03  0.16431009216E+03  0.00000000000E+00 0.  1.
         -2   -1    0    0    0  501 -0.00000000000E+00 -0.00000000000E+00 -0.49305996776E+01  0.49305996776E+01  0.00000000000E+00 0. -1.
          1    1    1    2  502    0 -0.50433653197E+00 -0.24108835612E+02  0.12464547420E+03  0.12695662468E+03  0.00000000000E+00 0.  1.
         -1    1    1    2    0  501  0.50433653197E+00  0.24108835612E+02  0.34734018280E+02  0.42284067162E+02  0.00000000000E+00 0. -1.
</event>
<event>
 4    1  0.6754235E+001  0.2162785E+02  0.7546771E-02  0.1510486E+00
          2   -1    0    0  502    0  0.00000000000E+00  0.00000000000E+00  0.15393012317E+02  0.15393012317E+02  0.00000000000E+00 0.  1.
         -2   -1    0    0    0  501 -0.00000000000E+00 -0.00000000000E+00 -0.31835472861E+02  0.31835472861E+02  0.00000000000E+00 0. -1.
          1    1    1    2  502    0  0.20530515367E+02  0.68016168864E+01 -0.31860858242E+01  0.21861271610E+02  0.00000000000E+00 0. -1.
         -1    1    1    2    0  501 -0.20530515367E+02 -0.68016168864E+01 -0.13256374719E+02  0.25367213568E+02  0.00000000000E+00 0.  1.
</event>
<event>
 4    1  0.6754235E+001  0.2620354E+02  0.7546771E-02  0.1455777E+00
          2   -1    0    0  502    0  0.00000000000E+00  0.00000000000E+00  0.69416396788E+02  0.69416396788E+02  0.00000000000E+00 0. -1.
         -2   -1    0    0    0  501 -0.00000000000E+00 -0.00000000000E+00 -0.10256115640E+02  0.10256115640E+02  0.00000000000E+00 0.  1.
          1    1    1    2  502    0 -0.95576784909E+01 -0.24398288123E+02  0.37092241070E+02  0.45414315244E+02  0.00000000000E+00 0. -1.
         -1    1    1    2    0  501  0.95576784909E+01  0.24398288123E+02  0.22068040078E+02  0.34258197184E+02  0.00000000000E+00 0.  1.
</event>
<event>
 4    1  0.6754235E+001  0.2555140E+02  0.7546771E-02  0.1462728E+00
          2   -1    0    0  502    0  0.00000000000E+00  0.00000000000E+00  0.56964660896E+01  0.56964660896E+01  0.00000000000E+00 0. -1.
         -2   -1    0    0    0  501 -0.00000000000E+00 -0.00000000000E+00 -0.11477516369E+03  0.11477516369E+03  0.00000000000E+00 0.  1.
          1    1    1    2  502    0  0.47331398903E+00 -0.25547012459E+02 -0.52256638878E+02  0.58168979521E+02  0.00000000000E+00 0. -1.
         -1    1    1    2    0  501 -0.47331398903E+00  0.25547012459E+02 -0.56822058719E+02  0.62302650255E+02  0.00000000000E+00 0.  1.
</event>
<event>
 4    1  0.6754235E+001  0.3311794E+02  0.7546771E-02  0.1394300E+00
          2   -1    0    0  502    0  0.00000000000E+00  0.00000000000E+00  0.42359624752E+02  0.42359624752E+02  0.00000000000E+00 0. -1.
         -2   -1    0    0    0  501 -0.00000000000E+00 -0.00000000000E+00 -0.35448212511E+02  0.35448212511E+02  0.00000000000E+00 0.  1.
          1    1    1    2  502    0  0.33101815211E+02 -0.10332308559E+01 -0.16743164962E+02  0.37109719875E+02  0.00000000000E+00 0.  1.
         -1    1    1    2    0  501 -0.33101815211E+02  0.10332308559E+01  0.23654577202E+02  0.40698117388E+02  0.00000000000E+00 0. -1.
</event>
<event>
 4    1  0.6754235E+001  0.2310776E+02  0.7546771E-02  0.1491149E+00
          2   -1    0    0  502    0  0.00000000000E+00  0.00000000000E+00  0.58711442261E+03  0.58711442261E+03  0.00000000000E+00 0. -1.
         -2   -1    0    0    0  501 -0.00000000000E+00 -0.00000000000E+00 -0.99611387909E+00  0.99611387909E+00  0.00000000000E+00 0.  1.
          1    1    1    2  502    0 -0.17444945700E+02 -0.15153958520E+02  0.37977917165E+03  0.38048152099E+03  0.00000000000E+00 0. -1.
         -1    1    1    2    0  501  0.17444945700E+02  0.15153958520E+02  0.20633913708E+03  0.20762901551E+03  0.00000000000E+00 0.  1.
</event>
<event>
 4    1  0.6754235E+001  0.2418218E+02  0.7546771E-02  0.1478164E+00
          2   -1    0    0  502    0  0.00000000000E+00  0.00000000000E+00  0.47305222523E+03  0.47305222523E+03  0.00000000000E+00 0.  1.
         -2   -1    0    0    0  501 -0.00000000000E+00 -0.00000000000E+00 -0.15620846731E+01  0.15620846731E+01  0.00000000000E+00 0. -1.
          1    1    1    2  502    0 -0.22299376061E+02 -0.93549777631E+01  0.34413869154E+03  0.34498727048E+03  0.00000000000E+00 0.  1.
         -1    1    1    2    0  501  0.22299376061E+02  0.93549777631E+01  0.12735144901E+03  0.12962703941E+03  0.00000000000E+00 0. -1.
</event>
<event>
 4    1  0.6754235E+001  0.5652515E+02  0.7546771E-02  0.1272119E+00
          2   -1    0    0  502    0  0.00000000000E+00  0.00000000000E+00  0.10090058202E+03  0.10090058202E+03  0.00000000000E+00 0. -1.
         -2   -1    0    0    0  501 -0.00000000000E+00 -0.00000000000E+00 -0.31668775830E+02  0.31668775830E+02  0.00000000000E+00 0.  1.
          1    1    1    2  502    0  0.53972273844E+02  0.16795415662E+02  0.33967694815E+02  0.65946164575E+02  0.00000000000E+00 0. -1.
         -1    1    1    2    0  501 -0.53972273844E+02 -0.16795415662E+02  0.35264111374E+02  0.66623193275E+02  0.00000000000E+00 0.  1.
</event>
<event>
 4    1  0.6754235E+001  0.2466282E+02  0.7546771E-02  0.1472611E+00
          2   -1    0    0  502    0  0.00000000000E+00  0.00000000000E+00  0.38839493448E+01  0.38839493448E+01  0.00000000000E+00 0. -1.
         -2   -1    0    0    0  501 -0.00000000000E+00 -0.00000000000E+00 -0.24415433146E+03  0.24415433146E+03  0.00000000000E+00 0.  1.
          1    1    1    2  502    0 -0.24417758876E+02 -0.34681054437E+01 -0.45871370719E+02  0.52081065230E+02  0.00000000000E+00 0.  1.
         -1    1    1    2    0  501  0.24417758876E+02  0.34681054437E+01 -0.19439901139E+03  0.19595721557E+03  0.00000000000E+00 0. -1.
</event>
<event>
 4    1  0.6754235E+001  0.2056261E+02  0.7546771E-02  0.1525602E+00
          2   -1    0    0  502    0  0.00000000000E+00  0.00000000000E+00  0.36130229194E+03  0.36130229194E+03  0.00000000000E+00 0. -1.
         -2   -1    0    0    0  501 -0.00000000000E+00 -0.00000000000E+00 -0.15317007626E+01  0.15317007626E+01  0.00000000000E+00 0.  1.
          1    1    1    2  502    0 -0.14257572553E+02 -0.14816968309E+02  0.91759291667E+02  0.94035038853E+02  0.00000000000E+00 0.  1.
         -1    1    1    2    0  501  0.14257572553E+02  0.14816968309E+02  0.26801129951E+03  0.26879895385E+03  0.00000000000E+00 0. -1.
</event>
<event>
 4    1  0.6754235E+001  0.2498876E+02  0.7546771E-02  0.1468929E+00
          2   -1    0    0  502    0  0.00000000000E+00  0.00000000000E+00  0.24728140960E+04  0.24728140960E+04  0.00000000000E+00 0. -1.
         -2   -1    0    0    0  501 -0.00000000000E+00 -0.00000000000E+00 -0.26611620220E+00  0.26611620220E+00  0.00000000000E+00 0.  1.
          1    1    1    2  502    0  0.97777088973E+00  0.24969622099E+02  0.95678695401E+03  0.95711321870E+03  0.00000000000E+00 0. -1.
         -1    1    1    2    0  501 -0.97777088973E+00 -0.24969622099E+02  0.15157610258E+04  0.15159669935E+04  0.00000000000E+00 0.  1.
</event>
<event>
 4    1  0.6754235E+001  0.2759238E+02  0.7546771E-02  0.1441747E+00
          2   -1    0    0  502    0  0.00000000000E+00  0.00000000000E+00  0.87553472831E+01  0.87553472831E+01  0.00000000000E+00 0.  1.
         -2   -1    0    0    0  501 -0.00000000000E+00 -0.00000000000E+00 -0.13963169245E+03  0.13963169245E+03  0.00000000000E+00 0. -1.
          1    1    1    2  502    0  0.16263308961E+02 -0.22289998352E+02 -0.11100772236E+03  0.11438554833E+03  0.00000000000E+00 0. -1.
         -1    1    1    2    0  501 -0.16263308961E+02  0.22289998352E+02 -0.19868622808E+02  0.34001491396E+02  0.00000000000E+00 0.  1.
</event>
<event>
 4    1  0.6754235E+001  0.2958603E+02  0.7546771E-02  0.1423228E+00
          2   -1    0    0  502    0  0.00000000000E+00  0.00000000000E+00  0.14117884544E+02  0.14117884544E+02  0.00000000000E+00 0.  1.
         -2   -1    0    0    0  501 -0.00000000000E+00 -0.00000000000E+00 -0.11062203766E+03  0.11062203766E+03  0.00000000000E+00 0. -1.
          1    1    1    2  502    0  0.28207542079E+02  0.89256779242E+01 -0.89600935762E+02  0.94359211770E+02  0.00000000000E+00 0. -1.
         -1    1    1    2    0  501 -0.28207542079E+02 -0.89256779242E+01 -0.69032173528E+01  0.30380710432E+02  0.00000000000E+00 0.  1.
</event>
<event>
 4    1  0.6754235E+001  0.3503458E+02  0.7546771E-02  0.1380320E+00
          2   -1    0    0  502    0  0.00000000000E+00  0.00000000000E+00  0.38017207268E+01  0.38017207268E+01  0.00000000000E+00 0. -1.
         -2   -1    0    0    0  501 -0.00000000000E+00 -0.00000000000E+00 -0.49379240309E+03  0.49379240309E+03  0.00000000000E+00 0.  1.
          1    1    1    2  502    0  0.44880387853E+01 -0.34745920658E+02 -0.98613928990E+02  0.10465241748E+03  0.00000000000E+00 0. -1.
         -1    1    1    2    0  501 -0.44880387853E+01  0.34745920658E+02 -0.39137675337E+03  0.39294170633E+03  0.00000000000E+00 0.  1.
</event>
<event>
 4    1  0.6754235E+001  0.3882746E+02  0.7546771E-02  0.1355497E+00
          2   -1    0    0  502    0  0.00000000000E+00  0.00000000000E+00  0.17001689154E+04  0.17001689154E+04  0.00000000000E+00 0.  1.
         -2   -1    0    0    0  501 -0.00000000000E+00 -0.00000000000E+00 -0.88688946258E+00  0.88688946258E+00  0.00000000000E+00 0. -1.
          1    1    1    2  502    0  0.23381893286E+02 -0.30997722517E+02  0.86143952323E+03  0.86231410977E+03  0.00000000000E+00 0. -1.
         -1    1    1    2    0  501 -0.23381893286E+02  0.30997722517E+02  0.83784250275E+03  0.83874169513E+03  0.00000000000E+00 0.  1.
</event>
<event>
 4    1  0.6754235E+001  0.2010016E+02  0.7546771E-02  0.1532510E+00
          2   -1    0    0  502    0  0.00000000000E+00  0.00000000000E+00  0.24746667768E+02  0.24746667768E+02  0.00000000000E+00 0.  1.
         -2   -1    0    0    0  501 -0.00000000000E+00 -0.00000000000E+00 -0.18185859170E+02  0.18185859170E+02  0.00000000000E+00 0. -1.
          1    1    1    2  502    0  0.19910483244E+02  0.27548082329E+01 -0.35842572601E+01  0.20417228301E+02  0.00000000000E+00 0. -1.
         -1    1    1    2    0  501 -0.19910483244E+02 -0.27548082329E+01  0.10145065859E+02  0.22515298637E+02  0.00000000000E+00 0.  1.
</event>
<event>
 4    1  0.6754235E+001  0.2607379E+02  0.7546771E-02  0.1457141E+00
          2   -1    0    0  502    0  0.00000000000E+00  0.00000000000E+00  0.15676640171E+03  0.15676640171E+03  0.00000000000E+00 0. -1.
         -2   -1    0    0    0  501 -0.00000000000E+00 -0.00000000000E+00 -0.53122120284E+01  0.53122120284E+01  0.00000000000E+00 0.  1.
          1    1    1    2  502    0 -0.25321889891E+02  0.62164768161E+01  0.11045535947E+03  0.11349109712E+03  0.00000000000E+00 0. -1.
         -1    1    1    2    0  501  0.25321889891E+02 -0.62164768161E+01  0.40998830212E+02  0.48587516610E+02  0.00000000000E+00 0.  1.
</event>
<event>
 4    1  0.6754235E+001  0.4908882E+02  0.7546771E-02  0.1302172E+00
          2   -1    0    0  502    0  0.00000000000E+00  0.00000000000E+00  0.25231713618E+03  0.25231713618E+03  0.00000000000E+00 0.  1.
         -2   -1    0    0    0  501 -0.00000000000E+00 -0.00000000000E+00 -0.95857750502E+01  0.95857750502E+01  0.00000000000E+00 0. -1.
          1    1    1    2  502    0 -0.48738882647E+02 -0.58509774817E+01  0.11340303442E+03  0.12357168298E+03  0.00000000000E+00 0. -1.
         -1    1    1    2    0  501  0.48738882647E+02  0.58509774817E+01  0.12932832671E+03  0.13833122825E+03  0.00000000000E+00 0.  1.
</event>
<event>
 4    1  0.6754235E+001  0.2454059E+02  0.7546771E-02  0.1474009E+00
          2   -1    0    0  502    0  0.00000000000E+00  0.00000000000E+00  0.19946858586E+04  0.19946858586E+04  0.00000000000E+00 0. -1.
         -2   -1    0    0    0  501 -0.00000000000E+00 -0.00000000000E+00 -0.32616425225E+00  0.32616425225E+00  0.00000000000E+00 0.  1.
          1    1    1    2  502    0 -0.49546860342E+00  0.24535590162E+02  0.72523630497E+03  0.72565138925E+03  0.00000000000E+00 0.  1.
         -1    1    1    2    0  501  0.49546860342E+00 -0.24535590162E+02  0.12691233894E+04  0.12693606336E+04  0.00000000000E+00 0. -1.
</event>
<event>
 4    1  0.6754235E+001  0.2317754E+02  0.7546771E-02  0.1490281E+00
          2   -1    0    0  502    0  0.00000000000E+00  0.00000000000E+00  0.31622456215E+03  0.31622456215E+03  0.00000000000E+00 0.  1.
         -2   -1    0    0    0  501 -0.00000000000E+00 -0.00000000000E+00 -0.47845736373E+01  0.47845736373E+01  0.00000000000E+00 0. -1.
          1    1    1    2  502    0  0.22753047873E+02  0.44155794705E+01  0.26821262764E+02  0.35448253353E+02  0.00000000000E+00 0. -1.
         -1    1    1    2    0  501 -0.22753047873E+02 -0.44155794705E+01  0.28461872575E+03  0.28556088243E+03  0.00000000000E+00 0.  1.
</event>
<event>
 4    1  0.6754235E+001  0.2080522E+02  0.7546771E-02  0.1522064E+00
          2   -1    0    0  502    0  0.00000000000E+00  0.00000000000E+00  0.22120150074E+03  0.22120150074E+03  0.00000000000E+00 0. -1.
         -2   -1    0    0    0  501 -0.00000000000E+00 -0.00000000000E+00 -0.20958573442E+01  0.20958573442E+01  0.00000000000E+00 0.  1.
          1    1    1    2  502    0 -0.11810835140E+02 -0.17127799887E+02  0.13830675491E+03  0.13986284642E+03  0.00000000000E+00 0. -1.
         -1    1    1    2    0  501  0.11810835140E+02  0.17127799887E+02  0.80798888484E+02  0.83434511660E+02  0.00000000000E+00 0.  1.
</event>
<event>
 4    1  0.6754235E+001  0.3098699E+02  0.7546771E-02  0.1411209E+00
          2   -1    0    0  502    0  0.00000000000E+00  0.00000000000E+00  0.32476994124E+03  0.32476994124E+03  0.00000000000E+00 0. -1.
         -2   -1    0    0    0  501 -0.00000000000E+00 -0.00000000000E+00 -0.36156491717E+01  0.36156491717E+01  0.00000000000E+00 0.  1.
          1    1    1    2  502    0 -0.20187821596E+02 -0.23508413174E+02  0.23068091179E+03  0.23275282318E+03  0.00000000000E+00 0. -1.
         -1    1    1    2    0  501  0.20187821596E+02  0.23508413174E+02  0.90473380280E+02  0.95632767241E+02  0.00000000000E+00 0.  1.
</event>
<event>
 4    1  0.6754235E+001  0.2119935E+02  0.7546771E-02  0.1516438E+00
          2   -1    0    0  502    0  0.00000000000E+00  0.00000000000E+00  0.98222792546E+02  0.98222792546E+02  0.00000000000E+00 0. -1.
         -2   -1    0    0    0  501 -0.00000000000E+00 -0.00000000000E+00 -0.87814867105E+01  0.87814867105E+01  0.00000000000E+00 0.  1.
          1    1    1    2  502    0  0.12283216710E+02  0.17278171836E+02  0.81748127965E+02  0.84452170253E+02  0.00000000000E+00 0. -1.
         -1    1    1    2    0  501 -0.12283216710E+02 -0.17278171836E+02  0.76931778705E+01  0.22552109003E+02  0.00000000000E+00 0.  1.
</event>
<event>
 4    1  0.6754235E+001  0.2186709E+02  0.7546771E-02  0.1507236E+00
          2   -1    0    0  502    0  0.00000000000E+00  0.00000000000E+00  0.14084586611E+03  0.14084586611E+03  0.00000000000E+00 0. -1.
         -2   -1    0    0    0  501 -0.00000000000E+00 -0.00000000000E+00 -0.34535582039E+01  0.34535582039E+01  0.00000000000E+00 0.  1.
          1    1    1    2  502    0 -0.21558007410E+02  0.36636207931E+01  0.78092207663E+02  0.81096009140E+02  0.00000000000E+00 0. -1.
         -1    1    1    2    0  501  0.21558007410E+02 -0.36636207931E+01  0.59300100247E+02  0.63203415177E+02  0.00000000000E+00 0.  1.
</event>
<event>
 4    1  0.6754235E+001  0.4648937E+02  0.7546771E-02  0.1314156E+00
          2   -1    0    0  502    0  0.00000000000E+00  0.00000000000E+00  0.43553984504E+03  0.43553984504E+03  0.00000000000E+00 0. -1.
         -2   -1    0    0    0  501 -0.00000000000E+00 -0.00000000000E+00 -0.71977797032E+01  0.71977797032E+01  0.00000000000E+00 0.  1.
          1    1    1    2  502    0  0.46487559014E+02  0.41041141156E+00  0.90801905081E+02  0.10201101679E+03  0.00000000000E+00 0.  1.
         -1    1    1    2    0  501 -0.46487559014E+02 -0.41041141156E+00  0.33754016025E+03  0.34072660795E+03  0.00000000000E+00 0. -1.
</event>
<event>
 4    1  0.6754235E+001  0.2373659E+02  0.7546771E-02  0.1483450E+00
          2   -1    0    0  502    0  0.00000000000E+00  0.00000000000E+00  0.81540951184E+02  0.81540951184E+02  0.00000000000E+00 0.  1.
         -2   -1    0    0    0  501 -0.00000000000E+00 -0.00000000000E+00 -0.89539610246E+01  0.89539610246E+01  0.00000000000E+00 0. -1.
          1    1    1    2  502    0 -0.14762261244E+02 -0.18587670466E+02  0.57913296149E+02  0.62588942484E+02  0.00000000000E+00 0.  1.
         -1    1    1    2    0  501  0.14762261244E+02  0.18587670466E+02  0.14673694010E+02  0.27905969725E+02  0.00000000000E+00 0. -1.
</event>
<event>
 4    1  0.6754235E+001  0.2075493E+02  0.7546771E-02  0.1522793E+00
          2   -1    0    0  502    0  0.00000000000E+00  0.00000000000E+00  0.15554824082E+03  0.15554824082E+03  0.00000000000E+00 0.  1.
         -2   -1    0    0    0  501 -0.00000000000E+00 -0.00000000000E+00 -0.50130822818E+01  0.50130822818E+01  0.00000000000E+00 0. -1.
          1    1    1    2  502    0  0.15075730917E+02  0.14264970867E+02  0.21558917283E+02  0.29925807774E+02  0.00000000000E+00 0. -1.
         -1    1    1    2    0  501 -0.15075730917E+02 -0.14264970867E+02  0.12897624125E+03  0.13063551533E+03  0.00000000000E+00 0.  1.
</event>
<event>
 4    1  0.6754235E+001  0.2733157E+02  0.7546771E-02  0.1444306E+00
          2   -1    0    0  502    0  0.00000000000E+00  0.00000000000E+00  0.47417071014E+02  0.47417071014E+02  0.00000000000E+00 0. -1.
         -2   -1    0    0    0  501 -0.00000000000E+00 -0.00000000000E+00 -0.16886446403E+02  0.16886446403E+02  0.00000000000E+00 0.  1.
          1    1    1    2  502    0 -0.54407017380E+01  0.26784575945E+02  0.23590984864E+02  0.36104699290E+02  0.00000000000E+00 0.  1.
         -1    1    1    2    0  501  0.54407017380E+01 -0.26784575945E+02  0.69396397481E+01  0.28198818128E+02  0.00000000000E+00 0. -1.
</event>
<event>
 4    1  0.6754235E+001  0.2170666E+02  0.7546771E-02  0.1509410E+00
          2   -1    0    0  502    0  0.00000000000E+00  0.00000000000E+00  0.41121710042E+01  0.41121710042E+01  0.00000000000E+00 0. -1.
         -2   -1    0    0    0  501 -0.00000000000E+00 -0.00000000000E+00 -0.12182131757E+03  0.12182131757E+03  0.00000000000E+00 0.  1.
          1    1    1    2  502    0 -0.27959189407E+00 -0.21704857735E+02 -0.43504472798E+02  0.48619113261E+02  0.00000000000E+00 0. -1.
         -1    1    1    2    0  501  0.27959189407E+00  0.21704857735E+02 -0.74204673767E+02  0.77314375311E+02  0.00000000000E+00 0.  1.
</event>
<event>
 4    1  0.6754235E+001  0.2263015E+02  0.7546771E-02  0.1497195E+00
          2   -1    0    0  502    0  0.00000000000E+00  0.00000000000E+00  0.16235892689E+03  0.16235892689E+03  0.00000000000E+00 0.  1.
         -2   -1    0    0    0  501 -0.00000000000E+00 -0.00000000000E+00 -0.44199424292E+01  0.44199424292E+01  0.00000000000E+00 0. -1.
          1    1    1    2  502    0  0.22625890469E+02 -0.43915348390E+00  0.34346004971E+02  0.41131154041E+02  0.00000000000E+00 0. -1.
         -1    1    1    2    0  501 -0.22625890469E+02  0.43915348390E+00  0.12359297949E+03  0.12564771528E+03  0.00000000000E+00 0.  1.
</event>
<event>
 4    1  0.6754235E+001  0.3628589E+02  0.7546771E-02  0.1371742E+00
          2   -1    0    0  502    0  0.00000000000E+00  0.00000000000E+00  0.22215418037E+04  0.22215418037E+04  0.00000000000E+00 0. -1.
         -2   -1    0    0    0  501 -0.00000000000E+00 -0.00000000000E+00 -0.88141161839E+00  0.88141161839E+00  0.00000000000E+00 0.  1.
          1    1    1    2  502    0 -0.35767443482E+02 -0.61119640829E+01  0.17463250989E+04  0.17467020401E+04  0.00000000000E+00 0. -1.
         -1    1    1    2    0  501  0.35767443482E+02  0.61119640829E+01  0.47433529322E+03  0.47572117518E+03  0.00000000000E+00 0.  1.
</event>
<event>
 4    1  0.6754235E+001  0.5867044E+02  0.7546771E-02  0.1264418E+00
          2   -1    0    0  502    0  0.00000000000E+00  0.00000000000E+00  0.84886524891E+03  0.84886524891E+03  0.00000000000E+00 0.  1.
         -2   -1    0    0    0  501 -0.00000000000E+00 -0.00000000000E+00 -0.45391123825E+01  0.45391123825E+01  0.00000000000E+00 0. -1.
          1    1    1    2  502    0 -0.58612340308E+02  0.26104804298E+01  0.28282358417E+03  0.28884494250E+03  0.00000000000E+00 0.  1.
         -1    1    1    2    0  501  0.58612340308E+02 -0.26104804298E+01  0.56150255235E+03  0.56455941879E+03  0.00000000000E+00 0. -1.
</event>
<event>
 4    1  0.6754235E+001  0.3991855E+02  0.7546771E-02  0.1348964E+00
          2   -1    0    0  502    0  0.00000000000E+00  0.00000000000E+00  0.90313370862E+02  0.90313370862E+02  0.00000000000E+00 0.  1.
         -2   -1    0    0    0  501 -0.00000000000E+00 -0.00000000000E+00 -0.23922076974E+02  0.23922076974E+02  0.00000000000E+00 0. -1.
          1    1    1    2  502    0 -0.54667726473E+01  0.39542442511E+02  0.39349752386E+01  0.40112023048E+02  0.00000000000E+00 0. -1.
         -1    1    1    2    0  501  0.54667726473E+01 -0.39542442511E+02  0.62456318650E+02  0.74123424787E+02  0.00000000000E+00 0.  1.
</event>
<event>
 4    1  0.6754235E+001  0.2564679E+02  0.7546771E-02  0.1461696E+00
          2   -1    0    0  502    0  0.00000000000E+00  0.00000000000E+00  0.31852866116E+03  0.31852866116E+03  0.00000000000E+00 0.  1.
         -2   -1    0    0    0  501 -0.00000000000E+00 -0.00000000000E+00 -0.20740946363E+01  0.20740946363E+01  0.00000000000E+00 0. -1.
          1    1    1    2  502    0 -0.21933721389E+02 -0.13291708265E+02  0.16884958082E+03  0.17078623653E+03  0.00000000000E+00 0.  1.
         -1    1    1    2    0  501  0.21933721389E+02  0.13291708265E+02  0.14760498570E+03  0.14981651927E+03  0.00000000000E+00 0. -1.
</event>
<event>
 4    1  0.6754235E+001  0.2335697E+02  0.7546771E-02  0.1488064E+00
          2   -1    0    0  502    0  0.00000000000E+00  0.00000000000E+00  0.17312357291E+04  0.17312357291E+04  0.00000000000E+00 0. -1.
         -2   -1    0    0    0  501 -0.00000000000E+00 -0.00000000000E+00 -0.43041412615E+00  0.43041412615E+00  0.00000000000E+00 0.  1.
          1    1    1    2  502    0 -0.34580528229E+01 -0.23099567504E+02  0.13135215532E+04  0.13137292030E+04  0.00000000000E+00 0. -1.
         -1    1    1    2    0  501  0.34580528229E+01  0.23099567504E+02  0.41728376174E+03  0.41793694017E+03  0.00000000000E+00 0.  1.
</event>
<event>
 4    1  0.6754235E+001  0.2747029E+02  0.7546771E-02  0.1442940E+00
          2   -1    0    0  502    0  0.00000000000E+00  0.00000000000E+00  0.49586751525E+03  0.49586751525E+03  0.00000000000E+00 0. -1.
         -2   -1    0    0    0  501 -0.00000000000E+00 -0.00000000000E+00 -0.16072763625E+01  0.16072763625E+01  0.00000000000E+00 0.  1.
          1    1    1    2  502    0 -0.62011852750E+01 -0.26761209119E+02  0.18977278475E+03  0.19175068929E+03  0.00000000000E+00 0. -1.
         -1    1    1    2    0  501  0.62011852750E+01  0.26761209119E+02  0.30448745414E+03  0.30572410232E+03  0.00000000000E+00 0.  1.
</event>
<event>
 4    1  0.6754235E+001  0.2241723E+02  0.7546771E-02  0.1499949E+00
          2   -1    0    0  502    0  0.00000000000E+00  0.00000000000E+00  0.15275182512E+04  0.15275182512E+04  0.00000000000E+00 0. -1.
         -2   -1    0    0    0  501 -0.00000000000E+00 -0.00000000000E+00 -0.44295367462E+00  0.44295367462E+00  0.00000000000E+00 0.  1.
          1    1    1    2  502    0 -0.76447247392E+01  0.21073447262E+02  0.11510576967E+04  0.11512759674E+04  0.00000000000E+00 0. -1.
         -1    1    1    2    0  501  0.76447247392E+01 -0.21073447262E+02  0.37601760086E+03  0.37668523750E+03  0.00000000000E+00 0.  1.
</event>
<event>
 4    1  0.6754235E+001  0.1031494E+03  0.7546771E-02  0.1158460E+00
          2   -1    0    0  502    0  0.00000000000E+00  0.00000000000E+00  0.19900882659E+04  0.19900882659E+04  0.00000000000E+00 0. -1.
         -2   -1    0    0    0  501 -0.00000000000E+00 -0.00000000000E+00 -0.78805442007E+01  0.78805442007E+01  0.00000000000E+00 0.  1.
          1    1    1    2  502    0  0.27481044313E+02 -0.99421231638E+02  0.42460756333E+03  0.43695694518E+03  0.00000000000E+00 0.  1.
         -1    1    1    2    0  501 -0.27481044313E+02  0.99421231638E+02  0.15576001584E+04  0.15610118649E+04  0.00000000000E+00 0. -1.
</event>
<event>
 4    1  0.6754235E+001  0.3407913E+02  0.7546771E-02  0.1387155E+00
          2   -1    0    0  502    0  0.00000000000E+00  0.00000000000E+00  0.52157764318E+03  0.52157764318E+03  0.00000000000E+00 0.  1.
         -2   -1    0    0    0  501 -0.00000000000E+00 -0.00000000000E+00 -0.32666563531E+01  0.32666563531E+01  0.00000000000E+00 0. -1.
          1    1    1    2  502    0  0.86260572217E+01  0.32969349992E+02  0.40722319597E+03  0.40864669121E+03  0.00000000000E+00 0.  1.
         -1    1    1    2    0  501 -0.86260572217E+01 -0.32969349992E+02  0.11108779085E+03  0.11619760831E+03  0.00000000000E+00 0. -1.
</event>
<event>
 4    1  0.6754235E+001  0.3078679E+02  0.7546771E-02  0.1412880E+00
          2   -1    0    0  502    0  0.00000000000E+00  0.00000000000E+00  0.18120796374E+02  0.18120796374E+02  0.00000000000E+00 0.  1.
         -2   -1    0    0    0  501 -0.00000000000E+00 -0.00000000000E+00 -0.52410336544E+02  0.52410336544E+02  0.00000000000E+00 0. -1.
          1    1    1    2  502    0  0.18956563494E+02 -0.24258512125E+02 -0.18718108505E+02  0.36030463445E+02  0.00000000000E+00 0. -1.
         -1    1    1    2    0  501 -0.18956563494E+02  0.24258512125E+02 -0.15571431665E+02  0.34500669473E+02  0.00000000000E+00 0.  1.
</event>
<event>
 4    1  0.6754235E+001  0.2082831E+02  0.7546771E-02  0.1521730E+00
          2   -1    0    0  502    0  0.00000000000E+00  0.00000000000E+00  0.77652298311E+03  0.77652298311E+03  0.00000000000E+00 0.  1.
         -2   -1    0    0    0  501 -0.00000000000E+00 -0.00000000000E+00 -0.67526384208E+00  0.67526384208E+00  0.00000000000E+00 0. -1.
          1    1    1    2  502    0 -0.17578052276E+02  0.11172757714E+02  0.54939943952E+03  0.54979410926E+03  0.00000000000E+00 0.  1.
         -1    1    1    2    0  501  0.17578052276E+02 -0.11172757714E+02  0.22644827975E+03  0.22740413769E+03  0.00000000000E+00 0. -1.
</event>
<event>
 4    1  0.6754235E+001  0.2266548E+02  0.7546771E-02  0.1496742E+00
          2   -1    0    0  502    0  0.00000000000E+00  0.00000000000E+00  0.62508394651E+02  0.62508394651E+02  0.00000000000E+00 0.  1.
         -2   -1    0    0    0  501 -0.00000000000E+00 -0.00000000000E+00 -0.19913373019E+02  0.19913373019E+02  0.00000000000E+00 0. -1.
          1    1    1    2  502    0 -0.20945890576E+02  0.86598967329E+01 -0.10284341311E+02  0.24889592597E+02  0.00000000000E+00 0. -1.
         -1    1    1    2    0  501  0.20945890576E+02 -0.86598967329E+01  0.52879362942E+02  0.57532175073E+02  0.00000000000E+00 0.  1.
</event>
<event>
 4    1  0.6754235E+001  0.2144848E+02  0.7546771E-02  0.1512957E+00
          2   -1    0    0  502    0  0.00000000000E+00  0.00000000000E+00  0.15537574281E+01  0.15537574281E+01  0.00000000000E+00 0. -1.
         -2   -1    0    0    0  501 -0.00000000000E+00 -0.00000000000E+00 -0.58963205493E+03  0.58963205493E+03  0.00000000000E+00 0.  1.
          1    1    1    2  502    0  0.18506648187E+02 -0.10841650705E+02 -0.85472150812E+02  0.88122221837E+02  0.00000000000E+00 0. -1.
         -1    1    1    2    0  501 -0.18506648187E+02  0.10841650705E+02 -0.50260614669E+03  0.50306359052E+03  0.00000000000E+00 0.  1.
</event>
<event>
 4    1  0.6754235E+001  0.2081071E+02  0.7546771E-02  0.1521985E+00
          2   -1    0    0  502    0  0.00000000000E+00  0.00000000000E+00  0.30276346232E+02  0.30276346232E+02  0.00000000000E+00 0. -1.
         -2   -1    0    0    0  501 -0.00000000000E+00 -0.00000000000E+00 -0.21074330218E+02  0.21074330218E+02  0.00000000000E+00 0.  1.
          1    1    1    2  502    0 -0.19829087493E+02 -0.63160888612E+01  0.19153273647E+02  0.28283097085E+02  0.00000000000E+00 0. -1.
         -1    1    1    2    0  501  0.19829087493E+02  0.63160888612E+01 -0.99512576321E+01  0.23067579366E+02  0.00000000000E+00 0.  1.
</event>
<event>
 4    1  0.6754235E+001  0.2095956E+02  0.7546771E-02  0.1519843E+00
          2   -1    0    0  502    0  0.00000000000E+00  0.00000000000E+00  0.28797200110E+03  0.28797200110E+03  0.00000000000E+00 0. -1.
         -2   -1    0    0    0  501 -0.00000000000E+00 -0.00000000000E+00 -0.23665133375E+01  0.23665133375E+01  0.00000000000E+00 0.  1.
          1    1    1    2  502    0  0.20930386396E+02 -0.11054721547E+01  0.22934335432E+03  0.23029910402E+03  0.00000000000E+00 0. -1.
         -1    1    1    2    0  501 -0.20930386396E+02  0.11054721547E+01  0.56262133447E+02  0.60039410418E+02  0.00000000000E+00 0.  1.
</event>
<event>
 4    1  0.6754235E+001  0.2418902E+02  0.7546771E-02  0.1478084E+00
          2   -1    0    0  502    0  0.00000000000E+00  0.00000000000E+00  0.44741151926E+02  0.44741151926E+02  0.00000000000E+00 0. -1.
         -2   -1    0    0    0  501 -0.00000000000E+00 -0.00000000000E+00 -0.18149455635E+02  0.18149455635E+02  0.00000000000E+00 0.  1.
          1    1    1    2  502    0 -0.18056546470E+02  0.16095650609E+02  0.29918701285E+02  0.38473855091E+02  0.00000000000E+00 0. -1.
         -1    1    1    2    0  501  0.18056546470E+02 -0.16095650609E+02 -0.33270049949E+01  0.24416752470E+02  0.00000000000E+00 0.  1.
</event>
<event>
 4    1  0.6754235E+001  0.3245414E+02  0.7546771E-02  0.1399403E+00
          2   -1    0    0  502    0  0.00000000000E+00  0.00000000000E+00  0.41525337410E+03  0.41525337410E+03  0.00000000000E+00 0.  1.
         -2   -1    0    0    0  501 -0.00000000000E+00 -0.00000000000E+00 -0.26061842640E+01  0.26061842640E+01  0.00000000000E+00 0. -1.
          1    1    1    2  502    0 -0.32310488100E+02  0.30501604344E+01  0.24049856592E+03  0.24267845254E+03  0.00000000000E+00 0.  1.
         -1    1    1    2    0  501  0.32310488100E+02 -0.30501604344E+01  0.17214862392E+03  0.17518110582E+03  0.00000000000E+00 0. -1.
</event>
<event>
 4    1  0.6754235E+001  0.3055738E+02  0.7546771E-02  0.1414813E+00
          2   -1    0    0  502    0  0.00000000000E+00  0.00000000000E+00  0.56732599429E+01  0.56732599429E+01  0.00000000000E+00 0.  1.
         -2   -1    0    0    0  501 -0.00000000000E+00 -0.00000000000E+00 -0.16511785034E+03  0.16511785034E+03  0.00000000000E+00 0. -1.
          1    1    1    2  502    0 -0.30547668887E+02 -0.77026379168E+00 -0.74887175835E+02  0.80881657285E+02  0.00000000000E+00 0. -1.
         -1    1    1    2    0  501  0.30547668887E+02  0.77026379168E+00 -0.84557414560E+02  0.89909452994E+02  0.00000000000E+00 0.  1.
</event>
<event>
 4    1  0.6754235E+001  0.4644316E+02  0.7546771E-02  0.1314377E+00
          2   -1    0    0  502    0  0.00000000000E+00  0.00000000000E+00  0.14790119395E+04  0.14790119395E+04  0.00000000000E+00 0.  1.
         -2   -1    0    0    0  501 -0.00000000000E+00 -0.00000000000E+00 -0.15138425672E+01  0.15138425672E+01  0.00000000000E+00 0. -1.
          1    1    1    2  502    0 -0.34830205679E+02 -0.30721721936E+02  0.59706213531E+03  0.59886572856E+03  0.00000000000E+00 0. -1.
         -1    1    1    2    0  501  0.34830205679E+02  0.30721721936E+02  0.88043596163E+03  0.88166005351E+03  0.00000000000E+00 0.  1.
</event>
<event>
 4    1  0.6754235E+001  0.2983563E+02  0.7546771E-02  0.1421030E+00
          2   -1    0    0  502    0  0.00000000000E+00  0.00000000000E+00  0.46617279269E+03  0.46617279269E+03  0.00000000000E+00 0.  1.
         -2   -1    0    0    0  501 -0.00000000000E+00 -0.00000000000E+00 -0.19095220253E+01  0.19095220253E+01  0.00000000000E+00 0. -1.
          1    1    1    2  502    0 -0.76860458018E+01  0.28828627586E+02  0.23176819256E+03  0.23368067988E+03  0.00000000000E+00 0.  1.
         -1    1    1    2    0  501  0.76860458018E+01 -0.28828627586E+02  0.23249507811E+03  0.23440163483E+03  0.00000000000E+00 0. -1.
</event>
<event>
 4    1  0.6754235E+001  0.4591414E+02  0.7546771E-02  0.1316931E+00
          2   -1    0    0  502    0  0.00000000000E+00  0.00000000000E+00  0.21358148462E+02  0.21358148462E+02  0.00000000000E+00 0.  1.
         -2   -1    0    0    0  501 -0.00000000000E+00 -0.00000000000E+00 -0.10240784756E+03  0.10240784756E+03  0.00000000000E+00 0. -1.
          1    1    1    2  502    0  0.60004782363E+01 -0.45520349124E+02 -0.52295615600E+02  0.69591230298E+02  0.00000000000E+00 0. -1.
         -1    1    1    2    0  501 -0.60004782363E+01  0.45520349124E+02 -0.28754083498E+02  0.54174765724E+02  0.00000000000E+00 0.  1.
</event>
<event>
 4    1  0.6754235E+001  0.2372122E+02  0.7546771E-02  0.1483635E+00
          2   -1    0    0  502    0  0.00000000000E+00  0.00000000000E+00  0.20091731391E+02  0.20091731391E+02  0.00000000000E+00 0. -1.
         -2   -1    0    0    0  501 -0.00000000000E+00 -0.00000000000E+00 -0.28352512113E+02  0.28352512113E+02  0.00000000000E+00 0.  1.
          1    1    1    2  502    0  0.20821270833E+02 -0.11365342567E+02 -0.14540104122E+01  0.23765741668E+02  0.00000000000E+00 0. -1.
         -1    1    1    2    0  501 -0.20821270833E+02  0.11365342567E+02 -0.68067703100E+01  0.24678501835E+02  0.00000000000E+00 0.  1.
</event>
<event>
 4    1  0.6754235E+001  0.2276128E+02  0.7546771E-02  0.1495518E+00
          2   -1    0    0  502    0  0.00000000000E+00  0.00000000000E+00  0.40678861548E+01  0.40678861548E+01  0.00000000000E+00 0. -1.
         -2   -1    0    0    0  501 -0.00000000000E+00 -0.00000000000E+00 -0.14226026294E+03  0.14226026294E+03  0.00000000000E+00 0.  1.
          1    1    1    2  502    0  0.14598158588E+02 -0.17463379022E+02 -0.92776606652E+02  0.95527873330E+02  0.00000000000E+00 0.  1.
         -1    1    1    2    0  501 -0.14598158588E+02  0.17463379022E+02 -0.45415770132E+02  0.50800275764E+02  0.00000000000E+00 0. -1.
</event>
<event>
 4    1  0.6754235E+001  0.4590941E+02  0.7546771E-02  0.1316954E+00
          2   -1    0    0  502    0  0.00000000000E+00  0.00000000000E+00  0.22005991274E+03  0.22005991274E+03  0.00000000000E+00 0.  1.
         -2   -1    0    0    0  501 -0.00000000000E+00 -0.00000000000E+00 -0.96033960507E+01  0.96033960507E+01  0.00000000000E+00 0. -1.
          1    1    1    2  502    0 -0.39873631986E+02  0.22754505363E+02  0.99291579364E+02  0.10939146116E+03  0.00000000000E+00 0. -1.
         -1    1    1    2    0  501  0.39873631986E+02 -0.22754505363E+02  0.11116493733E+03  0.12027184763E+03  0.00000000000E+00 0.  1.
</event>
<event>
 4    1  0.6754235E+001  0.5204789E+02  0.7546771E-02  0.1289530E+00
          2   -1    0    0  502    0  0.00000000000E+00  0.00000000000E+00  0.88532198133E+03  0.88532198133E+03  0.00000000000E+00 0.  1.
         -2   -1    0    0    0  501 -0.00000000000E+00 -0.00000000000E+00 -0.31159604697E+01  0.31159604697E+01  0.00000000000E+00 0. -1.
          1    1    1    2  502    0 -0.49511655858E+02  0.16049254184E+02  0.38151056584E+03  0.38504453570E+03  0.00000000000E+00 0. -1.
         -1    1    1    2    0  501  0.49511655858E+02 -0.16049254184E+02  0.50069545503E+03  0.50339340610E+03  0.00000000000E+00 0.  1.
</event>
<event>
 4    1  0.6754235E+001  0.2316249E+02  0.7546771E-02  0.1490468E+00
          2   -1    0    0  502    0  0.00000000000E+00  0.00000000000E+00  0.94596702017E+03  0.94596702017E+03  0.00000000000E+00 0. -1.
         -2   -1    0    0    0  501 -0.00000000000E+00 -0.00000000000E+00 -0.13378441223E+01  0.13378441223E+01  0.00000000000E+00 0.  1.
          1    1    1    2  502    0 -0.12876765234E+02  0.19253307458E+02  0.11281424606E+03  0.11516750863E+03  0.00000000000E+00 0.  1.
         -1    1    1    2    0  501  0.12876765234E+02 -0.19253307458E+02  0.83181492999E+03  0.83213735566E+03  0.00000000000E+00 0. -1.
</event>
<event>
 4    1  0.6754235E+001  0.2132444E+02  0.7546771E-02  0.1514683E+00
          2   -1    0    0  502    0  0.00000000000E+00  0.00000000000E+00  0.13567773361E+01  0.13567773361E+01  0.00000000000E+00 0.  1.
         -2   -1    0    0    0  501 -0.00000000000E+00 -0.00000000000E+00 -0.34858554634E+03  0.34858554634E+03  0.00000000000E+00 0. -1.
          1    1    1    2  502    0 -0.18517963351E+02 -0.10574354712E+02 -0.20795783258E+03  0.20904830082E+03  0.00000000000E+00 0.  1.
         -1    1    1    2    0  501  0.18517963351E+02  0.10574354712E+02 -0.13927093643E+03  0.14089402286E+03  0.00000000000E+00 0. -1.
</event>
<event>
 4    1  0.6754235E+001  0.2060138E+02  0.7546771E-02  0.1525033E+00
          2   -1    0    0  502    0  0.00000000000E+00  0.00000000000E+00  0.18290470471E+01  0.18290470471E+01  0.00000000000E+00 0. -1.
         -2   -1    0    0    0  501 -0.00000000000E+00 -0.00000000000E+00 -0.23946808881E+03  0.23946808881E+03  0.00000000000E+00 0.  1.
          1    1    1    2  502    0 -0.15359518279E+02 -0.13729598364E+02 -0.97574193943E+02  0.99725322745E+02  0.00000000000E+00 0. -1.
         -1    1    1    2    0  501  0.15359518279E+02  0.13729598364E+02 -0.14006484782E+03  0.14157181311E+03  0.00000000000E+00 0.  1.
</event>
<event>
 4    1  0.6754235E+001  0.2656167E+02  0.7546771E-02  0.1452062E+00
          2   -1    0    0  502    0  0.00000000000E+00  0.00000000000E+00  0.11343535952E+01  0.11343535952E+01  0.00000000000E+00 0.  1.
         -2   -1    0    0    0  501 -0.00000000000E+00 -0.00000000000E+00 -0.70231406668E+03  0.70231406668E+03  0.00000000000E+00 0. -1.
          1    1    1    2  502    0 -0.26483924671E+02 -0.20307969988E+01 -0.23161891723E+03  0.23313696666E+03  0.00000000000E+00 0.  1.
         -1    1    1    2    0  501  0.26483924671E+02  0.20307969988E+01 -0.46956079585E+03  0.47031145362E+03  0.00000000000E+00 0. -1.
</event>
<event>
 4    1  0.6754235E+001  0.2230709E+02  0.7546771E-02  0.1501387E+00
          2   -1    0    0  502    0  0.00000000000E+00  0.00000000000E+00  0.46780243497E+02  0.46780243497E+02  0.00000000000E+00 0. -1.
         -2   -1    0    0    0  501 -0.00000000000E+00 -0.00000000000E+00 -0.10774677110E+02  0.10774677110E+02  0.00000000000E+00 0.  1.
          1    1    1    2  502    0  0.56527358152E+00  0.22299924760E+02  0.14750998968E+02  0.26743188836E+02  0.00000000000E+00 0. -1.
         -1    1    1    2    0  501 -0.56527358152E+00 -0.22299924760E+02  0.21254567419E+02  0.30811731771E+02  0.00000000000E+00 0.  1.
</event>
<event>
 4    1  0.6754235E+001  0.2285278E+02  0.7546771E-02  0.1494355E+00
          2   -1    0    0  502    0  0.00000000000E+00  0.00000000000E+00  0.23846158475E+04  0.23846158475E+04  0.00000000000E+00 0. -1.
         -2   -1    0    0    0  501 -0.00000000000E+00 -0.00000000000E+00 -0.24229123509E+00  0.24229123509E+00  0.00000000000E+00 0.  1.
          1    1    1    2  502    0 -0.11351141062E+02  0.19834337121E+02  0.82253928083E+03  0.82285668123E+03  0.00000000000E+00 0.  1.
         -1    1    1    2    0  501  0.11351141062E+02 -0.19834337121E+02  0.15618342755E+04  0.15620014575E+04  0.00000000000E+00 0. -1.
</event>
<event>
 4    1  0.6754235E+001  0.2296271E+02  0.7546771E-02  0.1492967E+00
          2   -1    0    0  502    0  0.00000000000E+00  0.00000000000E+00  0.60081439700E+03  0.60081439700E+03  0.00000000000E+00 0.  1.
         -2   -1    0    0    0  501 -0.00000000000E+00 -0.00000000000E+00 -0.14726372633E+02  0.14726372633E+02  0.00000000000E+00 0. -1.
          1    1    1    2  502    0  0.16056533132E+02  0.16415657775E+02  0.59150273818E+03  0.59194828773E+03  0.00000000000E+00 0.  1.
         -1    1    1    2    0  501 -0.16056533132E+02 -0.16415657775E+02 -0.54147138146E+01  0.23592481898E+02  0.00000000000E+00 0. -1.
</event>
<event>
 4    1  0.6754235E+001  0.4533815E+02  0.7546771E-02  0.1319757E+00
          2   -1    0    0  502    0  0.00000000000E+00  0.00000000000E+00  0.60665716078E+02  0.60665716078E+02  0.00000000000E+00 0.  1.
         -2   -1    0    0    0  501 -0.00000000000E+00 -0.00000000000E+00 -0.34112926716E+02  0.34112926716E+02  0.00000000000E+00 0. -1.
          1    1    1    2  502    0  0.35379585358E+02  0.28351951391E+02  0.17165347920E+02  0.48478834320E+02  0.00000000000E+00 0.  1.
         -1    1    1    2    0  501 -0.35379585358E+02 -0.28351951391E+02  0.93874414418E+01  0.46299808473E+02  0.00000000000E+00 0. -1.
</event>
<event>
 4    1  0.6754235E+001  0.2152372E+02  0.7546771E-02  0.1511917E+00
          2   -1    0    0  502    0  0.00000000000E+00  0.00000000000E+00  0.16161285115E+04  0.16161285115E+04  0.00000000000E+00 0. -1.
         -2   -1    0    0    0  501 -0.00000000000E+00 -0.00000000000E+00 -0.28717861830E+00  0.28717861830E+00  0.00000000000E+00 0.  1.
          1    1    1    2  502    0 -0.17879077504E+02 -0.11983702454E+02  0.77339398206E+03  0.77369342896E+03  0.00000000000E+00 0. -1.
         -1    1    1    2    0  501  0.17879077504E+02  0.11983702454E+02  0.84244735080E+03  0.84272226114E+03  0.00000000000E+00 0.  1.
</event>
<event>
 4    1  0.6754235E+001  0.2437846E+02  0.7546771E-02  0.1475878E+00
          2   -1    0    0  502    0  0.00000000000E+00  0.00000000000E+00  0.55484850805E+02  0.55484850805E+02  0.00000000000E+00 0. -1.
         -2   -1    0    0    0  501 -0.00000000000E+00 -0.00000000000E+00 -0.20485219846E+02  0.20485219846E+02  0.00000000000E+00 0.  1.
          1    1    1    2  502    0  0.12435073433E+02 -0.20968500616E+02 -0.87380761680E+01  0.25897162865E+02  0.00000000000E+00 0.  1.
         -1    1    1    2    0  501 -0.12435073433E+02  0.20968500616E+02  0.43737707128E+02  0.50072907786E+02  0.00000000000E+00 0. -1.
</event>
<event>
 4    1  0.6754235E+001  0.2533779E+02  0.7546771E-02  0.1465060E+00
          2   -1    0    0  502    0  0.00000000000E+00  0.00000000000E+00  0.52695766933E+01  0.52695766933E+01  0.00000000000E+00 0.  1.
         -2   -1    0    0    0  501 -0.00000000000E+00 -0.00000000000E+00 -0.19814539170E+03  0.19814539170E+03  0.00000000000E+00 0. -1.
          1    1    1    2  502    0  0.93566361567E+01  0.23546908431E+02 -0.15955704392E+03  0.16155634869E+03  0.00000000000E+00 0. -1.
         -1    1    1    2    0  501 -0.93566361567E+01 -0.23546908431E+02 -0.33318771081E+02  0.41858619700E+02  0.00000000000E+00 0.  1.
</event>
<event>
 4    1  0.6754235E+001  0.2253641E+02  0.7546771E-02  0.1498403E+00
          2   -1    0    0  502    0  0.00000000000E+00  0.00000000000E+00  0.25793320445E+02  0.25793320445E+02  0.00000000000E+00 0.  1.
         -2   -1    0    0    0  501 -0.00000000000E+00 -0.00000000000E+00 -0.22040254617E+02  0.22040254617E+02  0.00000000000E+00 0. -1.
          1    1    1    2  502    0 -0.17304873040E+02  0.14437148226E+02 -0.59322346368E+01  0.23304104523E+02  0.00000000000E+00 0. -1.
         -1    1    1    2    0  501  0.17304873040E+02 -0.14437148226E+02  0.96853004642E+01  0.24529470539E+02  0.00000000000E+00 0.  1.
</event>
<event>
 4    1  0.6754235E+001  0.2485349E+02  0.7546771E-02  0.1470449E+00
          2   -1    0    0  502    0  0.00000000000E+00  0.00000000000E+00  0.10012921639E+03  0.10012921639E+03  0.00000000000E+00 0. -1.
         -2   -1    0    0    0  501 -0.00000000000E+00 -0.00000000000E+00 -0.61796791209E+01  0.61796791209E+01  0.00000000000E+00 0.  1.
          1    1    1    2  502    0  0.24793061830E+02  0.17321289313E+01  0.44764132267E+02  0.51200817602E+02  0.00000000000E+00 0.  1.
         -1    1    1    2    0  501 -0.24793061830E+02 -0.17321289313E+01  0.49185405005E+02  0.55108077911E+02  0.00000000000E+00 0. -1.
</event>
<event>
 4    1  0.6754235E+001  0.2138307E+02  0.7546771E-02  0.1513865E+00
          2   -1    0    0  502    0  0.00000000000E+00  0.00000000000E+00  0.10288845860E+03  0.10288845860E+03  0.00000000000E+00 0. -1.
         -2   -1    0    0    0  501 -0.00000000000E+00 -0.00000000000E+00 -0.59909121435E+01  0.59909121435E+01  0.00000000000E+00 0.  1.
          1    1    1    2  502    0 -0.11518703719E+02  0.18015419839E+02  0.20785565862E+02  0.29820724934E+02  0.00000000000E+00 0.  1.
         -1    1    1    2    0  501  0.11518703719E+02 -0.18015419839E+02  0.76111980595E+02  0.79058645811E+02  0.00000000000E+00 0. -1.
</event>
<event>
 4    1  0.6754235E+001  0.2893532E+02  0.7546771E-02  0.1429080E+00
          2   -1    0    0  502    0  0.00000000000E+00  0.00000000000E+00  0.16123854572E+02  0.16123854572E+02  0.00000000000E+00 0. -1.
         -2   -1    0    0    0  501 -0.00000000000E+00 -0.00000000000E+00 -0.52108032993E+02  0.52108032993E+02  0.00000000000E+00 0.  1.
          1    1    1    2  502    0  0.12356404265E+02 -0.26164331313E+02 -0.15977627755E+02  0.33053555756E+02  0.00000000000E+00 0.  1.
         -1    1    1    2    0  501 -0.12356404265E+02  0.26164331313E+02 -0.20006550666E+02  0.35178331810E+02  0.00000000000E+00 0. -1.
</event>
<event>
 4    1  0.6754235E+001  0.2331383E+02  0.7546771E-02  0.1488595E+00
          2   -1    0    0  502    0  0.00000000000E+00  0.00000000000E+00  0.43087392601E+03  0.43087392601E+03  0.00000000000E+00 0. -1.
         -2   -1    0    0    0  501 -0.00000000000E+00 -0.00000000000E+00 -0.12646477766E+01  0.12646477766E+01  0.00000000000E+00 0.  1.
          1    1    1    2  502    0  0.22873084411E+02 -0.45118400130E+01  0.20397423519E+03  0.20530227304E+03  0.00000000000E+00 0.  1.
         -1    1    1    2    0  501 -0.22873084411E+02  0.45118400130E+01  0.22563504304E+03  0.22683630075E+03  0.00000000000E+00 0. -1.
</event>
<event>
 4    1  0.6754235E+001  0.4339811E+02  0.7546771E-02  0.1329646E+00
          2   -1    0    0  502    0  0.00000000000E+00  0.00000000000E+00  0.60805140869E+03  0.60805140869E+03  0.00000000000E+00 0. -1.
         -2   -1    0    0    0  501 -0.00000000000E+00 -0.00000000000E+00 -0.35679072634E+01  0.35679072634E+01  0.00000000000E+00 0.  1.
          1    1    1    2  502    0 -0.39852154714E+02 -0.17181442430E+02  0.19119289207E+03  0.19605641581E+03  0.00000000000E+00 0. -1.
         -1    1    1    2    0  501  0.39852154714E+02  0.17181442430E+02  0.41329060935E+03  0.41556290014E+03  0.00000000000E+00 0.  1.
</event>
<event>
 4    1  0.6754235E+001  0.2988478E+02  0.7546771E-02  0.1420601E+00
          2   -1    0    0  502    0  0.00000000000E+00  0.00000000000E+00  0.99536483078E+03  0.99536483078E+03  0.00000000000E+00 0. -1.
         -2   -1    0    0    0  501 -0.00000000000E+00 -0.00000000000E+00 -0.11890134116E+01  0.11890134116E+01  0.00000000000E+00 0.  1.
          1    1    1    2  502    0  0.16203447388E+02  0.25110716851E+02  0.25026452866E+03  0.25204252442E+03  0.00000000000E+00 0.  1.
         -1    1    1    2    0  501 -0.16203447388E+02 -0.25110716851E+02  0.74391128870E+03  0.74451131977E+03  0.00000000000E+00 0. -1.
</event>
<event>
 4    1  0.6754235E+001  0.2042302E+02  0.7546771E-02  0.1527664E+00
          2   -1    0    0  502    0  0.00000000000E+00  0.00000000000E+00  0.10177011598E+02  0.10177011598E+02  0.00000000000E+00 0. -1.
         -2   -1    0    0    0  501 -0.00000000000E+00 -0.00000000000E+00 -0.52746383764E+02  0.52746383764E+02  0.00000000000E+00 0.  1.
          1    1    1    2  502    0  0.88130998097E+01 -0.18423596641E+02 -0.64279156030E+01  0.21410692199E+02  0.00000000000E+00 0. -1.
         -1    1    1    2    0  501 -0.88130998097E+01  0.18423596641E+02 -0.36141456563E+02  0.41512703163E+02  0.00000000000E+00 0.  1.
</event>
<event>
 4    1  0.6754235E+001  0.2798194E+02  0.7546771E-02  0.1437986E+00
          2   -1    0    0  502    0  0.00000000000E+00  0.00000000000E+00  0.78367879135E+02  0.78367879135E+02  0.00000000000E+00 0. -1.
         -2   -1    0    0    0  501 -0.00000000000E+00 -0.00000000000E+00 -0.17543280994E+02  0.17543280994E+02  0.00000000000E+00 0.  1.
          1    1    1    2  502    0  0.26578294744E+02 -0.87511765936E+01 -0.10519355799E+01  0.28001703729E+02  0.00000000000E+00 0.  1.
         -1    1    1    2    0  501 -0.26578294744E+02  0.87511765936E+01  0.61876533721E+02  0.67909456400E+02  0.00000000000E+00 0. -1.
</event>
<event>
 4    1  0.6754235E+001  0.2354240E+02  0.7546771E-02  0.1485797E+00
          2   -1    0    0  502    0  0.00000000000E+00  0.00000000000E+00  0.94681379260E+02  0.94681379260E+02  0.00000000000E+00 0. -1.
         -2   -1    0    0    0  501 -0.00000000000E+00 -0.00000000000E+00 -0.11398097518E+02  0.11398097518E+02  0.00000000000E+00 0.  1.
          1    1    1    2  502    0 -0.18718891449E+02 -0.14277516929E+02  0.78633747256E+02  0.82082340331E+02  0.00000000000E+00 0. -1.
         -1    1    1    2    0  501  0.18718891449E+02  0.14277516929E+02  0.46495344861E+01  0.23997136447E+02  0.00000000000E+00 0.  1.
</event>
<event>
 4    1  0.6754235E+001  0.2614166E+02  0.7546771E-02  0.1456426E+00
          2   -1    0    0  502    0  0.00000000000E+00  0.00000000000E+00  0.34359786080E+03  0.34359786080E+03  0.00000000000E+00 0. -1.
         -2   -1    0    0    0  501 -0.00000000000E+00 -0.00000000000E+00 -0.20568208611E+01  0.20568208611E+01  0.00000000000E+00 0.  1.
          1    1    1    2  502    0  0.16209650348E+01 -0.26091360303E+02  0.20217350321E+03  0.20385659668E+03  0.00000000000E+00 0. -1.
         -1    1    1    2    0  501 -0.16209650348E+01  0.26091360303E+02  0.13936753673E+03  0.14179808498E+03  0.00000000000E+00 0.  1.
</event>
<event>
 4    1  0.6754235E+001  0.2028559E+02  0.7546771E-02  0.1529714E+00
          2   -1    0    0  502    0  0.00000000000E+00  0.00000000000E+00  0.45246777613E+01  0.45246777613E+01  0.00000000000E+00 0. -1.
         -2   -1    0    0    0  501 -0.00000000000E+00 -0.00000000000E+00 -0.20165706361E+03  0.20165706361E+03  0.00000000000E+00 0.  1.
          1    1    1    2  502    0  0.19742523196E+02  0.46624098905E+01 -0.17495105342E+03  0.17612318524E+03  0.00000000000E+00 0.  1.
         -1    1    1    2    0  501 -0.19742523196E+02 -0.46624098905E+01 -0.22181332432E+02  0.30058556129E+02  0.00000000000E+00 0. -1.
</event>
<event>
 4    1  0.6754235E+001  0.2208686E+02  0.7546771E-02  0.1504294E+00
          2   -1    0    0  502    0  0.00000000000E+00  0.00000000000E+00  0.96130915626E+02  0.96130915626E+02  0.00000000000E+00 0. -1.
         -2   -1    0    0    0  501 -0.00000000000E+00 -0.00000000000E+00 -0.87911397038E+01  0.87911397038E+01  0.00000000000E+00 0.  1.
          1    1    1    2  502    0 -0.21771868521E+02  0.37168643527E+01  0.95599030089E+01  0.24067012383E+02  0.00000000000E+00 0.  1.
         -1    1    1    2    0  501  0.21771868521E+02 -0.37168643527E+01  0.77779872913E+02  0.80855042946E+02  0.00000000000E+00 0. -1.
</event>
<event>
 4    1  0.6754235E+001  0.3404905E+02  0.7546771E-02  0.1387375E+00
          2   -1    0    0  502    0  0.00000000000E+00  0.00000000000E+00  0.13512113649E+04  0.13512113649E+04  0.00000000000E+00 0. -1.
         -2   -1    0    0    0  501 -0.00000000000E+00 -0.00000000000E+00 -0.85850948568E+00  0.85850948568E+00  0.00000000000E+00 0.  1.
          1    1    1    2  502    0  0.14675231744E+02 -0.30724185841E+02  0.65869171777E+03  0.65957116150E+03  0.00000000000E+00 0. -1.
         -1    1    1    2    0  501 -0.14675231744E+02  0.30724185841E+02  0.69166113767E+03  0.69249871292E+03  0.00000000000E+00 0.  1.
</event>
<event>
 4    1  0.6754235E+001  0.2549465E+02  0.7546771E-02  0.1463345E+00
          2   -1    0    0  502    0  0.00000000000E+00  0.00000000000E+00  0.50239558931E+03  0.50239558931E+03  0.00000000000E+00 0.  1.
         -2   -1    0    0    0  501 -0.00000000000E+00 -0.00000000000E+00 -0.13172033305E+01  0.13172033305E+01  0.00000000000E+00 0. -1.
          1    1    1    2  502    0  0.25385385612E+02 -0.23577790591E+01  0.28414237021E+03  0.28528382967E+03  0.00000000000E+00 0. -1.
         -1    1    1    2    0  501 -0.25385385612E+02  0.23577790591E+01  0.21693601577E+03  0.21842896297E+03  0.00000000000E+00 0.  1.
</event>
<event>
 4    1  0.6754235E+001  0.2158760E+02  0.7546771E-02  0.1511038E+00
          2   -1    0    0  502    0  0.00000000000E+00  0.00000000000E+00  0.45554178880E+03  0.45554178880E+03  0.00000000000E+00 0. -1.
         -2   -1    0    0    0  501 -0.00000000000E+00 -0.00000000000E+00 -0.16297652294E+01  0.16297652294E+01  0.00000000000E+00 0.  1.
          1    1    1    2  502    0 -0.76714092257E+00 -0.21573969659E+02  0.87482170044E+02  0.90106352427E+02  0.00000000000E+00 0.  1.
         -1    1    1    2    0  501  0.76714092257E+00  0.21573969659E+02  0.36642985353E+03  0.36706520160E+03  0.00000000000E+00 0. -1.
</event>
<event>
 4    1  0.6754235E+001  0.3866102E+02  0.7546771E-02  0.1356516E+00
          2   -1    0    0  502    0  0.00000000000E+00  0.00000000000E+00  0.25085088641E+03  0.25085088641E+03  0.00000000000E+00 0.  1.
         -2   -1    0    0    0  501 -0.00000000000E+00 -0.00000000000E+00 -0.73717512416E+01  0.73717512416E+01  0.00000000000E+00 0. -1.
          1    1    1    2  502    0  0.38613835773E+02 -0.19095163843E+01  0.65206677343E+02  0.75806235469E+02  0.00000000000E+00 0. -1.
         -1    1    1    2    0  501 -0.38613835773E+02  0.19095163843E+01  0.17827245782E+03  0.18241640218E+03  0.00000000000E+00 0.  1.
</event>
<event>
 4    1  0.6754235E+001  0.2442401E+02  0.7546771E-02  0.1475351E+00
          2   -1    0    0  502    0  0.00000000000E+00  0.00000000000E+00  0.54171093652E+03  0.54171093652E+03  0.00000000000E+00 0.  1.
         -2   -1    0    0    0  501 -0.00000000000E+00 -0.00000000000E+00 -0.13387948590E+01  0.13387948590E+01  0.00000000000E+00 0. -1.
          1    1    1    2  502    0 -0.94766984861E+01  0.22510538863E+02  0.38457156586E+03  0.38534636555E+03  0.00000000000E+00 0.  1.
         -1    1    1    2    0  501  0.94766984861E+01 -0.22510538863E+02  0.15580057580E+03  0.15770336583E+03  0.00000000000E+00 0. -1.
</event>
<event>
 4    1  0.6754235E+001  0.2321789E+02  0.7546771E-02  0.1489780E+00
          2   -1    0    0  502    0  0.00000000000E+00  0.00000000000E+00  0.64094552008E+03  0.64094552008E+03  0.00000000000E+00 0. -1.
         -2   -1    0    0    0  501 -0.00000000000E+00 -0.00000000000E+00 -0.19290840172E+01  0.19290840172E+01  0.00000000000E+00 0.  1.
          1    1    1    2  502    0  0.22833067926E+02  0.42096846879E+01  0.56091026102E+03  0.56139058716E+03  0.00000000000E+00 0. -1.
         -1    1    1    2    0  501 -0.22833067926E+02 -0.42096846879E+01  0.78106175039E+02  0.81484016931E+02  0.00000000000E+00 0.  1.
</event>
<event>
 4    1  0.6754235E+001  0.2041541E+02  0.7546771E-02  0.1527777E+00
          2   -1    0    0  502    0  0.00000000000E+00  0.00000000000E+00  0.20833052897E+04  0.20833052897E+04  0.00000000000E+00 0. -1.
         -2   -1    0    0    0  501 -0.00000000000E+00 -0.00000000000E+00 -0.22063877243E+00  0.22063877243E+00  0.00000000000E+00 0.  1.
          1    1    1    2  502    0 -0.12157151880E+02  0.16401000697E+02  0.13596850380E+04  0.13598382962E+04  0.00000000000E+00 0. -1.
         -1    1    1    2    0  501  0.12157151880E+02 -0.16401000697E+02  0.72339961290E+03  0.72368763227E+03  0.00000000000E+00 0.  1.
</event>
<event>
 4    1  0.6754235E+001  0.7294314E+02  0.7546771E-02  0.1221252E+00
          2   -1    0    0  502    0  0.00000000000E+00  0.00000000000E+00  0.37199072227E+04  0.37199072227E+04  0.00000000000E+00 0.  1.
         -2   -1    0    0    0  501 -0.00000000000E+00 -0.00000000000E+00 -0.19165667152E+01  0.19165667152E+01  0.00000000000E+00 0. -1.
          1    1    1    2  502    0 -0.54800641697E+02  0.48141365325E+02  0.27963132835E+04  0.27972644996E+04  0.00000000000E+00 0.  1.
         -1    1    1    2    0  501  0.54800641697E+02 -0.48141365325E+02  0.92167737243E+03  0.92455928973E+03  0.00000000000E+00 0. -1.
</event>
<event>
 4    1  0.6754235E+001  0.2983308E+02  0.7546771E-02  0.1421053E+00
          2   -1    0    0  502    0  0.00000000000E+00  0.00000000000E+00  0.73196532225E+02  0.73196532225E+02  0.00000000000E+00 0.  1.
         -2   -1    0    0    0  501 -0.00000000000E+00 -0.00000000000E+00 -0.15035718513E+02  0.15035718513E+02  0.00000000000E+00 0. -1.
          1    1    1    2  502    0 -0.29232086349E+02  0.59580115701E+01  0.48376407685E+02  0.56835636662E+02  0.00000000000E+00 0.  1.
         -1    1    1    2    0  501  0.29232086349E+02 -0.59580115701E+01  0.97844060266E+01  0.31396614077E+02  0.00000000000E+00 0. -1.
</event>
<event>
 4    1  0.6754235E+001  0.2095733E+02  0.7546771E-02  0.1519875E+00
          2   -1    0    0  502    0  0.00000000000E+00  0.00000000000E+00  0.74472015284E+03  0.74472015284E+03  0.00000000000E+00 0. -1.
         -2   -1    0    0    0  501 -0.00000000000E+00 -0.00000000000E+00 -0.17828749734E+01  0.17828749734E+01  0.00000000000E+00 0.  1.
          1    1    1    2  502    0  0.13961958968E+02 -0.15629251718E+02  0.67680701362E+03  0.67713140785E+03  0.00000000000E+00 0. -1.
         -1    1    1    2    0  501 -0.13961958968E+02  0.15629251718E+02  0.66130264250E+02  0.69371619970E+02  0.00000000000E+00 0.  1.
</event>
<event>
 4    1  0.6754235E+001  0.2894334E+02  0.7546771E-02  0.1429006E+00
          2   -1    0    0  502    0  0.00000000000E+00  0.00000000000E+00  0.12857285319E+04  0.12857285319E+04  0.00000000000E+00 0.  1.
         -2   -1    0    0    0  501 -0.00000000000E+00 -0.00000000000E+00 -0.69127285726E+00  0.69127285726E+00  0.00000000000E+00 0. -1.
          1    1    1    2  502    0 -0.13114798980E+02 -0.25801533723E+02  0.79670477863E+03  0.79723034399E+03  0.00000000000E+00 0.  1.
         -1    1    1    2    0  501  0.13114798980E+02  0.25801533723E+02  0.48833248044E+03  0.48918946079E+03  0.00000000000E+00 0. -1.
</event>
<event>
 4    1  0.6754235E+001  0.2307439E+02  0.7546771E-02  0.1491566E+00
          2   -1    0    0  502    0  0.00000000000E+00  0.00000000000E+00  0.21584347197E+02  0.21584347197E+02  0.00000000000E+00 0.  1.
         -2   -1    0    0    0  501 -0.00000000000E+00 -0.00000000000E+00 -0.60902683717E+02  0.60902683717E+02  0.00000000000E+00 0. -1.
          1    1    1    2  502    0 -0.20455010742E+02 -0.10678025091E+02  0.12153775714E+02  0.26079531215E+02  0.00000000000E+00 0.  1.
         -1    1    1    2    0  501  0.20455010742E+02  0.10678025091E+02 -0.51472112235E+02  0.56407499698E+02  0.00000000000E+00 0. -1.
</event>
<event>
 4    1  0.6754235E+001  0.6194728E+02  0.7546771E-02  0.1253356E+00
          2   -1    0    0  502    0  0.00000000000E+00  0.00000000000E+00  0.97848096155E+01  0.97848096155E+01  0.00000000000E+00 0.  1.
         -2   -1    0    0    0  501 -0.00000000000E+00 -0.00000000000E+00 -0.39906158489E+03  0.39906158489E+03  0.00000000000E+00 0. -1.
          1    1    1    2  502    0 -0.54493063254E+02  0.29461363355E+02 -0.16780575224E+03  0.17887491819E+03  0.00000000000E+00 0.  1.
         -1    1    1    2    0  501  0.54493063254E+02 -0.29461363355E+02 -0.22147102304E+03  0.22997147632E+03  0.00000000000E+00 0. -1.
</event>
<event>
 4    1  0.6754235E+001  0.3410628E+02  0.7546771E-02  0.1386957E+00
          2   -1    0    0  502    0  0.00000000000E+00  0.00000000000E+00  0.45648088770E+03  0.45648088770E+03  0.00000000000E+00 0. -1.
         -2   -1    0    0    0  501 -0.00000000000E+00 -0.00000000000E+00 -0.50684554807E+01  0.50684554807E+01  0.00000000000E+00 0.  1.
          1    1    1    2  502    0 -0.69482918641E+01  0.33391006550E+02  0.38843571533E+03  0.38993017712E+03  0.00000000000E+00 0. -1.
         -1    1    1    2    0  501  0.69482918641E+01 -0.33391006550E+02  0.62976716888E+02  0.71619166068E+02  0.00000000000E+00 0.  1.
</event>
<event>
 4    1  0.6754235E+001  0.2833029E+02  0.7546771E-02  0.1434684E+00
          2   -1    0    0  502    0  0.00000000000E+00  0.00000000000E+00  0.49115638703E+03  0.49115638703E+03  0.00000000000E+00 0. -1.
         -2   -1    0    0    0  501 -0.00000000000E+00 -0.00000000000E+00 -0.48787838942E+01  0.48787838942E+01  0.00000000000E+00 0.  1.
          1    1    1    2  502    0  0.28007306285E+02  0.42657227528E+01  0.44539970130E+03  0.44629978659E+03  0.00000000000E+00 0. -1.
         -1    1    1    2    0  501 -0.28007306285E+02 -0.42657227528E+01  0.40877901835E+02  0.49735384329E+02  0.00000000000E+00 0.  1.
</event>
<event>
 4    1  0.6754235E+001  0.3165639E+02  0.7546771E-02  0.1405728E+00
          2   -1    0    0  502    0  0.00000000000E+00  0.00000000000E+00  0.12940507882E+02  0.12940507882E+02  0.00000000000E+00 0. -1.
         -2   -1    0    0    0  501 -0.00000000000E+00 -0.00000000000E+00 -0.10043460158E+03  0.10043460158E+03  0.00000000000E+00 0.  1.
          1    1    1    2  502    0  0.31639854306E+02 -0.10230805060E+01 -0.70870730213E+02  0.77619504476E+02  0.00000000000E+00 0.  1.
         -1    1    1    2    0  501 -0.31639854306E+02  0.10230805060E+01 -0.16623363482E+02  0.35755604982E+02  0.00000000000E+00 0. -1.
</event>
<event>
 4    1  0.6754235E+001  0.2063191E+02  0.7546771E-02  0.1524586E+00
          2   -1    0    0  502    0  0.00000000000E+00  0.00000000000E+00  0.45499911853E+03  0.45499911853E+03  0.00000000000E+00 0.  1.
         -2   -1    0    0    0  501 -0.00000000000E+00 -0.00000000000E+00 -0.16220531536E+01  0.16220531536E+01  0.00000000000E+00 0. -1.
          1    1    1    2  502    0  0.48017065707E+01  0.20065374920E+02  0.37521844337E+03  0.37578525237E+03  0.00000000000E+00 0.  1.
         -1    1    1    2    0  501 -0.48017065707E+01 -0.20065374920E+02  0.78158622002E+02  0.80835919305E+02  0.00000000000E+00 0. -1.
</event>
<event>
 4    1  0.6754235E+001  0.2541437E+02  0.7546771E-02  0.1464221E+00
          2   -1    0    0  502    0  0.00000000000E+00  0.00000000000E+00  0.37507368904E+02  0.37507368904E+02  0.00000000000E+00 0.  1.
         -2   -1    0    0    0  501 -0.00000000000E+00 -0.00000000000E+00 -0.17222376510E+02  0.17222376510E+02  0.00000000000E+00 0. -1.
          1    1    1    2  502    0  0.25397525669E+02  0.92512816752E+00  0.98459542289E+01  0.27254962611E+02  0.00000000000E+00 0.  1.
         -1    1    1    2    0  501 -0.25397525669E+02 -0.92512816752E+00  0.10439038166E+02  0.27474782803E+02  0.00000000000E+00 0. -1.
</event>
<event>
 4    1  0.6754235E+001  0.2375052E+02  0.7546771E-02  0.1483283E+00
          2   -1    0    0  502    0  0.00000000000E+00  0.00000000000E+00  0.40533939325E+03  0.40533939325E+03  0.00000000000E+00 0.  1.
         -2   -1    0    0    0  501 -0.00000000000E+00 -0.00000000000E+00 -0.14857591399E+01  0.14857591399E+01  0.00000000000E+00 0. -1.
          1    1    1    2  502    0  0.19490994840E+02  0.13571593007E+02  0.25312325016E+03  0.25423506208E+03  0.00000000000E+00 0.  1.
         -1    1    1    2    0  501 -0.19490994840E+02 -0.13571593007E+02  0.15073038395E+03  0.15259009032E+03  0.00000000000E+00 0. -1.
</event>
<event>
 4    1  0.6754235E+001  0.2096421E+02  0.7546771E-02  0.1519776E+00
          2   -1    0    0  502    0  0.00000000000E+00  0.00000000000E+00  0.14199732483E+04  0.14199732483E+04  0.00000000000E+00 0.  1.
         -2   -1    0    0    0  501 -0.00000000000E+00 -0.00000000000E+00 -0.47744962107E+00  0.47744962107E+00  0.00000000000E+00 0. -1.
          1    1    1    2  502    0  0.19888030862E+02 -0.66305720727E+01  0.28852997054E+03  0.28929058429E+03  0.00000000000E+00 0. -1.
         -1    1    1    2    0  501 -0.19888030862E+02  0.66305720727E+01  0.11309658281E+04  0.11311601136E+04  0.00000000000E+00 0.  1.
</event>
<event>
 4    1  0.6754235E+001  0.4237046E+02  0.7546771E-02  0.1335128E+00
          2   -1    0    0  502    0  0.00000000000E+00  0.00000000000E+00  0.20073108897E+04  0.20073108897E+04  0.00000000000E+00 0.  1.
         -2   -1    0    0    0  501 -0.00000000000E+00 -0.00000000000E+00 -0.11434605017E+01  0.11434605017E+01  0.00000000000E+00 0. -1.
          1    1    1    2  502    0  0.15148914571E+02 -0.39569768622E+02  0.14717996450E+04  0.14724094034E+04  0.00000000000E+00 0.  1.
         -1    1    1    2    0  501 -0.15148914571E+02  0.39569768622E+02  0.53436778416E+03  0.53604494676E+03  0.00000000000E+00 0. -1.
</event>
<event>
 4    1  0.6754235E+001  0.4651978E+02  0.7546771E-02  0.1314010E+00
          2   -1    0    0  502    0  0.00000000000E+00  0.00000000000E+00  0.31206236645E+03  0.31206236645E+03  0.00000000000E+00 0. -1.
         -2   -1    0    0    0  501 -0.00000000000E+00 -0.00000000000E+00 -0.11812492270E+02  0.11812492270E+02  0.00000000000E+00 0.  1.
          1    1    1    2  502    0 -0.37707796810E+02  0.27243560401E+02  0.46064953503E+02  0.65468079740E+02  0.00000000000E+00 0.  1.
         -1    1    1    2    0  501  0.37707796810E+02 -0.27243560401E+02  0.25418492068E+03  0.25840677898E+03  0.00000000000E+00 0. -1.
</event>
<event>
 4    1  0.6754235E+001  0.3304731E+02  0.7546771E-02  0.1394837E+00
          2   -1    0    0  502    0  0.00000000000E+00  0.00000000000E+00  0.22935728943E+04  0.22935728943E+04  0.00000000000E+00 0. -1.
         -2   -1    0    0    0  501 -0.00000000000E+00 -0.00000000000E+00 -0.53754691947E+00  0.53754691947E+00  0.00000000000E+00 0.  1.
          1    1    1    2  502    0  0.29019486724E+01  0.32919646014E+02  0.75891367170E+03  0.75963286230E+03  0.00000000000E+00 0.  1.
         -1    1    1    2    0  501 -0.29019486724E+01 -0.32919646014E+02  0.15341216756E+04  0.15344775789E+04  0.00000000000E+00 0. -1.
</event>
<event>
 4    1  0.6754235E+001  0.3173234E+02  0.7546771E-02  0.1405117E+00
          2   -1    0    0  502    0  0.00000000000E+00  0.00000000000E+00  0.22778812502E+02  0.22778812502E+02  0.00000000000E+00 0.  1.
         -2   -1    0    0    0  501 -0.00000000000E+00 -0.00000000000E+00 -0.36610654239E+03  0.36610654239E+03  0.00000000000E+00 0. -1.
          1    1    1    2  502    0 -0.22727230418E+02  0.22145300897E+02 -0.35399014009E+03  0.35540956745E+03  0.00000000000E+00 0. -1.
         -1    1    1    2    0  501  0.22727230418E+02 -0.22145300897E+02  0.10662410194E+02  0.33475787450E+02  0.00000000000E+00 0.  1.
</event>
<event>
 4    1  0.6754235E+001  0.2156859E+02  0.7546771E-02  0.1511299E+00
          2   -1    0    0  502    0  0.00000000000E+00  0.00000000000E+00  0.39473581810E+03  0.39473581810E+03  0.00000000000E+00 0.  1.
         -2   -1    0    0    0  501 -0.00000000000E+00 -0.00000000000E+00 -0.15120055535E+01  0.15120055535E+01  0.00000000000E+00 0. -1.
          1    1    1    2  502    0 -0.36596472227E+01  0.21255851015E+02  0.10356574865E+03  0.10578784672E+03  0.00000000000E+00 0. -1.
         -1    1    1    2    0  501  0.36596472227E+01 -0.21255851015E+02  0.28965806389E+03  0.29045997693E+03  0.00000000000E+00 0.  1.
</event>
<event>
 4    1  0.6754235E+001  0.2480940E+02  0.7546771E-02  0.1470947E+00
          2   -1    0    0  502    0  0.00000000000E+00  0.00000000000E+00  0.22663695808E+03  0.22663695808E+03  0.00000000000E+00 0.  1.
         -2   -1    0    0    0  501 -0.00000000000E+00 -0.00000000000E+00 -0.35031820343E+01  0.35031820343E+01  0.00000000000E+00 0. -1.
          1    1    1    2  502    0  0.16852841702E+02 -0.18206808153E+02  0.57014081257E+02  0.62178063640E+02  0.00000000000E+00 0. -1.
         -1    1    1    2    0  501 -0.16852841702E+02  0.18206808153E+02  0.16611969479E+03  0.16796207648E+03  0.00000000000E+00 0.  1.
</event>
<event>
 4    1  0.6754235E+001  0.3413444E+02  0.7546771E-02  0.1386753E+00
          2   -1    0    0  502    0  0.00000000000E+00  0.00000000000E+00  0.39446664685E+03  0.39446664685E+03  0.00000000000E+00 0. -1.
         -2   -1    0    0    0  501 -0.00000000000E+00 -0.00000000000E+00 -0.45200544086E+01  0.45200544086E+01  0.00000000000E+00 0.  1.
          1    1    1    2  502    0 -0.20141987573E+02 -0.27558309825E+02  0.77539476722E+02  0.84720307802E+02  0.00000000000E+00 0.  1.
         -1    1    1    2    0  501  0.20141987573E+02  0.27558309825E+02  0.31240711572E+03  0.31426639345E+03  0.00000000000E+00 0. -1.
</event>
<event>
 4    1  0.6754235E+001  0.2350863E+02  0.7546771E-02  0.1486208E+00
          2   -1    0    0  502    0  0.00000000000E+00  0.00000000000E+00  0.20327943183E+02  0.20327943183E+02  0.00000000000E+00 0.  1.
         -2   -1    0    0    0  501 -0.00000000000E+00 -0.00000000000E+00 -0.29229266178E+02  0.29229266178E+02  0.00000000000E+00 0. -1.
          1    1    1    2  502    0 -0.16454728445E+02  0.16789801099E+02 -0.11000423800E+02  0.25955054092E+02  0.00000000000E+00 0. -1.
         -1    1    1    2    0  501  0.16454728445E+02 -0.16789801099E+02  0.20991008050E+01  0.23602155269E+02  0.00000000000E+00 0.  1.
</event>
<event>
 4    1  0.6754235E+001  0.2084516E+02  0.7546771E-02  0.1521487E+00
          2   -1    0    0  502    0  0.00000000000E+00  0.00000000000E+00  0.53527890441E+01  0.53527890441E+01  0.00000000000E+00 0.  1.
         -2   -1    0    0    0  501 -0.00000000000E+00 -0.00000000000E+00 -0.96691561514E+02  0.96691561514E+02  0.00000000000E+00 0. -1.
          1    1    1    2  502    0  0.10589335985E+02 -0.17955129041E+02 -0.25231245120E+02  0.32728220632E+02  0.00000000000E+00 0.  1.
         -1    1    1    2    0  501 -0.10589335985E+02  0.17955129041E+02 -0.66107527350E+02  0.69316129925E+02  0.00000000000E+00 0. -1.
</event>
<event>
 4    1  0.6754235E+001  0.2430250E+02  0.7546771E-02  0.1476760E+00
          2   -1    0    0  502    0  0.00000000000E+00  0.00000000000E+00  0.17556683375E+03  0.17556683375E+03  0.00000000000E+00 0.  1.
         -2   -1    0    0    0  501 -0.00000000000E+00 -0.00000000000E+00 -0.34233147683E+01  0.34233147683E+01  0.00000000000E+00 0. -1.
          1    1    1    2  502    0  0.24302251134E+02 -0.10933509309E+00  0.74294003888E+02  0.78167834676E+02  0.00000000000E+00 0.  1.
         -1    1    1    2    0  501 -0.24302251134E+02  0.10933509309E+00  0.97849515099E+02  0.10082231385E+03  0.00000000000E+00 0. -1.
</event>
<event>
 4    1  0.6754235E+001  0.2242571E+02  0.7546771E-02  0.1499838E+00
          2   -1    0    0  502    0  0.00000000000E+00  0.00000000000E+00  0.45864290388E+02  0.45864290388E+02  0.00000000000E+00 0. -1.
         -2   -1    0    0    0  501 -0.00000000000E+00 -0.00000000000E+00 -0.17353264108E+02  0.17353264108E+02  0.00000000000E+00 0.  1.
          1    1    1    2  502    0  0.11650295027E+02  0.19162017650E+02  0.33433405104E+02  0.40257978979E+02  0.00000000000E+00 0. -1.
         -1    1    1    2    0  501 -0.11650295027E+02 -0.19162017650E+02 -0.49223788245E+01  0.22959575517E+02  0.00000000000E+00 0.  1.
</event>
<event>
 4    1  0.6754235E+001  0.3362551E+02  0.7546771E-02  0.1390492E+00
          2   -1    0    0  502    0  0.00000000000E+00  0.00000000000E+00  0.64675801949E+01  0.64675801949E+01  0.00000000000E+00 0. -1.
         -2   -1    0    0    0  501 -0.00000000000E+00 -0.00000000000E+00 -0.18864197573E+03  0.18864197573E+03  0.00000000000E+00 0.  1.
          1    1    1    2  502    0 -0.41794585556E+01  0.33364754254E+02 -0.64682300290E+02  0.72900443558E+02  0.00000000000E+00 0. -1.
         -1    1    1    2    0  501  0.41794585556E+01 -0.33364754254E+02 -0.11749209525E+03  0.12220911237E+03  0.00000000000E+00 0.  1.
</event>
<event>
 4    1  0.6754235E+001  0.3006286E+02  0.7546771E-02  0.1419051E+00
          2   -1    0    0  502    0  0.00000000000E+00  0.00000000000E+00  0.82480251359E+02  0.82480251359E+02  0.00000000000E+00 0.  1.
         -2   -1    0    0    0  501 -0.00000000000E+00 -0.00000000000E+00 -0.28564118310E+02  0.28564118310E+02  0.00000000000E+00 0. -1.
          1    1    1    2  502    0  0.27769330054E+02 -0.11516932548E+02  0.70548822295E+02  0.76687102919E+02  0.00000000000E+00 0.  1.
         -1    1    1    2    0  501 -0.27769330054E+02  0.11516932548E+02 -0.16632689246E+02  0.34357266750E+02  0.00000000000E+00 0. -1.
</event>
<event>
 4    1  0.6754235E+001  0.2333354E+02  0.7546771E-02  0.1488352E+00
          2   -1    0    0  502    0  0.00000000000E+00  0.00000000000E+00  0.12047387734E+02  0.12047387734E+02  0.00000000000E+00 0. -1.
         -2   -1    0    0    0  501 -0.00000000000E+00 -0.00000000000E+00 -0.47105901382E+02  0.47105901382E+02  0.00000000000E+00 0.  1.
          1    1    1    2  502    0 -0.20354324723E+02  0.11408568757E+02 -0.23489879354E+02  0.33109340194E+02  0.00000000000E+00 0.  1.
         -1    1    1    2    0  501  0.20354324723E+02 -0.11408568757E+02 -0.11568634294E+02  0.26043948922E+02  0.00000000000E+00 0. -1.
</event>
<event>
 4    1  0.6754235E+001  0.2611753E+02  0.7546771E-02  0.1456680E+00
          2   -1    0    0  502    0  0.00000000000E+00  0.00000000000E+00  0.20321529696E+04  0.20321529696E+04  0.00000000000E+00 0.  1.
         -2   -1    0    0    0  501 -0.00000000000E+00 -0.00000000000E+00 -0.67294865201E+00  0.67294865201E+00  0.00000000000E+00 0. -1.
          1    1    1    2  502    0  0.15839223829E+02  0.20766426355E+02  0.17353148561E+04  0.17355113873E+04  0.00000000000E+00 0.  1.
         -1    1    1    2    0  501 -0.15839223829E+02 -0.20766426355E+02  0.29616516478E+03  0.29731453094E+03  0.00000000000E+00 0. -1.
</event>
<event>
 4    1  0.6754235E+001  0.2104308E+02  0.7546771E-02  0.1518651E+00
          2   -1    0    0  502    0  0.00000000000E+00  0.00000000000E+00  0.46936069843E+02  0.46936069843E+02  0.00000000000E+00 0. -1.
         -2   -1    0    0    0  501 -0.00000000000E+00 -0.00000000000E+00 -0.10105912789E+02  0.10105912789E+02  0.00000000000E+00 0.  1.
          1    1    1    2  502    0  0.10753740612E+02 -0.18087796329E+02  0.11062830711E+02  0.23773883497E+02  0.00000000000E+00 0.  1.
         -1    1    1    2    0  501 -0.10753740612E+02  0.18087796329E+02  0.25767326343E+02  0.33268099135E+02  0.00000000000E+00 0. -1.
</event>
<event>
 4    1  0.6754235E+001  0.2273853E+02  0.7546771E-02  0.1495808E+00
          2   -1    0    0  502    0  0.00000000000E+00  0.00000000000E+00  0.97891826285E+03  0.97891826285E+03  0.00000000000E+00 0.  1.
         -2   -1    0    0    0  501 -0.00000000000E+00 -0.00000000000E+00 -0.86504984293E+00  0.86504984293E+00  0.00000000000E+00 0. -1.
          1    1    1    2  502    0  0.87100315124E+01  0.21004188976E+02  0.18331391356E+03  0.18471879035E+03  0.00000000000E+00 0. -1.
         -1    1    1    2    0  501 -0.87100315124E+01 -0.21004188976E+02  0.79473929945E+03  0.79506452235E+03  0.00000000000E+00 0.  1.
</event>
<event>
 4    1  0.6754235E+001  0.2479886E+02  0.7546771E-02  0.1471066E+00
          2   -1    0    0  502    0  0.00000000000E+00  0.00000000000E+00  0.94204252896E+03  0.94204252896E+03  0.00000000000E+00 0.  1.
         -2   -1    0    0    0  501 -0.00000000000E+00 -0.00000000000E+00 -0.66287879585E+00  0.66287879585E+00  0.00000000000E+00 0. -1.
          1    1    1    2  502    0 -0.20620099012E+01  0.24712987865E+02  0.52875483874E+03  0.52933605879E+03  0.00000000000E+00 0.  1.
         -1    1    1    2    0  501  0.20620099012E+01 -0.24712987865E+02  0.41262481142E+03  0.41336934896E+03  0.00000000000E+00 0. -1.
</event>
<event>
 4    1  0.6754235E+001  0.2493740E+02  0.7546771E-02  0.1469505E+00
          2   -1    0    0  502    0  0.00000000000E+00  0.00000000000E+00  0.82403158062E+02  0.82403158062E+02  0.00000000000E+00 0. -1.
         -2   -1    0    0    0  501 -0.00000000000E+00 -0.00000000000E+00 -0.17627119948E+02  0.17627119948E+02  0.00000000000E+00 0.  1.
          1    1    1    2  502    0  0.24932312883E+02 -0.50378665850E+00  0.70210460594E+02  0.74507602320E+02  0.00000000000E+00 0. -1.
         -1    1    1    2    0  501 -0.24932312883E+02  0.50378665850E+00 -0.54344224797E+01  0.25522675690E+02  0.00000000000E+00 0.  1.
</event>
<event>
 4    1  0.6754235E+001  0.2055712E+02  0.7546771E-02  0.1525683E+00
          2   -1    0    0  502    0  0.00000000000E+00  0.00000000000E+00  0.91741822215E+03  0.91741822215E+03  0.00000000000E+00 0. -1.
         -2   -1    0    0    0  501 -0.00000000000E+00 -0.00000000000E+00 -0.47294135827E+00  0.47294135827E+00  0.00000000000E+00 0.  1.
          1    1    1    2  502    0  0.88283761792E+01 -0.18564887690E+02  0.38444126470E+03  0.38499049506E+03  0.00000000000E+00 0.  1.
         -1    1    1    2    0  501 -0.88283761792E+01  0.18564887690E+02  0.53250401610E+03  0.53290066846E+03  0.00000000000E+00 0. -1.
</event>
<event>
 4    1  0.6754235E+001  0.2615532E+02  0.7546771E-02  0.1456283E+00
          2   -1    0    0  502    0  0.00000000000E+00  0.00000000000E+00  0.15158926933E+03  0.15158926933E+03  0.00000000000E+00 0. -1.
         -2   -1    0    0    0  501 -0.00000000000E+00 -0.00000000000E+00 -0.45415337803E+01  0.45415337803E+01  0.00000000000E+00 0.  1.
          1    1    1    2  502    0  0.26082839765E+02 -0.19458031561E+01  0.67320560813E+02  0.72222978257E+02  0.00000000000E+00 0. -1.
         -1    1    1    2    0  501 -0.26082839765E+02  0.19458031561E+01  0.79727174738E+02  0.83907824855E+02  0.00000000000E+00 0.  1.
</event>
<event>
 4    1  0.6754235E+001  0.3569386E+02  0.7546771E-02  0.1375750E+00
          2   -1    0    0  502    0  0.00000000000E+00  0.00000000000E+00  0.41015741013E+03  0.41015741013E+03  0.00000000000E+00 0.  1.
         -2   -1    0    0    0  501 -0.00000000000E+00 -0.00000000000E+00 -0.36890751369E+01  0.36890751369E+01  0.00000000000E+00 0. -1.
          1    1    1    2  502    0  0.34344414700E+02  0.97217770050E+01  0.28548103706E+03  0.28770379610E+03  0.00000000000E+00 0.  1.
         -1    1    1    2    0  501 -0.34344414700E+02 -0.97217770050E+01  0.12098729793E+03  0.12614268917E+03  0.00000000000E+00 0. -1.
</event>
<event>
 4    1  0.6754235E+001  0.2784374E+02  0.7546771E-02  0.1439312E+00
          2   -1    0    0  502    0  0.00000000000E+00  0.00000000000E+00  0.14719975745E+04  0.14719975745E+04  0.00000000000E+00 0. -1.
         -2   -1    0    0    0  501 -0.00000000000E+00 -0.00000000000E+00 -0.70293349851E+00  0.70293349851E+00  0.00000000000E+00 0.  1.
          1    1    1    2  502    0  0.21117381871E+02 -0.18147449154E+02  0.11043654416E+04  0.11047163900E+04  0.00000000000E+00 0. -1.
         -1    1    1    2    0  501 -0.21117381871E+02  0.18147449154E+02  0.36692919940E+03  0.36798411800E+03  0.00000000000E+00 0.  1.
</event>
<event>
 4    1  0.6754235E+001  0.3279207E+02  0.7546771E-02  0.1396787E+00
          2   -1    0    0  502    0  0.00000000000E+00  0.00000000000E+00  0.13095423165E+04  0.13095423165E+04  0.00000000000E+00 0.  1.
         -2   -1    0    0    0  501 -0.00000000000E+00 -0.00000000000E+00 -0.86717819642E+00  0.86717819642E+00  0.00000000000E+00 0. -1.
          1    1    1    2  502    0 -0.47718953333E+01 -0.32443005861E+02  0.50337312377E+03  0.50444010680E+03  0.00000000000E+00 0. -1.
         -1    1    1    2    0  501  0.47718953333E+01  0.32443005861E+02  0.80530201456E+03  0.80596938793E+03  0.00000000000E+00 0.  1.
</event>
<event>
 4    1  0.6754235E+001  0.5002404E+02  0.7546771E-02  0.1298068E+00
          2   -1    0    0  502    0  0.00000000000E+00  0.00000000000E+00  0.12746577000E+04  0.12746577000E+04  0.00000000000E+00 0. -1.
         -2   -1    0    0    0  501 -0.00000000000E+00 -0.00000000000E+00 -0.19762033815E+01  0.19762033815E+01  0.00000000000E+00 0.  1.
          1    1    1    2  502    0  0.43435274048E+02 -0.24814946632E+02  0.68812445113E+03  0.68994033427E+03  0.00000000000E+00 0. -1.
         -1    1    1    2    0  501 -0.43435274048E+02  0.24814946632E+02  0.58455704552E+03  0.58669356914E+03  0.00000000000E+00 0.  1.
</event>
<event>
 4    1  0.6754235E+001  0.2585883E+02  0.7546771E-02  0.1459421E+00
          2   -1    0    0  502    0  0.00000000000E+00  0.00000000000E+00  0.38447237006E+03  0.38447237006E+03  0.00000000000E+00 0. -1.
         -2   -1    0    0    0  501 -0.00000000000E+00 -0.00000000000E+00 -0.18346967907E+01  0.18346967907E+01  0.00000000000E+00 0.  1.
          1    1    1    2  502    0 -0.15409962481E+02 -0.20765646884E+02  0.14725450713E+03  0.14950775533E+03  0.00000000000E+00 0. -1.
         -1    1    1    2    0  501  0.15409962481E+02  0.20765646884E+02  0.23538316614E+03  0.23679931152E+03  0.00000000000E+00 0.  1.
</event>
<event>
 4    1  0.6754235E+001  0.2419274E+02  0.7546771E-02  0.1478040E+00
          2   -1    0    0  502    0  0.00000000000E+00  0.00000000000E+00  0.12248115017E+04  0.12248115017E+04  0.00000000000E+00 0. -1.
         -2   -1    0    0    0  501 -0.00000000000E+00 -0.00000000000E+00 -0.52841122935E+00  0.52841122935E+00  0.00000000000E+00 0.  1.
          1    1    1    2  502    0  0.22048666440E+02 -0.99571640740E+01  0.80163974093E+03  0.80200471510E+03  0.00000000000E+00 0.  1.
         -1    1    1    2    0  501 -0.22048666440E+02  0.99571640740E+01  0.42264334950E+03  0.42333519778E+03  0.00000000000E+00 0. -1.
</event>
<event>
 4    1  0.6754235E+001  0.2466109E+02  0.7546771E-02  0.1472631E+00
          2   -1    0    0  502    0  0.00000000000E+00  0.00000000000E+00  0.10759981386E+04  0.10759981386E+04  0.00000000000E+00 0.  1.
         -2   -1    0    0    0  501 -0.00000000000E+00 -0.00000000000E+00 -0.64250692384E+00  0.64250692384E+00  0.00000000000E+00 0. -1.
          1    1    1    2  502    0  0.26559121499E+01 -0.24517661345E+02  0.72438918251E+03  0.72480884192E+03  0.00000000000E+00 0. -1.
         -1    1    1    2    0  501 -0.26559121499E+01  0.24517661345E+02  0.35096644916E+03  0.35183180360E+03  0.00000000000E+00 0.  1.
</event>
<event>
 4    1  0.6754235E+001  0.3138611E+02  0.7546771E-02  0.1407922E+00
          2   -1    0    0  502    0  0.00000000000E+00  0.00000000000E+00  0.18404476548E+04  0.18404476548E+04  0.00000000000E+00 0.  1.
         -2   -1    0    0    0  501 -0.00000000000E+00 -0.00000000000E+00 -0.57678994831E+00  0.57678994831E+00  0.00000000000E+00 0. -1.
          1    1    1    2  502    0  0.15778402210E+02 -0.27131710822E+02  0.11669869280E+04  0.11674089163E+04  0.00000000000E+00 0.  1.
         -1    1    1    2    0  501 -0.15778402210E+02  0.27131710822E+02  0.67288393690E+03  0.67361552851E+03  0.00000000000E+00 0. -1.
</event>
<event>
 4    1  0.6754235E+001  0.2019741E+02  0.7546771E-02  0.1531039E+00
          2   -1    0    0  502    0  0.00000000000E+00  0.00000000000E+00  0.31665657517E+03  0.31665657517E+03  0.00000000000E+00 0. -1.
         -2   -1    0    0    0  501 -0.00000000000E+00 -0.00000000000E+00 -0.14681871709E+01  0.14681871709E+01  0.00000000000E+00 0.  1.
          1    1    1    2  502    0 -0.33876445251E+01 -0.19911284346E+02  0.21327781963E+03  0.21423203245E+03  0.00000000000E+00 0. -1.
         -1    1    1    2    0  501  0.33876445251E+01  0.19911284346E+02  0.10191056837E+03  0.10389272989E+03  0.00000000000E+00 0.  1.
</event>
<event>
 4    1  0.6754235E+001  0.1051352E+03  0.7546771E-02  0.1155195E+00
          2   -1    0    0  502    0  0.00000000000E+00  0.00000000000E+00  0.45677852989E+03  0.45677852989E+03  0.00000000000E+00 0.  1.
         -2   -1    0    0    0  501 -0.00000000000E+00 -0.00000000000E+00 -0.26288228163E+02  0.26288228163E+02  0.00000000000E+00 0. -1.
          1    1    1    2  502    0 -0.87693325249E+02 -0.57993815344E+02  0.14714771123E+03  0.18084759006E+03  0.00000000000E+00 0. -1.
         -1    1    1    2    0  501  0.87693325249E+02  0.57993815344E+02  0.28334259050E+03  0.30221916799E+03  0.00000000000E+00 0.  1.
</event>
<event>
 4    1  0.6754235E+001  0.2004913E+02  0.7546771E-02  0.1533286E+00
          2   -1    0    0  502    0  0.00000000000E+00  0.00000000000E+00  0.19337432484E+03  0.19337432484E+03  0.00000000000E+00 0. -1.
         -2   -1    0    0    0  501 -0.00000000000E+00 -0.00000000000E+00 -0.23673033196E+01  0.23673033196E+01  0.00000000000E+00 0.  1.
          1    1    1    2  502    0 -0.13021515430E+02 -0.15244923884E+02  0.12967591306E+03  0.13121665289E+03  0.00000000000E+00 0. -1.
         -1    1    1    2    0  501  0.13021515430E+02  0.15244923884E+02  0.61331108467E+02  0.64524975273E+02  0.00000000000E+00 0.  1.
</event>
<event>
 4    1  0.6754235E+001  0.3608595E+02  0.7546771E-02  0.1373085E+00
          2   -1    0    0  502    0  0.00000000000E+00  0.00000000000E+00  0.18501687386E+04  0.18501687386E+04  0.00000000000E+00 0. -1.
         -2   -1    0    0    0  501 -0.00000000000E+00 -0.00000000000E+00 -0.72367026544E+00  0.72367026544E+00  0.00000000000E+00 0.  1.
          1    1    1    2  502    0  0.35966847492E+02  0.29293970290E+01  0.10779746479E+04  0.10785784798E+04  0.00000000000E+00 0.  1.
         -1    1    1    2    0  501 -0.35966847492E+02 -0.29293970290E+01  0.77147042048E+03  0.77231392915E+03  0.00000000000E+00 0. -1.
</event>
<event>
 4    1  0.6754235E+001  0.2565857E+02  0.7546771E-02  0.1461569E+00
          2   -1    0    0  502    0  0.00000000000E+00  0.00000000000E+00  0.27439258206E+03  0.27439258206E+03  0.00000000000E+00 0. -1.
         -2   -1    0    0    0  501 -0.00000000000E+00 -0.00000000000E+00 -0.24199902412E+01  0.24199902412E+01  0.00000000000E+00 0.  1.
          1    1    1    2  502    0  0.82844454178E+01  0.24284364940E+02  0.12320246451E+03  0.12584597601E+03  0.00000000000E+00 0.  1.
         -1    1    1    2    0  501 -0.82844454178E+01 -0.24284364940E+02  0.14877012731E+03  0.15096659630E+03  0.00000000000E+00 0. -1.
</event>
<event>
 4    1  0.6754235E+001  0.2068333E+02  0.7546771E-02  0.1523834E+00
          2   -1    0    0  502    0  0.00000000000E+00  0.00000000000E+00  0.59998499044E+03  0.59998499044E+03  0.00000000000E+00 0.  1.
         -2   -1    0    0    0  501 -0.00000000000E+00 -0.00000000000E+00 -0.25990268944E+01  0.25990268944E+01  0.00000000000E+00 0. -1.
          1    1    1    2  502    0  0.12243476933E+02  0.16670254589E+02  0.42035404200E+02  0.46848429234E+02  0.00000000000E+00 0. -1.
         -1    1    1    2    0  501 -0.12243476933E+02 -0.16670254589E+02  0.55535055935E+03  0.55573558810E+03  0.00000000000E+00 0.  1.
</event>
<event>
 4    1  0.6754235E+001  0.2471343E+02  0.7546771E-02  0.1472035E+00
          2   -1    0    0  502    0  0.00000000000E+00  0.00000000000E+00  0.46221540826E+01  0.46221540826E+01  0.00000000000E+00 0. -1.
         -2   -1    0    0    0  501 -0.00000000000E+00 -0.00000000000E+00 -0.15914020758E+03  0.15914020758E+03  0.00000000000E+00 0.  1.
          1    1    1    2  502    0  0.80842623921E+01  0.23353768343E+02 -0.11098840925E+03  0.11370655558E+03  0.00000000000E+00 0.  1.
         -1    1    1    2    0  501 -0.80842623921E+01 -0.23353768343E+02 -0.43529644252E+02  0.50055806086E+02  0.00000000000E+00 0. -1.
</event>
<event>
 4    1  0.6754235E+001  0.2833754E+02  0.7546771E-02  0.1434616E+00
          2   -1    0    0  502    0  0.00000000000E+00  0.00000000000E+00  0.14645459766E+02  0.14645459766E+02  0.00000000000E+00 0.  1.
         -2   -1    0    0    0  501 -0.00000000000E+00 -0.00000000000E+00 -0.66255769382E+02  0.66255769382E+02  0.00000000000E+00 0. -1.
          1    1    1    2  502    0 -0.21374984641E+02 -0.18604468016E+02 -0.42602810771E+02  0.51166548488E+02  0.00000000000E+00 0. -1.
         -1    1    1    2    0  501  0.21374984641E+02  0.18604468016E+02 -0.90074988450E+01  0.29734680661E+02  0.00000000000E+00 0.  1.
</event>
<event>
 4    1  0.6754235E+001  0.2481292E+02  0.7546771E-02  0.1470907E+00
          2   -1    0    0  502    0  0.00000000000E+00  0.00000000000E+00  0.62418860237E+03  0.62418860237E+03  0.00000000000E+00 0.  1.
         -2   -1    0    0    0  501 -0.00000000000E+00 -0.00000000000E+00 -0.14595071827E+01  0.14595071827E+01  0.00000000000E+00 0. -1.
          1    1    1    2  502    0  0.23936404313E+02  0.65367738580E+01  0.13325360682E+03  0.13554410572E+03  0.00000000000E+00 0. -1.
         -1    1    1    2    0  501 -0.23936404313E+02 -0.65367738580E+01  0.48947548837E+03  0.49010400383E+03  0.00000000000E+00 0.  1.
</event>
<event>
 4    1  0.6754235E+001  0.3307661E+02  0.7546771E-02  0.1394614E+00
          2   -1    0    0  502    0  0.00000000000E+00  0.00000000000E+00  0.50098293705E+03  0.50098293705E+03  0.00000000000E+00 0.  1.
         -2   -1    0    0    0  501 -0.00000000000E+00 -0.00000000000E+00 -0.32277630613E+01  0.32277630613E+01  0.00000000000E+00 0. -1.
          1    1    1    2  502    0 -0.31510451687E+02 -0.10057514378E+02  0.39225056895E+03  0.39364269458E+03  0.00000000000E+00 0.  1.
         -1    1    1    2    0  501  0.31510451687E+02  0.10057514378E+02  0.10550460504E+03  0.11056800552E+03  0.00000000000E+00 0. -1.
</event>
<event>
 4    1  0.6754235E+001  0.3135957E+02  0.7546771E-02  0.1408139E+00
          2   -1    0    0  502    0  0.00000000000E+00  0.00000000000E+00  0.30915371110E+02  0.30915371110E+02  0.00000000000E+00 0.  1.
         -2   -1    0    0    0  501 -0.00000000000E+00 -0.00000000000E+00 -0.34041687358E+02  0.34041687358E+02  0.00000000000E+00 0. -1.
          1    1    1    2  502    0  0.23833455783E+02 -0.20381093505E+02 -0.98787451411E+01  0.32878749863E+02  0.00000000000E+00 0. -1.
         -1    1    1    2    0  501 -0.23833455783E+02  0.20381093505E+02  0.67524288926E+01  0.32078308605E+02  0.00000000000E+00 0.  1.
</event>
<event>
 4    1  0.6754235E+001  0.4669053E+02  0.7546771E-02  0.1313196E+00
          2   -1    0    0  502    0  0.00000000000E+00  0.00000000000E+00  0.92698080788E+03  0.92698080788E+03  0.00000000000E+00 0.  1.
         -2   -1    0    0    0  501 -0.00000000000E+00 -0.00000000000E+00 -0.23552644803E+01  0.23552644803E+01  0.00000000000E+00 0. -1.
          1    1    1    2  502    0  0.33042429176E+02  0.32987922813E+02  0.48032265223E+03  0.48258662997E+03  0.00000000000E+00 0. -1.
         -1    1    1    2    0  501 -0.33042429176E+02 -0.32987922813E+02  0.44430289117E+03  0.44674944240E+03  0.00000000000E+00 0.  1.
</event>
<event>
 4    1  0.6754235E+001  0.2369658E+02  0.7546771E-02  0.1483932E+00
          2   -1    0    0  502    0  0.00000000000E+00  0.00000000000E+00  0.29569719840E+03  0.29569719840E+03  0.00000000000E+00 0. -1.
         -2   -1    0    0    0  501 -0.00000000000E+00 -0.00000000000E+00 -0.22149371585E+01  0.22149371585E+01  0.00000000000E+00 0.  1.
          1    1    1    2  502    0  0.76838438081E+01 -0.22416204923E+02  0.90483579190E+02  0.93535051194E+02  0.00000000000E+00 0.  1.
         -1    1    1    2    0  501 -0.76838438081E+01  0.22416204923E+02  0.20299868205E+03  0.20437708436E+03  0.00000000000E+00 0. -1.
</event>
<event>
 4    1  0.6754235E+001  0.2767076E+02  0.7546771E-02  0.1440984E+00
          2   -1    0    0  502    0  0.00000000000E+00  0.00000000000E+00  0.38266700110E+03  0.38266700110E+03  0.00000000000E+00 0. -1.
         -2   -1    0    0    0  501 -0.00000000000E+00 -0.00000000000E+00 -0.29969107495E+01  0.29969107495E+01  0.00000000000E+00 0.  1.
          1    1    1    2  502    0  0.25212291743E+02 -0.11402246066E+02  0.30100269022E+03  0.30227188157E+03  0.00000000000E+00 0. -1.
         -1    1    1    2    0  501 -0.25212291743E+02  0.11402246066E+02  0.78667400131E+02  0.83392030277E+02  0.00000000000E+00 0.  1.
</event>
<event>
 4    1  0.6754235E+001  0.2886429E+02  0.7546771E-02  0.1429729E+00
          2   -1    0    0  502    0  0.00000000000E+00  0.00000000000E+00  0.12353428876E+03  0.12353428876E+03  0.00000000000E+00 0. -1.
         -2   -1    0    0    0  501 -0.00000000000E+00 -0.00000000000E+00 -0.67758639619E+01  0.67758639619E+01  0.00000000000E+00 0.  1.
          1    1    1    2  502    0  0.26893927449E+02  0.10481604128E+02  0.62828975438E+02  0.69142082073E+02  0.00000000000E+00 0. -1.
         -1    1    1    2    0  501 -0.26893927449E+02 -0.10481604128E+02  0.53929449362E+02  0.61168070652E+02  0.00000000000E+00 0.  1.
</event>
<event>
 4    1  0.6754235E+001  0.2245834E+02  0.7546771E-02  0.1499414E+00
          2   -1    0    0  502    0  0.00000000000E+00  0.00000000000E+00  0.40407267920E+03  0.40407267920E+03  0.00000000000E+00 0. -1.
         -2   -1    0    0    0  501 -0.00000000000E+00 -0.00000000000E+00 -0.12976842497E+01  0.12976842497E+01  0.00000000000E+00 0.  1.
          1    1    1    2  502    0 -0.18675848215E+02  0.12473559007E+02  0.24095373222E+03  0.24199809514E+03  0.00000000000E+00 0. -1.
         -1    1    1    2    0  501  0.18675848215E+02 -0.12473559007E+02  0.16182126273E+03  0.16337226831E+03  0.00000000000E+00 0.  1.
</event>
<event>
 4    1  0.6754235E+001  0.2448846E+02  0.7546771E-02  0.1474608E+00
          2   -1    0    0  502    0  0.00000000000E+00  0.00000000000E+00  0.25521443437E+02  0.25521443437E+02  0.00000000000E+00 0. -1.
         -2   -1    0    0    0  501 -0.00000000000E+00 -0.00000000000E+00 -0.25144375991E+02  0.25144375991E+02  0.00000000000E+00 0.  1.
          1    1    1    2  502    0  0.23070899413E+02  0.82108614973E+01 -0.62951729121E+01  0.25284656380E+02  0.00000000000E+00 0.  1.
         -1    1    1    2    0  501 -0.23070899413E+02 -0.82108614973E+01  0.66722403578E+01  0.25381163048E+02  0.00000000000E+00 0. -1.
</event>
<event>
 4    1  0.6754235E+001  0.3559653E+02  0.7546771E-02  0.1376417E+00
          2   -1    0    0  502    0  0.00000000000E+00  0.00000000000E+00  0.13447387116E+04  0.13447387116E+04  0.00000000000E+00 0. -1.
         -2   -1    0    0    0  501 -0.00000000000E+00 -0.00000000000E+00 -0.98327229340E+00  0.98327229340E+00  0.00000000000E+00 0.  1.
          1    1    1    2  502    0 -0.44457396157E+01 -0.35317814150E+02  0.80927251064E+03  0.81005500373E+03  0.00000000000E+00 0. -1.
         -1    1    1    2    0  501  0.44457396157E+01  0.35317814150E+02  0.53448292872E+03  0.53566698021E+03  0.00000000000E+00 0.  1.
</event>
<event>
 4    1  0.6754235E+001  0.3436535E+02  0.7546771E-02  0.1385081E+00
          2   -1    0    0  502    0  0.00000000000E+00  0.00000000000E+00  0.53302170697E+03  0.53302170697E+03  0.00000000000E+00 0.  1.
         -2   -1    0    0    0  501 -0.00000000000E+00 -0.00000000000E+00 -0.32513794181E+01  0.32513794181E+01  0.00000000000E+00 0. -1.
          1    1    1    2  502    0 -0.22664870844E+02 -0.25831779850E+02  0.11354639949E+03  0.11863288776E+03  0.00000000000E+00 0. -1.
         -1    1    1    2    0  501  0.22664870844E+02  0.25831779850E+02  0.41622392806E+03  0.41764019863E+03  0.00000000000E+00 0.  1.
</event>
<event>
 4    1  0.6754235E+001  0.2556747E+02  0.7546771E-02  0.1462554E+00
          2   -1    0    0  502    0  0.00000000000E+00  0.00000000000E+00  0.19608320537E+01  0.19608320537E+01  0.00000000000E+00 0. -1.
         -2   -1    0    0    0  501 -0.00000000000E+00 -0.00000000000E+00 -0.39371928166E+03  0.39371928166E+03  0.00000000000E+00 0.  1.
          1    1    1    2  502    0  0.24649378153E+02 -0.67899601024E+01 -0.27333136319E+03  0.27452455173E+03  0.00000000000E+00 0.  1.
         -1    1    1    2    0  501 -0.24649378153E+02  0.67899601024E+01 -0.11842708641E+03  0.12115556198E+03  0.00000000000E+00 0. -1.
</event>
<event>
 4    1  0.6754235E+001  0.3161796E+02  0.7546771E-02  0.1406039E+00
          2   -1    0    0  502    0  0.00000000000E+00  0.00000000000E+00  0.22697805505E+03  0.22697805505E+03  0.00000000000E+00 0. -1.
         -2   -1    0    0    0  501 -0.00000000000E+00 -0.00000000000E+00 -0.44053119939E+01  0.44053119939E+01  0.00000000000E+00 0.  1.
          1    1    1    2  502    0 -0.25235657943E+02  0.19048812486E+02  0.10959601052E+03  0.11406568814E+03  0.00000000000E+00 0.  1.
         -1    1    1    2    0  501  0.25235657943E+02 -0.19048812486E+02  0.11297673254E+03  0.11731767891E+03  0.00000000000E+00 0. -1.
</event>
<event>
 4    1  0.6754235E+001  0.2832582E+02  0.7546771E-02  0.1434726E+00
          2   -1    0    0  502    0  0.00000000000E+00  0.00000000000E+00  0.10653097707E+03  0.10653097707E+03  0.00000000000E+00 0. -1.
         -2   -1    0    0    0  501 -0.00000000000E+00 -0.00000000000E+00 -0.90083649118E+01  0.90083649118E+01  0.00000000000E+00 0.  1.
          1    1    1    2  502    0  0.35059746840E+01 -0.28108011110E+02  0.25371434191E+02  0.38027119533E+02  0.00000000000E+00 0. -1.
         -1    1    1    2    0  501 -0.35059746840E+01  0.28108011110E+02  0.72151177967E+02  0.77512222450E+02  0.00000000000E+00 0.  1.
</event>
<event>
 4    1  0.6754235E+001  0.2074859E+02  0.7546771E-02  0.1522885E+00
          2   -1    0    0  502    0  0.00000000000E+00  0.00000000000E+00  0.39860840701E+01  0.39860840701E+01  0.00000000000E+00 0. -1.
         -2   -1    0    0    0  501 -0.00000000000E+00 -0.00000000000E+00 -0.10800686612E+03  0.10800686612E+03  0.00000000000E+00 0.  1.
          1    1    1    2  502    0 -0.19092398543E+02  0.81230667292E+01 -0.51623487492E+02  0.55637113118E+02  0.00000000000E+00 0.  1.
         -1    1    1    2    0  501  0.19092398543E+02 -0.81230667292E+01 -0.52397294560E+02  0.56355837075E+02  0.00000000000E+00 0. -1.
</event>
<event>
 4    1  0.6754235E+001  0.2155082E+02  0.7546771E-02  0.1511544E+00
          2   -1    0    0  502    0  0.00000000000E+00  0.00000000000E+00  0.43325507504E+02  0.43325507504E+02  0.00000000000E+00 0. -1.
         -2   -1    0    0    0  501 -0.00000000000E+00 -0.00000000000E+00 -0.13353230076E+02  0.13353230076E+02  0.00000000000E+00 0.  1.
          1    1    1    2  502    0 -0.15421427629E+02 -0.15053823240E+02  0.27571426135E+02  0.34994593345E+02  0.00000000000E+00 0. -1.
         -1    1    1    2    0  501  0.15421427629E+02  0.15053823240E+02  0.24008512926E+01  0.21684144235E+02  0.00000000000E+00 0.  1.
</event>
<event>
 4    1  0.6754235E+001  0.2226753E+02  0.7546771E-02  0.1501907E+00
          2   -1    0    0  502    0  0.00000000000E+00  0.00000000000E+00  0.44074443355E+02  0.44074443355E+02  0.00000000000E+00 0. -1.
         -2   -1    0    0    0  501 -0.00000000000E+00 -0.00000000000E+00 -0.11315593071E+02  0.11315593071E+02  0.00000000000E+00 0.  1.
          1    1    1    2  502    0  0.93388273658E+01  0.20214574891E+02  0.14272750248E+02  0.26449085697E+02  0.00000000000E+00 0.  1.
         -1    1    1    2    0  501 -0.93388273658E+01 -0.20214574891E+02  0.18486100036E+02  0.28940950729E+02  0.00000000000E+00 0. -1.
</event>
<event>
 4    1  0.6754235E+001  0.3225058E+02  0.7546771E-02  0.1400996E+00
          2   -1    0    0  502    0  0.00000000000E+00  0.00000000000E+00  0.79105930312E+01  0.79105930312E+01  0.00000000000E+00 0. -1.
         -2   -1    0    0    0  501 -0.00000000000E+00 -0.00000000000E+00 -0.13262791938E+03  0.13262791938E+03  0.00000000000E+00 0.  1.
          1    1    1    2  502    0 -0.13097423491E+02 -0.29471298506E+02 -0.55826746970E+02  0.64472673397E+02  0.00000000000E+00 0.  1.
         -1    1    1    2    0  501  0.13097423491E+02  0.29471298506E+02 -0.68890579376E+02  0.76065839011E+02  0.00000000000E+00 0. -1.
</event>
<event>
 4    1  0.6754235E+001  0.2720496E+02  0.7546771E-02  0.1445560E+00
          2   -1    0    0  502    0  0.00000000000E+00  0.00000000000E+00  0.54859801601E+03  0.54859801601E+03  0.00000000000E+00 0. -1.
         -2   -1    0    0    0  501 -0.00000000000E+00 -0.00000000000E+00 -0.13506241976E+01  0.13506241976E+01  0.00000000000E+00 0.  1.
          1    1    1    2  502    0  0.12489543126E+02  0.24168596994E+02  0.26436533614E+03  0.26576143573E+03  0.00000000000E+00 0.  1.
         -1    1    1    2    0  501 -0.12489543126E+02 -0.24168596994E+02  0.28288205568E+03  0.28418720448E+03  0.00000000000E+00 0. -1.
</event>
<event>
 4    1  0.6754235E+001  0.4761235E+02  0.7546771E-02  0.1308870E+00
          2   -1    0    0  502    0  0.00000000000E+00  0.00000000000E+00  0.19445763670E+04  0.19445763670E+04  0.00000000000E+00 0.  1.
         -2   -1    0    0    0  501 -0.00000000000E+00 -0.00000000000E+00 -0.11998991617E+01  0.11998991617E+01  0.00000000000E+00 0. -1.
          1    1    1    2  502    0 -0.42723728096E+02 -0.21014721052E+02  0.80761732798E+03  0.80901958190E+03  0.00000000000E+00 0.  1.
         -1    1    1    2    0  501  0.42723728096E+02  0.21014721052E+02  0.11357591399E+04  0.11367566843E+04  0.00000000000E+00 0. -1.
</event>
<event>
 4    1  0.6754235E+001  0.2134721E+02  0.7546771E-02  0.1514365E+00
          2   -1    0    0  502    0  0.00000000000E+00  0.00000000000E+00  0.70716216392E+03  0.70716216392E+03  0.00000000000E+00 0. -1.
         -2   -1    0    0    0  501 -0.00000000000E+00 -0.00000000000E+00 -0.65096704068E+00  0.65096704068E+00  0.00000000000E+00 0.  1.
          1    1    1    2  502    0  0.13726379882E+02 -0.16349002586E+02  0.38877088132E+03  0.38935652243E+03  0.00000000000E+00 0.  1.
         -1    1    1    2    0  501 -0.13726379882E+02  0.16349002586E+02  0.31774031555E+03  0.31845660853E+03  0.00000000000E+00 0. -1.
</event>
<event>
 4    1  0.6754235E+001  0.3833457E+02  0.7546771E-02  0.1358531E+00
          2   -1    0    0  502    0  0.00000000000E+00  0.00000000000E+00  0.56220785409E+03  0.56220785409E+03  0.00000000000E+00 0. -1.
         -2   -1    0    0    0  501 -0.00000000000E+00 -0.00000000000E+00 -0.94800848804E+01  0.94800848804E+01  0.00000000000E+00 0.  1.
          1    1    1    2  502    0 -0.33470092834E+02  0.18689364978E+02  0.51962995917E+03  0.52104206542E+03  0.00000000000E+00 0. -1.
         -1    1    1    2    0  501  0.33470092834E+02 -0.18689364978E+02  0.33097810041E+02  0.50645873545E+02  0.00000000000E+00 0.  1.
</event>
<event>
 4    1  0.6754235E+001  0.2172666E+02  0.7546771E-02  0.1509138E+00
          2   -1    0    0  502    0  0.00000000000E+00  0.00000000000E+00  0.35357870398E+01  0.35357870398E+01  0.00000000000E+00 0. -1.
         -2   -1    0    0    0  501 -0.00000000000E+00 -0.00000000000E+00 -0.17444025432E+03  0.17444025432E+03  0.00000000000E+00 0.  1.
          1    1    1    2  502    0  0.21169834361E+02  0.48873086737E+01 -0.12855977970E+03  0.13038276201E+03  0.00000000000E+00 0.  1.
         -1    1    1    2    0  501 -0.21169834361E+02 -0.48873086737E+01 -0.42344687575E+02  0.47593279344E+02  0.00000000000E+00 0. -1.
</event>
<event>
 4    1  0.6754235E+001  0.7250425E+02  0.7546771E-02  0.1222407E+00
          2   -1    0    0  502    0  0.00000000000E+00  0.00000000000E+00  0.19515936098E+03  0.19515936098E+03  0.00000000000E+00 0. -1.
         -2   -1    0    0    0  501 -0.00000000000E+00 -0.00000000000E+00 -0.31979089982E+02  0.31979089982E+02  0.00000000000E+00 0.  1.
          1    1    1    2  502    0 -0.50690003939E+02  0.51840045870E+02  0.12668883202E+03  0.14596892482E+03  0.00000000000E+00 0. -1.
         -1    1    1    2    0  501  0.50690003939E+02 -0.51840045870E+02  0.36491438980E+02  0.81169526141E+02  0.00000000000E+00 0.  1.
</event>
<event>
 4    1  0.6754235E+001  0.3782792E+02  0.7546771E-02  0.1361707E+00
          2   -1    0    0  502    0  0.00000000000E+00  0.00000000000E+00  0.16241402030E+03  0.16241402030E+03  0.00000000000E+00 0.  1.
         -2   -1    0    0    0  501 -0.00000000000E+00 -0.00000000000E+00 -0.88527747289E+01  0.88527747289E+01  0.00000000000E+00 0. -1.
          1    1    1    2  502    0  0.63606610379E+01 -0.37289323555E+02  0.70864310822E+02  0.80328713474E+02  0.00000000000E+00 0.  1.
         -1    1    1    2    0  501 -0.63606610379E+01  0.37289323555E+02  0.82696934745E+02  0.90938081551E+02  0.00000000000E+00 0. -1.
</event>
<event>
 4    1  0.6754235E+001  0.4573043E+02  0.7546771E-02  0.1317827E+00
          2   -1    0    0  502    0  0.00000000000E+00  0.00000000000E+00  0.53206027430E+02  0.53206027430E+02  0.00000000000E+00 0. -1.
         -2   -1    0    0    0  501 -0.00000000000E+00 -0.00000000000E+00 -0.39696915396E+02  0.39696915396E+02  0.00000000000E+00 0.  1.
          1    1    1    2  502    0  0.43341287531E+02  0.14587832815E+02  0.11369025909E+02  0.47122466204E+02  0.00000000000E+00 0. -1.
         -1    1    1    2    0  501 -0.43341287531E+02 -0.14587832815E+02  0.21400861254E+01  0.45780476621E+02  0.00000000000E+00 0.  1.
</event>
<event>
 4    1  0.6754235E+001  0.2731246E+02  0.7546771E-02  0.1444494E+00
          2   -1    0    0  502    0  0.00000000000E+00  0.00000000000E+00  0.86349769986E+03  0.86349769986E+03  0.00000000000E+00 0. -1.
         -2   -1    0    0    0  501 -0.00000000000E+00 -0.00000000000E+00 -0.20004179499E+01  0.20004179499E+01  0.00000000000E+00 0.  1.
          1    1    1    2  502    0  0.97934961224E+01  0.25496230950E+02  0.10456281608E+03  0.10807105471E+03  0.00000000000E+00 0.  1.
         -1    1    1    2    0  501 -0.97934961224E+01 -0.25496230950E+02  0.75693446582E+03  0.75742706309E+03  0.00000000000E+00 0. -1.
</event>
<event>
 4    1  0.6754235E+001  0.3912332E+02  0.7546771E-02  0.1353701E+00
          2   -1    0    0  502    0  0.00000000000E+00  0.00000000000E+00  0.56415307426E+02  0.56415307426E+02  0.00000000000E+00 0.  1.
         -2   -1    0    0    0  501 -0.00000000000E+00 -0.00000000000E+00 -0.33658401742E+02  0.33658401742E+02  0.00000000000E+00 0. -1.
          1    1    1    2  502    0 -0.37937758486E+02  0.95582875159E+01 -0.84538611498E+01  0.40026268219E+02  0.00000000000E+00 0. -1.
         -1    1    1    2    0  501  0.37937758486E+02 -0.95582875159E+01  0.31210766834E+02  0.50047440949E+02  0.00000000000E+00 0.  1.
</event>
<event>
 4    1  0.6754235E+001  0.2373423E+02  0.7546771E-02  0.1483479E+00
          2   -1    0    0  502    0  0.00000000000E+00  0.00000000000E+00  0.18161056006E+03  0.18161056006E+03  0.00000000000E+00 0. -1.
         -2   -1    0    0    0  501 -0.00000000000E+00 -0.00000000000E+00 -0.31727972260E+01  0.31727972260E+01  0.00000000000E+00 0.  1.
          1    1    1    2  502    0  0.27861511120E+01 -0.23570125240E+02  0.75394787755E+02  0.79042314380E+02  0.00000000000E+00 0. -1.
         -1    1    1    2    0  501 -0.27861511120E+01  0.23570125240E+02  0.10304297508E+03  0.10574104290E+03  0.00000000000E+00 0.  1.
</event>
<event>
 4    1  0.6754235E+001  0.2043474E+02  0.7546771E-02  0.1527490E+00
          2   -1    0    0  502    0  0.00000000000E+00  0.00000000000E+00  0.17500987894E+02  0.17500987894E+02  0.00000000000E+00 0.  1.
         -2   -1    0    0    0  501 -0.00000000000E+00 -0.00000000000E+00 -0.26648928890E+02  0.26648928890E+02  0.00000000000E+00 0. -1.
          1    1    1    2  502    0 -0.87888365064E+01  0.18448163962E+02 -0.11714941144E+02  0.23554580164E+02  0.00000000000E+00 0. -1.
         -1    1    1    2    0  501  0.87888365064E+01 -0.18448163962E+02  0.25670001478E+01  0.20595336619E+02  0.00000000000E+00 0.  1.
</event>
<event>
 4    1  0.6754235E+001  0.2648082E+02  0.7546771E-02  0.1452894E+00
          2   -1    0    0  502    0  0.00000000000E+00  0.00000000000E+00  0.18211155692E+04  0.18211155692E+04  0.00000000000E+00 0. -1.
         -2   -1    0    0    0  501 -0.00000000000E+00 -0.00000000000E+00 -0.41470628089E+00  0.41470628089E+00  0.00000000000E+00 0.  1.
          1    1    1    2  502    0  0.24220126435E+02  0.10706046303E+02  0.11538737442E+04  0.11541775650E+04  0.00000000000E+00 0.  1.
         -1    1    1    2    0  501 -0.24220126435E+02 -0.10706046303E+02  0.66682711870E+03  0.66735271048E+03  0.00000000000E+00 0. -1.
</event>
<event>
 4    1  0.6754235E+001  0.4119814E+02  0.7546771E-02  0.1341604E+00
          2   -1    0    0  502    0  0.00000000000E+00  0.00000000000E+00  0.76435015189E+03  0.76435015189E+03  0.00000000000E+00 0.  1.
         -2   -1    0    0    0  501 -0.00000000000E+00 -0.00000000000E+00 -0.22227101987E+01  0.22227101987E+01  0.00000000000E+00 0. -1.
          1    1    1    2  502    0 -0.30570027795E+02 -0.27618111943E+02  0.39298012082E+03  0.39513372681E+03  0.00000000000E+00 0. -1.
         -1    1    1    2    0  501  0.30570027795E+02  0.27618111943E+02  0.36914732088E+03  0.37143913528E+03  0.00000000000E+00 0.  1.
</event>
<event>
 4    1  0.6754235E+001  0.2199267E+02  0.7546771E-02  0.1505550E+00
          2   -1    0    0  502    0  0.00000000000E+00  0.00000000000E+00  0.98037159560E+03  0.98037159560E+03  0.00000000000E+00 0. -1.
         -2   -1    0    0    0  501 -0.00000000000E+00 -0.00000000000E+00 -0.66998120363E+00  0.66998120363E+00  0.00000000000E+00 0.  1.
          1    1    1    2  502    0  0.12343616190E+02 -0.18201997962E+02  0.74170297728E+03  0.74202896446E+03  0.00000000000E+00 0. -1.
         -1    1    1    2    0  501 -0.12343616190E+02  0.18201997962E+02  0.23799863711E+03  0.23901261234E+03  0.00000000000E+00 0.  1.
</event>
<event>
 4    1  0.6754235E+001  0.2479690E+02  0.7546771E-02  0.1471088E+00
          2   -1    0    0  502    0  0.00000000000E+00  0.00000000000E+00  0.22772427350E+03  0.22772427350E+03  0.00000000000E+00 0. -1.
         -2   -1    0    0    0  501 -0.00000000000E+00 -0.00000000000E+00 -0.42026342472E+01  0.42026342472E+01  0.00000000000E+00 0.  1.
          1    1    1    2  502    0 -0.23105843245E+02  0.90003362847E+01  0.18109823130E+03  0.18278800678E+03  0.00000000000E+00 0. -1.
         -1    1    1    2    0  501  0.23105843245E+02 -0.90003362847E+01  0.42423407959E+02  0.49138900966E+02  0.00000000000E+00 0.  1.
</event>
<event>
 4    1  0.6754235E+001  0.3351550E+02  0.7546771E-02  0.1391311E+00
          2   -1    0    0  502    0  0.00000000000E+00  0.00000000000E+00  0.11021575265E+04  0.11021575265E+04  0.00000000000E+00 0. -1.
         -2   -1    0    0    0  501 -0.00000000000E+00 -0.00000000000E+00 -0.10229299731E+01  0.10229299731E+01  0.00000000000E+00 0.  1.
          1    1    1    2  502    0  0.20853658817E+02 -0.26237636702E+02  0.51713699692E+03  0.51822192374E+03  0.00000000000E+00 0. -1.
         -1    1    1    2    0  501 -0.20853658817E+02  0.26237636702E+02  0.58399759966E+03  0.58495853278E+03  0.00000000000E+00 0.  1.
</event>
<event>
 4    1  0.6754235E+001  0.2191656E+02  0.7546771E-02  0.1506570E+00
          2   -1    0    0  502    0  0.00000000000E+00  0.00000000000E+00  0.33198453142E+01  0.33198453142E+01  0.00000000000E+00 0.  1.
         -2   -1    0    0    0  501 -0.00000000000E+00 -0.00000000000E+00 -0.20650033907E+03  0.20650033907E+03  0.00000000000E+00 0. -1.
          1    1    1    2  502    0  0.13733554981E+02 -0.17079961280E+02 -0.15898880742E+03  0.16049229419E+03  0.00000000000E+00 0. -1.
         -1    1    1    2    0  501 -0.13733554981E+02  0.17079961280E+02 -0.44191686333E+02  0.49327890190E+02  0.00000000000E+00 0.  1.
</event>
<event>
 4    1  0.6754235E+001  0.2103471E+02  0.7546771E-02  0.1518770E+00
          2   -1    0    0  502    0  0.00000000000E+00  0.00000000000E+00  0.11737844123E+04  0.11737844123E+04  0.00000000000E+00 0. -1.
         -2   -1    0    0    0  501 -0.00000000000E+00 -0.00000000000E+00 -0.37956827079E+00  0.37956827079E+00  0.00000000000E+00 0.  1.
          1    1    1    2  502    0  0.13925144922E+02 -0.15765449299E+02  0.63545404909E+03  0.63580209779E+03  0.00000000000E+00 0. -1.
         -1    1    1    2    0  501 -0.13925144922E+02  0.15765449299E+02  0.53795079496E+03  0.53836188279E+03  0.00000000000E+00 0.  1.
</event>
<event>
 4    1  0.6754235E+001  0.7568952E+02  0.7546771E-02  0.1214224E+00
          2   -1    0    0  502    0  0.00000000000E+00  0.00000000000E+00  0.48177267967E+02  0.48177267967E+02  0.00000000000E+00 0. -1.
         -2   -1    0    0    0  501 -0.00000000000E+00 -0.00000000000E+00 -0.21017876368E+03  0.21017876368E+03  0.00000000000E+00 0.  1.
          1    1    1    2  502    0  0.75509791793E+02  0.52129151304E+01 -0.16612398972E+03  0.18255432917E+03  0.00000000000E+00 0.  1.
         -1    1    1    2    0  501 -0.75509791793E+02 -0.52129151304E+01  0.41224940055E+01  0.75801702472E+02  0.00000000000E+00 0. -1.
</event>
<event>
 4    1  0.6754235E+001  0.2555497E+02  0.7546771E-02  0.1462690E+00
          2   -1    0    0  502    0  0.00000000000E+00  0.00000000000E+00  0.10480460328E+04  0.10480460328E+04  0.00000000000E+00 0. -1.
         -2   -1    0    0    0  501 -0.00000000000E+00 -0.00000000000E+00 -0.68415124320E+00  0.68415124320E+00  0.00000000000E+00 0.  1.
          1    1    1    2  502    0 -0.14213836819E+01 -0.25515411408E+02  0.68029842623E+03  0.68077823503E+03  0.00000000000E+00 0. -1.
         -1    1    1    2    0  501  0.14213836819E+01  0.25515411408E+02  0.36706345535E+03  0.36795194905E+03  0.00000000000E+00 0.  1.
</event>
<event>
 4    1  0.6754235E+001  0.2063348E+02  0.7546771E-02  0.1524563E+00
          2   -1    0    0  502    0  0.00000000000E+00  0.00000000000E+00  0.40858204359E+02  0.40858204359E+02  0.00000000000E+00 0. -1.
         -2   -1    0    0    0  501 -0.00000000000E+00 -0.00000000000E+00 -0.10542457125E+02  0.10542457125E+02  0.00000000000E+00 0.  1.
          1    1    1    2  502    0 -0.18009217321E+02  0.10070189535E+02  0.17928262186E+02  0.27334286360E+02  0.00000000000E+00 0. -1.
         -1    1    1    2    0  501  0.18009217321E+02 -0.10070189535E+02  0.12387485048E+02  0.24066375124E+02  0.00000000000E+00 0.  1.
</event>
<event>
 4    1  0.6754235E+001  0.4161079E+02  0.7546771E-02  0.1339297E+00
          2   -1    0    0  502    0  0.00000000000E+00  0.00000000000E+00  0.67121494835E+02  0.67121494835E+02  0.00000000000E+00 0.  1.
         -2   -1    0    0    0  501 -0.00000000000E+00 -0.00000000000E+00 -0.29456833874E+02  0.29456833874E+02  0.00000000000E+00 0. -1.
          1    1    1    2  502    0  0.27918783388E+02 -0.30854482350E+02  0.18086206051E+01  0.41650073895E+02  0.00000000000E+00 0. -1.
         -1    1    1    2    0  501 -0.27918783388E+02  0.30854482350E+02  0.35856040356E+02  0.54928254815E+02  0.00000000000E+00 0.  1.
</event>
<event>
 4    1  0.6754235E+001  0.2668719E+02  0.7546771E-02  0.1450776E+00
          2   -1    0    0  502    0  0.00000000000E+00  0.00000000000E+00  0.13939303979E+03  0.13939303979E+03  0.00000000000E+00 0.  1.
         -2   -1    0    0    0  501 -0.00000000000E+00 -0.00000000000E+00 -0.51619845724E+01  0.51619845724E+01  0.00000000000E+00 0. -1.
          1    1    1    2  502    0 -0.13419106989E+02 -0.23068021793E+02  0.59816203364E+02  0.65499498065E+02  0.00000000000E+00 0. -1.
         -1    1    1    2    0  501  0.13419106989E+02  0.23068021793E+02  0.74414851852E+02  0.79055526296E+02  0.00000000000E+00 0.  1.
</event>
<event>
 4    1  0.6754235E+001  0.2789450E+02  0.7546771E-02  0.1438824E+00
          2   -1    0    0  502    0  0.00000000000E+00  0.00000000000E+00  0.23266136575E+03  0.23266136575E+03  0.00000000000E+00 0. -1.
         -2   -1    0    0    0  501 -0.00000000000E+00 -0.00000000000E+00 -0.36037622476E+01  0.36037622476E+01  0.00000000000E+00 0.  1.
          1    1    1    2  502    0 -0.46667975496E+01 -0.27501345552E+02  0.82834607007E+02  0.87405235109E+02  0.00000000000E+00 0.  1.
         -1    1    1    2    0  501  0.46667975496E+01  0.27501345552E+02  0.14622299650E+03  0.14885989289E+03  0.00000000000E+00 0. -1.
</event>
<event>
 4    1  0.6754235E+001  0.2574301E+02  0.7546771E-02  0.1460660E+00
          2   -1    0    0  502    0  0.00000000000E+00  0.00000000000E+00  0.56060213003E+02  0.56060213003E+02  0.00000000000E+00 0.  1.
         -2   -1    0    0    0  501 -0.00000000000E+00 -0.00000000000E+00 -0.11835306940E+02  0.11835306940E+02  0.00000000000E+00 0. -1.
          1    1    1    2  502    0 -0.25291797053E+02 -0.47987062117E+01  0.20943088509E+02  0.33186074426E+02  0.00000000000E+00 0.  1.
         -1    1    1    2    0  501  0.25291797053E+02  0.47987062117E+01  0.23281817555E+02  0.34709445518E+02  0.00000000000E+00 0. -1.
</event>
<event>
 4    1  0.6754235E+001  0.3208425E+02  0.7546771E-02  0.1402309E+00
          2   -1    0    0  502    0  0.00000000000E+00  0.00000000000E+00  0.83293633802E+03  0.83293633802E+03  0.00000000000E+00 0. -1.
         -2   -1    0    0    0  501 -0.00000000000E+00 -0.00000000000E+00 -0.13705531961E+01  0.13705531961E+01  0.00000000000E+00 0.  1.
          1    1    1    2  502    0 -0.25328519872E+02  0.19694287728E+02  0.28501270570E+03  0.28681290295E+03  0.00000000000E+00 0. -1.
         -1    1    1    2    0  501  0.25328519872E+02 -0.19694287728E+02  0.54655307912E+03  0.54749398826E+03  0.00000000000E+00 0.  1.
</event>
<event>
 4    1  0.6754235E+001  0.2109018E+02  0.7546771E-02  0.1517981E+00
          2   -1    0    0  502    0  0.00000000000E+00  0.00000000000E+00  0.10503755579E+04  0.10503755579E+04  0.00000000000E+00 0.  1.
         -2   -1    0    0    0  501 -0.00000000000E+00 -0.00000000000E+00 -0.66775383691E+00  0.66775383691E+00  0.00000000000E+00 0. -1.
          1    1    1    2  502    0  0.19558320216E+02 -0.78909997528E+01  0.84271363736E+03  0.84297750288E+03  0.00000000000E+00 0.  1.
         -1    1    1    2    0  501 -0.19558320216E+02  0.78909997528E+01  0.20699416670E+03  0.20806580886E+03  0.00000000000E+00 0. -1.
</event>
<event>
 4    1  0.6754235E+001  0.2288328E+02  0.7546771E-02  0.1493969E+00
          2   -1    0    0  502    0  0.00000000000E+00  0.00000000000E+00  0.75067479103E+02  0.75067479103E+02  0.00000000000E+00 0. -1.
         -2   -1    0    0    0  501 -0.00000000000E+00 -0.00000000000E+00 -0.25755709544E+02  0.25755709544E+02  0.00000000000E+00 0.  1.
          1    1    1    2  502    0  0.13448990177E+02  0.18514022850E+02  0.67702813221E+02  0.71465483255E+02  0.00000000000E+00 0. -1.
         -1    1    1    2    0  501 -0.13448990177E+02 -0.18514022850E+02 -0.18391043662E+02  0.29357705391E+02  0.00000000000E+00 0.  1.
</event>
<event>
 4    1  0.6754235E+001  0.2526350E+02  0.7546771E-02  0.1465877E+00
          2   -1    0    0  502    0  0.00000000000E+00  0.00000000000E+00  0.51624103759E+02  0.51624103759E+02  0.00000000000E+00 0.  1.
         -2   -1    0    0    0  501 -0.00000000000E+00 -0.00000000000E+00 -0.32188609958E+02  0.32188609958E+02  0.00000000000E+00 0. -1.
          1    1    1    2  502    0 -0.12246367920E+02  0.22096850296E+02 -0.23170352823E+02  0.34279871210E+02  0.00000000000E+00 0. -1.
         -1    1    1    2    0  501  0.12246367920E+02 -0.22096850296E+02  0.42605846625E+02  0.49532842507E+02  0.00000000000E+00 0.  1.
</event>
<event>
 4    1  0.6754235E+001  0.2379552E+02  0.7546771E-02  0.1482743E+00
          2   -1    0    0  502    0  0.00000000000E+00  0.00000000000E+00  0.17739483996E+02  0.17739483996E+02  0.00000000000E+00 0. -1.
         -2   -1    0    0    0  501 -0.00000000000E+00 -0.00000000000E+00 -0.47460728025E+02  0.47460728025E+02  0.00000000000E+00 0.  1.
          1    1    1    2  502    0  0.23261224764E+02  0.50141870870E+01  0.37946428516E+01  0.24096181524E+02  0.00000000000E+00 0. -1.
         -1    1    1    2    0  501 -0.23261224764E+02 -0.50141870870E+01 -0.33515886881E+02  0.41104030497E+02  0.00000000000E+00 0.  1.
</event>
<event>
 4    1  0.6754235E+001  0.2434757E+02  0.7546771E-02  0.1476236E+00
          2   -1    0    0  502    0  0.00000000000E+00  0.00000000000E+00  0.11464643143E+04  0.11464643143E+04  0.00000000000E+00 0. -1.
         -2   -1    0    0    0  501 -0.00000000000E+00 -0.00000000000E+00 -0.60758142953E+00  0.60758142953E+00  0.00000000000E+00 0.  1.
          1    1    1    2  502    0  0.21794713010E+02 -0.10853317801E+02  0.35156461213E+03  0.35240669761E+03  0.00000000000E+00 0.  1.
         -1    1    1    2    0  501 -0.21794713010E+02  0.10853317801E+02  0.79429212071E+03  0.79466519808E+03  0.00000000000E+00 0. -1.
</event>
<event>
 4    1  0.6754235E+001  0.2387865E+02  0.7546771E-02  0.1481750E+00
          2   -1    0    0  502    0  0.00000000000E+00  0.00000000000E+00  0.19106276755E+04  0.19106276755E+04  0.00000000000E+00 0.  1.
         -2   -1    0    0    0  501 -0.00000000000E+00 -0.00000000000E+00 -0.31444013493E+00  0.31444013493E+00  0.00000000000E+00 0. -1.
          1    1    1    2  502    0 -0.42980932284E+01  0.23488641162E+02  0.11707508603E+04  0.11709943496E+04  0.00000000000E+00 0.  1.
         -1    1    1    2    0  501  0.42980932284E+01 -0.23488641162E+02  0.73956237508E+03  0.73994776606E+03  0.00000000000E+00 0. -1.
</event>
<event>
 4    1  0.6754235E+001  0.2114238E+02  0.7546771E-02  0.1517242E+00
          2   -1    0    0  502    0  0.00000000000E+00  0.00000000000E+00  0.65226489644E+02  0.65226489644E+02  0.00000000000E+00 0. -1.
         -2   -1    0    0    0  501 -0.00000000000E+00 -0.00000000000E+00 -0.16595103916E+02  0.16595103916E+02  0.00000000000E+00 0.  1.
          1    1    1    2  502    0 -0.14284049732E+02  0.15587370862E+02  0.55661054039E+02  0.59541188633E+02  0.00000000000E+00 0. -1.
         -1    1    1    2    0  501  0.14284049732E+02 -0.15587370862E+02 -0.70296683114E+01  0.22280404927E+02  0.00000000000E+00 0.  1.
</event>
<event>
 4    1  0.6754235E+001  0.2676634E+02  0.7546771E-02  0.1449969E+00
          2   -1    0    0  502    0  0.00000000000E+00  0.00000000000E+00  0.21217317921E+03  0.21217317921E+03  0.00000000000E+00 0. -1.
         -2   -1    0    0    0  501 -0.00000000000E+00 -0.00000000000E+00 -0.44354998505E+01  0.44354998505E+01  0.00000000000E+00 0.  1.
          1    1    1    2  502    0 -0.18734385104E+02  0.19117007581E+02  0.50952566240E+02  0.57555201072E+02  0.00000000000E+00 0.  1.
         -1    1    1    2    0  501  0.18734385104E+02 -0.19117007581E+02  0.15678511312E+03  0.15905347799E+03  0.00000000000E+00 0. -1.
</event>
<event>
 4    1  0.6754235E+001  0.3947405E+02  0.7546771E-02  0.1351596E+00
          2   -1    0    0  502    0  0.00000000000E+00  0.00000000000E+00  0.40336439331E+02  0.40336439331E+02  0.00000000000E+00 0. -1.
         -2   -1    0    0    0  501 -0.00000000000E+00 -0.00000000000E+00 -0.38631269131E+02  0.38631269131E+02  0.00000000000E+00 0.  1.
          1    1    1    2  502    0  0.26966490510E+02 -0.28827225082E+02  0.63498619100E+00  0.39479155561E+02  0.00000000000E+00 0.  1.
         -1    1    1    2    0  501 -0.26966490510E+02  0.28827225082E+02  0.10701840095E+01  0.39488552901E+02  0.00000000000E+00 0. -1.
</event>
<event>
 4    1  0.6754235E+001  0.2423285E+02  0.7546771E-02  0.1477571E+00
          2   -1    0    0  502    0  0.00000000000E+00  0.00000000000E+00  0.13026963402E+03  0.13026963402E+03  0.00000000000E+00 0.  1.
         -2   -1    0    0    0  501 -0.00000000000E+00 -0.00000000000E+00 -0.50347917005E+01  0.50347917005E+01  0.00000000000E+00 0. -1.
          1    1    1    2  502    0 -0.19469946909E+02  0.14427478352E+02  0.40730313673E+02  0.47393980800E+02  0.00000000000E+00 0. -1.
         -1    1    1    2    0  501  0.19469946909E+02 -0.14427478352E+02  0.84504528644E+02  0.87910444917E+02  0.00000000000E+00 0.  1.
</event>
<event>
 4    1  0.6754235E+001  0.3782648E+02  0.7546771E-02  0.1361716E+00
          2   -1    0    0  502    0  0.00000000000E+00  0.00000000000E+00  0.32783215527E+03  0.32783215527E+03  0.00000000000E+00 0. -1.
         -2   -1    0    0    0  501 -0.00000000000E+00 -0.00000000000E+00 -0.50899554139E+01  0.50899554139E+01  0.00000000000E+00 0.  1.
          1    1    1    2  502    0  0.34490934386E+02  0.15531183797E+02  0.22421221274E+03  0.22738064686E+03  0.00000000000E+00 0. -1.
         -1    1    1    2    0  501 -0.34490934386E+02 -0.15531183797E+02  0.98529987118E+02  0.10554146383E+03  0.00000000000E+00 0.  1.
</event>
<event>
 4    1  0.6754235E+001  0.3083190E+02  0.7546771E-02  0.1412502E+00
          2   -1    0    0  502    0  0.00000000000E+00  0.00000000000E+00  0.15002525460E+02  0.15002525460E+02  0.00000000000E+00 0.  1.
         -2   -1    0    0    0  501 -0.00000000000E+00 -0.00000000000E+00 -0.82250982538E+02  0.82250982538E+02  0.00000000000E+00 0. -1.
          1    1    1    2  502    0 -0.22602322574E+02 -0.20970005150E+02 -0.10322041145E+02  0.32513852972E+02  0.00000000000E+00 0.  1.
         -1    1    1    2    0  501  0.22602322574E+02  0.20970005150E+02 -0.56926415933E+02  0.64739655025E+02  0.00000000000E+00 0. -1.
</event>
<event>
 4    1  0.6754235E+001  0.3233214E+02  0.7546771E-02  0.1400356E+00
          2   -1    0    0  502    0  0.00000000000E+00  0.00000000000E+00  0.47915461264E+03  0.47915461264E+03  0.00000000000E+00 0. -1.
         -2   -1    0    0    0  501 -0.00000000000E+00 -0.00000000000E+00 -0.27493939964E+01  0.27493939964E+01  0.00000000000E+00 0.  1.
          1    1    1    2  502    0 -0.56853699673E+01 -0.31828346669E+02  0.34769219754E+03  0.34919225552E+03  0.00000000000E+00 0. -1.
         -1    1    1    2    0  501  0.56853699673E+01  0.31828346669E+02  0.12871302110E+03  0.13271175112E+03  0.00000000000E+00 0.  1.
</event>
<event>
 4    1  0.6754235E+001  0.3971954E+02  0.7546771E-02  0.1350137E+00
          2   -1    0    0  502    0  0.00000000000E+00  0.00000000000E+00  0.94889035131E+03  0.94889035131E+03  0.00000000000E+00 0.  1.
         -2   -1    0    0    0  501 -0.00000000000E+00 -0.00000000000E+00 -0.18029201534E+01  0.18029201534E+01  0.00000000000E+00 0. -1.
          1    1    1    2  502    0  0.37749565168E+02 -0.12353634027E+02  0.34094029469E+03  0.34324616019E+03  0.00000000000E+00 0. -1.
         -1    1    1    2    0  501 -0.37749565168E+02  0.12353634027E+02  0.60614713647E+03  0.60744711127E+03  0.00000000000E+00 0.  1.
</event>
<event>
 4    1  0.6754235E+001  0.2031954E+02  0.7546771E-02  0.1529206E+00
          2   -1    0    0  502    0  0.00000000000E+00  0.00000000000E+00  0.60826275198E+01  0.60826275198E+01  0.00000000000E+00 0. -1.
         -2   -1    0    0    0  501 -0.00000000000E+00 -0.00000000000E+00 -0.68072589558E+02  0.68072589558E+02  0.00000000000E+00 0.  1.
          1    1    1    2  502    0 -0.58616474412E+01 -0.19455717022E+02 -0.29018684410E+02  0.35425525832E+02  0.00000000000E+00 0.  1.
         -1    1    1    2    0  501  0.58616474412E+01  0.19455717022E+02 -0.32971277628E+02  0.38729691246E+02  0.00000000000E+00 0. -1.
</event>
<event>
 4    1  0.6754235E+001  0.2050115E+02  0.7546771E-02  0.1526508E+00
          2   -1    0    0  502    0  0.00000000000E+00  0.00000000000E+00  0.16612827518E+02  0.16612827518E+02  0.00000000000E+00 0.  1.
         -2   -1    0    0    0  501 -0.00000000000E+00 -0.00000000000E+00 -0.39155694856E+02  0.39155694856E+02  0.00000000000E+00 0. -1.
          1    1    1    2  502    0  0.54609025790E+01  0.19760452690E+02  0.53161447238E+01  0.21179195977E+02  0.00000000000E+00 0.  1.
         -1    1    1    2    0  501 -0.54609025790E+01 -0.19760452690E+02 -0.27859012062E+02  0.34589326396E+02  0.00000000000E+00 0. -1.
</event>
<event>
 4    1  0.6754235E+001  0.1796338E+03  0.7546771E-02  0.1070598E+00
          2   -1    0    0  502    0  0.00000000000E+00  0.00000000000E+00  0.90788021541E+02  0.90788021541E+02  0.00000000000E+00 0.  1.
         -2   -1    0    0    0  501 -0.00000000000E+00 -0.00000000000E+00 -0.37568297091E+03  0.37568297091E+03  0.00000000000E+00 0. -1.
          1    1    1    2  502    0  0.10955201701E+03 -0.14236106179E+03 -0.88286835956E+02  0.20015714263E+03  0.00000000000E+00 0.  1.
         -1    1    1    2    0  501 -0.10955201701E+03  0.14236106179E+03 -0.19660811341E+03  0.26631384981E+03  0.00000000000E+00 0. -1.
</event>
<event>
 4    1  0.6754235E+001  0.2701918E+02  0.7546771E-02  0.1447416E+00
          2   -1    0    0  502    0  0.00000000000E+00  0.00000000000E+00  0.24394464034E+03  0.24394464034E+03  0.00000000000E+00 0.  1.
         -2   -1    0    0    0  501 -0.00000000000E+00 -0.00000000000E+00 -0.32338198796E+01  0.32338198796E+01  0.00000000000E+00 0. -1.
          1    1    1    2  502    0  0.26934139007E+02 -0.21419561376E+01  0.86603131519E+02  0.90720109177E+02  0.00000000000E+00 0. -1.
         -1    1    1    2    0  501 -0.26934139007E+02  0.21419561376E+01  0.15410768894E+03  0.15645835104E+03  0.00000000000E+00 0.  1.
</event>
<event>
 4    1  0.6754235E+001  0.2271970E+02  0.7546771E-02  0.1496048E+00
          2   -1    0    0  502    0  0.00000000000E+00  0.00000000000E+00  0.32362293194E+03  0.32362293194E+03  0.00000000000E+00 0.  1.
         -2   -1    0    0    0  501 -0.00000000000E+00 -0.00000000000E+00 -0.17355484784E+01  0.17355484784E+01  0.00000000000E+00 0. -1.
          1    1    1    2  502    0  0.20589678933E+02 -0.96046712595E+01  0.20723485885E+03  0.20847654858E+03  0.00000000000E+00 0.  1.
         -1    1    1    2    0  501 -0.20589678933E+02  0.96046712595E+01  0.11465252461E+03  0.11688193183E+03  0.00000000000E+00 0. -1.
</event>
<event>
 4    1  0.6754235E+001  0.2165890E+02  0.7546771E-02  0.1510062E+00
          2   -1    0    0  502    0  0.00000000000E+00  0.00000000000E+00  0.15119844621E+02  0.15119844621E+02  0.00000000000E+00 0. -1.
         -2   -1    0    0    0  501 -0.00000000000E+00 -0.00000000000E+00 -0.39422339587E+02  0.39422339587E+02  0.00000000000E+00 0.  1.
          1    1    1    2  502    0 -0.18187786785E+02  0.11760635045E+02  0.43443087800E+00  0.21663260488E+02  0.00000000000E+00 0. -1.
         -1    1    1    2    0  501  0.18187786785E+02 -0.11760635045E+02 -0.24736925843E+02  0.32878923720E+02  0.00000000000E+00 0.  1.
</event>
<event>
 4    1  0.6754235E+001  0.2026569E+02  0.7546771E-02  0.1530012E+00
          2   -1    0    0  502    0  0.00000000000E+00  0.00000000000E+00  0.20606053090E+04  0.20606053090E+04  0.00000000000E+00 0. -1.
         -2   -1    0    0    0  501 -0.00000000000E+00 -0.00000000000E+00 -0.21123575144E+00  0.21123575144E+00  0.00000000000E+00 0.  1.
          1    1    1    2  502    0  0.15023704925E+02  0.13600974497E+02  0.12750343344E+04  0.12751953780E+04  0.00000000000E+00 0. -1.
         -1    1    1    2    0  501 -0.15023704925E+02 -0.13600974497E+02  0.78535973882E+03  0.78562116671E+03  0.00000000000E+00 0.  1.
</event>
<event>
 4    1  0.6754235E+001  0.3148535E+02  0.7546771E-02  0.1407113E+00
          2   -1    0    0  502    0  0.00000000000E+00  0.00000000000E+00  0.64494370440E+03  0.64494370440E+03  0.00000000000E+00 0. -1.
         -2   -1    0    0    0  501 -0.00000000000E+00 -0.00000000000E+00 -0.17133014018E+01  0.17133014018E+01  0.00000000000E+00 0.  1.
          1    1    1    2  502    0 -0.30721009524E+02  0.68954303323E+01  0.21791930773E+03  0.22018208844E+03  0.00000000000E+00 0.  1.
         -1    1    1    2    0  501  0.30721009524E+02 -0.68954303323E+01  0.42531109526E+03  0.42647491736E+03  0.00000000000E+00 0. -1.
</event>
<event>
 4    1  0.6754235E+001  0.2227921E+02  0.7546771E-02  0.1501753E+00
          2   -1    0    0  502    0  0.00000000000E+00  0.00000000000E+00  0.78283854420E+02  0.78283854420E+02  0.00000000000E+00 0.  1.
         -2   -1    0    0    0  501 -0.00000000000E+00 -0.00000000000E+00 -0.65874963772E+01  0.65874963772E+01  0.00000000000E+00 0. -1.
          1    1    1    2  502    0 -0.12794653603E+02 -0.18238965374E+02  0.44064333504E+02  0.49376396242E+02  0.00000000000E+00 0.  1.
         -1    1    1    2    0  501  0.12794653603E+02  0.18238965374E+02  0.27632024539E+02  0.35494954555E+02  0.00000000000E+00 0. -1.
</event>
<event>
 4    1  0.6754235E+001  0.2791488E+02  0.7546771E-02  0.1438628E+00
          2   -1    0    0  502    0  0.00000000000E+00  0.00000000000E+00  0.10032419309E+02  0.10032419309E+02  0.00000000000E+00 0.  1.
         -2   -1    0    0    0  501 -0.00000000000E+00 -0.00000000000E+00 -0.77969528182E+02  0.77969528182E+02  0.00000000000E+00 0. -1.
          1    1    1    2  502    0  0.24433553514E+02 -0.13499700117E+02 -0.36685566411E+02  0.46098494807E+02  0.00000000000E+00 0. -1.
         -1    1    1    2    0  501 -0.24433553514E+02  0.13499700117E+02 -0.31251542463E+02  0.41903452684E+02  0.00000000000E+00 0.  1.
</event>
<event>
 4    1  0.6754235E+001  0.2022831E+02  0.7546771E-02  0.1530574E+00
          2   -1    0    0  502    0  0.00000000000E+00  0.00000000000E+00  0.15152526900E+04  0.15152526900E+04  0.00000000000E+00 0. -1.
         -2   -1    0    0    0  501 -0.00000000000E+00 -0.00000000000E+00 -0.27744032165E+00  0.27744032165E+00  0.00000000000E+00 0.  1.
          1    1    1    2  502    0  0.48140526453E+01 -0.19647122747E+02  0.88121468794E+03  0.88144682811E+03  0.00000000000E+00 0. -1.
         -1    1    1    2    0  501 -0.48140526453E+01  0.19647122747E+02  0.63376056172E+03  0.63408330220E+03  0.00000000000E+00 0.  1.
</event>
<event>
 4    1  0.6754235E+001  0.2437064E+02  0.7546771E-02  0.1475969E+00
          2   -1    0    0  502    0  0.00000000000E+00  0.00000000000E+00  0.77616458494E+03  0.77616458494E+03  0.00000000000E+00 0.  1.
         -2   -1    0    0    0  501 -0.00000000000E+00 -0.00000000000E+00 -0.77062577993E+00  0.77062577993E+00  0.00000000000E+00 0. -1.
          1    1    1    2  502    0  0.22736064977E+02  0.87749404258E+01  0.35512844230E+03  0.35596367618E+03  0.00000000000E+00 0. -1.
         -1    1    1    2    0  501 -0.22736064977E+02 -0.87749404258E+01  0.42026551686E+03  0.42097153454E+03  0.00000000000E+00 0.  1.
</event>
<event>
 4    1  0.6754235E+001  0.3726671E+02  0.7546771E-02  0.1365293E+00
          2   -1    0    0  502    0  0.00000000000E+00  0.00000000000E+00  0.21182842213E+04  0.21182842213E+04  0.00000000000E+00 0.  1.
         -2   -1    0    0    0  501 -0.00000000000E+00 -0.00000000000E+00 -0.10179643869E+01  0.10179643869E+01  0.00000000000E+00 0. -1.
          1    1    1    2  502    0  0.36428951580E+01  0.37088233425E+02  0.42643645543E+03  0.42806174585E+03  0.00000000000E+00 0. -1.
         -1    1    1    2    0  501 -0.36428951580E+01 -0.37088233425E+02  0.16908298015E+04  0.16912404399E+04  0.00000000000E+00 0.  1.
</event>
<event>
 4    1  0.6754235E+001  0.2569205E+02  0.7546771E-02  0.1461208E+00
          2   -1    0    0  502    0  0.00000000000E+00  0.00000000000E+00  0.39490676991E+01  0.39490676991E+01  0.00000000000E+00 0. -1.
         -2   -1    0    0    0  501 -0.00000000000E+00 -0.00000000000E+00 -0.38706257539E+03  0.38706257539E+03  0.00000000000E+00 0.  1.
          1    1    1    2  502    0  0.21235828539E+02 -0.14461023850E+02 -0.44191398484E+02  0.51117133375E+02  0.00000000000E+00 0. -1.
         -1    1    1    2    0  501 -0.21235828539E+02  0.14461023850E+02 -0.33892210920E+03  0.33989450971E+03  0.00000000000E+00 0.  1.
</event>
<event>
 4    1  0.6754235E+001  0.3038050E+02  0.7546771E-02  0.1416318E+00
          2   -1    0    0  502    0  0.00000000000E+00  0.00000000000E+00  0.11450717936E+04  0.11450717936E+04  0.00000000000E+00 0. -1.
         -2   -1    0    0    0  501 -0.00000000000E+00 -0.00000000000E+00 -0.83755814762E+00  0.83755814762E+00  0.00000000000E+00 0.  1.
          1    1    1    2  502    0 -0.12160957843E+02 -0.27840361441E+02  0.68326146940E+03  0.68393655421E+03  0.00000000000E+00 0.  1.
         -1    1    1    2    0  501  0.12160957843E+02  0.27840361441E+02  0.46097276607E+03  0.46197279755E+03  0.00000000000E+00 0. -1.
</event>
<event>
 4    1  0.6754235E+001  0.2431430E+02  0.7546771E-02  0.1476623E+00
          2   -1    0    0  502    0  0.00000000000E+00  0.00000000000E+00  0.87928724929E+02  0.87928724929E+02  0.00000000000E+00 0.  1.
         -2   -1    0    0    0  501 -0.00000000000E+00 -0.00000000000E+00 -0.10375003757E+02  0.10375003757E+02  0.00000000000E+00 0. -1.
          1    1    1    2  502    0 -0.23931879587E+02 -0.42953737338E+01  0.67936639901E+02  0.72156580691E+02  0.00000000000E+00 0. -1.
         -1    1    1    2    0  501  0.23931879587E+02  0.42953737338E+01  0.96170812709E+01  0.26147147994E+02  0.00000000000E+00 0.  1.
</event>
<event>
 4    1  0.6754235E+001  0.2027053E+02  0.7546771E-02  0.1529940E+00
          2   -1    0    0  502    0  0.00000000000E+00  0.00000000000E+00  0.59587698876E+03  0.59587698876E+03  0.00000000000E+00 0.  1.
         -2   -1    0    0    0  501 -0.00000000000E+00 -0.00000000000E+00 -0.84739182965E+00  0.84739182965E+00  0.00000000000E+00 0. -1.
          1    1    1    2  502    0 -0.12926367778E+02 -0.15614199707E+02  0.42627925243E+03  0.42676093456E+03  0.00000000000E+00 0.  1.
         -1    1    1    2    0  501  0.12926367778E+02  0.15614199707E+02  0.16875034450E+03  0.16996344603E+03  0.00000000000E+00 0. -1.
</event>
<event>
 4    1  0.6754235E+001  0.2659690E+02  0.7546771E-02  0.1451700E+00
          2   -1    0    0  502    0  0.00000000000E+00  0.00000000000E+00  0.26441080408E+04  0.26441080408E+04  0.00000000000E+00 0. -1.
         -2   -1    0    0    0  501 -0.00000000000E+00 -0.00000000000E+00 -0.27631225759E+00  0.27631225759E+00  0.00000000000E+00 0.  1.
          1    1    1    2  502    0 -0.13597237312E+02 -0.22858486229E+02  0.15575500365E+04  0.15577771059E+04  0.00000000000E+00 0. -1.
         -1    1    1    2    0  501  0.13597237312E+02  0.22858486229E+02  0.10862816920E+04  0.10866072472E+04  0.00000000000E+00 0.  1.
</event>
<event>
 4    1  0.6754235E+001  0.2390306E+02  0.7546771E-02  0.1481459E+00
          2   -1    0    0  502    0  0.00000000000E+00  0.00000000000E+00  0.26937983136E+03  0.26937983136E+03  0.00000000000E+00 0. -1.
         -2   -1    0    0    0  501 -0.00000000000E+00 -0.00000000000E+00 -0.21211708212E+01  0.21211708212E+01  0.00000000000E+00 0.  1.
          1    1    1    2  502    0 -0.22429067946E+02  0.82639736066E+01  0.13482447647E+03  0.13692697252E+03  0.00000000000E+00 0.  1.
         -1    1    1    2    0  501  0.22429067946E+02 -0.82639736066E+01  0.13243418407E+03  0.13457402966E+03  0.00000000000E+00 0. -1.
</event>
<event>
 4    1  0.6754235E+001  0.3021167E+02  0.7546771E-02  0.1417766E+00
          2   -1    0    0  502    0  0.00000000000E+00  0.00000000000E+00  0.31030465522E+02  0.31030465522E+02  0.00000000000E+00 0. -1.
         -2   -1    0    0    0  501 -0.00000000000E+00 -0.00000000000E+00 -0.29603033288E+02  0.29603033288E+02  0.00000000000E+00 0.  1.
          1    1    1    2  502    0  0.29977430519E+02  0.37547938384E+01  0.31332886254E+01  0.30373710917E+02  0.00000000000E+00 0. -1.
         -1    1    1    2    0  501 -0.29977430519E+02 -0.37547938384E+01 -0.17058563909E+01  0.30259787893E+02  0.00000000000E+00 0.  1.
</event>
<event>
 4    1  0.6754235E+001  0.2898136E+02  0.7546771E-02  0.1428660E+00
          2   -1    0    0  502    0  0.00000000000E+00  0.00000000000E+00  0.22617582788E+01  0.22617582788E+01  0.00000000000E+00 0.  1.
         -2   -1    0    0    0  501 -0.00000000000E+00 -0.00000000000E+00 -0.11538531410E+04  0.11538531410E+04  0.00000000000E+00 0. -1.
          1    1    1    2  502    0  0.15961237656E+01 -0.28937375574E+02 -0.10518285068E+04  0.10522276973E+04  0.00000000000E+00 0. -1.
         -1    1    1    2    0  501 -0.15961237656E+01  0.28937375574E+02 -0.99762875922E+02  0.10388720195E+03  0.00000000000E+00 0.  1.
</event>
<event>
 4    1  0.6754235E+001  0.4065736E+02  0.7546771E-02  0.1344676E+00
          2   -1    0    0  502    0  0.00000000000E+00  0.00000000000E+00  0.14049303630E+03  0.14049303630E+03  0.00000000000E+00 0. -1.
         -2   -1    0    0    0  501 -0.00000000000E+00 -0.00000000000E+00 -0.11769833659E+02  0.11769833659E+02  0.00000000000E+00 0.  1.
          1    1    1    2  502    0 -0.22433568580E+02 -0.33908052830E+02  0.65760899589E+02  0.77314403320E+02  0.00000000000E+00 0.  1.
         -1    1    1    2    0  501  0.22433568580E+02  0.33908052830E+02  0.62962303053E+02  0.74948466640E+02  0.00000000000E+00 0. -1.
</event>
<event>
 4    1  0.6754235E+001  0.1258319E+03  0.7546771E-02  0.1125329E+00
          2   -1    0    0  502    0  0.00000000000E+00  0.00000000000E+00  0.26425173313E+03  0.26425173313E+03  0.00000000000E+00 0. -1.
         -2   -1    0    0    0  501 -0.00000000000E+00 -0.00000000000E+00 -0.60506196336E+02  0.60506196336E+02  0.00000000000E+00 0.  1.
          1    1    1    2  502    0 -0.84443923689E+02  0.93289281490E+02  0.85874679025E+02  0.15234213727E+03  0.00000000000E+00 0.  1.
         -1    1    1    2    0  501  0.84443923689E+02 -0.93289281490E+02  0.11787085776E+03  0.17241579220E+03  0.00000000000E+00 0. -1.
</event>
<event>
 4    1  0.6754235E+001  0.2216018E+02  0.7546771E-02  0.1503322E+00
          2   -1    0    0  502    0  0.00000000000E+00  0.00000000000E+00  0.51347411903E+00  0.51347411903E+00  0.00000000000E+00 0. -1.
         -2   -1    0    0    0  501 -0.00000000000E+00 -0.00000000000E+00 -0.10368617988E+04  0.10368617988E+04  0.00000000000E+00 0.  1.
          1    1    1    2  502    0 -0.19308402023E+02 -0.10874711888E+02 -0.37366076242E+03  0.37431729738E+03  0.00000000000E+00 0. -1.
         -1    1    1    2    0  501  0.19308402023E+02  0.10874711888E+02 -0.66268756222E+03  0.66305797549E+03  0.00000000000E+00 0.  1.
</event>
<event>
 4    1  0.6754235E+001  0.2174357E+02  0.7546771E-02  0.1508908E+00
          2   -1    0    0  502    0  0.00000000000E+00  0.00000000000E+00  0.76668046268E+03  0.76668046268E+03  0.00000000000E+00 0. -1.
         -2   -1    0    0    0  501 -0.00000000000E+00 -0.00000000000E+00 -0.65260519432E+00  0.65260519432E+00  0.00000000000E+00 0.  1.
          1    1    1    2  502    0  0.27622846136E+01 -0.21567398348E+02  0.29297391136E+03  0.29377967190E+03  0.00000000000E+00 0.  1.
         -1    1    1    2    0  501 -0.27622846136E+01  0.21567398348E+02  0.47305394613E+03  0.47355339597E+03  0.00000000000E+00 0. -1.
</event>
<event>
 4    1  0.6754235E+001  0.2415928E+02  0.7546771E-02  0.1478432E+00
          2   -1    0    0  502    0  0.00000000000E+00  0.00000000000E+00  0.45558092922E+02  0.45558092922E+02  0.00000000000E+00 0. -1.
         -2   -1    0    0    0  501 -0.00000000000E+00 -0.00000000000E+00 -0.16321338304E+02  0.16321338304E+02  0.00000000000E+00 0.  1.
          1    1    1    2  502    0  0.10823718664E+02 -0.21599021512E+02  0.28965927982E+02  0.37718637302E+02  0.00000000000E+00 0. -1.
         -1    1    1    2    0  501 -0.10823718664E+02  0.21599021512E+02  0.27082663544E+00  0.24160793925E+02  0.00000000000E+00 0.  1.
</event>
<event>
 4    1  0.6754235E+001  0.2072986E+02  0.7546771E-02  0.1523157E+00
          2   -1    0    0  502    0  0.00000000000E+00  0.00000000000E+00  0.57921554800E+03  0.57921554800E+03  0.00000000000E+00 0. -1.
         -2   -1    0    0    0  501 -0.00000000000E+00 -0.00000000000E+00 -0.10053688206E+01  0.10053688206E+01  0.00000000000E+00 0.  1.
          1    1    1    2  502    0 -0.20655902173E+02  0.17495537646E+01  0.43761485837E+03  0.43810557118E+03  0.00000000000E+00 0. -1.
         -1    1    1    2    0  501  0.20655902173E+02 -0.17495537646E+01  0.14059532080E+03  0.14211534563E+03  0.00000000000E+00 0.  1.
</event>
<event>
 4    1  0.6754235E+001  0.2663936E+02  0.7546771E-02  0.1451265E+00
          2   -1    0    0  502    0  0.00000000000E+00  0.00000000000E+00  0.53205516216E+03  0.53205516216E+03  0.00000000000E+00 0. -1.
         -2   -1    0    0    0  501 -0.00000000000E+00 -0.00000000000E+00 -0.13343383929E+01  0.13343383929E+01  0.00000000000E+00 0.  1.
          1    1    1    2  502    0  0.22967339760E+02 -0.13496548063E+02  0.26000638111E+03  0.26136750702E+03  0.00000000000E+00 0.  1.
         -1    1    1    2    0  501 -0.22967339760E+02  0.13496548063E+02  0.27071444265E+03  0.27202199353E+03  0.00000000000E+00 0. -1.
</event>
<event>
 4    1  0.6754235E+001  0.2326212E+02  0.7546771E-02  0.1489233E+00
          2   -1    0    0  502    0  0.00000000000E+00  0.00000000000E+00  0.39113116272E+03  0.39113116272E+03  0.00000000000E+00 0. -1.
         -2   -1    0    0    0  501 -0.00000000000E+00 -0.00000000000E+00 -0.15594229392E+01  0.15594229392E+01  0.00000000000E+00 0.  1.
          1    1    1    2  502    0  0.46512286065E+01 -0.22792369890E+02  0.12883627798E+03  0.13091948891E+03  0.00000000000E+00 0.  1.
         -1    1    1    2    0  501 -0.46512286065E+01  0.22792369890E+02  0.26073546180E+03  0.26177109675E+03  0.00000000000E+00 0. -1.
</event>
<event>
 4    1  0.6754235E+001  0.2105132E+02  0.7546771E-02  0.1518533E+00
          2   -1    0    0  502    0  0.00000000000E+00  0.00000000000E+00  0.10595672367E+04  0.10595672367E+04  0.00000000000E+00 0.  1.
         -2   -1    0    0    0  501 -0.00000000000E+00 -0.00000000000E+00 -0.42343180198E+00  0.42343180198E+00  0.00000000000E+00 0. -1.
          1    1    1    2  502    0 -0.62093375130E+01 -0.20114730338E+02  0.58823269445E+03  0.58860926009E+03  0.00000000000E+00 0.  1.
         -1    1    1    2    0  501  0.62093375130E+01  0.20114730338E+02  0.47091111040E+03  0.47138140836E+03  0.00000000000E+00 0. -1.
</event>
<event>
 4    1  0.6754235E+001  0.2794633E+02  0.7546771E-02  0.1438327E+00
          2   -1    0    0  502    0  0.00000000000E+00  0.00000000000E+00  0.39411237450E+02  0.39411237450E+02  0.00000000000E+00 0.  1.
         -2   -1    0    0    0  501 -0.00000000000E+00 -0.00000000000E+00 -0.24125627561E+02  0.24125627561E+02  0.00000000000E+00 0. -1.
          1    1    1    2  502    0 -0.11007078767E+02  0.25687381185E+02 -0.57831546822E+01  0.28538433965E+02  0.00000000000E+00 0. -1.
         -1    1    1    2    0  501  0.11007078767E+02 -0.25687381185E+02  0.21068764571E+02  0.34998431046E+02  0.00000000000E+00 0.  1.
</event>
<event>
 4    1  0.6754235E+001  0.2048293E+02  0.7546771E-02  0.1526777E+00
          2   -1    0    0  502    0  0.00000000000E+00  0.00000000000E+00  0.20339313320E+04  0.20339313320E+04  0.00000000000E+00 0. -1.
         -2   -1    0    0    0  501 -0.00000000000E+00 -0.00000000000E+00 -0.21673014006E+00  0.21673014006E+00  0.00000000000E+00 0.  1.
          1    1    1    2  502    0 -0.39871389350E+00 -0.20479044879E+02  0.12402386695E+04  0.12404077989E+04  0.00000000000E+00 0. -1.
         -1    1    1    2    0  501  0.39871389350E+00  0.20479044879E+02  0.79347593236E+03  0.79374026324E+03  0.00000000000E+00 0.  1.
</event>
<event>
 4    1  0.6754235E+001  0.2349961E+02  0.7546771E-02  0.1486318E+00
          2   -1    0    0  502    0  0.00000000000E+00  0.00000000000E+00  0.10279323799E+04  0.10279323799E+04  0.00000000000E+00 0.  1.
         -2   -1    0    0    0  501 -0.00000000000E+00 -0.00000000000E+00 -0.15026851871E+01  0.15026851871E+01  0.00000000000E+00 0. -1.
          1    1    1    2  502    0 -0.18114453349E+02  0.14969917131E+02  0.10064075384E+03  0.10334792292E+03  0.00000000000E+00 0. -1.
         -1    1    1    2    0  501  0.18114453349E+02 -0.14969917131E+02  0.92578894087E+03  0.92608714216E+03  0.00000000000E+00 0.  1.
</event>
<event>
 4    1  0.6754235E+001  0.2994069E+02  0.7546771E-02  0.1420113E+00
          2   -1    0    0  502    0  0.00000000000E+00  0.00000000000E+00  0.10130651395E+02  0.10130651395E+02  0.00000000000E+00 0. -1.
         -2   -1    0    0    0  501 -0.00000000000E+00 -0.00000000000E+00 -0.23362100640E+03  0.23362100640E+03  0.00000000000E+00 0.  1.
          1    1    1    2  502    0  0.34540566220E+01 -0.29740788216E+02 -0.15684829525E+02  0.33800279112E+02  0.00000000000E+00 0. -1.
         -1    1    1    2    0  501 -0.34540566220E+01  0.29740788216E+02 -0.20780552548E+03  0.20995137868E+03  0.00000000000E+00 0.  1.
</event>
<event>
 4    1  0.6754235E+001  0.2406410E+02  0.7546771E-02  0.1479552E+00
          2   -1    0    0  502    0  0.00000000000E+00  0.00000000000E+00  0.30534045676E+02  0.30534045676E+02  0.00000000000E+00 0.  1.
         -2   -1    0    0    0  501 -0.00000000000E+00 -0.00000000000E+00 -0.22268684351E+02  0.22268684351E+02  0.00000000000E+00 0. -1.
          1    1    1    2  502    0 -0.13580613070E+02 -0.19865744448E+02 -0.60361873642E+01  0.24809603216E+02  0.00000000000E+00 0. -1.
         -1    1    1    2    0  501  0.13580613070E+02  0.19865744448E+02  0.14301548689E+02  0.27993126812E+02  0.00000000000E+00 0.  1.
</event>
<event>
 4    1  0.6754235E+001  0.2161346E+02  0.7546771E-02  0.1510684E+00
          2   -1    0    0  502    0  0.00000000000E+00  0.00000000000E+00  0.13175122758E+04  0.13175122758E+04  0.00000000000E+00 0.  1.
         -2   -1    0    0    0  501 -0.00000000000E+00 -0.00000000000E+00 -0.38605710882E+00  0.38605710882E+00  0.00000000000E+00 0. -1.
          1    1    1    2  502    0  0.95155573026E+00 -0.21592506662E+02  0.84677070614E+03  0.84704649848E+03  0.00000000000E+00 0. -1.
         -1    1    1    2    0  501 -0.95155573026E+00  0.21592506662E+02  0.47035551258E+03  0.47085183446E+03  0.00000000000E+00 0.  1.
</event>
<event>
 4    1  0.6754235E+001  0.3928670E+02  0.7546771E-02  0.1352717E+00
          2   -1    0    0  502    0  0.00000000000E+00  0.00000000000E+00  0.20344068465E+04  0.20344068465E+04  0.00000000000E+00 0. -1.
         -2   -1    0    0    0  501 -0.00000000000E+00 -0.00000000000E+00 -0.18220241284E+01  0.18220241284E+01  0.00000000000E+00 0.  1.
          1    1    1    2  502    0 -0.13591875418E+02 -0.36860625302E+02  0.23850956588E+03  0.24172351518E+03  0.00000000000E+00 0.  1.
         -1    1    1    2    0  501  0.13591875418E+02  0.36860625302E+02  0.17940752565E+04  0.17945053554E+04  0.00000000000E+00 0. -1.
</event>
<event>
 4    1  0.6754235E+001  0.2116269E+02  0.7546771E-02  0.1516955E+00
          2   -1    0    0  502    0  0.00000000000E+00  0.00000000000E+00  0.49861217949E+03  0.49861217949E+03  0.00000000000E+00 0.  1.
         -2   -1    0    0    0  501 -0.00000000000E+00 -0.00000000000E+00 -0.10142429537E+01  0.10142429537E+01  0.00000000000E+00 0. -1.
          1    1    1    2  502    0 -0.56799260738E+01  0.20386214752E+02  0.33329412666E+03  0.33396531883E+03  0.00000000000E+00 0.  1.
         -1    1    1    2    0  501  0.56799260738E+01 -0.20386214752E+02  0.16430380987E+03  0.16566110361E+03  0.00000000000E+00 0. -1.
</event>
<event>
 4    1  0.6754235E+001  0.2140998E+02  0.7546771E-02  0.1513491E+00
          2   -1    0    0  502    0  0.00000000000E+00  0.00000000000E+00  0.46344271839E+03  0.46344271839E+03  0.00000000000E+00 0. -1.
         -2   -1    0    0    0  501 -0.00000000000E+00 -0.00000000000E+00 -0.52430131371E+01  0.52430131371E+01  0.00000000000E+00 0.  1.
          1    1    1    2  502    0 -0.21409970984E+02 -0.20365159774E-01  0.18015517812E+02  0.27981174998E+02  0.00000000000E+00 0.  1.
         -1    1    1    2    0  501  0.21409970984E+02  0.20365159774E-01  0.44018418744E+03  0.44070455653E+03  0.00000000000E+00 0. -1.
</event>
<event>
 4    1  0.6754235E+001  0.2446443E+02  0.7546771E-02  0.1474885E+00
          2   -1    0    0  502    0  0.00000000000E+00  0.00000000000E+00  0.55858693519E+03  0.55858693519E+03  0.00000000000E+00 0.  1.
         -2   -1    0    0    0  501 -0.00000000000E+00 -0.00000000000E+00 -0.12583282508E+01  0.12583282508E+01  0.00000000000E+00 0. -1.
          1    1    1    2  502    0  0.16337847669E+02  0.18209420080E+02  0.38653389779E+03  0.38730732292E+03  0.00000000000E+00 0.  1.
         -1    1    1    2    0  501 -0.16337847669E+02 -0.18209420080E+02  0.17079470915E+03  0.17253794052E+03  0.00000000000E+00 0. -1.
</event>
<event>
 4    1  0.6754235E+001  0.2474462E+02  0.7546771E-02  0.1471681E+00
          2   -1    0    0  502    0  0.00000000000E+00  0.00000000000E+00  0.51696061765E+01  0.51696061765E+01  0.00000000000E+00 0. -1.
         -2   -1    0    0    0  501 -0.00000000000E+00 -0.00000000000E+00 -0.13287408918E+03  0.13287408918E+03  0.00000000000E+00 0.  1.
          1    1    1    2  502    0  0.91736793683E+01  0.22981295947E+02 -0.41104553878E+02  0.47977918942E+02  0.00000000000E+00 0. -1.
         -1    1    1    2    0  501 -0.91736793683E+01 -0.22981295947E+02 -0.86599929129E+02  0.90065776417E+02  0.00000000000E+00 0.  1.
</event>
<event>
 4    1  0.6754235E+001  0.2641379E+02  0.7546771E-02  0.1453587E+00
          2   -1    0    0  502    0  0.00000000000E+00  0.00000000000E+00  0.56981382680E+03  0.56981382680E+03  0.00000000000E+00 0. -1.
         -2   -1    0    0    0  501 -0.00000000000E+00 -0.00000000000E+00 -0.25112259213E+01  0.25112259213E+01  0.00000000000E+00 0.  1.
          1    1    1    2  502    0 -0.17448293566E+02 -0.19830417893E+02  0.78805394160E+02  0.83114250107E+02  0.00000000000E+00 0.  1.
         -1    1    1    2    0  501  0.17448293566E+02  0.19830417893E+02  0.48849720672E+03  0.48921080261E+03  0.00000000000E+00 0. -1.
</event>
<event>
 4    1  0.6754235E+001  0.2422583E+02  0.7546771E-02  0.1477653E+00
          2   -1    0    0  502    0  0.00000000000E+00  0.00000000000E+00  0.30417848385E+03  0.30417848385E+03  0.00000000000E+00 0.  1.
         -2   -1    0    0    0  501 -0.00000000000E+00 -0.00000000000E+00 -0.39565580318E+01  0.39565580318E+01  0.00000000000E+00 0. -1.
          1    1    1    2  502    0 -0.10043981096E+00  0.24225621939E+02  0.26039000896E+03  0.26151452658E+03  0.00000000000E+00 0.  1.
         -1    1    1    2    0  501  0.10043981096E+00 -0.24225621939E+02  0.39831916867E+02  0.46620515310E+02  0.00000000000E+00 0. -1.
</event>
<event>
 4    1  0.6754235E+001  0.4179337E+02  0.7546771E-02  0.1338285E+00
          2   -1    0    0  502    0  0.00000000000E+00  0.00000000000E+00  0.10764008985E+04  0.10764008985E+04  0.00000000000E+00 0.  1.
         -2   -1    0    0    0  501 -0.00000000000E+00 -0.00000000000E+00 -0.21177851460E+01  0.21177851460E+01  0.00000000000E+00 0. -1.
          1    1    1    2  502    0  0.35050245423E+02 -0.22763252978E+02  0.79787260065E+03  0.79896644000E+03  0.00000000000E+00 0.  1.
         -1    1    1    2    0  501 -0.35050245423E+02  0.22763252978E+02  0.27641051276E+03  0.27955224369E+03  0.00000000000E+00 0. -1.
</event>
<event>
 4    1  0.6754235E+001  0.2311245E+02  0.7546771E-02  0.1491091E+00
          2   -1    0    0  502    0  0.00000000000E+00  0.00000000000E+00  0.87528785414E+03  0.87528785414E+03  0.00000000000E+00 0. -1.
         -2   -1    0    0    0  501 -0.00000000000E+00 -0.00000000000E+00 -0.13421264960E+01  0.13421264960E+01  0.00000000000E+00 0.  1.
          1    1    1    2  502    0 -0.21076162871E+02  0.94858079037E+01  0.11330865673E+03  0.11564184746E+03  0.00000000000E+00 0.  1.
         -1    1    1    2    0  501  0.21076162871E+02 -0.94858079037E+01  0.76063707091E+03  0.76098813317E+03  0.00000000000E+00 0. -1.
</event>
<event>
 4    1  0.6754235E+001  0.2516816E+02  0.7546771E-02  0.1466931E+00
          2   -1    0    0  502    0  0.00000000000E+00  0.00000000000E+00  0.21659109797E+04  0.21659109797E+04  0.00000000000E+00 0.  1.
         -2   -1    0    0    0  501 -0.00000000000E+00 -0.00000000000E+00 -0.53153468215E+00  0.53153468215E+00  0.00000000000E+00 0. -1.
          1    1    1    2  502    0 -0.15503303002E+02 -0.19826345909E+02  0.18091646837E+04  0.18093397384E+04  0.00000000000E+00 0.  1.
         -1    1    1    2    0  501  0.15503303002E+02  0.19826345909E+02  0.35621476140E+03  0.35710277601E+03  0.00000000000E+00 0. -1.
</event>
<event>
 4    1  0.6754235E+001  0.4736271E+02  0.7546771E-02  0.1310030E+00
          2   -1    0    0  502    0  0.00000000000E+00  0.00000000000E+00  0.15665201426E+04  0.15665201426E+04  0.00000000000E+00 0.  1.
         -2   -1    0    0    0  501 -0.00000000000E+00 -0.00000000000E+00 -0.21016389870E+01  0.21016389870E+01  0.00000000000E+00 0. -1.
          1    1    1    2  502    0 -0.40258790796E+02  0.24949077029E+02  0.12249360357E+04  0.12258513443E+04  0.00000000000E+00 0.  1.
         -1    1    1    2    0  501  0.40258790796E+02 -0.24949077029E+02  0.33948246785E+03  0.34277043726E+03  0.00000000000E+00 0. -1.
</event>
<event>
 4    1  0.6754235E+001  0.2086832E+02  0.7546771E-02  0.1521153E+00
          2   -1    0    0  502    0  0.00000000000E+00  0.00000000000E+00  0.90159102476E+02  0.90159102476E+02  0.00000000000E+00 0.  1.
         -2   -1    0    0    0  501 -0.00000000000E+00 -0.00000000000E+00 -0.62309540291E+01  0.62309540291E+01  0.00000000000E+00 0. -1.
          1    1    1    2  502    0  0.19761117358E+02  0.67070848021E+01  0.19113060156E+02  0.28298335893E+02  0.00000000000E+00 0. -1.
         -1    1    1    2    0  501 -0.19761117358E+02 -0.67070848021E+01  0.64815088292E+02  0.68091720613E+02  0.00000000000E+00 0.  1.
</event>
<event>
 4    1  0.6754235E+001  0.2462651E+02  0.7546771E-02  0.1473025E+00
          2   -1    0    0  502    0  0.00000000000E+00  0.00000000000E+00  0.90821547184E+03  0.90821547184E+03  0.00000000000E+00 0.  1.
         -2   -1    0    0    0  501 -0.00000000000E+00 -0.00000000000E+00 -0.86701101696E+00  0.86701101696E+00  0.00000000000E+00 0. -1.
          1    1    1    2  502    0 -0.24561134366E+02  0.17932190721E+01  0.67157926662E+03  0.67203063643E+03  0.00000000000E+00 0.  1.
         -1    1    1    2    0  501  0.24561134366E+02 -0.17932190721E+01  0.23576919421E+03  0.23705184642E+03  0.00000000000E+00 0. -1.
</event>
<event>
 4    1  0.6754235E+001  0.2332767E+02  0.7546771E-02  0.1488424E+00
          2   -1    0    0  502    0  0.00000000000E+00  0.00000000000E+00  0.47248029622E+02  0.47248029622E+02  0.00000000000E+00 0. -1.
         -2   -1    0    0    0  501 -0.00000000000E+00 -0.00000000000E+00 -0.11990711479E+02  0.11990711479E+02  0.00000000000E+00 0.  1.
          1    1    1    2  502    0 -0.11995828724E+02 -0.20007005294E+02  0.23512641988E+02  0.33121360191E+02  0.00000000000E+00 0.  1.
         -1    1    1    2    0  501  0.11995828724E+02  0.20007005294E+02  0.11744676155E+02  0.26117380910E+02  0.00000000000E+00 0. -1.
</event>
<event>
 4    1  0.6754235E+001  0.2043348E+02  0.7546771E-02  0.1527509E+00
          2   -1    0    0  502    0  0.00000000000E+00  0.00000000000E+00  0.51332367808E+01  0.51332367808E+01  0.00000000000E+00 0. -1.
         -2   -1    0    0    0  501 -0.00000000000E+00 -0.00000000000E+00 -0.81422358585E+02  0.81422358585E+02  0.00000000000E+00 0.  1.
          1    1    1    2  502    0 -0.18196587473E+02  0.92957698968E+01 -0.39537710944E+02  0.44505704357E+02  0.00000000000E+00 0.  1.
         -1    1    1    2    0  501  0.18196587473E+02 -0.92957698968E+01 -0.36751410860E+02  0.42049891009E+02  0.00000000000E+00 0. -1.
</event>
<event>
 4    1  0.6754235E+001  0.2097309E+02  0.7546771E-02  0.1519649E+00
          2   -1    0    0  502    0  0.00000000000E+00  0.00000000000E+00  0.29374296443E+03  0.29374296443E+03  0.00000000000E+00 0.  1.
         -2   -1    0    0    0  501 -0.00000000000E+00 -0.00000000000E+00 -0.15336245878E+01  0.15336245878E+01  0.00000000000E+00 0. -1.
          1    1    1    2  502    0  0.10968427288E+02 -0.17876350603E+02  0.16877412108E+03  0.17007226186E+03  0.00000000000E+00 0.  1.
         -1    1    1    2    0  501 -0.10968427288E+02  0.17876350603E+02  0.12343521876E+03  0.12520432716E+03  0.00000000000E+00 0. -1.
</event>
<event>
 4    1  0.6754235E+001  0.2378713E+02  0.7546771E-02  0.1482844E+00
          2   -1    0    0  502    0  0.00000000000E+00  0.00000000000E+00  0.12489804211E+01  0.12489804211E+01  0.00000000000E+00 0.  1.
         -2   -1    0    0    0  501 -0.00000000000E+00 -0.00000000000E+00 -0.46798764182E+03  0.46798764182E+03  0.00000000000E+00 0. -1.
          1    1    1    2  502    0 -0.40573859065E+01 -0.23438545147E+02 -0.27531150586E+03  0.27633720893E+03  0.00000000000E+00 0. -1.
         -1    1    1    2    0  501  0.40573859065E+01  0.23438545147E+02 -0.19142715554E+03  0.19289941331E+03  0.00000000000E+00 0.  1.
</event>
<event>
 4    1  0.6754235E+001  0.2323517E+02  0.7546771E-02  0.1489566E+00
          2   -1    0    0  502    0  0.00000000000E+00  0.00000000000E+00  0.13265788514E+03  0.13265788514E+03  0.00000000000E+00 0. -1.
         -2   -1    0    0    0  501 -0.00000000000E+00 -0.00000000000E+00 -0.41112957144E+01  0.41112957144E+01  0.00000000000E+00 0.  1.
          1    1    1    2  502    0 -0.21551633033E+02  0.86833297432E+01  0.57391878882E+02  0.61916886739E+02  0.00000000000E+00 0. -1.
         -1    1    1    2    0  501  0.21551633033E+02 -0.86833297432E+01  0.71154710539E+02  0.74852294112E+02  0.00000000000E+00 0.  1.
</event>
<event>
 4    1  0.6754235E+001  0.5195887E+02  0.7546771E-02  0.1289896E+00
          2   -1    0    0  502    0  0.00000000000E+00  0.00000000000E+00  0.29401955461E+03  0.29401955461E+03  0.00000000000E+00 0.  1.
         -2   -1    0    0    0  501 -0.00000000000E+00 -0.00000000000E+00 -0.15749503599E+02  0.15749503599E+02  0.00000000000E+00 0. -1.
          1    1    1    2  502    0 -0.51957075934E+02  0.43125406701E+00  0.23915130541E+03  0.24473060822E+03  0.00000000000E+00 0.  1.
         -1    1    1    2    0  501  0.51957075934E+02 -0.43125406701E+00  0.39118745602E+02  0.65038449991E+02  0.00000000000E+00 0. -1.
</event>
<event>
 4    1  0.6754235E+001  0.2336812E+02  0.7546771E-02  0.1487927E+00
          2   -1    0    0  502    0  0.00000000000E+00  0.00000000000E+00  0.72413392070E+02  0.72413392070E+02  0.00000000000E+00 0. -1.
         -2   -1    0    0    0  501 -0.00000000000E+00 -0.00000000000E+00 -0.19188818877E+02  0.19188818877E+02  0.00000000000E+00 0.  1.
          1    1    1    2  502    0  0.23197288604E+02 -0.28204085811E+01 -0.90717740063E+01  0.25067229340E+02  0.00000000000E+00 0.  1.
         -1    1    1    2    0  501 -0.23197288604E+02  0.28204085811E+01  0.62296347199E+02  0.66534981607E+02  0.00000000000E+00 0. -1.
</event>
<event>
 4    1  0.6754235E+001  0.2542854E+02  0.7546771E-02  0.1464066E+00
          2   -1    0    0  502    0  0.00000000000E+00  0.00000000000E+00  0.19480084938E+04  0.19480084938E+04  0.00000000000E+00 0.  1.
         -2   -1    0    0    0  501 -0.00000000000E+00 -0.00000000000E+00 -0.67305633531E+00  0.67305633531E+00  0.00000000000E+00 0. -1.
          1    1    1    2  502    0  0.24735860841E+02 -0.58947220947E+01  0.16673173290E+04  0.16675112252E+04  0.00000000000E+00 0.  1.
         -1    1    1    2    0  501 -0.24735860841E+02  0.58947220947E+01  0.28001810844E+03  0.28117032492E+03  0.00000000000E+00 0. -1.
</event>
<event>
 4    1  0.6754235E+001  0.2341971E+02  0.7546771E-02  0.1487294E+00
          2   -1    0    0  502    0  0.00000000000E+00  0.00000000000E+00  0.11205608539E+03  0.11205608539E+03  0.00000000000E+00 0.  1.
         -2   -1    0    0    0  501 -0.00000000000E+00 -0.00000000000E+00 -0.80132432892E+01  0.80132432892E+01  0.00000000000E+00 0. -1.
          1    1    1    2  502    0 -0.22955515949E+02  0.46397484732E+01  0.14569635092E+02  0.27581828168E+02  0.00000000000E+00 0. -1.
         -1    1    1    2    0  501  0.22955515949E+02 -0.46397484732E+01  0.89473207007E+02  0.92487500509E+02  0.00000000000E+00 0.  1.
</event>
<event>
 4    1  0.6754235E+001  0.3173063E+02  0.7546771E-02  0.1405131E+00
          2   -1    0    0  502    0  0.00000000000E+00  0.00000000000E+00  0.43272127752E+02  0.43272127752E+02  0.00000000000E+00 0.  1.
         -2   -1    0    0    0  501 -0.00000000000E+00 -0.00000000000E+00 -0.33008804927E+02  0.33008804927E+02  0.00000000000E+00 0. -1.
          1    1    1    2  502    0 -0.14108559256E+02 -0.28421491870E+02  0.25851219354E+02  0.40928207711E+02  0.00000000000E+00 0.  1.
         -1    1    1    2    0  501  0.14108559256E+02  0.28421491870E+02 -0.15587896529E+02  0.35352724967E+02  0.00000000000E+00 0. -1.
</event>
<event>
 4    1  0.6754235E+001  0.2111972E+02  0.7546771E-02  0.1517562E+00
          2   -1    0    0  502    0  0.00000000000E+00  0.00000000000E+00  0.37850855677E+00  0.37850855677E+00  0.00000000000E+00 0. -1.
         -2   -1    0    0    0  501 -0.00000000000E+00 -0.00000000000E+00 -0.13035846734E+04  0.13035846734E+04  0.00000000000E+00 0.  1.
          1    1    1    2  502    0 -0.13879433677E+02  0.15918664163E+02 -0.85362771674E+03  0.85388893970E+03  0.00000000000E+00 0.  1.
         -1    1    1    2    0  501  0.13879433677E+02 -0.15918664163E+02 -0.44957844806E+03  0.45007424222E+03  0.00000000000E+00 0. -1.
</event>
<event>
 4    1  0.6754235E+001  0.2422634E+02  0.7546771E-02  0.1477648E+00
          2   -1    0    0  502    0  0.00000000000E+00  0.00000000000E+00  0.78231926581E+03  0.78231926581E+03  0.00000000000E+00 0.  1.
         -2   -1    0    0    0  501 -0.00000000000E+00 -0.00000000000E+00 -0.84160861850E+00  0.84160861850E+00  0.00000000000E+00 0. -1.
          1    1    1    2  502    0 -0.24074209386E+02  0.27106839747E+01  0.51977171050E+03  0.52033599376E+03  0.00000000000E+00 0.  1.
         -1    1    1    2    0  501  0.24074209386E+02 -0.27106839747E+01  0.26170594669E+03  0.26282488066E+03  0.00000000000E+00 0. -1.
</event>
<event>
 4    1  0.6754235E+001  0.2268177E+02  0.7546771E-02  0.1496533E+00
          2   -1    0    0  502    0  0.00000000000E+00  0.00000000000E+00  0.26754172879E+03  0.26754172879E+03  0.00000000000E+00 0.  1.
         -2   -1    0    0    0  501 -0.00000000000E+00 -0.00000000000E+00 -0.25069238409E+01  0.25069238409E+01  0.00000000000E+00 0. -1.
          1    1    1    2  502    0 -0.14307570859E+02  0.17599894662E+02  0.19768731940E+03  0.19898426854E+03  0.00000000000E+00 0.  1.
         -1    1    1    2    0  501  0.14307570859E+02 -0.17599894662E+02  0.67347485552E+02  0.71064384091E+02  0.00000000000E+00 0. -1.
</event>
<event>
 4    1  0.6754235E+001  0.2338579E+02  0.7546771E-02  0.1487710E+00
          2   -1    0    0  502    0  0.00000000000E+00  0.00000000000E+00  0.10177333899E+03  0.10177333899E+03  0.00000000000E+00 0. -1.
         -2   -1    0    0    0  501 -0.00000000000E+00 -0.00000000000E+00 -0.53939386596E+01  0.53939386596E+01  0.00000000000E+00 0.  1.
          1    1    1    2  502    0  0.30803768764E+00  0.23383756710E+02  0.44903937090E+02  0.50628633512E+02  0.00000000000E+00 0. -1.
         -1    1    1    2    0  501 -0.30803768764E+00 -0.23383756710E+02  0.51475463237E+02  0.56538644134E+02  0.00000000000E+00 0.  1.
</event>
<event>
 4    1  0.6754235E+001  0.2342893E+02  0.7546771E-02  0.1487181E+00
          2   -1    0    0  502    0  0.00000000000E+00  0.00000000000E+00  0.12544255926E+01  0.12544255926E+01  0.00000000000E+00 0. -1.
         -2   -1    0    0    0  501 -0.00000000000E+00 -0.00000000000E+00 -0.44437084224E+03  0.44437084224E+03  0.00000000000E+00 0.  1.
          1    1    1    2  502    0  0.17133698353E+02  0.15979711984E+02 -0.24909704875E+03  0.25019643185E+03  0.00000000000E+00 0. -1.
         -1    1    1    2    0  501 -0.17133698353E+02 -0.15979711984E+02 -0.19401936790E+03  0.19542883599E+03  0.00000000000E+00 0.  1.
</event>
<event>
 4    1  0.6754235E+001  0.3314143E+02  0.7546771E-02  0.1394122E+00
          2   -1    0    0  502    0  0.00000000000E+00  0.00000000000E+00  0.79206473829E+02  0.79206473829E+02  0.00000000000E+00 0. -1.
         -2   -1    0    0    0  501 -0.00000000000E+00 -0.00000000000E+00 -0.15481820587E+02  0.15481820587E+02  0.00000000000E+00 0.  1.
          1    1    1    2  502    0  0.31736358337E+02  0.95476775577E+01  0.47152771208E+02  0.57634524548E+02  0.00000000000E+00 0.  1.
         -1    1    1    2    0  501 -0.31736358337E+02 -0.95476775577E+01  0.16571882034E+02  0.37053769868E+02  0.00000000000E+00 0. -1.
</event>
<event>
 4    1  0.6754235E+001  0.2174873E+02  0.7546771E-02  0.1508838E+00
          2   -1    0    0  502    0  0.00000000000E+00  0.00000000000E+00  0.52594503714E+03  0.52594503714E+03  0.00000000000E+00 0. -1.
         -2   -1    0    0    0  501 -0.00000000000E+00 -0.00000000000E+00 -0.12124949897E+01  0.12124949897E+01  0.00000000000E+00 0.  1.
          1    1    1    2  502    0  0.41698155890E+01 -0.21345258993E+02  0.12841563082E+03  0.13024431535E+03  0.00000000000E+00 0.  1.
         -1    1    1    2    0  501 -0.41698155890E+01  0.21345258993E+02  0.39631691133E+03  0.39691321677E+03  0.00000000000E+00 0. -1.
</event>
<event>
 4    1  0.6754235E+001  0.3464560E+02  0.7546771E-02  0.1383072E+00
          2   -1    0    0  502    0  0.00000000000E+00  0.00000000000E+00  0.34522262636E+02  0.34522262636E+02  0.00000000000E+00 0.  1.
         -2   -1    0    0    0  501 -0.00000000000E+00 -0.00000000000E+00 -0.35464869289E+02  0.35464869289E+02  0.00000000000E+00 0. -1.
          1    1    1    2  502    0  0.24772895843E+02 -0.24220267263E+02  0.44291225005E+01  0.34927565630E+02  0.00000000000E+00 0.  1.
         -1    1    1    2    0  501 -0.24772895843E+02  0.24220267263E+02 -0.53717291530E+01  0.35059566295E+02  0.00000000000E+00 0. -1.
</event>
<event>
 4    1  0.6754235E+001  0.2822809E+02  0.7546771E-02  0.1435647E+00
          2   -1    0    0  502    0  0.00000000000E+00  0.00000000000E+00  0.67994444381E+02  0.67994444381E+02  0.00000000000E+00 0.  1.
         -2   -1    0    0    0  501 -0.00000000000E+00 -0.00000000000E+00 -0.14675270770E+02  0.14675270770E+02  0.00000000000E+00 0. -1.
          1    1    1    2  502    0 -0.17016624018E+02 -0.22522424241E+02  0.45211873237E+02  0.53300455610E+02  0.00000000000E+00 0.  1.
         -1    1    1    2    0  501  0.17016624018E+02  0.22522424241E+02  0.81073003745E+01  0.29369259541E+02  0.00000000000E+00 0. -1.
</event>
<event>
 4    1  0.6754235E+001  0.4082759E+02  0.7546771E-02  0.1343703E+00
          2   -1    0    0  502    0  0.00000000000E+00  0.00000000000E+00  0.26568364528E+03  0.26568364528E+03  0.00000000000E+00 0.  1.
         -2   -1    0    0    0  501 -0.00000000000E+00 -0.00000000000E+00 -0.81592610071E+01  0.81592610071E+01  0.00000000000E+00 0. -1.
          1    1    1    2  502    0  0.30651552507E+02 -0.26969886750E+02  0.19457868644E+03  0.19881588890E+03  0.00000000000E+00 0.  1.
         -1    1    1    2    0  501 -0.30651552507E+02  0.26969886750E+02  0.62945697838E+02  0.75027017392E+02  0.00000000000E+00 0. -1.
</event>
<event>
 4    1  0.6754235E+001  0.5833210E+02  0.7546771E-02  0.1265607E+00
          2   -1    0    0  502    0  0.00000000000E+00  0.00000000000E+00  0.22938835102E+03  0.22938835102E+03  0.00000000000E+00 0.  1.
         -2   -1    0    0    0  501 -0.00000000000E+00 -0.00000000000E+00 -0.39053714448E+02  0.39053714448E+02  0.00000000000E+00 0. -1.
          1    1    1    2  502    0 -0.54455359310E+02  0.20910477427E+02 -0.10533490909E+02  0.59275531668E+02  0.00000000000E+00 0. -1.
         -1    1    1    2    0  501  0.54455359310E+02 -0.20910477427E+02  0.20086812748E+03  0.20916653380E+03  0.00000000000E+00 0.  1.
</event>
<event>
 4    1  0.6754235E+001  0.4341220E+02  0.7546771E-02  0.1329573E+00
          2   -1    0    0  502    0  0.00000000000E+00  0.00000000000E+00  0.51863977786E+03  0.51863977786E+03  0.00000000000E+00 0.  1.
         -2   -1    0    0    0  501 -0.00000000000E+00 -0.00000000000E+00 -0.40113717220E+01  0.40113717220E+01  0.00000000000E+00 0. -1.
          1    1    1    2  502    0 -0.39499037898E+02 -0.18012362051E+02  0.33749138032E+03  0.34027202496E+03  0.00000000000E+00 0. -1.
         -1    1    1    2    0  501  0.39499037898E+02  0.18012362051E+02  0.17713702581E+03  0.18237912462E+03  0.00000000000E+00 0.  1.
</event>
<event>
 4    1  0.6754235E+001  0.2528720E+02  0.7546771E-02  0.1465616E+00
          2   -1    0    0  502    0  0.00000000000E+00  0.00000000000E+00  0.99189349873E+01  0.99189349873E+01  0.00000000000E+00 0. -1.
         -2   -1    0    0    0  501 -0.00000000000E+00 -0.00000000000E+00 -0.72184948970E+02  0.72184948970E+02  0.00000000000E+00 0.  1.
          1    1    1    2  502    0  0.20391769026E+02  0.14953871285E+02 -0.17709515109E+02  0.30871822684E+02  0.00000000000E+00 0. -1.
         -1    1    1    2    0  501 -0.20391769026E+02 -0.14953871285E+02 -0.44556498873E+02  0.51232061273E+02  0.00000000000E+00 0.  1.
</event>
<event>
 4    1  0.6754235E+001  0.2384621E+02  0.7546771E-02  0.1482137E+00
          2   -1    0    0  502    0  0.00000000000E+00  0.00000000000E+00  0.28221875422E+02  0.28221875422E+02  0.00000000000E+00 0.  1.
         -2   -1    0    0    0  501 -0.00000000000E+00 -0.00000000000E+00 -0.24242221230E+02  0.24242221230E+02  0.00000000000E+00 0. -1.
          1    1    1    2  502    0 -0.23798549948E+02 -0.15069405744E+01  0.12768863978E+02  0.27049690143E+02  0.00000000000E+00 0.  1.
         -1    1    1    2    0  501  0.23798549948E+02  0.15069405744E+01 -0.87892097863E+01  0.25414406509E+02  0.00000000000E+00 0. -1.
</event>
<event>
 4    1  0.6754235E+001  0.2225217E+02  0.7546771E-02  0.1502108E+00
          2   -1    0    0  502    0  0.00000000000E+00  0.00000000000E+00  0.20300024392E+04  0.20300024392E+04  0.00000000000E+00 0. -1.
         -2   -1    0    0    0  501 -0.00000000000E+00 -0.00000000000E+00 -0.24394205469E+00  0.24394205469E+00  0.00000000000E+00 0.  1.
          1    1    1    2  502    0 -0.70190938889E+01  0.21116140532E+02  0.10244366531E+04  0.10246782984E+04  0.00000000000E+00 0.  1.
         -1    1    1    2    0  501  0.70190938889E+01 -0.21116140532E+02  0.10053218441E+04  0.10055680828E+04  0.00000000000E+00 0. -1.
</event>
<event>
 4    1  0.6754235E+001  0.2322586E+02  0.7546771E-02  0.1489681E+00
          2   -1    0    0  502    0  0.00000000000E+00  0.00000000000E+00  0.51489086198E+03  0.51489086198E+03  0.00000000000E+00 0. -1.
         -2   -1    0    0    0  501 -0.00000000000E+00 -0.00000000000E+00 -0.14914120429E+01  0.14914120429E+01  0.00000000000E+00 0.  1.
          1    1    1    2  502    0  0.23225113298E+02 -0.18681751556E+00  0.39753225105E+03  0.39821015986E+03  0.00000000000E+00 0. -1.
         -1    1    1    2    0  501 -0.23225113298E+02  0.18681751556E+00  0.11586719888E+03  0.11817211416E+03  0.00000000000E+00 0.  1.
</event>
<event>
 4    1  0.6754235E+001  0.2081983E+02  0.7546771E-02  0.1521853E+00
          2   -1    0    0  502    0  0.00000000000E+00  0.00000000000E+00  0.97638817989E+03  0.97638817989E+03  0.00000000000E+00 0.  1.
         -2   -1    0    0    0  501 -0.00000000000E+00 -0.00000000000E+00 -0.51595340856E+00  0.51595340856E+00  0.00000000000E+00 0. -1.
          1    1    1    2  502    0  0.69391115087E+01  0.19629418206E+02  0.67040971583E+03  0.67073292182E+03  0.00000000000E+00 0.  1.
         -1    1    1    2    0  501 -0.69391115087E+01 -0.19629418206E+02  0.30546251066E+03  0.30617121149E+03  0.00000000000E+00 0. -1.
</event>
<event>
 4    1  0.6754235E+001  0.2182838E+02  0.7546771E-02  0.1507759E+00
          2   -1    0    0  502    0  0.00000000000E+00  0.00000000000E+00  0.13249207680E+04  0.13249207680E+04  0.00000000000E+00 0. -1.
         -2   -1    0    0    0  501 -0.00000000000E+00 -0.00000000000E+00 -0.35987392466E+00  0.35987392466E+00  0.00000000000E+00 0.  1.
          1    1    1    2  502    0  0.21828344144E+02  0.39673632011E-01  0.64494695687E+03  0.64531624446E+03  0.00000000000E+00 0. -1.
         -1    1    1    2    0  501 -0.21828344144E+02 -0.39673632011E-01  0.67961393721E+03  0.67996439748E+03  0.00000000000E+00 0.  1.
</event>
<event>
 4    1  0.6754235E+001  0.6138570E+02  0.7546771E-02  0.1255196E+00
          2   -1    0    0  502    0  0.00000000000E+00  0.00000000000E+00  0.35267127274E+03  0.35267127274E+03  0.00000000000E+00 0.  1.
         -2   -1    0    0    0  501 -0.00000000000E+00 -0.00000000000E+00 -0.10698005057E+02  0.10698005057E+02  0.00000000000E+00 0. -1.
          1    1    1    2  502    0 -0.16223772433E+02  0.59202985417E+02  0.16459130928E+03  0.17566588560E+03  0.00000000000E+00 0. -1.
         -1    1    1    2    0  501  0.16223772433E+02 -0.59202985417E+02  0.17738195841E+03  0.18770339220E+03  0.00000000000E+00 0.  1.
</event>
<event>
 4    1  0.6754235E+001  0.5826824E+02  0.7546771E-02  0.1265833E+00
          2   -1    0    0  502    0  0.00000000000E+00  0.00000000000E+00  0.53100813833E+03  0.53100813833E+03  0.00000000000E+00 0. -1.
         -2   -1    0    0    0  501 -0.00000000000E+00 -0.00000000000E+00 -0.64858929068E+01  0.64858929068E+01  0.00000000000E+00 0.  1.
          1    1    1    2  502    0 -0.41563341470E+02 -0.40837197792E+02  0.29427559939E+03  0.29998886059E+03  0.00000000000E+00 0. -1.
         -1    1    1    2    0  501  0.41563341470E+02  0.40837197792E+02  0.23024664603E+03  0.23750517065E+03  0.00000000000E+00 0.  1.
</event>
<event>
 4    1  0.6754235E+001  0.2368483E+02  0.7546771E-02  0.1484073E+00
          2   -1    0    0  502    0  0.00000000000E+00  0.00000000000E+00  0.14141521519E+03  0.14141521519E+03  0.00000000000E+00 0. -1.
         -2   -1    0    0    0  501 -0.00000000000E+00 -0.00000000000E+00 -0.41224146972E+01  0.41224146972E+01  0.00000000000E+00 0.  1.
          1    1    1    2  502    0  0.14996776376E+02 -0.18332150505E+02  0.82782961076E+02  0.86104527688E+02  0.00000000000E+00 0. -1.
         -1    1    1    2    0  501 -0.14996776376E+02  0.18332150505E+02  0.54509839413E+02  0.59433102195E+02  0.00000000000E+00 0.  1.
</event>
<event>
 4    1  0.6754235E+001  0.2081852E+02  0.7546771E-02  0.1521872E+00
          2   -1    0    0  502    0  0.00000000000E+00  0.00000000000E+00  0.66720668233E+02  0.66720668233E+02  0.00000000000E+00 0. -1.
         -2   -1    0    0    0  501 -0.00000000000E+00 -0.00000000000E+00 -0.75083439233E+01  0.75083439233E+01  0.00000000000E+00 0.  1.
          1    1    1    2  502    0 -0.56972491889E+01  0.20023790005E+02  0.43234943155E+02  0.47986155546E+02  0.00000000000E+00 0. -1.
         -1    1    1    2    0  501  0.56972491889E+01 -0.20023790005E+02  0.15977381155E+02  0.26242856610E+02  0.00000000000E+00 0.  1.
</event>
<event>
 4    1  0.6754235E+001  0.3209195E+02  0.7546771E-02  0.1402248E+00
          2   -1    0    0  502    0  0.00000000000E+00  0.00000000000E+00  0.25730026539E+04  0.25730026539E+04  0.00000000000E+00 0. -1.
         -2   -1    0    0    0  501 -0.00000000000E+00 -0.00000000000E+00 -0.88133597770E+00  0.88133597770E+00  0.00000000000E+00 0.  1.
          1    1    1    2  502    0  0.20640270772E+02 -0.24573822151E+02  0.33525678752E+03  0.33678926213E+03  0.00000000000E+00 0.  1.
         -1    1    1    2    0  501 -0.20640270772E+02  0.24573822151E+02  0.22368645304E+04  0.22370947277E+04  0.00000000000E+00 0. -1.
</event>
<event>
 4    1  0.6754235E+001  0.2352723E+02  0.7546771E-02  0.1485982E+00
          2   -1    0    0  502    0  0.00000000000E+00  0.00000000000E+00  0.18347770792E+04  0.18347770792E+04  0.00000000000E+00 0. -1.
         -2   -1    0    0    0  501 -0.00000000000E+00 -0.00000000000E+00 -0.30172492171E+00  0.30172492171E+00  0.00000000000E+00 0.  1.
          1    1    1    2  502    0 -0.22515952170E+02 -0.68236799770E+01  0.92735128145E+03  0.92764968060E+03  0.00000000000E+00 0.  1.
         -1    1    1    2    0  501  0.22515952170E+02  0.68236799770E+01  0.90712407282E+03  0.90742912351E+03  0.00000000000E+00 0. -1.
</event>
<event>
 4    1  0.6754235E+001  0.2183272E+02  0.7546771E-02  0.1507700E+00
          2   -1    0    0  502    0  0.00000000000E+00  0.00000000000E+00  0.93550820108E+03  0.93550820108E+03  0.00000000000E+00 0. -1.
         -2   -1    0    0    0  501 -0.00000000000E+00 -0.00000000000E+00 -0.36468723265E+01  0.36468723265E+01  0.00000000000E+00 0.  1.
          1    1    1    2  502    0 -0.41506493568E+01 -0.21434549786E+02  0.90147072996E+03  0.90173507461E+03  0.00000000000E+00 0. -1.
         -1    1    1    2    0  501  0.41506493568E+01  0.21434549786E+02  0.30390598795E+02  0.37419998794E+02  0.00000000000E+00 0.  1.
</event>
<event>
 4    1  0.6754235E+001  0.2628037E+02  0.7546771E-02  0.1454974E+00
          2   -1    0    0  502    0  0.00000000000E+00  0.00000000000E+00  0.19816564706E+03  0.19816564706E+03  0.00000000000E+00 0.  1.
         -2   -1    0    0    0  501 -0.00000000000E+00 -0.00000000000E+00 -0.36203533627E+01  0.36203533627E+01  0.00000000000E+00 0. -1.
          1    1    1    2  502    0  0.22287147112E+02 -0.13926273437E+02  0.11676251619E+03  0.11968351267E+03  0.00000000000E+00 0. -1.
         -1    1    1    2    0  501 -0.22287147112E+02  0.13926273437E+02  0.77782777503E+02  0.82102487748E+02  0.00000000000E+00 0.  1.
</event>
<event>
 4    1  0.6754235E+001  0.2668997E+02  0.7546771E-02  0.1450747E+00
          2   -1    0    0  502    0  0.00000000000E+00  0.00000000000E+00  0.58923253136E+03  0.58923253136E+03  0.00000000000E+00 0.  1.
         -2   -1    0    0    0  501 -0.00000000000E+00 -0.00000000000E+00 -0.13006990160E+01  0.13006990160E+01  0.00000000000E+00 0. -1.
          1    1    1    2  502    0  0.73184226273E+01 -0.25667010194E+02  0.21554743981E+03  0.21719358538E+03  0.00000000000E+00 0. -1.
         -1    1    1    2    0  501 -0.73184226273E+01  0.25667010194E+02  0.37238439253E+03  0.37333964499E+03  0.00000000000E+00 0.  1.
</event>
<event>
 4    1  0.6754235E+001  0.2610376E+02  0.7546771E-02  0.1456825E+00
          2   -1    0    0  502    0  0.00000000000E+00  0.00000000000E+00  0.51687458857E+01  0.51687458857E+01  0.00000000000E+00 0.  1.
         -2   -1    0    0    0  501 -0.00000000000E+00 -0.00000000000E+00 -0.14013362087E+03  0.14013362087E+03  0.00000000000E+00 0. -1.
          1    1    1    2  502    0  0.26103113090E+02  0.18436724183E+00 -0.85165234489E+02  0.89075943272E+02  0.00000000000E+00 0. -1.
         -1    1    1    2    0  501 -0.26103113090E+02 -0.18436724183E+00 -0.49799640491E+02  0.56226423480E+02  0.00000000000E+00 0.  1.
</event>
<event>
 4    1  0.6754235E+001  0.3072678E+02  0.7546771E-02  0.1413384E+00
          2   -1    0    0  502    0  0.00000000000E+00  0.00000000000E+00  0.72184347040E+03  0.72184347040E+03  0.00000000000E+00 0. -1.
         -2   -1    0    0    0  501 -0.00000000000E+00 -0.00000000000E+00 -0.13684809573E+01  0.13684809573E+01  0.00000000000E+00 0.  1.
          1    1    1    2  502    0  0.13699628419E+02 -0.27503725695E+02  0.43628887209E+03  0.43736954016E+03  0.00000000000E+00 0. -1.
         -1    1    1    2    0  501 -0.13699628419E+02  0.27503725695E+02  0.28418611735E+03  0.28584241120E+03  0.00000000000E+00 0.  1.
</event>
<event>
 4    1  0.6754235E+001  0.2269456E+02  0.7546771E-02  0.1496370E+00
          2   -1    0    0  502    0  0.00000000000E+00  0.00000000000E+00  0.67401798717E+02  0.67401798717E+02  0.00000000000E+00 0.  1.
         -2   -1    0    0    0  501 -0.00000000000E+00 -0.00000000000E+00 -0.11213965744E+02  0.11213965744E+02  0.00000000000E+00 0. -1.
          1    1    1    2  502    0 -0.10103719478E+02 -0.20321361572E+02  0.59072911385E+01  0.23450777643E+02  0.00000000000E+00 0. -1.
         -1    1    1    2    0  501  0.10103719478E+02  0.20321361572E+02  0.50280541835E+02  0.55164986818E+02  0.00000000000E+00 0.  1.
</event>
<event>
 4    1  0.6754235E+001  0.3761739E+02  0.7546771E-02  0.1363043E+00
          2   -1    0    0  502    0  0.00000000000E+00  0.00000000000E+00  0.68710008778E+02  0.68710008778E+02  0.00000000000E+00 0. -1.
         -2   -1    0    0    0  501 -0.00000000000E+00 -0.00000000000E+00 -0.33356592981E+02  0.33356592981E+02  0.00000000000E+00 0.  1.
          1    1    1    2  502    0 -0.28867032242E+02  0.24119753821E+02  0.49242658036E+02  0.61966986738E+02  0.00000000000E+00 0. -1.
         -1    1    1    2    0  501  0.28867032242E+02 -0.24119753821E+02 -0.13889242239E+02  0.40099615021E+02  0.00000000000E+00 0.  1.
</event>
<event>
 4    1  0.6754235E+001  0.2155398E+02  0.7546771E-02  0.1511500E+00
          2   -1    0    0  502    0  0.00000000000E+00  0.00000000000E+00  0.27327200866E+03  0.27327200866E+03  0.00000000000E+00 0.  1.
         -2   -1    0    0    0  501 -0.00000000000E+00 -0.00000000000E+00 -0.46202878434E+01  0.46202878434E+01  0.00000000000E+00 0. -1.
          1    1    1    2  502    0  0.21545623772E+02 -0.60014825127E+00  0.23861635058E+02  0.32155119488E+02  0.00000000000E+00 0. -1.
         -1    1    1    2    0  501 -0.21545623772E+02  0.60014825127E+00  0.24479008576E+03  0.24573717702E+03  0.00000000000E+00 0.  1.
</event>
<event>
 4    1  0.6754235E+001  0.2931033E+02  0.7546771E-02  0.1425686E+00
          2   -1    0    0  502    0  0.00000000000E+00  0.00000000000E+00  0.85536724670E+03  0.85536724670E+03  0.00000000000E+00 0. -1.
         -2   -1    0    0    0  501 -0.00000000000E+00 -0.00000000000E+00 -0.18059842416E+01  0.18059842416E+01  0.00000000000E+00 0.  1.
          1    1    1    2  502    0 -0.16643939521E+02  0.24126220605E+02  0.14124027848E+03  0.14424947664E+03  0.00000000000E+00 0.  1.
         -1    1    1    2    0  501  0.16643939521E+02 -0.24126220605E+02  0.71232098397E+03  0.71292375430E+03  0.00000000000E+00 0. -1.
</event>
<event>
 4    1  0.6754235E+001  0.2333146E+02  0.7546771E-02  0.1488377E+00
          2   -1    0    0  502    0  0.00000000000E+00  0.00000000000E+00  0.36784533095E+03  0.36784533095E+03  0.00000000000E+00 0.  1.
         -2   -1    0    0    0  501 -0.00000000000E+00 -0.00000000000E+00 -0.19437586403E+01  0.19437586403E+01  0.00000000000E+00 0. -1.
          1    1    1    2  502    0  0.11354073270E+02  0.20382391853E+02  0.92623714124E+02  0.95517062850E+02  0.00000000000E+00 0. -1.
         -1    1    1    2    0  501 -0.11354073270E+02 -0.20382391853E+02  0.27327785818E+03  0.27427202674E+03  0.00000000000E+00 0.  1.
</event>
<event>
 4    1  0.6754235E+001  0.3127611E+02  0.7546771E-02  0.1408822E+00
          2   -1    0    0  502    0  0.00000000000E+00  0.00000000000E+00  0.56192976827E+03  0.56192976827E+03  0.00000000000E+00 0.  1.
         -2   -1    0    0    0  501 -0.00000000000E+00 -0.00000000000E+00 -0.17694603489E+01  0.17694603489E+01  0.00000000000E+00 0. -1.
          1    1    1    2  502    0  0.40580001639E+01  0.31011738766E+02  0.31596408048E+03  0.31750826046E+03  0.00000000000E+00 0.  1.
         -1    1    1    2    0  501 -0.40580001639E+01 -0.31011738766E+02  0.24419622744E+03  0.24619096816E+03  0.00000000000E+00 0. -1.
</event>
<event>
 4    1  0.6754235E+001  0.2024669E+02  0.7546771E-02  0.1530297E+00
          2   -1    0    0  502    0  0.00000000000E+00  0.00000000000E+00  0.28527965276E+02  0.28527965276E+02  0.00000000000E+00 0. -1.
         -2   -1    0    0    0  501 -0.00000000000E+00 -0.00000000000E+00 -0.21786517225E+02  0.21786517225E+02  0.00000000000E+00 0.  1.
          1    1    1    2  502    0 -0.68941346019E-01 -0.20246574918E+02  0.18049434614E+02  0.27123986409E+02  0.00000000000E+00 0. -1.
         -1    1    1    2    0  501  0.68941346019E-01  0.20246574918E+02 -0.11307986563E+02  0.23190496091E+02  0.00000000000E+00 0.  1.
</event>
<event>
 4    1  0.6754235E+001  0.3989687E+02  0.7546771E-02  0.1349091E+00
          2   -1    0    0  502    0  0.00000000000E+00  0.00000000000E+00  0.69168870303E+02  0.69168870303E+02  0.00000000000E+00 0. -1.
         -2   -1    0    0    0  501 -0.00000000000E+00 -0.00000000000E+00 -0.82206325773E+02  0.82206325773E+02  0.00000000000E+00 0.  1.
          1    1    1    2  502    0 -0.35002165277E+02  0.19147020033E+02  0.57707099776E+02  0.70156035484E+02  0.00000000000E+00 0. -1.
         -1    1    1    2    0  501  0.35002165277E+02 -0.19147020033E+02 -0.70744555246E+02  0.81219160592E+02  0.00000000000E+00 0.  1.
</event>
<event>
 4    1  0.6754235E+001  0.2331869E+02  0.7546771E-02  0.1488535E+00
          2   -1    0    0  502    0  0.00000000000E+00  0.00000000000E+00  0.10525325975E+01  0.10525325975E+01  0.00000000000E+00 0.  1.
         -2   -1    0    0    0  501 -0.00000000000E+00 -0.00000000000E+00 -0.55671024379E+03  0.55671024379E+03  0.00000000000E+00 0. -1.
          1    1    1    2  502    0 -0.23305134121E+02  0.79507335107E+00 -0.20299229152E+03  0.20432726650E+03  0.00000000000E+00 0.  1.
         -1    1    1    2    0  501  0.23305134121E+02 -0.79507335107E+00 -0.35266541967E+03  0.35343550989E+03  0.00000000000E+00 0. -1.
</event>
<event>
 4    1  0.6754235E+001  0.3503742E+02  0.7546771E-02  0.1380300E+00
          2   -1    0    0  502    0  0.00000000000E+00  0.00000000000E+00  0.64137880728E+03  0.64137880728E+03  0.00000000000E+00 0.  1.
         -2   -1    0    0    0  501 -0.00000000000E+00 -0.00000000000E+00 -0.24499216535E+01  0.24499216535E+01  0.00000000000E+00 0. -1.
          1    1    1    2  502    0 -0.34513222037E+02 -0.60380674241E+01  0.47002152549E+03  0.47132563603E+03  0.00000000000E+00 0. -1.
         -1    1    1    2    0  501  0.34513222037E+02  0.60380674241E+01  0.16890736014E+03  0.17250309291E+03  0.00000000000E+00 0.  1.
</event>
<event>
 4    1  0.6754235E+001  0.2448829E+02  0.7546771E-02  0.1474610E+00
          2   -1    0    0  502    0  0.00000000000E+00  0.00000000000E+00  0.13807378821E+04  0.13807378821E+04  0.00000000000E+00 0.  1.
         -2   -1    0    0    0  501 -0.00000000000E+00 -0.00000000000E+00 -0.53572909396E+00  0.53572909396E+00  0.00000000000E+00 0. -1.
          1    1    1    2  502    0  0.20110879104E+02 -0.13972440189E+02  0.38961515016E+03  0.39038396711E+03  0.00000000000E+00 0.  1.
         -1    1    1    2    0  501 -0.20110879104E+02  0.13972440189E+02  0.99058700283E+03  0.99088964406E+03  0.00000000000E+00 0. -1.
</event>
<event>
 4    1  0.6754235E+001  0.2229487E+02  0.7546771E-02  0.1501548E+00
          2   -1    0    0  502    0  0.00000000000E+00  0.00000000000E+00  0.18309124377E+02  0.18309124377E+02  0.00000000000E+00 0.  1.
         -2   -1    0    0    0  501 -0.00000000000E+00 -0.00000000000E+00 -0.44750872873E+02  0.44750872873E+02  0.00000000000E+00 0. -1.
          1    1    1    2  502    0  0.19914842986E+02 -0.10022986515E+02  0.65538994529E+01  0.23238219120E+02  0.00000000000E+00 0.  1.
         -1    1    1    2    0  501 -0.19914842986E+02  0.10022986515E+02 -0.32995647950E+02  0.39821778130E+02  0.00000000000E+00 0. -1.
</event>
<event>
 4    1  0.6754235E+001  0.2417413E+02  0.7546771E-02  0.1478258E+00
          2   -1    0    0  502    0  0.00000000000E+00  0.00000000000E+00  0.71167870264E+03  0.71167870264E+03  0.00000000000E+00 0. -1.
         -2   -1    0    0    0  501 -0.00000000000E+00 -0.00000000000E+00 -0.82597327530E+00  0.82597327530E+00  0.00000000000E+00 0.  1.
          1    1    1    2  502    0  0.23403956185E+02 -0.60533760170E+01  0.38267550369E+03  0.38343829966E+03  0.00000000000E+00 0.  1.
         -1    1    1    2    0  501 -0.23403956185E+02  0.60533760170E+01  0.32817722568E+03  0.32906637626E+03  0.00000000000E+00 0. -1.
</event>
<event>
 4    1  0.6754235E+001  0.5562790E+02  0.7546771E-02  0.1275457E+00
          2   -1    0    0  502    0  0.00000000000E+00  0.00000000000E+00  0.19050974994E+04  0.19050974994E+04  0.00000000000E+00 0.  1.
         -2   -1    0    0    0  501 -0.00000000000E+00 -0.00000000000E+00 -0.17958024754E+01  0.17958024754E+01  0.00000000000E+00 0. -1.
          1    1    1    2  502    0  0.34971808782E+02 -0.43260098167E+02  0.12462918955E+04  0.12475327460E+04  0.00000000000E+00 0.  1.
         -1    1    1    2    0  501 -0.34971808782E+02  0.43260098167E+02  0.65700980141E+03  0.65936055588E+03  0.00000000000E+00 0. -1.
</event>
<event>
 4    1  0.6754235E+001  0.3506169E+02  0.7546771E-02  0.1380130E+00
          2   -1    0    0  502    0  0.00000000000E+00  0.00000000000E+00  0.68708110418E+03  0.68708110418E+03  0.00000000000E+00 0. -1.
         -2   -1    0    0    0  501 -0.00000000000E+00 -0.00000000000E+00 -0.18748518320E+01  0.18748518320E+01  0.00000000000E+00 0.  1.
          1    1    1    2  502    0 -0.30603401186E+02  0.17110043795E+02  0.41623403271E+03  0.41770814183E+03  0.00000000000E+00 0. -1.
         -1    1    1    2    0  501  0.30603401186E+02 -0.17110043795E+02  0.26897221963E+03  0.27124781418E+03  0.00000000000E+00 0.  1.
</event>
<event>
 4    1  0.6754235E+001  0.4538951E+02  0.7546771E-02  0.1319503E+00
          2   -1    0    0  502    0  0.00000000000E+00  0.00000000000E+00  0.16968753164E+04  0.16968753164E+04  0.00000000000E+00 0. -1.
         -2   -1    0    0    0  501 -0.00000000000E+00 -0.00000000000E+00 -0.12141183940E+01  0.12141183940E+01  0.00000000000E+00 0.  1.
          1    1    1    2  502    0  0.59494634280E+01  0.44997901379E+02  0.84814934469E+03  0.84936300729E+03  0.00000000000E+00 0. -1.
         -1    1    1    2    0  501 -0.59494634280E+01 -0.44997901379E+02  0.84751185333E+03  0.84872642753E+03  0.00000000000E+00 0.  1.
</event>
<event>
 4    1  0.6754235E+001  0.4804726E+02  0.7546771E-02  0.1306868E+00
          2   -1    0    0  502    0  0.00000000000E+00  0.00000000000E+00  0.94385118105E+03  0.94385118105E+03  0.00000000000E+00 0. -1.
         -2   -1    0    0    0  501 -0.00000000000E+00 -0.00000000000E+00 -0.25566601709E+01  0.25566601709E+01  0.00000000000E+00 0.  1.
          1    1    1    2  502    0  0.43855003196E+02 -0.19628507888E+02  0.56915210503E+03  0.57117655615E+03  0.00000000000E+00 0.  1.
         -1    1    1    2    0  501 -0.43855003196E+02  0.19628507888E+02  0.37214241584E+03  0.37523128507E+03  0.00000000000E+00 0. -1.
</event>
<event>
 4    1  0.6754235E+001  0.2425361E+02  0.7546771E-02  0.1477329E+00
          2   -1    0    0  502    0  0.00000000000E+00  0.00000000000E+00  0.15174949989E+02  0.15174949989E+02  0.00000000000E+00 0.  1.
         -2   -1    0    0    0  501 -0.00000000000E+00 -0.00000000000E+00 -0.39560562855E+02  0.39560562855E+02  0.00000000000E+00 0. -1.
          1    1    1    2  502    0 -0.69075146034E+01  0.23249166084E+02 -0.83086665747E+01  0.25637305276E+02  0.00000000000E+00 0. -1.
         -1    1    1    2    0  501  0.69075146034E+01 -0.23249166084E+02 -0.16076946292E+02  0.29098207568E+02  0.00000000000E+00 0.  1.
</event>
<event>
 4    1  0.6754235E+001  0.2080087E+02  0.7546771E-02  0.1522127E+00
          2   -1    0    0  502    0  0.00000000000E+00  0.00000000000E+00  0.75848310090E+02  0.75848310090E+02  0.00000000000E+00 0. -1.
         -2   -1    0    0    0  501 -0.00000000000E+00 -0.00000000000E+00 -0.10895752102E+02  0.10895752102E+02  0.00000000000E+00 0.  1.
          1    1    1    2  502    0 -0.17484956883E+02 -0.11267317615E+02  0.62413914825E+02  0.65788851086E+02  0.00000000000E+00 0. -1.
         -1    1    1    2    0  501  0.17484956883E+02  0.11267317615E+02  0.25386431634E+01  0.20955211107E+02  0.00000000000E+00 0.  1.
</event>
<event>
 4    1  0.6754235E+001  0.4705382E+02  0.7546771E-02  0.1311478E+00
          2   -1    0    0  502    0  0.00000000000E+00  0.00000000000E+00  0.20972214793E+04  0.20972214793E+04  0.00000000000E+00 0.  1.
         -2   -1    0    0    0  501 -0.00000000000E+00 -0.00000000000E+00 -0.11727531589E+01  0.11727531589E+01  0.00000000000E+00 0. -1.
          1    1    1    2  502    0 -0.20083244260E+02  0.42552614610E+02  0.71657038048E+03  0.71811362046E+03  0.00000000000E+00 0. -1.
         -1    1    1    2    0  501  0.20083244260E+02 -0.42552614610E+02  0.13794783457E+04  0.13802806120E+04  0.00000000000E+00 0.  1.
</event>
<event>
 4    1  0.6754235E+001  0.3178583E+02  0.7546771E-02  0.1404687E+00
          2   -1    0    0  502    0  0.00000000000E+00  0.00000000000E+00  0.36590953306E+03  0.36590953306E+03  0.00000000000E+00 0.  1.
         -2   -1    0    0    0  501 -0.00000000000E+00 -0.00000000000E+00 -0.27626691742E+01  0.27626691742E+01  0.00000000000E+00 0. -1.
          1    1    1    2  502    0  0.30130595546E+02 -0.10123536485E+02  0.18586614662E+03  0.18856448032E+03  0.00000000000E+00 0.  1.
         -1    1    1    2    0  501 -0.30130595546E+02  0.10123536485E+02  0.17728071727E+03  0.18010772192E+03  0.00000000000E+00 0. -1.
</event>
<event>
 4    1  0.6754235E+001  0.2153768E+02  0.7546771E-02  0.1511725E+00
          2   -1    0    0  502    0  0.00000000000E+00  0.00000000000E+00  0.11620343260E+02  0.11620343260E+02  0.00000000000E+00 0. -1.
         -2   -1    0    0    0  501 -0.00000000000E+00 -0.00000000000E+00 -0.59631958198E+02  0.59631958198E+02  0.00000000000E+00 0.  1.
          1    1    1    2  502    0 -0.19268973384E+02  0.96217522139E+01 -0.44489405466E+02  0.49428520610E+02  0.00000000000E+00 0.  1.
         -1    1    1    2    0  501  0.19268973384E+02 -0.96217522139E+01 -0.35222094717E+01  0.21823780848E+02  0.00000000000E+00 0. -1.
</event>
<event>
 4    1  0.6754235E+001  0.3105991E+02  0.7546771E-02  0.1410604E+00
          2   -1    0    0  502    0  0.00000000000E+00  0.00000000000E+00  0.25813054195E+03  0.25813054195E+03  0.00000000000E+00 0.  1.
         -2   -1    0    0    0  501 -0.00000000000E+00 -0.00000000000E+00 -0.39922889103E+01  0.39922889103E+01  0.00000000000E+00 0. -1.
          1    1    1    2  502    0  0.12326073497E+02  0.28509400682E+02  0.16019003800E+03  0.16317342397E+03  0.00000000000E+00 0.  1.
         -1    1    1    2    0  501 -0.12326073497E+02 -0.28509400682E+02  0.93948215040E+02  0.98949406892E+02  0.00000000000E+00 0. -1.
</event>
<event>
 4    1  0.6754235E+001  0.4378287E+02  0.7546771E-02  0.1327639E+00
          2   -1    0    0  502    0  0.00000000000E+00  0.00000000000E+00  0.43127870495E+02  0.43127870495E+02  0.00000000000E+00 0. -1.
         -2   -1    0    0    0  501 -0.00000000000E+00 -0.00000000000E+00 -0.45033715053E+02  0.45033715053E+02  0.00000000000E+00 0.  1.
          1    1    1    2  502    0  0.30547582030E+01 -0.43676170765E+02 -0.59809044311E+01  0.44189485833E+02  0.00000000000E+00 0.  1.
         -1    1    1    2    0  501 -0.30547582030E+01  0.43676170765E+02  0.40750598726E+01  0.43972099715E+02  0.00000000000E+00 0. -1.
</event>
<event>
 4    1  0.6754235E+001  0.2420106E+02  0.7546771E-02  0.1477943E+00
          2   -1    0    0  502    0  0.00000000000E+00  0.00000000000E+00  0.32706320995E+02  0.32706320995E+02  0.00000000000E+00 0.  1.
         -2   -1    0    0    0  501 -0.00000000000E+00 -0.00000000000E+00 -0.18319539056E+02  0.18319539056E+02  0.00000000000E+00 0. -1.
          1    1    1    2  502    0  0.23465939726E+02  0.59195356704E+01  0.33675461224E+01  0.24434230020E+02  0.00000000000E+00 0. -1.
         -1    1    1    2    0  501 -0.23465939726E+02 -0.59195356704E+01  0.11019235816E+02  0.26591630032E+02  0.00000000000E+00 0.  1.
</event>
<event>
 4    1  0.6754235E+001  0.2729393E+02  0.7546771E-02  0.1444678E+00
          2   -1    0    0  502    0  0.00000000000E+00  0.00000000000E+00  0.42924882086E+02  0.42924882086E+02  0.00000000000E+00 0. -1.
         -2   -1    0    0    0  501 -0.00000000000E+00 -0.00000000000E+00 -0.25729900648E+02  0.25729900648E+02  0.00000000000E+00 0.  1.
          1    1    1    2  502    0  0.20770818665E+02 -0.17706826209E+02 -0.10987042519E+02  0.29422333452E+02  0.00000000000E+00 0.  1.
         -1    1    1    2    0  501 -0.20770818665E+02  0.17706826209E+02  0.28182023957E+02  0.39232449283E+02  0.00000000000E+00 0. -1.
</event>
<event>
 4    1  0.6754235E+001  0.4650888E+02  0.7546771E-02  0.1314062E+00
          2   -1    0    0  502    0  0.00000000000E+00  0.00000000000E+00  0.70399048557E+03  0.70399048557E+03  0.00000000000E+00 0. -1.
         -2   -1    0    0    0  501 -0.00000000000E+00 -0.00000000000E+00 -0.41536503917E+01  0.41536503917E+01  0.00000000000E+00 0.  1.
          1    1    1    2  502    0  0.36821775362E+02  0.28411848382E+02  0.16928376670E+03  0.17555645798E+03  0.00000000000E+00 0.  1.
         -1    1    1    2    0  501 -0.36821775362E+02 -0.28411848382E+02  0.53055306847E+03  0.53258767798E+03  0.00000000000E+00 0. -1.
</event>
<event>
 4    1  0.6754235E+001  0.2030692E+02  0.7546771E-02  0.1529394E+00
          2   -1    0    0  502    0  0.00000000000E+00  0.00000000000E+00  0.15540725627E+04  0.15540725627E+04  0.00000000000E+00 0.  1.
         -2   -1    0    0    0  501 -0.00000000000E+00 -0.00000000000E+00 -0.27698709004E+00  0.27698709004E+00  0.00000000000E+00 0. -1.
          1    1    1    2  502    0 -0.16834562865E+02  0.11356438139E+02  0.93620471758E+03  0.93642492727E+03  0.00000000000E+00 0.  1.
         -1    1    1    2    0  501  0.16834562865E+02 -0.11356438139E+02  0.61759085807E+03  0.61792462256E+03  0.00000000000E+00 0. -1.
</event>
<event>
 4    1  0.6754235E+001  0.2041820E+02  0.7546771E-02  0.1527736E+00
          2   -1    0    0  502    0  0.00000000000E+00  0.00000000000E+00  0.53700731427E+01  0.53700731427E+01  0.00000000000E+00 0. -1.
         -2   -1    0    0    0  501 -0.00000000000E+00 -0.00000000000E+00 -0.11649433771E+03  0.11649433771E+03  0.00000000000E+00 0.  1.
          1    1    1    2  502    0 -0.12699582858E+02  0.15988226544E+02 -0.90754228577E+02  0.93022754192E+02  0.00000000000E+00 0.  1.
         -1    1    1    2    0  501  0.12699582858E+02 -0.15988226544E+02 -0.20370035994E+02  0.28841656665E+02  0.00000000000E+00 0. -1.
</event>
<event>
 4    1  0.6754235E+001  0.2288284E+02  0.7546771E-02  0.1493975E+00
          2   -1    0    0  502    0  0.00000000000E+00  0.00000000000E+00  0.12152652177E+02  0.12152652177E+02  0.00000000000E+00 0. -1.
         -2   -1    0    0    0  501 -0.00000000000E+00 -0.00000000000E+00 -0.84616663461E+02  0.84616663461E+02  0.00000000000E+00 0.  1.
          1    1    1    2  502    0 -0.21412816973E+02 -0.80694207309E+01 -0.23352869470E+01  0.23001692259E+02  0.00000000000E+00 0. -1.
         -1    1    1    2    0  501  0.21412816973E+02  0.80694207309E+01 -0.70128724337E+02  0.73767623378E+02  0.00000000000E+00 0.  1.
</event>
<event>
 4    1  0.6754235E+001  0.2205284E+02  0.7546771E-02  0.1504747E+00
          2   -1    0    0  502    0  0.00000000000E+00  0.00000000000E+00  0.45476901337E+03  0.45476901337E+03  0.00000000000E+00 0.  1.
         -2   -1    0    0    0  501 -0.00000000000E+00 -0.00000000000E+00 -0.14419585956E+01  0.14419585956E+01  0.00000000000E+00 0. -1.
          1    1    1    2  502    0 -0.21557831760E+02  0.46462553886E+01  0.34261050373E+03  0.34331950872E+03  0.00000000000E+00 0.  1.
         -1    1    1    2    0  501  0.21557831760E+02 -0.46462553886E+01  0.11071655105E+03  0.11289146325E+03  0.00000000000E+00 0. -1.
</event>
<event>
 4    1  0.6754235E+001  0.2459599E+02  0.7546771E-02  0.1473374E+00
          2   -1    0    0  502    0  0.00000000000E+00  0.00000000000E+00  0.22691554422E+03  0.22691554422E+03  0.00000000000E+00 0. -1.
         -2   -1    0    0    0  501 -0.00000000000E+00 -0.00000000000E+00 -0.29229517661E+01  0.29229517661E+01  0.00000000000E+00 0.  1.
          1    1    1    2  502    0 -0.22133842522E+02  0.10726401346E+02  0.77925205102E+02  0.81714749346E+02  0.00000000000E+00 0.  1.
         -1    1    1    2    0  501  0.22133842522E+02 -0.10726401346E+02  0.14606738735E+03  0.14812374664E+03  0.00000000000E+00 0. -1.
</event>
<event>
 4    1  0.6754235E+001  0.2355146E+02  0.7546771E-02  0.1485687E+00
          2   -1    0    0  502    0  0.00000000000E+00  0.00000000000E+00  0.19607109311E+04  0.19607109311E+04  0.00000000000E+00 0.  1.
         -2   -1    0    0    0  501 -0.00000000000E+00 -0.00000000000E+00 -0.35407292554E+00  0.35407292554E+00  0.00000000000E+00 0. -1.
          1    1    1    2  502    0 -0.22151737811E+02 -0.79982502769E+01  0.54054141831E+03  0.54105424534E+03  0.00000000000E+00 0.  1.
         -1    1    1    2    0  501  0.22151737811E+02  0.79982502769E+01  0.14198154398E+04  0.14200107586E+04  0.00000000000E+00 0. -1.
</event>
<event>
 4    1  0.6754235E+001  0.3164211E+02  0.7546771E-02  0.1405844E+00
          2   -1    0    0  502    0  0.00000000000E+00  0.00000000000E+00  0.11322814191E+04  0.11322814191E+04  0.00000000000E+00 0. -1.
         -2   -1    0    0    0  501 -0.00000000000E+00 -0.00000000000E+00 -0.96362705300E+00  0.96362705300E+00  0.00000000000E+00 0.  1.
          1    1    1    2  502    0  0.88646612295E+01 -0.30375003265E+02  0.72828082277E+03  0.72896788671E+03  0.00000000000E+00 0. -1.
         -1    1    1    2    0  501 -0.88646612295E+01  0.30375003265E+02  0.40303696925E+03  0.40427715941E+03  0.00000000000E+00 0.  1.
</event>
<event>
 4    1  0.6754235E+001  0.2416633E+02  0.7546771E-02  0.1478350E+00
          2   -1    0    0  502    0  0.00000000000E+00  0.00000000000E+00  0.67095532943E+02  0.67095532943E+02  0.00000000000E+00 0. -1.
         -2   -1    0    0    0  501 -0.00000000000E+00 -0.00000000000E+00 -0.88125629830E+01  0.88125629830E+01  0.00000000000E+00 0.  1.
          1    1    1    2  502    0  0.23323879848E+02 -0.63251926617E+01  0.33350615469E+02  0.41185859048E+02  0.00000000000E+00 0. -1.
         -1    1    1    2    0  501 -0.23323879848E+02  0.63251926617E+01  0.24932354491E+02  0.34722236878E+02  0.00000000000E+00 0.  1.
</event>
<event>
 4    1  0.6754235E+001  0.2541883E+02  0.7546771E-02  0.1464172E+00
          2   -1    0    0  502    0  0.00000000000E+00  0.00000000000E+00  0.97437030639E+03  0.97437030639E+03  0.00000000000E+00 0.  1.
         -2   -1    0    0    0  501 -0.00000000000E+00 -0.00000000000E+00 -0.70028193283E+00  0.70028193283E+00  0.00000000000E+00 0. -1.
          1    1    1    2  502    0 -0.10036604545E+02 -0.23353444723E+02  0.59915692159E+03  0.59969586751E+03  0.00000000000E+00 0.  1.
         -1    1    1    2    0  501  0.10036604545E+02  0.23353444723E+02  0.37451310287E+03  0.37537472082E+03  0.00000000000E+00 0. -1.
</event>
<event>
 4    1  0.6754235E+001  0.3570942E+02  0.7546771E-02  0.1375643E+00
          2   -1    0    0  502    0  0.00000000000E+00  0.00000000000E+00  0.14462729978E+04  0.14462729978E+04  0.00000000000E+00 0.  1.
         -2   -1    0    0    0  501 -0.00000000000E+00 -0.00000000000E+00 -0.15731865945E+01  0.15731865945E+01  0.00000000000E+00 0. -1.
          1    1    1    2  502    0  0.57480665080E+01 -0.35243756441E+02  0.12023018175E+04  0.12028320011E+04  0.00000000000E+00 0.  1.
         -1    1    1    2    0  501 -0.57480665080E+01  0.35243756441E+02  0.24239799373E+03  0.24501418327E+03  0.00000000000E+00 0. -1.
</event>
<event>
 4    1  0.6754235E+001  0.2190287E+02  0.7546771E-02  0.1506754E+00
          2   -1    0    0  502    0  0.00000000000E+00  0.00000000000E+00  0.14032615039E+04  0.14032615039E+04  0.00000000000E+00 0.  1.
         -2   -1    0    0    0  501 -0.00000000000E+00 -0.00000000000E+00 -0.41320503449E+00  0.41320503449E+00  0.00000000000E+00 0. -1.
          1    1    1    2  502    0  0.21665148780E+02  0.32182280418E+01  0.40981619950E+03  0.41040108801E+03  0.00000000000E+00 0. -1.
         -1    1    1    2    0  501 -0.21665148780E+02 -0.32182280418E+01  0.99303209938E+03  0.99327362094E+03  0.00000000000E+00 0.  1.
</event>
<event>
 4    1  0.6754235E+001  0.3249729E+02  0.7546771E-02  0.1399067E+00
          2   -1    0    0  502    0  0.00000000000E+00  0.00000000000E+00  0.19637864282E+03  0.19637864282E+03  0.00000000000E+00 0.  1.
         -2   -1    0    0    0  501 -0.00000000000E+00 -0.00000000000E+00 -0.65763309732E+01  0.65763309732E+01  0.00000000000E+00 0. -1.
          1    1    1    2  502    0  0.98888452495E+00  0.32482244905E+02  0.13822356460E+03  0.14199235169E+03  0.00000000000E+00 0.  1.
         -1    1    1    2    0  501 -0.98888452495E+00 -0.32482244905E+02  0.51578747252E+02  0.60962622112E+02  0.00000000000E+00 0. -1.
</event>
<event>
 4    1  0.6754235E+001  0.3266752E+02  0.7546771E-02  0.1397747E+00
          2   -1    0    0  502    0  0.00000000000E+00  0.00000000000E+00  0.81154400933E+01  0.81154400933E+01  0.00000000000E+00 0. -1.
         -2   -1    0    0    0  501 -0.00000000000E+00 -0.00000000000E+00 -0.14987980298E+03  0.14987980298E+03  0.00000000000E+00 0.  1.
          1    1    1    2  502    0  0.24733335677E+02  0.21340778407E+02 -0.98547314525E+02  0.10382071044E+03  0.00000000000E+00 0. -1.
         -1    1    1    2    0  501 -0.24733335677E+02 -0.21340778407E+02 -0.43217048364E+02  0.54174532633E+02  0.00000000000E+00 0.  1.
</event>
<event>
 4    1  0.6754235E+001  0.3415504E+02  0.7546771E-02  0.1386603E+00
          2   -1    0    0  502    0  0.00000000000E+00  0.00000000000E+00  0.67720722322E+03  0.67720722322E+03  0.00000000000E+00 0.  1.
         -2   -1    0    0    0  501 -0.00000000000E+00 -0.00000000000E+00 -0.17233035443E+01  0.17233035443E+01  0.00000000000E+00 0. -1.
          1    1    1    2  502    0  0.32774501062E+02 -0.96124141162E+01  0.33094996756E+03  0.33270775081E+03  0.00000000000E+00 0.  1.
         -1    1    1    2    0  501 -0.32774501062E+02  0.96124141162E+01  0.34453395211E+03  0.34622277595E+03  0.00000000000E+00 0. -1.
</event>
<event>
 4    1  0.6754235E+001  0.2472543E+02  0.7546771E-02  0.1471898E+00
          2   -1    0    0  502    0  0.00000000000E+00  0.00000000000E+00  0.33154333876E+02  0.33154333876E+02  0.00000000000E+00 0. -1.
         -2   -1    0    0    0  501 -0.00000000000E+00 -0.00000000000E+00 -0.18601364388E+02  0.18601364388E+02  0.00000000000E+00 0.  1.
          1    1    1    2  502    0  0.23203368389E+02 -0.85411230539E+01  0.48620107520E+01  0.25198933234E+02  0.00000000000E+00 0.  1.
         -1    1    1    2    0  501 -0.23203368389E+02  0.85411230539E+01  0.96909587365E+01  0.26556765030E+02  0.00000000000E+00 0. -1.
</event>
<event>
 4    1  0.6754235E+001  0.2168190E+02  0.7546771E-02  0.1509748E+00
          2   -1    0    0  502    0  0.00000000000E+00  0.00000000000E+00  0.36738965104E+03  0.36738965104E+03  0.00000000000E+00 0. -1.
         -2   -1    0    0    0  501 -0.00000000000E+00 -0.00000000000E+00 -0.24296329724E+01  0.24296329724E+01  0.00000000000E+00 0.  1.
          1    1    1    2  502    0  0.21161839135E+02 -0.47203131369E+01  0.30969783454E+03  0.31045588013E+03  0.00000000000E+00 0.  1.
         -1    1    1    2    0  501 -0.21161839135E+02  0.47203131369E+01  0.55262183529E+02  0.59363403879E+02  0.00000000000E+00 0. -1.
</event>
<event>
 4    1  0.6754235E+001  0.2292369E+02  0.7546771E-02  0.1493459E+00
          2   -1    0    0  502    0  0.00000000000E+00  0.00000000000E+00  0.59356186019E+02  0.59356186019E+02  0.00000000000E+00 0. -1.
         -2   -1    0    0    0  501 -0.00000000000E+00 -0.00000000000E+00 -0.99755472911E+01  0.99755472911E+01  0.00000000000E+00 0.  1.
          1    1    1    2  502    0  0.18882759300E+02 -0.12997580729E+02  0.13062832391E+02  0.26384338037E+02  0.00000000000E+00 0.  1.
         -1    1    1    2    0  501 -0.18882759300E+02  0.12997580729E+02  0.36317806337E+02  0.42947395273E+02  0.00000000000E+00 0. -1.
</event>
<event>
 4    1  0.6754235E+001  0.2431700E+02  0.7546771E-02  0.1476591E+00
          2   -1    0    0  502    0  0.00000000000E+00  0.00000000000E+00  0.14787424502E+02  0.14787424502E+02  0.00000000000E+00 0.  1.
         -2   -1    0    0    0  501 -0.00000000000E+00 -0.00000000000E+00 -0.70506200562E+02  0.70506200562E+02  0.00000000000E+00 0. -1.
          1    1    1    2  502    0 -0.17773832519E+02 -0.16595398458E+02 -0.55917206580E+02  0.60975817863E+02  0.00000000000E+00 0. -1.
         -1    1    1    2    0  501  0.17773832519E+02  0.16595398458E+02  0.19843051964E+00  0.24317807201E+02  0.00000000000E+00 0.  1.
</event>
<event>
 4    1  0.6754235E+001  0.2590672E+02  0.7546771E-02  0.1458911E+00
          2   -1    0    0  502    0  0.00000000000E+00  0.00000000000E+00  0.23161751760E+03  0.23161751760E+03  0.00000000000E+00 0.  1.
         -2   -1    0    0    0  501 -0.00000000000E+00 -0.00000000000E+00 -0.40223330846E+01  0.40223330846E+01  0.00000000000E+00 0. -1.
          1    1    1    2  502    0  0.25234937802E+02  0.58613854476E+01  0.17609719610E+03  0.17799264142E+03  0.00000000000E+00 0.  1.
         -1    1    1    2    0  501 -0.25234937802E+02 -0.58613854476E+01  0.51497988418E+02  0.57647209268E+02  0.00000000000E+00 0. -1.
</event>
<event>
 4    1  0.6754235E+001  0.2012930E+02  0.7546771E-02  0.1532068E+00
          2   -1    0    0  502    0  0.00000000000E+00  0.00000000000E+00  0.56219648711E+03  0.56219648711E+03  0.00000000000E+00 0.  1.
         -2   -1    0    0    0  501 -0.00000000000E+00 -0.00000000000E+00 -0.88604223073E+00  0.88604223073E+00  0.00000000000E+00 0. -1.
          1    1    1    2  502    0  0.33240299459E+01 -0.19852948040E+02  0.15904370525E+03  0.16031247269E+03  0.00000000000E+00 0.  1.
         -1    1    1    2    0  501 -0.33240299459E+01  0.19852948040E+02  0.40226673963E+03  0.40277005665E+03  0.00000000000E+00 0. -1.
</event>
<event>
 4    1  0.6754235E+001  0.2676976E+02  0.7546771E-02  0.1449935E+00
          2   -1    0    0  502    0  0.00000000000E+00  0.00000000000E+00  0.74829035144E+03  0.74829035144E+03  0.00000000000E+00 0. -1.
         -2   -1    0    0    0  501 -0.00000000000E+00 -0.00000000000E+00 -0.23778769856E+01  0.23778769856E+01  0.00000000000E+00 0.  1.
          1    1    1    2  502    0 -0.10343216553E+02 -0.24690849359E+02  0.66302312708E+03  0.66356332570E+03  0.00000000000E+00 0. -1.
         -1    1    1    2    0  501  0.10343216553E+02  0.24690849359E+02  0.82889347373E+02  0.87104902725E+02  0.00000000000E+00 0.  1.
</event>
<event>
 4    1  0.6754235E+001  0.2027698E+02  0.7546771E-02  0.1529843E+00
          2   -1    0    0  502    0  0.00000000000E+00  0.00000000000E+00  0.52724225138E+02  0.52724225138E+02  0.00000000000E+00 0.  1.
         -2   -1    0    0    0  501 -0.00000000000E+00 -0.00000000000E+00 -0.77995387294E+01  0.77995387294E+01  0.00000000000E+00 0. -1.
          1    1    1    2  502    0  0.40285916695E+01 -0.19872758272E+02  0.22853097390E+02  0.30551925185E+02  0.00000000000E+00 0. -1.
         -1    1    1    2    0  501 -0.40285916695E+01  0.19872758272E+02  0.22071589019E+02  0.29971838683E+02  0.00000000000E+00 0.  1.
</event>
<event>
 4    1  0.6754235E+001  0.2514714E+02  0.7546771E-02  0.1467164E+00
          2   -1    0    0  502    0  0.00000000000E+00  0.00000000000E+00  0.74616346562E+03  0.74616346562E+03  0.00000000000E+00 0. -1.
         -2   -1    0    0    0  501 -0.00000000000E+00 -0.00000000000E+00 -0.10194559399E+01  0.10194559399E+01  0.00000000000E+00 0.  1.
          1    1    1    2  502    0  0.19320412456E+02  0.16096600699E+02  0.52600269541E+03  0.52660346986E+03  0.00000000000E+00 0. -1.
         -1    1    1    2    0  501 -0.19320412456E+02 -0.16096600699E+02  0.21914131427E+03  0.22057945170E+03  0.00000000000E+00 0.  1.
</event>
<event>
 4    1  0.6754235E+001  0.3470641E+02  0.7546771E-02  0.1382639E+00
          2   -1    0    0  502    0  0.00000000000E+00  0.00000000000E+00  0.17926934087E+03  0.17926934087E+03  0.00000000000E+00 0. -1.
         -2   -1    0    0    0  501 -0.00000000000E+00 -0.00000000000E+00 -0.64542008596E+02  0.64542008596E+02  0.00000000000E+00 0.  1.
          1    1    1    2  502    0 -0.21246242053E+02 -0.27443250571E+02  0.17274950763E+03  0.17620138248E+03  0.00000000000E+00 0. -1.
         -1    1    1    2    0  501  0.21246242053E+02  0.27443250571E+02 -0.58022175352E+02  0.67609966985E+02  0.00000000000E+00 0.  1.
</event>
<event>
 4    1  0.6754235E+001  0.2019121E+02  0.7546771E-02  0.1531133E+00
          2   -1    0    0  502    0  0.00000000000E+00  0.00000000000E+00  0.32422257379E+03  0.32422257379E+03  0.00000000000E+00 0.  1.
         -2   -1    0    0    0  501 -0.00000000000E+00 -0.00000000000E+00 -0.12874008927E+01  0.12874008927E+01  0.00000000000E+00 0. -1.
          1    1    1    2  502    0  0.13444682879E+02 -0.15064050776E+02  0.18630311678E+03  0.18739406726E+03  0.00000000000E+00 0.  1.
         -1    1    1    2    0  501 -0.13444682879E+02  0.15064050776E+02  0.13663205612E+03  0.13811590742E+03  0.00000000000E+00 0. -1.
</event>
<event>
 4    1  0.6754235E+001  0.2068171E+02  0.7546771E-02  0.1523858E+00
          2   -1    0    0  502    0  0.00000000000E+00  0.00000000000E+00  0.77939362207E+02  0.77939362207E+02  0.00000000000E+00 0.  1.
         -2   -1    0    0    0  501 -0.00000000000E+00 -0.00000000000E+00 -0.55001764723E+01  0.55001764723E+01  0.00000000000E+00 0. -1.
          1    1    1    2  502    0  0.12901732167E+02  0.16164115569E+02  0.38180387399E+02  0.43422060142E+02  0.00000000000E+00 0.  1.
         -1    1    1    2    0  501 -0.12901732167E+02 -0.16164115569E+02  0.34258798335E+02  0.40017478537E+02  0.00000000000E+00 0. -1.
</event>
<event>
 4    1  0.6754235E+001  0.2151309E+02  0.7546771E-02  0.1512064E+00
          2   -1    0    0  502    0  0.00000000000E+00  0.00000000000E+00  0.24907621622E+03  0.24907621622E+03  0.00000000000E+00 0. -1.
         -2   -1    0    0    0  501 -0.00000000000E+00 -0.00000000000E+00 -0.19311774680E+01  0.19311774680E+01  0.00000000000E+00 0.  1.
          1    1    1    2  502    0  0.58013444469E+01  0.20716118597E+02  0.14798330141E+03  0.14953886005E+03  0.00000000000E+00 0. -1.
         -1    1    1    2    0  501 -0.58013444469E+01 -0.20716118597E+02  0.99161737342E+02  0.10146853364E+03  0.00000000000E+00 0.  1.
</event>
<event>
 4    1  0.6754235E+001  0.2751551E+02  0.7546771E-02  0.1442497E+00
          2   -1    0    0  502    0  0.00000000000E+00  0.00000000000E+00  0.42706978006E+01  0.42706978006E+01  0.00000000000E+00 0. -1.
         -2   -1    0    0    0  501 -0.00000000000E+00 -0.00000000000E+00 -0.18473357673E+03  0.18473357673E+03  0.00000000000E+00 0.  1.
          1    1    1    2  502    0  0.17448440865E+02  0.21275692629E+02 -0.10921566232E+03  0.11262843371E+03  0.00000000000E+00 0.  1.
         -1    1    1    2    0  501 -0.17448440865E+02 -0.21275692629E+02 -0.71247216611E+02  0.76375840816E+02  0.00000000000E+00 0. -1.
</event>
<event>
 4    1  0.6754235E+001  0.2131026E+02  0.7546771E-02  0.1514881E+00
          2   -1    0    0  502    0  0.00000000000E+00  0.00000000000E+00  0.11118275897E+03  0.11118275897E+03  0.00000000000E+00 0.  1.
         -2   -1    0    0    0  501 -0.00000000000E+00 -0.00000000000E+00 -0.60700809261E+01  0.60700809261E+01  0.00000000000E+00 0. -1.
          1    1    1    2  502    0  0.21252231169E+02  0.15715714866E+01  0.19025936886E+02  0.28567699260E+02  0.00000000000E+00 0. -1.
         -1    1    1    2    0  501 -0.21252231169E+02 -0.15715714866E+01  0.86086741158E+02  0.88685140637E+02  0.00000000000E+00 0.  1.
</event>
<event>
 4    1  0.6754235E+001  0.2466408E+02  0.7546771E-02  0.1472597E+00
          2   -1    0    0  502    0  0.00000000000E+00  0.00000000000E+00  0.16709360400E+04  0.16709360400E+04  0.00000000000E+00 0. -1.
         -2   -1    0    0    0  501 -0.00000000000E+00 -0.00000000000E+00 -0.41366508610E+00  0.41366508610E+00  0.00000000000E+00 0.  1.
          1    1    1    2  502    0  0.99949350402E+01 -0.22548131674E+02  0.54586920228E+03  0.54642611849E+03  0.00000000000E+00 0.  1.
         -1    1    1    2    0  501 -0.99949350402E+01  0.22548131674E+02  0.11246531726E+04  0.11249235866E+04  0.00000000000E+00 0. -1.
</event>
<event>
 4    1  0.6754235E+001  0.2056342E+02  0.7546771E-02  0.1525590E+00
          2   -1    0    0  502    0  0.00000000000E+00  0.00000000000E+00  0.26404444412E+01  0.26404444412E+01  0.00000000000E+00 0. -1.
         -2   -1    0    0    0  501 -0.00000000000E+00 -0.00000000000E+00 -0.21246552315E+03  0.21246552315E+03  0.00000000000E+00 0.  1.
          1    1    1    2  502    0 -0.18719117693E+02 -0.85116980821E+01 -0.51540518671E+02  0.55491255494E+02  0.00000000000E+00 0. -1.
         -1    1    1    2    0  501  0.18719117693E+02  0.85116980821E+01 -0.15828456004E+03  0.15961471210E+03  0.00000000000E+00 0.  1.
</event>
<event>
 4    1  0.6754235E+001  0.3279948E+02  0.7546771E-02  0.1396731E+00
          2   -1    0    0  502    0  0.00000000000E+00  0.00000000000E+00  0.14211865934E+03  0.14211865934E+03  0.00000000000E+00 0.  1.
         -2   -1    0    0    0  501 -0.00000000000E+00 -0.00000000000E+00 -0.80060495476E+01  0.80060495476E+01  0.00000000000E+00 0. -1.
          1    1    1    2  502    0  0.18978472245E+02 -0.26751137251E+02  0.49533855649E+02  0.59408826014E+02  0.00000000000E+00 0. -1.
         -1    1    1    2    0  501 -0.18978472245E+02  0.26751137251E+02  0.84578754147E+02  0.90715882876E+02  0.00000000000E+00 0.  1.
</event>
<event>
 4    1  0.6754235E+001  0.4206363E+02  0.7546771E-02  0.1336800E+00
          2   -1    0    0  502    0  0.00000000000E+00  0.00000000000E+00  0.51527975593E+03  0.51527975593E+03  0.00000000000E+00 0. -1.
         -2   -1    0    0    0  501 -0.00000000000E+00 -0.00000000000E+00 -0.34421844872E+01  0.34421844872E+01  0.00000000000E+00 0.  1.
          1    1    1    2  502    0  0.30519083076E+02 -0.28947105371E+02  0.24309126039E+03  0.24670368910E+03  0.00000000000E+00 0. -1.
         -1    1    1    2    0  501 -0.30519083076E+02  0.28947105371E+02  0.26874631106E+03  0.27201825132E+03  0.00000000000E+00 0.  1.
</event>
<event>
 4    1  0.6754235E+001  0.2173411E+02  0.7546771E-02  0.1509037E+00
          2   -1    0    0  502    0  0.00000000000E+00  0.00000000000E+00  0.11557541083E+04  0.11557541083E+04  0.00000000000E+00 0. -1.
         -2   -1    0    0    0  501 -0.00000000000E+00 -0.00000000000E+00 -0.41907304204E+00  0.41907304204E+00  0.00000000000E+00 0.  1.
          1    1    1    2  502    0  0.16452053784E+02 -0.14202167049E+02  0.66856057642E+03  0.66891375824E+03  0.00000000000E+00 0.  1.
         -1    1    1    2    0  501 -0.16452053784E+02  0.14202167049E+02  0.48677445884E+03  0.48725942310E+03  0.00000000000E+00 0. -1.
</event>
<event>
 4    1  0.6754235E+001  0.2301911E+02  0.7546771E-02  0.1492258E+00
          2   -1    0    0  502    0  0.00000000000E+00  0.00000000000E+00  0.55084338600E+02  0.55084338600E+02  0.00000000000E+00 0.  1.
         -2   -1    0    0    0  501 -0.00000000000E+00 -0.00000000000E+00 -0.11898388096E+02  0.11898388096E+02  0.00000000000E+00 0. -1.
          1    1    1    2  502    0 -0.30452345554E+01 -0.22816792989E+02  0.36250400860E+02  0.42941484119E+02  0.00000000000E+00 0.  1.
         -1    1    1    2    0  501  0.30452345554E+01  0.22816792989E+02  0.69355496445E+01  0.24041242578E+02  0.00000000000E+00 0. -1.
</event>
<event>
 4    1  0.6754235E+001  0.3468678E+02  0.7546771E-02  0.1382779E+00
          2   -1    0    0  502    0  0.00000000000E+00  0.00000000000E+00  0.18666930131E+02  0.18666930131E+02  0.00000000000E+00 0. -1.
         -2   -1    0    0    0  501 -0.00000000000E+00 -0.00000000000E+00 -0.85989087567E+02  0.85989087567E+02  0.00000000000E+00 0.  1.
          1    1    1    2  502    0 -0.31607621407E+02  0.14287438565E+02 -0.59847619143E+02  0.69173044959E+02  0.00000000000E+00 0.  1.
         -1    1    1    2    0  501  0.31607621407E+02 -0.14287438565E+02 -0.74745382919E+01  0.35482972739E+02  0.00000000000E+00 0. -1.
</event>
<event>
 4    1  0.6754235E+001  0.2564546E+02  0.7546771E-02  0.1461711E+00
          2   -1    0    0  502    0  0.00000000000E+00  0.00000000000E+00  0.68238643876E+03  0.68238643876E+03  0.00000000000E+00 0.  1.
         -2   -1    0    0    0  501 -0.00000000000E+00 -0.00000000000E+00 -0.11831559409E+01  0.11831559409E+01  0.00000000000E+00 0. -1.
          1    1    1    2  502    0 -0.75281956126E+01 -0.24515620274E+02  0.19343860699E+03  0.19513119699E+03  0.00000000000E+00 0. -1.
         -1    1    1    2    0  501  0.75281956126E+01  0.24515620274E+02  0.48776467584E+03  0.48843839771E+03  0.00000000000E+00 0.  1.
</event>
<event>
 4    1  0.6754235E+001  0.2204908E+02  0.7546771E-02  0.1504797E+00
          2   -1    0    0  502    0  0.00000000000E+00  0.00000000000E+00  0.19079802149E+02  0.19079802149E+02  0.00000000000E+00 0. -1.
         -2   -1    0    0    0  501 -0.00000000000E+00 -0.00000000000E+00 -0.26166004253E+02  0.26166004253E+02  0.00000000000E+00 0.  1.
          1    1    1    2  502    0  0.13132302803E+02 -0.17711701844E+02 -0.72049770022E+01  0.23196410342E+02  0.00000000000E+00 0. -1.
         -1    1    1    2    0  501 -0.13132302803E+02  0.17711701844E+02  0.11877489753E+00  0.22049396060E+02  0.00000000000E+00 0.  1.
</event>
<event>
 4    1  0.6754235E+001  0.3514317E+02  0.7546771E-02  0.1379559E+00
          2   -1    0    0  502    0  0.00000000000E+00  0.00000000000E+00  0.57982085583E+03  0.57982085583E+03  0.00000000000E+00 0. -1.
         -2   -1    0    0    0  501 -0.00000000000E+00 -0.00000000000E+00 -0.21994193501E+01  0.21994193501E+01  0.00000000000E+00 0.  1.
          1    1    1    2  502    0 -0.34769030503E+02  0.51144157549E+01  0.34049556023E+03  0.34230435181E+03  0.00000000000E+00 0. -1.
         -1    1    1    2    0  501  0.34769030503E+02 -0.51144157549E+01  0.23712587625E+03  0.23971592337E+03  0.00000000000E+00 0.  1.
</event>
<event>
 4    1  0.6754235E+001  0.6831519E+02  0.7546771E-02  0.1233928E+00
          2   -1    0    0  502    0  0.00000000000E+00  0.00000000000E+00  0.11914912778E+04  0.11914912778E+04  0.00000000000E+00 0.  1.
         -2   -1    0    0    0  501 -0.00000000000E+00 -0.00000000000E+00 -0.48071476868E+01  0.48071476868E+01  0.00000000000E+00 0. -1.
          1    1    1    2  502    0  0.66649278335E+02  0.14994623374E+02  0.85074802603E+03  0.85348647841E+03  0.00000000000E+00 0. -1.
         -1    1    1    2    0  501 -0.66649278335E+02 -0.14994623374E+02  0.33593610407E+03  0.34281194707E+03  0.00000000000E+00 0.  1.
</event>
<event>
 4    1  0.6754235E+001  0.2463696E+02  0.7546771E-02  0.1472906E+00
          2   -1    0    0  502    0  0.00000000000E+00  0.00000000000E+00  0.46104921268E+01  0.46104921268E+01  0.00000000000E+00 0.  1.
         -2   -1    0    0    0  501 -0.00000000000E+00 -0.00000000000E+00 -0.15678299096E+03  0.15678299096E+03  0.00000000000E+00 0. -1.
          1    1    1    2  502    0  0.53761028614E+01 -0.24043236334E+02 -0.43778042271E+02  0.50234417290E+02  0.00000000000E+00 0.  1.
         -1    1    1    2    0  501 -0.53761028614E+01  0.24043236334E+02 -0.10839445656E+03  0.11115906580E+03  0.00000000000E+00 0. -1.
</event>
<event>
 4    1  0.6754235E+001  0.3414192E+02  0.7546771E-02  0.1386698E+00
          2   -1    0    0  502    0  0.00000000000E+00  0.00000000000E+00  0.19027325600E+02  0.19027325600E+02  0.00000000000E+00 0. -1.
         -2   -1    0    0    0  501 -0.00000000000E+00 -0.00000000000E+00 -0.73020882330E+02  0.73020882330E+02  0.00000000000E+00 0.  1.
          1    1    1    2  502    0  0.30796003789E+02 -0.14740314082E+02 -0.85284882456E+01  0.35190990614E+02  0.00000000000E+00 0. -1.
         -1    1    1    2    0  501 -0.30796003789E+02  0.14740314082E+02 -0.45465068485E+02  0.56857217316E+02  0.00000000000E+00 0.  1.
</event>
<event>
 4    1  0.6754235E+001  0.2192928E+02  0.7546771E-02  0.1506399E+00
          2   -1    0    0  502    0  0.00000000000E+00  0.00000000000E+00  0.10813696547E+03  0.10813696547E+03  0.00000000000E+00 0.  1.
         -2   -1    0    0    0  501 -0.00000000000E+00 -0.00000000000E+00 -0.44478934955E+01  0.44478934955E+01  0.00000000000E+00 0. -1.
          1    1    1    2  502    0  0.14857387599E+02 -0.16129207841E+02  0.52607661507E+02  0.56995257356E+02  0.00000000000E+00 0.  1.
         -1    1    1    2    0  501 -0.14857387599E+02  0.16129207841E+02  0.51081410472E+02  0.55589601615E+02  0.00000000000E+00 0. -1.
</event>
<event>
 4    1  0.6754235E+001  0.2727841E+02  0.7546771E-02  0.1444831E+00
          2   -1    0    0  502    0  0.00000000000E+00  0.00000000000E+00  0.33711049953E+02  0.33711049953E+02  0.00000000000E+00 0. -1.
         -2   -1    0    0    0  501 -0.00000000000E+00 -0.00000000000E+00 -0.24308527826E+02  0.24308527826E+02  0.00000000000E+00 0.  1.
          1    1    1    2  502    0 -0.69379829872E+01 -0.26381362239E+02 -0.40956982774E+01  0.27584173468E+02  0.00000000000E+00 0.  1.
         -1    1    1    2    0  501  0.69379829872E+01  0.26381362239E+02  0.13498220405E+02  0.30435404312E+02  0.00000000000E+00 0. -1.
</event>
<event>
 4    1  0.6754235E+001  0.3715315E+02  0.7546771E-02  0.1366027E+00
          2   -1    0    0  502    0  0.00000000000E+00  0.00000000000E+00  0.32846878261E+03  0.32846878261E+03  0.00000000000E+00 0. -1.
         -2   -1    0    0    0  501 -0.00000000000E+00 -0.00000000000E+00 -0.43159054693E+01  0.43159054693E+01  0.00000000000E+00 0.  1.
          1    1    1    2  502    0 -0.24916943116E+02 -0.27559070231E+02  0.18906069562E+03  0.19267668005E+03  0.00000000000E+00 0.  1.
         -1    1    1    2    0  501  0.24916943116E+02  0.27559070231E+02  0.13509218152E+03  0.14010800803E+03  0.00000000000E+00 0. -1.
</event>
<event>
 4    1  0.6754235E+001  0.2077527E+02  0.7546771E-02  0.1522498E+00
          2   -1    0    0  502    0  0.00000000000E+00  0.00000000000E+00  0.24002061199E+03  0.24002061199E+03  0.00000000000E+00 0. -1.
         -2   -1    0    0    0  501 -0.00000000000E+00 -0.00000000000E+00 -0.26308101449E+01  0.26308101449E+01  0.00000000000E+00 0.  1.
          1    1    1    2  502    0 -0.20723690118E+02 -0.14630697670E+01  0.18694786353E+03  0.18809868576E+03  0.00000000000E+00 0. -1.
         -1    1    1    2    0  501  0.20723690118E+02  0.14630697670E+01  0.50441938310E+02  0.54552736372E+02  0.00000000000E+00 0.  1.
</event>
<event>
 4    1  0.6754235E+001  0.2141997E+02  0.7546771E-02  0.1513353E+00
          2   -1    0    0  502    0  0.00000000000E+00  0.00000000000E+00  0.17530761219E+03  0.17530761219E+03  0.00000000000E+00 0. -1.
         -2   -1    0    0    0  501 -0.00000000000E+00 -0.00000000000E+00 -0.28355107115E+01  0.28355107115E+01  0.00000000000E+00 0.  1.
          1    1    1    2  502    0  0.15451517356E+02  0.14834609348E+02  0.61521012902E+02  0.65143303967E+02  0.00000000000E+00 0.  1.
         -1    1    1    2    0  501 -0.15451517356E+02 -0.14834609348E+02  0.11095108857E+03  0.11299981893E+03  0.00000000000E+00 0. -1.
</event>
<event>
 4    1  0.6754235E+001  0.4299423E+02  0.7546771E-02  0.1331780E+00
          2   -1    0    0  502    0  0.00000000000E+00  0.00000000000E+00  0.86806483991E+02  0.86806483991E+02  0.00000000000E+00 0.  1.
         -2   -1    0    0    0  501 -0.00000000000E+00 -0.00000000000E+00 -0.29353150688E+02  0.29353150688E+02  0.00000000000E+00 0. -1.
          1    1    1    2  502    0 -0.32059743747E+02 -0.28647450759E+02 -0.17051680043E+01  0.43028028098E+02  0.00000000000E+00 0.  1.
         -1    1    1    2    0  501  0.32059743747E+02  0.28647450759E+02  0.59158501308E+02  0.73131606581E+02  0.00000000000E+00 0. -1.
</event>
<event>
 4    1  0.6754235E+001  0.5864682E+02  0.7546771E-02  0.1264501E+00
          2   -1    0    0  502    0  0.00000000000E+00  0.00000000000E+00  0.45834853975E+03  0.45834853975E+03  0.00000000000E+00 0.  1.
         -2   -1    0    0    0  501 -0.00000000000E+00 -0.00000000000E+00 -0.80717142880E+01  0.80717142880E+01  0.00000000000E+00 0. -1.
          1    1    1    2  502    0  0.29769699931E+02 -0.50529345130E+02  0.28698667455E+03  0.29291773781E+03  0.00000000000E+00 0.  1.
         -1    1    1    2    0  501 -0.29769699931E+02  0.50529345130E+02  0.16329015091E+03  0.17350251623E+03  0.00000000000E+00 0. -1.
</event>
<event>
 4    1  0.6754235E+001  0.3061394E+02  0.7546771E-02  0.1414335E+00
          2   -1    0    0  502    0  0.00000000000E+00  0.00000000000E+00  0.20139369161E+03  0.20139369161E+03  0.00000000000E+00 0.  1.
         -2   -1    0    0    0  501 -0.00000000000E+00 -0.00000000000E+00 -0.11603483480E+02  0.11603483480E+02  0.00000000000E+00 0. -1.
          1    1    1    2  502    0  0.26001638055E+02 -0.16159453251E+02  0.17731598710E+03  0.17993935754E+03  0.00000000000E+00 0.  1.
         -1    1    1    2    0  501 -0.26001638055E+02  0.16159453251E+02  0.12474221031E+02  0.33057817551E+02  0.00000000000E+00 0. -1.
</event>
<event>
 4    1  0.6754235E+001  0.2992805E+02  0.7546771E-02  0.1420223E+00
          2   -1    0    0  502    0  0.00000000000E+00  0.00000000000E+00  0.87198772197E+01  0.87198772197E+01  0.00000000000E+00 0. -1.
         -2   -1    0    0    0  501 -0.00000000000E+00 -0.00000000000E+00 -0.10335080410E+03  0.10335080410E+03  0.00000000000E+00 0.  1.
          1    1    1    2  502    0 -0.14911540151E+02 -0.25948683946E+02 -0.51700209539E+02  0.59737759371E+02  0.00000000000E+00 0.  1.
         -1    1    1    2    0  501  0.14911540151E+02  0.25948683946E+02 -0.42930717337E+02  0.52332921945E+02  0.00000000000E+00 0. -1.
</event>
<event>
 4    1  0.6754235E+001  0.2142593E+02  0.7546771E-02  0.1513270E+00
          2   -1    0    0  502    0  0.00000000000E+00  0.00000000000E+00  0.50394363819E+01  0.50394363819E+01  0.00000000000E+00 0. -1.
         -2   -1    0    0    0  501 -0.00000000000E+00 -0.00000000000E+00 -0.91161526758E+02  0.91161526758E+02  0.00000000000E+00 0.  1.
          1    1    1    2  502    0 -0.21287309719E+02 -0.24333246611E+01 -0.44354290587E+02  0.49258235022E+02  0.00000000000E+00 0.  1.
         -1    1    1    2    0  501  0.21287309719E+02  0.24333246611E+01 -0.41767799789E+02  0.46942728118E+02  0.00000000000E+00 0. -1.
</event>
<event>
 4    1  0.6754235E+001  0.3327373E+02  0.7546771E-02  0.1393123E+00
          2   -1    0    0  502    0  0.00000000000E+00  0.00000000000E+00  0.15564845603E+02  0.15564845603E+02  0.00000000000E+00 0. -1.
         -2   -1    0    0    0  501 -0.00000000000E+00 -0.00000000000E+00 -0.71248075411E+02  0.71248075411E+02  0.00000000000E+00 0.  1.
          1    1    1    2  502    0 -0.12370538194E+01  0.33250728075E+02 -0.29602036069E+02  0.44535623484E+02  0.00000000000E+00 0. -1.
         -1    1    1    2    0  501  0.12370538194E+01 -0.33250728075E+02 -0.26081193739E+02  0.42277297531E+02  0.00000000000E+00 0.  1.
</event>
<event>
 4    1  0.6754235E+001  0.3961351E+02  0.7546771E-02  0.1350766E+00
          2   -1    0    0  502    0  0.00000000000E+00  0.00000000000E+00  0.69695506950E+03  0.69695506950E+03  0.00000000000E+00 0. -1.
         -2   -1    0    0    0  501 -0.00000000000E+00 -0.00000000000E+00 -0.49387820824E+01  0.49387820824E+01  0.00000000000E+00 0.  1.
          1    1    1    2  502    0  0.20969025327E+02 -0.33608483932E+02  0.87136799297E+02  0.95718608469E+02  0.00000000000E+00 0.  1.
         -1    1    1    2    0  501 -0.20969025327E+02  0.33608483932E+02  0.60487948812E+03  0.60617524312E+03  0.00000000000E+00 0. -1.
</event>
<event>
 4    1  0.6754235E+001  0.2264579E+02  0.7546771E-02  0.1496994E+00
          2   -1    0    0  502    0  0.00000000000E+00  0.00000000000E+00  0.10996626097E+04  0.10996626097E+04  0.00000000000E+00 0. -1.
         -2   -1    0    0    0  501 -0.00000000000E+00 -0.00000000000E+00 -0.50981543009E+00  0.50981543009E+00  0.00000000000E+00 0.  1.
          1    1    1    2  502    0  0.22464442734E+02 -0.28602157946E+01  0.38896497146E+03  0.38962364026E+03  0.00000000000E+00 0.  1.
         -1    1    1    2    0  501 -0.22464442734E+02  0.28602157946E+01  0.71018782276E+03  0.71054878483E+03  0.00000000000E+00 0. -1.
</event>
<event>
 4    1  0.6754235E+001  0.2026198E+02  0.7546771E-02  0.1530068E+00
          2   -1    0    0  502    0  0.00000000000E+00  0.00000000000E+00  0.88493843687E+01  0.88493843687E+01  0.00000000000E+00 0. -1.
         -2   -1    0    0    0  501 -0.00000000000E+00 -0.00000000000E+00 -0.48096724020E+02  0.48096724020E+02  0.00000000000E+00 0.  1.
          1    1    1    2  502    0  0.16720518765E+02  0.11444304125E+02 -0.24982865461E+02  0.32166619520E+02  0.00000000000E+00 0.  1.
         -1    1    1    2    0  501 -0.16720518765E+02 -0.11444304125E+02 -0.14264474190E+02  0.24779488868E+02  0.00000000000E+00 0. -1.
</event>
<event>
 4    1  0.6754235E+001  0.2461948E+02  0.7546771E-02  0.1473105E+00
          2   -1    0    0  502    0  0.00000000000E+00  0.00000000000E+00  0.24083330582E+03  0.24083330582E+03  0.00000000000E+00 0. -1.
         -2   -1    0    0    0  501 -0.00000000000E+00 -0.00000000000E+00 -0.52387572809E+01  0.52387572809E+01  0.00000000000E+00 0.  1.
          1    1    1    2  502    0  0.80410070215E+01 -0.23269319788E+02  0.29109814427E+02  0.38124799452E+02  0.00000000000E+00 0.  1.
         -1    1    1    2    0  501 -0.80410070215E+01  0.23269319788E+02  0.20648473411E+03  0.20794726364E+03  0.00000000000E+00 0. -1.
</event>
<event>
 4    1  0.6754235E+001  0.2479731E+02  0.7546771E-02  0.1471084E+00
          2   -1    0    0  502    0  0.00000000000E+00  0.00000000000E+00  0.55586701854E+03  0.55586701854E+03  0.00000000000E+00 0.  1.
         -2   -1    0    0    0  501 -0.00000000000E+00 -0.00000000000E+00 -0.21130697909E+01  0.21130697909E+01  0.00000000000E+00 0. -1.
          1    1    1    2  502    0  0.21281381033E+01 -0.24705823268E+02  0.46945906094E+03  0.47011351456E+03  0.00000000000E+00 0.  1.
         -1    1    1    2    0  501 -0.21281381033E+01  0.24705823268E+02  0.84294887807E+02  0.87866573766E+02  0.00000000000E+00 0. -1.
</event>
<event>
 4    1  0.6754235E+001  0.2502136E+02  0.7546771E-02  0.1468565E+00
          2   -1    0    0  502    0  0.00000000000E+00  0.00000000000E+00  0.40167169860E+03  0.40167169860E+03  0.00000000000E+00 0. -1.
         -2   -1    0    0    0  501 -0.00000000000E+00 -0.00000000000E+00 -0.16361688226E+01  0.16361688226E+01  0.00000000000E+00 0.  1.
          1    1    1    2  502    0 -0.13643926535E+02 -0.20974074794E+02  0.24390878146E+03  0.24518882972E+03  0.00000000000E+00 0. -1.
         -1    1    1    2    0  501  0.13643926535E+02  0.20974074794E+02  0.15612674832E+03  0.15811903771E+03  0.00000000000E+00 0.  1.
</event>
<event>
 4    1  0.6754235E+001  0.2157379E+02  0.7546771E-02  0.1511228E+00
          2   -1    0    0  502    0  0.00000000000E+00  0.00000000000E+00  0.10235704516E+03  0.10235704516E+03  0.00000000000E+00 0. -1.
         -2   -1    0    0    0  501 -0.00000000000E+00 -0.00000000000E+00 -0.54203091337E+01  0.54203091337E+01  0.00000000000E+00 0.  1.
          1    1    1    2  502    0  0.22025331690E+01 -0.21461063351E+02  0.70097694485E+02  0.73342451313E+02  0.00000000000E+00 0. -1.
         -1    1    1    2    0  501 -0.22025331690E+01  0.21461063351E+02  0.26839041546E+02  0.34434902985E+02  0.00000000000E+00 0.  1.
</event>
<event>
 4    1  0.6754235E+001  0.3049721E+02  0.7546771E-02  0.1415324E+00
          2   -1    0    0  502    0  0.00000000000E+00  0.00000000000E+00  0.13769594419E+04  0.13769594419E+04  0.00000000000E+00 0.  1.
         -2   -1    0    0    0  501 -0.00000000000E+00 -0.00000000000E+00 -0.69774959992E+00  0.69774959992E+00  0.00000000000E+00 0. -1.
          1    1    1    2  502    0 -0.30265595087E+02 -0.37515025402E+01  0.81124830243E+03  0.81182134008E+03  0.00000000000E+00 0.  1.
         -1    1    1    2    0  501  0.30265595087E+02  0.37515025402E+01  0.56501338992E+03  0.56583585147E+03  0.00000000000E+00 0. -1.
</event>
<event>
 4    1  0.6754235E+001  0.3432402E+02  0.7546771E-02  0.1385379E+00
          2   -1    0    0  502    0  0.00000000000E+00  0.00000000000E+00  0.23239264941E+02  0.23239264941E+02  0.00000000000E+00 0. -1.
         -2   -1    0    0    0  501 -0.00000000000E+00 -0.00000000000E+00 -0.88062932292E+02  0.88062932292E+02  0.00000000000E+00 0.  1.
          1    1    1    2  502    0 -0.28346107580E+02  0.19355532974E+02 -0.68662894461E+02  0.76764129301E+02  0.00000000000E+00 0.  1.
         -1    1    1    2    0  501  0.28346107580E+02 -0.19355532974E+02  0.38392271092E+01  0.34538067932E+02  0.00000000000E+00 0. -1.
</event>
<event>
 4    1  0.6754235E+001  0.5748942E+02  0.7546771E-02  0.1268610E+00
          2   -1    0    0  502    0  0.00000000000E+00  0.00000000000E+00  0.44520364855E+03  0.44520364855E+03  0.00000000000E+00 0.  1.
         -2   -1    0    0    0  501 -0.00000000000E+00 -0.00000000000E+00 -0.75714662202E+01  0.75714662202E+01  0.00000000000E+00 0. -1.
          1    1    1    2  502    0 -0.57179325835E+02  0.59630301443E+01  0.25044859845E+03  0.25696212464E+03  0.00000000000E+00 0.  1.
         -1    1    1    2    0  501  0.57179325835E+02 -0.59630301443E+01  0.18718358388E+03  0.19581299013E+03  0.00000000000E+00 0. -1.
</event>
<event>
 4    1  0.6754235E+001  0.2309868E+02  0.7546771E-02  0.1491263E+00
          2   -1    0    0  502    0  0.00000000000E+00  0.00000000000E+00  0.12802707052E+04  0.12802707052E+04  0.00000000000E+00 0. -1.
         -2   -1    0    0    0  501 -0.00000000000E+00 -0.00000000000E+00 -0.17490908128E+01  0.17490908128E+01  0.00000000000E+00 0.  1.
          1    1    1    2  502    0 -0.18282886483E+02  0.14116831431E+02  0.11987178234E+04  0.11989403525E+04  0.00000000000E+00 0. -1.
         -1    1    1    2    0  501  0.18282886483E+02 -0.14116831431E+02  0.79803790962E+02  0.83079443424E+02  0.00000000000E+00 0.  1.
</event>
<event>
 4    1  0.6754235E+001  0.2309749E+02  0.7546771E-02  0.1491278E+00
          2   -1    0    0  502    0  0.00000000000E+00  0.00000000000E+00  0.72750320704E+02  0.72750320704E+02  0.00000000000E+00 0. -1.
         -2   -1    0    0    0  501 -0.00000000000E+00 -0.00000000000E+00 -0.94891164057E+01  0.94891164057E+01  0.00000000000E+00 0.  1.
          1    1    1    2  502    0 -0.10797712499E+02  0.20418210550E+02  0.12030810580E+02  0.26042932256E+02  0.00000000000E+00 0.  1.
         -1    1    1    2    0  501  0.10797712499E+02 -0.20418210550E+02  0.51230393718E+02  0.56196504854E+02  0.00000000000E+00 0. -1.
</event>
<event>
 4    1  0.6754235E+001  0.2107327E+02  0.7546771E-02  0.1518221E+00
          2   -1    0    0  502    0  0.00000000000E+00  0.00000000000E+00  0.19128110679E+02  0.19128110679E+02  0.00000000000E+00 0.  1.
         -2   -1    0    0    0  501 -0.00000000000E+00 -0.00000000000E+00 -0.26495697601E+02  0.26495697601E+02  0.00000000000E+00 0. -1.
          1    1    1    2  502    0 -0.14020265963E+02  0.15732599645E+02  0.43417742911E+01  0.21515890715E+02  0.00000000000E+00 0.  1.
         -1    1    1    2    0  501  0.14020265963E+02 -0.15732599645E+02 -0.11709361213E+02  0.24107917565E+02  0.00000000000E+00 0. -1.
</event>
<event>
 4    1  0.6754235E+001  0.3358954E+02  0.7546771E-02  0.1390760E+00
          2   -1    0    0  502    0  0.00000000000E+00  0.00000000000E+00  0.27005191840E+03  0.27005191840E+03  0.00000000000E+00 0. -1.
         -2   -1    0    0    0  501 -0.00000000000E+00 -0.00000000000E+00 -0.42715106422E+01  0.42715106422E+01  0.00000000000E+00 0.  1.
          1    1    1    2  502    0  0.17124141488E+02 -0.28896733959E+02  0.15319225649E+03  0.15683151757E+03  0.00000000000E+00 0. -1.
         -1    1    1    2    0  501 -0.17124141488E+02  0.28896733959E+02  0.11258815127E+03  0.11749191147E+03  0.00000000000E+00 0.  1.
</event>
<event>
 4    1  0.6754235E+001  0.3915733E+02  0.7546771E-02  0.1353496E+00
          2   -1    0    0  502    0  0.00000000000E+00  0.00000000000E+00  0.12697546969E+02  0.12697546969E+02  0.00000000000E+00 0.  1.
         -2   -1    0    0    0  501 -0.00000000000E+00 -0.00000000000E+00 -0.12462259483E+03  0.12462259483E+03  0.00000000000E+00 0. -1.
          1    1    1    2  502    0  0.14603093734E+02 -0.36332438027E+02 -0.68057587093E+02  0.78518351744E+02  0.00000000000E+00 0. -1.
         -1    1    1    2    0  501 -0.14603093734E+02  0.36332438027E+02 -0.43867460771E+02  0.58801790059E+02  0.00000000000E+00 0.  1.
</event>
<event>
 4    1  0.6754235E+001  0.2111020E+02  0.7546771E-02  0.1517697E+00
          2   -1    0    0  502    0  0.00000000000E+00  0.00000000000E+00  0.34419789803E+02  0.34419789803E+02  0.00000000000E+00 0. -1.
         -2   -1    0    0    0  501 -0.00000000000E+00 -0.00000000000E+00 -0.19171502983E+02  0.19171502983E+02  0.00000000000E+00 0.  1.
          1    1    1    2  502    0  0.14615903064E+02 -0.15232074380E+02  0.22892092352E+02  0.31139823451E+02  0.00000000000E+00 0. -1.
         -1    1    1    2    0  501 -0.14615903064E+02  0.15232074380E+02 -0.76438055310E+01  0.22451469335E+02  0.00000000000E+00 0.  1.
</event>
<event>
 4    1  0.6754235E+001  0.3253789E+02  0.7546771E-02  0.1398751E+00
          2   -1    0    0  502    0  0.00000000000E+00  0.00000000000E+00  0.15715299000E+03  0.15715299000E+03  0.00000000000E+00 0. -1.
         -2   -1    0    0    0  501 -0.00000000000E+00 -0.00000000000E+00 -0.68243390553E+01  0.68243390553E+01  0.00000000000E+00 0.  1.
          1    1    1    2  502    0 -0.14804757827E+02  0.28974702363E+02  0.65880430574E+02  0.73477516043E+02  0.00000000000E+00 0. -1.
         -1    1    1    2    0  501  0.14804757827E+02 -0.28974702363E+02  0.84448220368E+02  0.90499813009E+02  0.00000000000E+00 0.  1.
</event>
<event>
 4    1  0.6754235E+001  0.2319335E+02  0.7546771E-02  0.1490084E+00
          2   -1    0    0  502    0  0.00000000000E+00  0.00000000000E+00  0.22655085030E+02  0.22655085030E+02  0.00000000000E+00 0.  1.
         -2   -1    0    0    0  501 -0.00000000000E+00 -0.00000000000E+00 -0.31988940899E+02  0.31988940899E+02  0.00000000000E+00 0. -1.
          1    1    1    2  502    0 -0.11346622064E+01  0.23165582840E+02 -0.18537541375E+02  0.29691280318E+02  0.00000000000E+00 0. -1.
         -1    1    1    2    0  501  0.11346622064E+01 -0.23165582840E+02  0.92036855062E+01  0.24952745612E+02  0.00000000000E+00 0.  1.
</event>
<event>
 4    1  0.6754235E+001  0.2192925E+02  0.7546771E-02  0.1506400E+00
          2   -1    0    0  502    0  0.00000000000E+00  0.00000000000E+00  0.14032479395E+04  0.14032479395E+04  0.00000000000E+00 0.  1.
         -2   -1    0    0    0  501 -0.00000000000E+00 -0.00000000000E+00 -0.87809930991E+00  0.87809930991E+00  0.00000000000E+00 0. -1.
          1    1    1    2  502    0 -0.98868359356E+01  0.19574026290E+02  0.12493905400E+04  0.12495829758E+04  0.00000000000E+00 0.  1.
         -1    1    1    2    0  501  0.98868359356E+01 -0.19574026290E+02  0.15297930015E+03  0.15454306295E+03  0.00000000000E+00 0. -1.
</event>
<event>
 4    1  0.6754235E+001  0.2560383E+02  0.7546771E-02  0.1462160E+00
          2   -1    0    0  502    0  0.00000000000E+00  0.00000000000E+00  0.14222870174E+04  0.14222870174E+04  0.00000000000E+00 0.  1.
         -2   -1    0    0    0  501 -0.00000000000E+00 -0.00000000000E+00 -0.58550885149E+00  0.58550885149E+00  0.00000000000E+00 0. -1.
          1    1    1    2  502    0  0.22127778457E+01 -0.25508030422E+02  0.10390324905E+04  0.10393479072E+04  0.00000000000E+00 0.  1.
         -1    1    1    2    0  501 -0.22127778457E+01  0.25508030422E+02  0.38266901804E+03  0.38352461899E+03  0.00000000000E+00 0. -1.
</event>
<event>
 4    1  0.6754235E+001  0.1788253E+03  0.7546771E-02  0.1071258E+00
          2   -1    0    0  502    0  0.00000000000E+00  0.00000000000E+00  0.16870575856E+04  0.16870575856E+04  0.00000000000E+00 0.  1.
         -2   -1    0    0    0  501 -0.00000000000E+00 -0.00000000000E+00 -0.27993251638E+02  0.27993251638E+02  0.00000000000E+00 0. -1.
          1    1    1    2  502    0  0.17874770417E+03 -0.52658079691E+01  0.34227486481E+03  0.38617425285E+03  0.00000000000E+00 0. -1.
         -1    1    1    2    0  501 -0.17874770417E+03  0.52658079691E+01  0.13167894692E+04  0.13288765844E+04  0.00000000000E+00 0.  1.
</event>
<event>
 4    1  0.6754235E+001  0.2790539E+02  0.7546771E-02  0.1438719E+00
          2   -1    0    0  502    0  0.00000000000E+00  0.00000000000E+00  0.43338152743E+03  0.43338152743E+03  0.00000000000E+00 0. -1.
         -2   -1    0    0    0  501 -0.00000000000E+00 -0.00000000000E+00 -0.20044802567E+01  0.20044802567E+01  0.00000000000E+00 0.  1.
          1    1    1    2  502    0 -0.26491753255E+02 -0.87691249228E+01  0.14562119212E+03  0.14827084048E+03  0.00000000000E+00 0.  1.
         -1    1    1    2    0  501  0.26491753255E+02  0.87691249228E+01  0.28575585505E+03  0.28711516720E+03  0.00000000000E+00 0. -1.
</event>
<event>
 4    1  0.6754235E+001  0.3071631E+02  0.7546771E-02  0.1413472E+00
          2   -1    0    0  502    0  0.00000000000E+00  0.00000000000E+00  0.13545791837E+04  0.13545791837E+04  0.00000000000E+00 0.  1.
         -2   -1    0    0    0  501 -0.00000000000E+00 -0.00000000000E+00 -0.72287694741E+00  0.72287694741E+00  0.00000000000E+00 0. -1.
          1    1    1    2  502    0 -0.29376085493E+02 -0.89742687910E+01  0.54753270498E+03  0.54839361313E+03  0.00000000000E+00 0. -1.
         -1    1    1    2    0  501  0.29376085493E+02  0.89742687910E+01  0.80632360181E+03  0.80690844755E+03  0.00000000000E+00 0.  1.
</event>
<event>
 4    1  0.6754235E+001  0.3157177E+02  0.7546771E-02  0.1406412E+00
          2   -1    0    0  502    0  0.00000000000E+00  0.00000000000E+00  0.16422042751E+04  0.16422042751E+04  0.00000000000E+00 0. -1.
         -2   -1    0    0    0  501 -0.00000000000E+00 -0.00000000000E+00 -0.97944171415E+00  0.97944171415E+00  0.00000000000E+00 0.  1.
          1    1    1    2  502    0 -0.14637010361E+02  0.27973822905E+02  0.13272653926E+04  0.13276408397E+04  0.00000000000E+00 0. -1.
         -1    1    1    2    0  501  0.14637010361E+02 -0.27973822905E+02  0.31395944078E+03  0.31554287711E+03  0.00000000000E+00 0.  1.
</event>
<event>
 4    1  0.6754235E+001  0.2320080E+02  0.7546771E-02  0.1489992E+00
          2   -1    0    0  502    0  0.00000000000E+00  0.00000000000E+00  0.13836562869E+03  0.13836562869E+03  0.00000000000E+00 0.  1.
         -2   -1    0    0    0  501 -0.00000000000E+00 -0.00000000000E+00 -0.46174041483E+01  0.46174041483E+01  0.00000000000E+00 0. -1.
          1    1    1    2  502    0 -0.21738410208E+02  0.81066993328E+01  0.95244707703E+02  0.98029747515E+02  0.00000000000E+00 0.  1.
         -1    1    1    2    0  501  0.21738410208E+02 -0.81066993328E+01  0.38503516842E+02  0.44953285326E+02  0.00000000000E+00 0. -1.
</event>
<event>
 4    1  0.6754235E+001  0.2756395E+02  0.7546771E-02  0.1442024E+00
          2   -1    0    0  502    0  0.00000000000E+00  0.00000000000E+00  0.26092742163E+02  0.26092742163E+02  0.00000000000E+00 0. -1.
         -2   -1    0    0    0  501 -0.00000000000E+00 -0.00000000000E+00 -0.48328661707E+02  0.48328661707E+02  0.00000000000E+00 0.  1.
          1    1    1    2  502    0  0.12556633702E+02  0.24537768784E+02  0.12342443813E+02  0.30201110346E+02  0.00000000000E+00 0. -1.
         -1    1    1    2    0  501 -0.12556633702E+02 -0.24537768784E+02 -0.34578363358E+02  0.44220293524E+02  0.00000000000E+00 0.  1.
</event>
<event>
 4    1  0.6754235E+001  0.2140628E+02  0.7546771E-02  0.1513543E+00
          2   -1    0    0  502    0  0.00000000000E+00  0.00000000000E+00  0.15544199533E+03  0.15544199533E+03  0.00000000000E+00 0. -1.
         -2   -1    0    0    0  501 -0.00000000000E+00 -0.00000000000E+00 -0.40020559997E+01  0.40020559997E+01  0.00000000000E+00 0.  1.
          1    1    1    2  502    0 -0.43144939896E+01 -0.20966970252E+02  0.34804499960E+02  0.40860517831E+02  0.00000000000E+00 0.  1.
         -1    1    1    2    0  501  0.43144939896E+01  0.20966970252E+02  0.11663543938E+03  0.11858353350E+03  0.00000000000E+00 0. -1.
</event>
<event>
 4    1  0.6754235E+001  0.3143538E+02  0.7546771E-02  0.1407520E+00
          2   -1    0    0  502    0  0.00000000000E+00  0.00000000000E+00  0.81454221423E+03  0.81454221423E+03  0.00000000000E+00 0.  1.
         -2   -1    0    0    0  501 -0.00000000000E+00 -0.00000000000E+00 -0.13041970566E+01  0.13041970566E+01  0.00000000000E+00 0. -1.
          1    1    1    2  502    0  0.11899398048E+02 -0.29096171184E+02  0.29885385145E+03  0.30050259130E+03  0.00000000000E+00 0.  1.
         -1    1    1    2    0  501 -0.11899398048E+02  0.29096171184E+02  0.51438416572E+03  0.51534381998E+03  0.00000000000E+00 0. -1.
</event>
<event>
 4    1  0.6754235E+001  0.2149012E+02  0.7546771E-02  0.1512381E+00
          2   -1    0    0  502    0  0.00000000000E+00  0.00000000000E+00  0.15197858366E+02  0.15197858366E+02  0.00000000000E+00 0.  1.
         -2   -1    0    0    0  501 -0.00000000000E+00 -0.00000000000E+00 -0.49381822654E+02  0.49381822654E+02  0.00000000000E+00 0. -1.
          1    1    1    2  502    0 -0.19527617976E+01 -0.21401214668E+02 -0.37117971768E+02  0.42890198135E+02  0.00000000000E+00 0. -1.
         -1    1    1    2    0  501  0.19527617976E+01  0.21401214668E+02  0.29340074800E+01  0.21689482885E+02  0.00000000000E+00 0.  1.
</event>
<event>
 4    1  0.6754235E+001  0.3376908E+02  0.7546771E-02  0.1389430E+00
          2   -1    0    0  502    0  0.00000000000E+00  0.00000000000E+00  0.21623836994E+04  0.21623836994E+04  0.00000000000E+00 0.  1.
         -2   -1    0    0    0  501 -0.00000000000E+00 -0.00000000000E+00 -0.56111026846E+00  0.56111026846E+00  0.00000000000E+00 0. -1.
          1    1    1    2  502    0 -0.31631155217E+01 -0.33620611892E+02  0.13461527041E+04  0.13465761968E+04  0.00000000000E+00 0.  1.
         -1    1    1    2    0  501  0.31631155217E+01  0.33620611892E+02  0.81566988494E+03  0.81636861285E+03  0.00000000000E+00 0. -1.
</event>
<event>
 4    1  0.6754235E+001  0.2941311E+02  0.7546771E-02  0.1424766E+00
          2   -1    0    0  502    0  0.00000000000E+00  0.00000000000E+00  0.11207044137E+03  0.11207044137E+03  0.00000000000E+00 0. -1.
         -2   -1    0    0    0  501 -0.00000000000E+00 -0.00000000000E+00 -0.78417507804E+01  0.78417507804E+01  0.00000000000E+00 0.  1.
          1    1    1    2  502    0  0.98922830584E+00 -0.29396472471E+02  0.44629223921E+02  0.53449965333E+02  0.00000000000E+00 0.  1.
         -1    1    1    2    0  501 -0.98922830584E+00  0.29396472471E+02  0.59599466672E+02  0.66462226821E+02  0.00000000000E+00 0. -1.
</event>
<event>
 4    1  0.6754235E+001  0.2246005E+02  0.7546771E-02  0.1499392E+00
          2   -1    0    0  502    0  0.00000000000E+00  0.00000000000E+00  0.15004573563E+04  0.15004573563E+04  0.00000000000E+00 0. -1.
         -2   -1    0    0    0  501 -0.00000000000E+00 -0.00000000000E+00 -0.64439829768E+00  0.64439829768E+00  0.00000000000E+00 0.  1.
          1    1    1    2  502    0 -0.24685870898E+01  0.22323974566E+02  0.12689670770E+04  0.12691658269E+04  0.00000000000E+00 0. -1.
         -1    1    1    2    0  501  0.24685870898E+01 -0.22323974566E+02  0.23084588100E+03  0.23193592766E+03  0.00000000000E+00 0.  1.
</event>
<event>
 4    1  0.6754235E+001  0.4896402E+02  0.7546771E-02  0.1302728E+00
          2   -1    0    0  502    0  0.00000000000E+00  0.00000000000E+00  0.11862093953E+04  0.11862093953E+04  0.00000000000E+00 0.  1.
         -2   -1    0    0    0  501 -0.00000000000E+00 -0.00000000000E+00 -0.22089138735E+01  0.22089138735E+01  0.00000000000E+00 0. -1.
          1    1    1    2  502    0  0.47026474075E+02  0.13637662359E+02  0.41874468044E+03  0.42159765475E+03  0.00000000000E+00 0. -1.
         -1    1    1    2    0  501 -0.47026474075E+02 -0.13637662359E+02  0.76525580098E+03  0.76682065441E+03  0.00000000000E+00 0.  1.
</event>
<event>
 4    1  0.6754235E+001  0.5732531E+02  0.7546771E-02  0.1269201E+00
          2   -1    0    0  502    0  0.00000000000E+00  0.00000000000E+00  0.88067902383E+01  0.88067902383E+01  0.00000000000E+00 0.  1.
         -2   -1    0    0    0  501 -0.00000000000E+00 -0.00000000000E+00 -0.38028896004E+03  0.38028896004E+03  0.00000000000E+00 0. -1.
          1    1    1    2  502    0  0.36181695452E+02 -0.44464317911E+02 -0.21240997980E+03  0.22000952292E+03  0.00000000000E+00 0. -1.
         -1    1    1    2    0  501 -0.36181695452E+02  0.44464317911E+02 -0.15907218999E+03  0.16908622736E+03  0.00000000000E+00 0.  1.
</event>
<event>
 4    1  0.6754235E+001  0.2491028E+02  0.7546771E-02  0.1469810E+00
          2   -1    0    0  502    0  0.00000000000E+00  0.00000000000E+00  0.44369754681E+03  0.44369754681E+03  0.00000000000E+00 0.  1.
         -2   -1    0    0    0  501 -0.00000000000E+00 -0.00000000000E+00 -0.14234383670E+01  0.14234383670E+01  0.00000000000E+00 0. -1.
          1    1    1    2  502    0  0.24632660183E+02  0.37086842346E+01  0.19169341282E+03  0.19330516497E+03  0.00000000000E+00 0.  1.
         -1    1    1    2    0  501 -0.24632660183E+02 -0.37086842346E+01  0.25058069562E+03  0.25181582021E+03  0.00000000000E+00 0. -1.
</event>
<event>
 4    1  0.6754235E+001  0.2213535E+02  0.7546771E-02  0.1503651E+00
          2   -1    0    0  502    0  0.00000000000E+00  0.00000000000E+00  0.57716181561E+03  0.57716181561E+03  0.00000000000E+00 0. -1.
         -2   -1    0    0    0  501 -0.00000000000E+00 -0.00000000000E+00 -0.88486893683E+00  0.88486893683E+00  0.00000000000E+00 0.  1.
          1    1    1    2  502    0 -0.22122262422E+02  0.76117989906E+00  0.34638031871E+03  0.34708687541E+03  0.00000000000E+00 0. -1.
         -1    1    1    2    0  501  0.22122262422E+02 -0.76117989906E+00  0.22989662796E+03  0.23095980913E+03  0.00000000000E+00 0.  1.
</event>
<event>
 4    1  0.6754235E+001  0.3494729E+02  0.7546771E-02  0.1380934E+00
          2   -1    0    0  502    0  0.00000000000E+00  0.00000000000E+00  0.44947476630E+01  0.44947476630E+01  0.00000000000E+00 0.  1.
         -2   -1    0    0    0  501 -0.00000000000E+00 -0.00000000000E+00 -0.34374664587E+03  0.34374664587E+03  0.00000000000E+00 0. -1.
          1    1    1    2  502    0 -0.97985627511E+01 -0.33545512536E+02 -0.89922432482E+02  0.96474644890E+02  0.00000000000E+00 0.  1.
         -1    1    1    2    0  501  0.97985627511E+01  0.33545512536E+02 -0.24932946573E+03  0.25176674865E+03  0.00000000000E+00 0. -1.
</event>
<event>
 4    1  0.6754235E+001  0.2891465E+02  0.7546771E-02  0.1429268E+00
          2   -1    0    0  502    0  0.00000000000E+00  0.00000000000E+00  0.11033409140E+04  0.11033409140E+04  0.00000000000E+00 0.  1.
         -2   -1    0    0    0  501 -0.00000000000E+00 -0.00000000000E+00 -0.89733131125E+00  0.89733131125E+00  0.00000000000E+00 0. -1.
          1    1    1    2  502    0 -0.28126161269E+02  0.67063962389E+01  0.33346593443E+03  0.33471717334E+03  0.00000000000E+00 0. -1.
         -1    1    1    2    0  501  0.28126161269E+02 -0.67063962389E+01  0.76897764821E+03  0.76952107193E+03  0.00000000000E+00 0.  1.
</event>
<event>
 4    1  0.6754235E+001  0.2182164E+02  0.7546771E-02  0.1507850E+00
          2   -1    0    0  502    0  0.00000000000E+00  0.00000000000E+00  0.22459466777E+03  0.22459466777E+03  0.00000000000E+00 0.  1.
         -2   -1    0    0    0  501 -0.00000000000E+00 -0.00000000000E+00 -0.21232351909E+01  0.21232351909E+01  0.00000000000E+00 0. -1.
          1    1    1    2  502    0 -0.92979865889E+01 -0.19741613869E+02  0.11552716503E+03  0.11757002055E+03  0.00000000000E+00 0. -1.
         -1    1    1    2    0  501  0.92979865889E+01  0.19741613869E+02  0.10694426755E+03  0.10914788241E+03  0.00000000000E+00 0.  1.
</event>
<event>
 4    1  0.6754235E+001  0.2242705E+02  0.7546771E-02  0.1499821E+00
          2   -1    0    0  502    0  0.00000000000E+00  0.00000000000E+00  0.10080970966E+01  0.10080970966E+01  0.00000000000E+00 0. -1.
         -2   -1    0    0    0  501 -0.00000000000E+00 -0.00000000000E+00 -0.70784970961E+03  0.70784970961E+03  0.00000000000E+00 0.  1.
          1    1    1    2  502    0  0.18897428451E+02  0.12077247578E+02 -0.16086997663E+03  0.16242574331E+03  0.00000000000E+00 0.  1.
         -1    1    1    2    0  501 -0.18897428451E+02 -0.12077247578E+02 -0.54597163589E+03  0.54643206339E+03  0.00000000000E+00 0. -1.
</event>
<event>
 4    1  0.6754235E+001  0.2322185E+02  0.7546771E-02  0.1489731E+00
          2   -1    0    0  502    0  0.00000000000E+00  0.00000000000E+00  0.60055139789E+01  0.60055139789E+01  0.00000000000E+00 0.  1.
         -2   -1    0    0    0  501 -0.00000000000E+00 -0.00000000000E+00 -0.10000863800E+03  0.10000863800E+03  0.00000000000E+00 0. -1.
          1    1    1    2  502    0  0.22340688430E+02 -0.63362234753E+01 -0.63942771126E+02  0.68028906111E+02  0.00000000000E+00 0.  1.
         -1    1    1    2    0  501 -0.22340688430E+02  0.63362234753E+01 -0.30060352895E+02  0.37985245867E+02  0.00000000000E+00 0. -1.
</event>
<event>
 4    1  0.6754235E+001  0.2013778E+02  0.7546771E-02  0.1531940E+00
          2   -1    0    0  502    0  0.00000000000E+00  0.00000000000E+00  0.27210693752E+01  0.27210693752E+01  0.00000000000E+00 0. -1.
         -2   -1    0    0    0  501 -0.00000000000E+00 -0.00000000000E+00 -0.16971246130E+03  0.16971246130E+03  0.00000000000E+00 0.  1.
          1    1    1    2  502    0  0.59119551914E+01 -0.19250428892E+02 -0.11359110469E+03  0.11536233913E+03  0.00000000000E+00 0.  1.
         -1    1    1    2    0  501 -0.59119551914E+01  0.19250428892E+02 -0.53400287239E+02  0.57071191541E+02  0.00000000000E+00 0. -1.
</event>
<event>
 4    1  0.6754235E+001  0.2830810E+02  0.7546771E-02  0.1434893E+00
          2   -1    0    0  502    0  0.00000000000E+00  0.00000000000E+00  0.26443152588E+02  0.26443152588E+02  0.00000000000E+00 0.  1.
         -2   -1    0    0    0  501 -0.00000000000E+00 -0.00000000000E+00 -0.30307886384E+02  0.30307886384E+02  0.00000000000E+00 0. -1.
          1    1    1    2  502    0  0.23077321588E+02 -0.16394684093E+02 -0.16356609888E+01  0.28355313876E+02  0.00000000000E+00 0.  1.
         -1    1    1    2    0  501 -0.23077321588E+02  0.16394684093E+02 -0.22290728072E+01  0.28395725096E+02  0.00000000000E+00 0. -1.
</event>
<event>
 4    1  0.6754235E+001  0.3387773E+02  0.7546771E-02  0.1388629E+00
          2   -1    0    0  502    0  0.00000000000E+00  0.00000000000E+00  0.73547031924E+02  0.73547031924E+02  0.00000000000E+00 0.  1.
         -2   -1    0    0    0  501 -0.00000000000E+00 -0.00000000000E+00 -0.48005468863E+02  0.48005468863E+02  0.00000000000E+00 0. -1.
          1    1    1    2  502    0  0.23858543297E+02  0.24051413444E+02 -0.37159529367E+02  0.50284502579E+02  0.00000000000E+00 0. -1.
         -1    1    1    2    0  501 -0.23858543297E+02 -0.24051413444E+02  0.62701092427E+02  0.71267998207E+02  0.00000000000E+00 0.  1.
</event>
<event>
 4    1  0.6754235E+001  0.2398875E+02  0.7546771E-02  0.1480442E+00
          2   -1    0    0  502    0  0.00000000000E+00  0.00000000000E+00  0.18463379665E+04  0.18463379665E+04  0.00000000000E+00 0.  1.
         -2   -1    0    0    0  501 -0.00000000000E+00 -0.00000000000E+00 -0.31200648285E+00  0.31200648285E+00  0.00000000000E+00 0. -1.
          1    1    1    2  502    0 -0.46062869961E+01 -0.23542353578E+02  0.95303706350E+03  0.95333892436E+03  0.00000000000E+00 0.  1.
         -1    1    1    2    0  501  0.46062869961E+01  0.23542353578E+02  0.89298889656E+03  0.89331104867E+03  0.00000000000E+00 0. -1.
</event>
<event>
 4    1  0.6754235E+001  0.6672477E+02  0.7546771E-02  0.1238550E+00
          2   -1    0    0  502    0  0.00000000000E+00  0.00000000000E+00  0.20665519703E+03  0.20665519703E+03  0.00000000000E+00 0. -1.
         -2   -1    0    0    0  501 -0.00000000000E+00 -0.00000000000E+00 -0.22499830060E+02  0.22499830060E+02  0.00000000000E+00 0.  1.
          1    1    1    2  502    0 -0.35041842879E+02  0.56782603877E+02  0.68462935952E+02  0.95600044219E+02  0.00000000000E+00 0. -1.
         -1    1    1    2    0  501  0.35041842879E+02 -0.56782603877E+02  0.11569243102E+03  0.13355498288E+03  0.00000000000E+00 0.  1.
</event>
<event>
 4    1  0.6754235E+001  0.2355768E+02  0.7546771E-02  0.1485612E+00
          2   -1    0    0  502    0  0.00000000000E+00  0.00000000000E+00  0.65177619839E+02  0.65177619839E+02  0.00000000000E+00 0.  1.
         -2   -1    0    0    0  501 -0.00000000000E+00 -0.00000000000E+00 -0.97106776002E+01  0.97106776002E+01  0.00000000000E+00 0. -1.
          1    1    1    2  502    0  0.73401391653E+01 -0.22384961238E+02  0.40874553999E+02  0.47177254024E+02  0.00000000000E+00 0.  1.
         -1    1    1    2    0  501 -0.73401391653E+01  0.22384961238E+02  0.14592388239E+02  0.27711043415E+02  0.00000000000E+00 0. -1.
</event>
<event>
 4    1  0.6754235E+001  0.2550241E+02  0.7546771E-02  0.1463261E+00
          2   -1    0    0  502    0  0.00000000000E+00  0.00000000000E+00  0.42550658786E+02  0.42550658786E+02  0.00000000000E+00 0. -1.
         -2   -1    0    0    0  501 -0.00000000000E+00 -0.00000000000E+00 -0.15567657801E+02  0.15567657801E+02  0.00000000000E+00 0.  1.
          1    1    1    2  502    0  0.22498046144E+02  0.12008786369E+02  0.17409376570E+02  0.30878138268E+02  0.00000000000E+00 0. -1.
         -1    1    1    2    0  501 -0.22498046144E+02 -0.12008786369E+02  0.95736244154E+01  0.27240178318E+02  0.00000000000E+00 0.  1.
</event>
<event>
 4    1  0.6754235E+001  0.2202866E+02  0.7546771E-02  0.1505069E+00
          2   -1    0    0  502    0  0.00000000000E+00  0.00000000000E+00  0.75798942429E+01  0.75798942429E+01  0.00000000000E+00 0.  1.
         -2   -1    0    0    0  501 -0.00000000000E+00 -0.00000000000E+00 -0.73074775196E+02  0.73074775196E+02  0.00000000000E+00 0. -1.
          1    1    1    2  502    0 -0.97386345885E+01  0.19759075114E+02 -0.46943355670E+02  0.51854996813E+02  0.00000000000E+00 0. -1.
         -1    1    1    2    0  501  0.97386345885E+01 -0.19759075114E+02 -0.18551525283E+02  0.28799672625E+02  0.00000000000E+00 0.  1.
</event>
<event>
 4    1  0.6754235E+001  0.2139792E+02  0.7546771E-02  0.1513659E+00
          2   -1    0    0  502    0  0.00000000000E+00  0.00000000000E+00  0.25374695147E+03  0.25374695147E+03  0.00000000000E+00 0.  1.
         -2   -1    0    0    0  501 -0.00000000000E+00 -0.00000000000E+00 -0.21350863559E+01  0.21350863559E+01  0.00000000000E+00 0. -1.
          1    1    1    2  502    0 -0.43525163843E+01  0.20950571022E+02  0.75457634846E+02  0.78432936204E+02  0.00000000000E+00 0. -1.
         -1    1    1    2    0  501  0.43525163843E+01 -0.20950571022E+02  0.17615423026E+03  0.17744910162E+03  0.00000000000E+00 0.  1.
</event>
<event>
 4    1  0.6754235E+001  0.2844072E+02  0.7546771E-02  0.1433649E+00
          2   -1    0    0  502    0  0.00000000000E+00  0.00000000000E+00  0.16170862669E+03  0.16170862669E+03  0.00000000000E+00 0.  1.
         -2   -1    0    0    0  501 -0.00000000000E+00 -0.00000000000E+00 -0.73246467223E+01  0.73246467223E+01  0.00000000000E+00 0. -1.
          1    1    1    2  502    0  0.12269695025E+02  0.25657929313E+02  0.29599798660E+02  0.41049029627E+02  0.00000000000E+00 0. -1.
         -1    1    1    2    0  501 -0.12269695025E+02 -0.25657929313E+02  0.12478418131E+03  0.12798424379E+03  0.00000000000E+00 0.  1.
</event>
<event>
 4    1  0.6754235E+001  0.2504611E+02  0.7546771E-02  0.1468288E+00
          2   -1    0    0  502    0  0.00000000000E+00  0.00000000000E+00  0.30303263575E+03  0.30303263575E+03  0.00000000000E+00 0.  1.
         -2   -1    0    0    0  501 -0.00000000000E+00 -0.00000000000E+00 -0.23210481878E+01  0.23210481878E+01  0.00000000000E+00 0. -1.
          1    1    1    2  502    0  0.17479399131E+02 -0.17938173822E+02  0.10015342362E+03  0.10323766627E+03  0.00000000000E+00 0. -1.
         -1    1    1    2    0  501 -0.17479399131E+02  0.17938173822E+02  0.20055816395E+03  0.20211601767E+03  0.00000000000E+00 0.  1.
</event>
<event>
 4    1  0.6754235E+001  0.6928657E+02  0.7546771E-02  0.1231174E+00
          2   -1    0    0  502    0  0.00000000000E+00  0.00000000000E+00  0.56286405083E+03  0.56286405083E+03  0.00000000000E+00 0.  1.
         -2   -1    0    0    0  501 -0.00000000000E+00 -0.00000000000E+00 -0.87561405784E+01  0.87561405784E+01  0.00000000000E+00 0. -1.
          1    1    1    2  502    0 -0.38982939363E+02 -0.57279654298E+02  0.32309392384E+03  0.33043957387E+03  0.00000000000E+00 0.  1.
         -1    1    1    2    0  501  0.38982939363E+02  0.57279654298E+02  0.23101398641E+03  0.24118061753E+03  0.00000000000E+00 0. -1.
</event>
<event>
 4    1  0.6754235E+001  0.2774287E+02  0.7546771E-02  0.1440285E+00
          2   -1    0    0  502    0  0.00000000000E+00  0.00000000000E+00  0.61457208948E+03  0.61457208948E+03  0.00000000000E+00 0.  1.
         -2   -1    0    0    0  501 -0.00000000000E+00 -0.00000000000E+00 -0.12911422321E+01  0.12911422321E+01  0.00000000000E+00 0. -1.
          1    1    1    2  502    0 -0.26728520784E+02 -0.74332247195E+01  0.25327342919E+03  0.25478833684E+03  0.00000000000E+00 0. -1.
         -1    1    1    2    0  501  0.26728520784E+02  0.74332247195E+01  0.36000751806E+03  0.36107489488E+03  0.00000000000E+00 0.  1.
</event>
<event>
 4    1  0.6754235E+001  0.2213647E+02  0.7546771E-02  0.1503636E+00
          2   -1    0    0  502    0  0.00000000000E+00  0.00000000000E+00  0.33857612318E+01  0.33857612318E+01  0.00000000000E+00 0. -1.
         -2   -1    0    0    0  501 -0.00000000000E+00 -0.00000000000E+00 -0.24496320890E+03  0.24496320890E+03  0.00000000000E+00 0.  1.
          1    1    1    2  502    0  0.15970504458E+02 -0.15328607735E+02 -0.41358374806E+02  0.46909896549E+02  0.00000000000E+00 0. -1.
         -1    1    1    2    0  501 -0.15970504458E+02  0.15328607735E+02 -0.20021907286E+03  0.20143907358E+03  0.00000000000E+00 0.  1.
</event>
<event>
 4    1  0.6754235E+001  0.2523289E+02  0.7546771E-02  0.1466215E+00
          2   -1    0    0  502    0  0.00000000000E+00  0.00000000000E+00  0.37276568507E+02  0.37276568507E+02  0.00000000000E+00 0. -1.
         -2   -1    0    0    0  501 -0.00000000000E+00 -0.00000000000E+00 -0.31969361068E+02  0.31969361068E+02  0.00000000000E+00 0.  1.
          1    1    1    2  502    0  0.12798722354E+02  0.21746065388E+02 -0.20974533877E+02  0.32812036284E+02  0.00000000000E+00 0.  1.
         -1    1    1    2    0  501 -0.12798722354E+02 -0.21746065388E+02  0.26281741316E+02  0.36433893291E+02  0.00000000000E+00 0. -1.
</event>
<event>
 4    1  0.6754235E+001  0.7885823E+02  0.7546771E-02  0.1206523E+00
          2   -1    0    0  502    0  0.00000000000E+00  0.00000000000E+00  0.72335762121E+01  0.72335762121E+01  0.00000000000E+00 0. -1.
         -2   -1    0    0    0  501 -0.00000000000E+00 -0.00000000000E+00 -0.10443590489E+04  0.10443590489E+04  0.00000000000E+00 0.  1.
          1    1    1    2  502    0 -0.48061856051E+01  0.78711636275E+02 -0.73966420664E+03  0.74385600737E+03  0.00000000000E+00 0.  1.
         -1    1    1    2    0  501  0.48061856051E+01 -0.78711636275E+02 -0.29746126605E+03  0.30773661775E+03  0.00000000000E+00 0. -1.
</event>
<event>
 4    1  0.6754235E+001  0.3608182E+02  0.7546771E-02  0.1373113E+00
          2   -1    0    0  502    0  0.00000000000E+00  0.00000000000E+00  0.36477812704E+02  0.36477812704E+02  0.00000000000E+00 0.  1.
         -2   -1    0    0    0  501 -0.00000000000E+00 -0.00000000000E+00 -0.11207287257E+03  0.11207287257E+03  0.00000000000E+00 0. -1.
          1    1    1    2  502    0  0.29424749840E+02  0.20882575540E+02  0.23521042737E+02  0.43071305016E+02  0.00000000000E+00 0.  1.
         -1    1    1    2    0  501 -0.29424749840E+02 -0.20882575540E+02 -0.99116102606E+02  0.10547938026E+03  0.00000000000E+00 0. -1.
</event>
<event>
 4    1  0.6754235E+001  0.2660715E+02  0.7546771E-02  0.1451595E+00
          2   -1    0    0  502    0  0.00000000000E+00  0.00000000000E+00  0.90849257977E+01  0.90849257977E+01  0.00000000000E+00 0. -1.
         -2   -1    0    0    0  501 -0.00000000000E+00 -0.00000000000E+00 -0.78118259545E+02  0.78118259545E+02  0.00000000000E+00 0.  1.
          1    1    1    2  502    0 -0.13726423777E+02  0.22793109363E+02 -0.36686771412E+02  0.45319529353E+02  0.00000000000E+00 0.  1.
         -1    1    1    2    0  501  0.13726423777E+02 -0.22793109363E+02 -0.32346562336E+02  0.41883655990E+02  0.00000000000E+00 0. -1.
</event>
<event>
 4    1  0.6754235E+001  0.2051732E+02  0.7546771E-02  0.1526269E+00
          2   -1    0    0  502    0  0.00000000000E+00  0.00000000000E+00  0.15714051757E+04  0.15714051757E+04  0.00000000000E+00 0. -1.
         -2   -1    0    0    0  501 -0.00000000000E+00 -0.00000000000E+00 -0.48395276917E+00  0.48395276917E+00  0.00000000000E+00 0.  1.
          1    1    1    2  502    0 -0.27242655418E+01  0.20335657856E+02  0.26031178975E+03  0.26111910785E+03  0.00000000000E+00 0.  1.
         -1    1    1    2    0  501  0.27242655418E+01 -0.20335657856E+02  0.13106094332E+04  0.13107700206E+04  0.00000000000E+00 0. -1.
</event>
<event>
 4    1  0.6754235E+001  0.2166264E+02  0.7546771E-02  0.1510011E+00
          2   -1    0    0  502    0  0.00000000000E+00  0.00000000000E+00  0.12149067832E+04  0.12149067832E+04  0.00000000000E+00 0.  1.
         -2   -1    0    0    0  501 -0.00000000000E+00 -0.00000000000E+00 -0.50366120159E+00  0.50366120159E+00  0.00000000000E+00 0. -1.
          1    1    1    2  502    0  0.13549727622E+02  0.16901922541E+02  0.90060126460E+03  0.90086175849E+03  0.00000000000E+00 0.  1.
         -1    1    1    2    0  501 -0.13549727622E+02 -0.16901922541E+02  0.31380185736E+03  0.31454868587E+03  0.00000000000E+00 0. -1.
</event>
<event>
 4    1  0.6754235E+001  0.4602098E+02  0.7546771E-02  0.1316412E+00
          2   -1    0    0  502    0  0.00000000000E+00  0.00000000000E+00  0.22659610649E+02  0.22659610649E+02  0.00000000000E+00 0.  1.
         -2   -1    0    0    0  501 -0.00000000000E+00 -0.00000000000E+00 -0.99458596034E+02  0.99458596034E+02  0.00000000000E+00 0. -1.
          1    1    1    2  502    0 -0.44530557919E+02 -0.11617222945E+02 -0.53385747714E+02  0.70483817408E+02  0.00000000000E+00 0.  1.
         -1    1    1    2    0  501  0.44530557919E+02  0.11617222945E+02 -0.23413237671E+02  0.51634389274E+02  0.00000000000E+00 0. -1.
</event>
<event>
 4    1  0.6754235E+001  0.2549803E+02  0.7546771E-02  0.1463308E+00
          2   -1    0    0  502    0  0.00000000000E+00  0.00000000000E+00  0.86489089543E+01  0.86489089543E+01  0.00000000000E+00 0.  1.
         -2   -1    0    0    0  501 -0.00000000000E+00 -0.00000000000E+00 -0.14690564313E+03  0.14690564313E+03  0.00000000000E+00 0. -1.
          1    1    1    2  502    0  0.25151681822E+02  0.41883499066E+01 -0.14778663835E+02  0.29471312800E+02  0.00000000000E+00 0.  1.
         -1    1    1    2    0  501 -0.25151681822E+02 -0.41883499066E+01 -0.12347807034E+03  0.12608323929E+03  0.00000000000E+00 0. -1.
</event>
<event>
 4    1  0.6754235E+001  0.3105679E+02  0.7546771E-02  0.1410630E+00
          2   -1    0    0  502    0  0.00000000000E+00  0.00000000000E+00  0.11643645505E+02  0.11643645505E+02  0.00000000000E+00 0. -1.
         -2   -1    0    0    0  501 -0.00000000000E+00 -0.00000000000E+00 -0.83635531382E+02  0.83635531382E+02  0.00000000000E+00 0.  1.
          1    1    1    2  502    0 -0.13813617632E+02  0.27815615604E+02 -0.40650970998E+02  0.51156875849E+02  0.00000000000E+00 0.  1.
         -1    1    1    2    0  501  0.13813617632E+02 -0.27815615604E+02 -0.31340914879E+02  0.44122301039E+02  0.00000000000E+00 0. -1.
</event>
<event>
 4    1  0.6754235E+001  0.2104692E+02  0.7546771E-02  0.1518596E+00
          2   -1    0    0  502    0  0.00000000000E+00  0.00000000000E+00  0.34104605180E+03  0.34104605180E+03  0.00000000000E+00 0.  1.
         -2   -1    0    0    0  501 -0.00000000000E+00 -0.00000000000E+00 -0.13633110388E+01  0.13633110388E+01  0.00000000000E+00 0. -1.
          1    1    1    2  502    0  0.18982297825E+01 -0.20961144504E+02  0.13261801386E+03  0.13427773626E+03  0.00000000000E+00 0.  1.
         -1    1    1    2    0  501 -0.18982297825E+01  0.20961144504E+02  0.20706472690E+03  0.20813162658E+03  0.00000000000E+00 0. -1.
</event>
<event>
 4    1  0.6754235E+001  0.3048060E+02  0.7546771E-02  0.1415465E+00
          2   -1    0    0  502    0  0.00000000000E+00  0.00000000000E+00  0.58297103261E+03  0.58297103261E+03  0.00000000000E+00 0. -1.
         -2   -1    0    0    0  501 -0.00000000000E+00 -0.00000000000E+00 -0.17217707055E+01  0.17217707055E+01  0.00000000000E+00 0.  1.
          1    1    1    2  502    0 -0.28746466755E+02 -0.10134478041E+02  0.37036450256E+03  0.37161664623E+03  0.00000000000E+00 0. -1.
         -1    1    1    2    0  501  0.28746466755E+02  0.10134478041E+02  0.21088475935E+03  0.21307615709E+03  0.00000000000E+00 0.  1.
</event>
<event>
 4    1  0.6754235E+001  0.2258155E+02  0.7546771E-02  0.1497821E+00
          2   -1    0    0  502    0  0.00000000000E+00  0.00000000000E+00  0.54348674326E+01  0.54348674326E+01  0.00000000000E+00 0. -1.
         -2   -1    0    0    0  501 -0.00000000000E+00 -0.00000000000E+00 -0.11405816924E+03  0.11405816924E+03  0.00000000000E+00 0.  1.
          1    1    1    2  502    0 -0.14371276000E+02 -0.17418171476E+02 -0.29147534359E+02  0.36871466348E+02  0.00000000000E+00 0.  1.
         -1    1    1    2    0  501  0.14371276000E+02  0.17418171476E+02 -0.79475767448E+02  0.82621570325E+02  0.00000000000E+00 0. -1.
</event>
<event>
 4    1  0.6754235E+001  0.2674098E+02  0.7546771E-02  0.1450228E+00
          2   -1    0    0  502    0  0.00000000000E+00  0.00000000000E+00  0.89725511176E+02  0.89725511176E+02  0.00000000000E+00 0. -1.
         -2   -1    0    0    0  501 -0.00000000000E+00 -0.00000000000E+00 -0.80121911502E+01  0.80121911502E+01  0.00000000000E+00 0.  1.
          1    1    1    2  502    0 -0.80973069653E-01  0.26740856427E+02  0.37295300982E+02  0.45891387367E+02  0.00000000000E+00 0.  1.
         -1    1    1    2    0  501  0.80973069653E-01 -0.26740856427E+02  0.44418019043E+02  0.51846314959E+02  0.00000000000E+00 0. -1.
</event>
<event>
 4    1  0.6754235E+001  0.3960561E+02  0.7546771E-02  0.1350813E+00
          2   -1    0    0  502    0  0.00000000000E+00  0.00000000000E+00  0.55857633347E+03  0.55857633347E+03  0.00000000000E+00 0.  1.
         -2   -1    0    0    0  501 -0.00000000000E+00 -0.00000000000E+00 -0.35508045204E+01  0.35508045204E+01  0.00000000000E+00 0. -1.
          1    1    1    2  502    0  0.38916710605E+02  0.73548731841E+01  0.14897980986E+03  0.15415442994E+03  0.00000000000E+00 0. -1.
         -1    1    1    2    0  501 -0.38916710605E+02 -0.73548731841E+01  0.40604571909E+03  0.40797270806E+03  0.00000000000E+00 0.  1.
</event>
<event>
 4    1  0.6754235E+001  0.4146278E+02  0.7546771E-02  0.1340121E+00
          2   -1    0    0  502    0  0.00000000000E+00  0.00000000000E+00  0.57359495950E+03  0.57359495950E+03  0.00000000000E+00 0. -1.
         -2   -1    0    0    0  501 -0.00000000000E+00 -0.00000000000E+00 -0.76675362029E+01  0.76675362029E+01  0.00000000000E+00 0.  1.
          1    1    1    2  502    0 -0.32412826606E+02 -0.25856728169E+02  0.56139271789E+02  0.69790970456E+02  0.00000000000E+00 0.  1.
         -1    1    1    2    0  501  0.32412826606E+02  0.25856728169E+02  0.50978815151E+03  0.51147152525E+03  0.00000000000E+00 0. -1.
</event>
<event>
 4    1  0.6754235E+001  0.2978780E+02  0.7546771E-02  0.1421450E+00
          2   -1    0    0  502    0  0.00000000000E+00  0.00000000000E+00  0.68240737081E+03  0.68240737081E+03  0.00000000000E+00 0.  1.
         -2   -1    0    0    0  501 -0.00000000000E+00 -0.00000000000E+00 -0.13157955581E+01  0.13157955581E+01  0.00000000000E+00 0. -1.
          1    1    1    2  502    0  0.29747993150E+02 -0.15393872789E+01  0.30340931448E+03  0.30486804510E+03  0.00000000000E+00 0.  1.
         -1    1    1    2    0  501 -0.29747993150E+02  0.15393872789E+01  0.37768226077E+03  0.37885512127E+03  0.00000000000E+00 0. -1.
</event>
<event>
 4    1  0.6754235E+001  0.2553766E+02  0.7546771E-02  0.1462878E+00
          2   -1    0    0  502    0  0.00000000000E+00  0.00000000000E+00  0.15577662827E+02  0.15577662827E+02  0.00000000000E+00 0.  1.
         -2   -1    0    0    0  501 -0.00000000000E+00 -0.00000000000E+00 -0.10121252957E+03  0.10121252957E+03  0.00000000000E+00 0. -1.
          1    1    1    2  502    0 -0.25122067487E+02 -0.45884609589E+01 -0.87532863758E+02  0.91182095208E+02  0.00000000000E+00 0.  1.
         -1    1    1    2    0  501  0.25122067487E+02  0.45884609589E+01  0.18979970180E+01  0.25608097186E+02  0.00000000000E+00 0. -1.
</event>
<event>
 4    1  0.6754235E+001  0.3772824E+02  0.7546771E-02  0.1362338E+00
          2   -1    0    0  502    0  0.00000000000E+00  0.00000000000E+00  0.17848903263E+04  0.17848903263E+04  0.00000000000E+00 0.  1.
         -2   -1    0    0    0  501 -0.00000000000E+00 -0.00000000000E+00 -0.12833954568E+01  0.12833954568E+01  0.00000000000E+00 0. -1.
          1    1    1    2  502    0  0.44482648903E+01 -0.37465088699E+02  0.34227219857E+03  0.34434528870E+03  0.00000000000E+00 0. -1.
         -1    1    1    2    0  501 -0.44482648903E+01  0.37465088699E+02  0.14413347323E+04  0.14418284331E+04  0.00000000000E+00 0.  1.
</event>
<event>
 4    1  0.6754235E+001  0.2200527E+02  0.7546771E-02  0.1505381E+00
          2   -1    0    0  502    0  0.00000000000E+00  0.00000000000E+00  0.74995675883E+03  0.74995675883E+03  0.00000000000E+00 0. -1.
         -2   -1    0    0    0  501 -0.00000000000E+00 -0.00000000000E+00 -0.90524484808E+00  0.90524484808E+00  0.00000000000E+00 0.  1.
          1    1    1    2  502    0 -0.45312246418E+01 -0.21533697082E+02  0.17349152727E+03  0.17488150886E+03  0.00000000000E+00 0.  1.
         -1    1    1    2    0  501  0.45312246418E+01  0.21533697082E+02  0.57555998671E+03  0.57598049482E+03  0.00000000000E+00 0. -1.
</event>
<event>
 4    1  0.6754235E+001  0.2279751E+02  0.7546771E-02  0.1495057E+00
          2   -1    0    0  502    0  0.00000000000E+00  0.00000000000E+00  0.15502183058E+04  0.15502183058E+04  0.00000000000E+00 0. -1.
         -2   -1    0    0    0  501 -0.00000000000E+00 -0.00000000000E+00 -0.34904411335E+00  0.34904411335E+00  0.00000000000E+00 0.  1.
          1    1    1    2  502    0  0.22797379295E+02  0.76847251468E-01  0.62086832387E+03  0.62128673090E+03  0.00000000000E+00 0. -1.
         -1    1    1    2    0  501 -0.22797379295E+02 -0.76847251468E-01  0.92900093782E+03  0.92928061902E+03  0.00000000000E+00 0.  1.
</event>
<event>
 4    1  0.6754235E+001  0.2034196E+02  0.7546771E-02  0.1528871E+00
          2   -1    0    0  502    0  0.00000000000E+00  0.00000000000E+00  0.33491677926E+03  0.33491677926E+03  0.00000000000E+00 0. -1.
         -2   -1    0    0    0  501 -0.00000000000E+00 -0.00000000000E+00 -0.12779765619E+01  0.12779765619E+01  0.00000000000E+00 0.  1.
          1    1    1    2  502    0 -0.20322281494E+02  0.89447085168E+00  0.13617932363E+03  0.13769024434E+03  0.00000000000E+00 0. -1.
         -1    1    1    2    0  501  0.20322281494E+02 -0.89447085168E+00  0.19745947907E+03  0.19850451148E+03  0.00000000000E+00 0.  1.
</event>
<event>
 4    1  0.6754235E+001  0.3002410E+02  0.7546771E-02  0.1419387E+00
          2   -1    0    0  502    0  0.00000000000E+00  0.00000000000E+00  0.23299826989E+03  0.23299826989E+03  0.00000000000E+00 0.  1.
         -2   -1    0    0    0  501 -0.00000000000E+00 -0.00000000000E+00 -0.39801865057E+01  0.39801865057E+01  0.00000000000E+00 0. -1.
          1    1    1    2  502    0  0.29785184759E+02  0.37801410870E+01  0.94696007157E+02  0.99341735788E+02  0.00000000000E+00 0.  1.
         -1    1    1    2    0  501 -0.29785184759E+02 -0.37801410870E+01  0.13432207623E+03  0.13763672061E+03  0.00000000000E+00 0. -1.
</event>
<event>
 4    1  0.6754235E+001  0.2422366E+02  0.7546771E-02  0.1477679E+00
          2   -1    0    0  502    0  0.00000000000E+00  0.00000000000E+00  0.60746237282E+03  0.60746237282E+03  0.00000000000E+00 0. -1.
         -2   -1    0    0    0  501 -0.00000000000E+00 -0.00000000000E+00 -0.13294484014E+01  0.13294484014E+01  0.00000000000E+00 0.  1.
          1    1    1    2  502    0  0.69775291847E+01 -0.23196974784E+02  0.14390161007E+03  0.14592621058E+03  0.00000000000E+00 0.  1.
         -1    1    1    2    0  501 -0.69775291847E+01  0.23196974784E+02  0.46223131435E+03  0.46286561065E+03  0.00000000000E+00 0. -1.
</event>
<event>
 4    1  0.6754235E+001  0.2286033E+02  0.7546771E-02  0.1494259E+00
          2   -1    0    0  502    0  0.00000000000E+00  0.00000000000E+00  0.14795737360E+03  0.14795737360E+03  0.00000000000E+00 0.  1.
         -2   -1    0    0    0  501 -0.00000000000E+00 -0.00000000000E+00 -0.35753781546E+01  0.35753781546E+01  0.00000000000E+00 0. -1.
          1    1    1    2  502    0  0.22384401125E+01 -0.22750472848E+02  0.63851496768E+02  0.67820411886E+02  0.00000000000E+00 0.  1.
         -1    1    1    2    0  501 -0.22384401125E+01  0.22750472848E+02  0.80530498676E+02  0.83712339867E+02  0.00000000000E+00 0. -1.
</event>
<event>
 4    1  0.6754235E+001  0.2335178E+02  0.7546771E-02  0.1488127E+00
          2   -1    0    0  502    0  0.00000000000E+00  0.00000000000E+00  0.20682210392E+01  0.20682210392E+01  0.00000000000E+00 0. -1.
         -2   -1    0    0    0  501 -0.00000000000E+00 -0.00000000000E+00 -0.33605978972E+03  0.33605978972E+03  0.00000000000E+00 0.  1.
          1    1    1    2  502    0  0.13142814793E+02  0.19302131502E+02 -0.24546754789E+03  0.24657579550E+03  0.00000000000E+00 0.  1.
         -1    1    1    2    0  501 -0.13142814793E+02 -0.19302131502E+02 -0.88524020795E+02  0.91552215260E+02  0.00000000000E+00 0. -1.
</event>
<event>
 4    1  0.6754235E+001  0.2019943E+02  0.7546771E-02  0.1531009E+00
          2   -1    0    0  502    0  0.00000000000E+00  0.00000000000E+00  0.42867584578E+03  0.42867584578E+03  0.00000000000E+00 0. -1.
         -2   -1    0    0    0  501 -0.00000000000E+00 -0.00000000000E+00 -0.18166500756E+01  0.18166500756E+01  0.00000000000E+00 0.  1.
          1    1    1    2  502    0  0.19712901384E+02  0.44066498813E+01  0.64915258821E+02  0.67985350422E+02  0.00000000000E+00 0.  1.
         -1    1    1    2    0  501 -0.19712901384E+02 -0.44066498813E+01  0.36194393688E+03  0.36250714543E+03  0.00000000000E+00 0. -1.
</event>
<event>
 4    1  0.6754235E+001  0.3439413E+02  0.7546771E-02  0.1384873E+00
          2   -1    0    0  502    0  0.00000000000E+00  0.00000000000E+00  0.15696022176E+03  0.15696022176E+03  0.00000000000E+00 0.  1.
         -2   -1    0    0    0  501 -0.00000000000E+00 -0.00000000000E+00 -0.12971913830E+02  0.12971913830E+02  0.00000000000E+00 0. -1.
          1    1    1    2  502    0 -0.22698468363E+02  0.25840582502E+02  0.16995340566E+02  0.38364016618E+02  0.00000000000E+00 0. -1.
         -1    1    1    2    0  501  0.22698468363E+02 -0.25840582502E+02  0.12699296736E+03  0.13156811897E+03  0.00000000000E+00 0.  1.
</event>
<event>
 4    1  0.6754235E+001  0.3654391E+02  0.7546771E-02  0.1370022E+00
          2   -1    0    0  502    0  0.00000000000E+00  0.00000000000E+00  0.21409998891E+01  0.21409998891E+01  0.00000000000E+00 0. -1.
         -2   -1    0    0    0  501 -0.00000000000E+00 -0.00000000000E+00 -0.63022454339E+03  0.63022454339E+03  0.00000000000E+00 0.  1.
          1    1    1    2  502    0 -0.33470510075E+02 -0.14669098242E+02 -0.28200438292E+03  0.28436232077E+03  0.00000000000E+00 0.  1.
         -1    1    1    2    0  501  0.33470510075E+02  0.14669098242E+02 -0.34607916058E+03  0.34800322251E+03  0.00000000000E+00 0. -1.
</event>
<event>
 4    1  0.6754235E+001  0.2051482E+02  0.7546771E-02  0.1526306E+00
          2   -1    0    0  502    0  0.00000000000E+00  0.00000000000E+00  0.64402752374E+02  0.64402752374E+02  0.00000000000E+00 0. -1.
         -2   -1    0    0    0  501 -0.00000000000E+00 -0.00000000000E+00 -0.67180354012E+01  0.67180354012E+01  0.00000000000E+00 0.  1.
          1    1    1    2  502    0  0.20231951958E+02  0.33949944005E+01  0.22969183888E+02  0.30796773784E+02  0.00000000000E+00 0.  1.
         -1    1    1    2    0  501 -0.20231951958E+02 -0.33949944005E+01  0.34715533084E+02  0.40324013991E+02  0.00000000000E+00 0. -1.
</event>
<event>
 4    1  0.6754235E+001  0.2756638E+02  0.7546771E-02  0.1442000E+00
          2   -1    0    0  502    0  0.00000000000E+00  0.00000000000E+00  0.10931724788E+04  0.10931724788E+04  0.00000000000E+00 0.  1.
         -2   -1    0    0    0  501 -0.00000000000E+00 -0.00000000000E+00 -0.74786759993E+00  0.74786759993E+00  0.00000000000E+00 0. -1.
          1    1    1    2  502    0 -0.22434462728E+02 -0.16018736382E+02  0.69144794813E+03  0.69199723266E+03  0.00000000000E+00 0.  1.
         -1    1    1    2    0  501  0.22434462728E+02  0.16018736382E+02  0.40097666305E+03  0.40192311372E+03  0.00000000000E+00 0. -1.
</event>
<event>
 4    1  0.6754235E+001  0.3389295E+02  0.7546771E-02  0.1388518E+00
          2   -1    0    0  502    0  0.00000000000E+00  0.00000000000E+00  0.11656267860E+02  0.11656267860E+02  0.00000000000E+00 0.  1.
         -2   -1    0    0    0  501 -0.00000000000E+00 -0.00000000000E+00 -0.26185429986E+03  0.26185429986E+03  0.00000000000E+00 0. -1.
          1    1    1    2  502    0  0.30713273373E+02  0.14332711002E+02 -0.17101859448E+02  0.37963210646E+02  0.00000000000E+00 0.  1.
         -1    1    1    2    0  501 -0.30713273373E+02 -0.14332711002E+02 -0.23309617255E+03  0.23554735707E+03  0.00000000000E+00 0. -1.
</event>
<event>
 4    1  0.6754235E+001  0.2497143E+02  0.7546771E-02  0.1469123E+00
          2   -1    0    0  502    0  0.00000000000E+00  0.00000000000E+00  0.60289222294E+03  0.60289222294E+03  0.00000000000E+00 0. -1.
         -2   -1    0    0    0  501 -0.00000000000E+00 -0.00000000000E+00 -0.14431569368E+01  0.14431569368E+01  0.00000000000E+00 0.  1.
          1    1    1    2  502    0 -0.14751041050E+02 -0.20148920520E+02  0.46155793133E+03  0.46223294580E+03  0.00000000000E+00 0. -1.
         -1    1    1    2    0  501  0.14751041050E+02  0.20148920520E+02  0.13989113467E+03  0.14210243408E+03  0.00000000000E+00 0.  1.
</event>
<event>
 4    1  0.6754235E+001  0.2265340E+02  0.7546771E-02  0.1496897E+00
          2   -1    0    0  502    0  0.00000000000E+00  0.00000000000E+00  0.92631944725E+00  0.92631944725E+00  0.00000000000E+00 0.  1.
         -2   -1    0    0    0  501 -0.00000000000E+00 -0.00000000000E+00 -0.68652125765E+03  0.68652125765E+03  0.00000000000E+00 0. -1.
          1    1    1    2  502    0 -0.12573509210E+02  0.18843650987E+02 -0.49381717080E+03  0.49433649925E+03  0.00000000000E+00 0. -1.
         -1    1    1    2    0  501  0.12573509210E+02 -0.18843650987E+02 -0.19177776741E+03  0.19311107785E+03  0.00000000000E+00 0.  1.
</event>
<event>
 4    1  0.6754235E+001  0.2072328E+02  0.7546771E-02  0.1523253E+00
          2   -1    0    0  502    0  0.00000000000E+00  0.00000000000E+00  0.78215642178E+02  0.78215642178E+02  0.00000000000E+00 0.  1.
         -2   -1    0    0    0  501 -0.00000000000E+00 -0.00000000000E+00 -0.56392361050E+01  0.56392361050E+01  0.00000000000E+00 0. -1.
          1    1    1    2  502    0  0.61360098601E+01  0.19794029319E+02  0.43094120493E+02  0.47817961424E+02  0.00000000000E+00 0.  1.
         -1    1    1    2    0  501 -0.61360098601E+01 -0.19794029319E+02  0.29482285579E+02  0.36036916858E+02  0.00000000000E+00 0. -1.
</event>
<event>
 4    1  0.6754235E+001  0.2662791E+02  0.7546771E-02  0.1451382E+00
          2   -1    0    0  502    0  0.00000000000E+00  0.00000000000E+00  0.13037489604E+02  0.13037489604E+02  0.00000000000E+00 0. -1.
         -2   -1    0    0    0  501 -0.00000000000E+00 -0.00000000000E+00 -0.62837964552E+02  0.62837964552E+02  0.00000000000E+00 0.  1.
          1    1    1    2  502    0 -0.18259547669E+02  0.19381289709E+02 -0.10985929065E+02  0.28805140327E+02  0.00000000000E+00 0. -1.
         -1    1    1    2    0  501  0.18259547669E+02 -0.19381289709E+02 -0.38814545883E+02  0.47070313829E+02  0.00000000000E+00 0.  1.
</event>
<event>
 4    1  0.6754235E+001  0.2696302E+02  0.7546771E-02  0.1447980E+00
          2   -1    0    0  502    0  0.00000000000E+00  0.00000000000E+00  0.12563786821E+01  0.12563786821E+01  0.00000000000E+00 0.  1.
         -2   -1    0    0    0  501 -0.00000000000E+00 -0.00000000000E+00 -0.58354113983E+03  0.58354113983E+03  0.00000000000E+00 0. -1.
          1    1    1    2  502    0  0.25471715877E+02 -0.88428498990E+01 -0.31791046376E+03  0.31905182537E+03  0.00000000000E+00 0. -1.
         -1    1    1    2    0  501 -0.25471715877E+02  0.88428498990E+01 -0.26437429738E+03  0.26574569313E+03  0.00000000000E+00 0.  1.
</event>
<event>
 4    1  0.6754235E+001  0.2824830E+02  0.7546771E-02  0.1435456E+00
          2   -1    0    0  502    0  0.00000000000E+00  0.00000000000E+00  0.72096145704E+01  0.72096145704E+01  0.00000000000E+00 0. -1.
         -2   -1    0    0    0  501 -0.00000000000E+00 -0.00000000000E+00 -0.14129708665E+03  0.14129708665E+03  0.00000000000E+00 0.  1.
          1    1    1    2  502    0  0.25629068653E+02  0.11879274605E+02 -0.32479632336E+02  0.43045241802E+02  0.00000000000E+00 0. -1.
         -1    1    1    2    0  501 -0.25629068653E+02 -0.11879274605E+02 -0.10160783974E+03  0.10546145941E+03  0.00000000000E+00 0.  1.
</event>
<event>
 4    1  0.6754235E+001  0.2010097E+02  0.7546771E-02  0.1532498E+00
          2   -1    0    0  502    0  0.00000000000E+00  0.00000000000E+00  0.24598876738E+02  0.24598876738E+02  0.00000000000E+00 0.  1.
         -2   -1    0    0    0  501 -0.00000000000E+00 -0.00000000000E+00 -0.23123580431E+02  0.23123580431E+02  0.00000000000E+00 0. -1.
          1    1    1    2  502    0 -0.13939741977E+02  0.14482152414E+02  0.13579866545E+02  0.24258234072E+02  0.00000000000E+00 0. -1.
         -1    1    1    2    0  501  0.13939741977E+02 -0.14482152414E+02 -0.12104570238E+02  0.23464223098E+02  0.00000000000E+00 0.  1.
</event>
<event>
 4    1  0.6754235E+001  0.2651965E+02  0.7546771E-02  0.1452494E+00
          2   -1    0    0  502    0  0.00000000000E+00  0.00000000000E+00  0.17255478866E+03  0.17255478866E+03  0.00000000000E+00 0. -1.
         -2   -1    0    0    0  501 -0.00000000000E+00 -0.00000000000E+00 -0.84183666228E+01  0.84183666228E+01  0.00000000000E+00 0.  1.
          1    1    1    2  502    0  0.38901112707E+01  0.26232779461E+02  0.14705806398E+03  0.14943013707E+03  0.00000000000E+00 0. -1.
         -1    1    1    2    0  501 -0.38901112707E+01 -0.26232779461E+02  0.17078358059E+02  0.31543018212E+02  0.00000000000E+00 0.  1.
</event>
<event>
 4    1  0.6754235E+001  0.2388559E+02  0.7546771E-02  0.1481667E+00
          2   -1    0    0  502    0  0.00000000000E+00  0.00000000000E+00  0.76162092775E+03  0.76162092775E+03  0.00000000000E+00 0. -1.
         -2   -1    0    0    0  501 -0.00000000000E+00 -0.00000000000E+00 -0.11918835932E+01  0.11918835932E+01  0.00000000000E+00 0.  1.
          1    1    1    2  502    0 -0.21866780011E+02 -0.96106983062E+01  0.14774159182E+03  0.14965994635E+03  0.00000000000E+00 0.  1.
         -1    1    1    2    0  501  0.21866780011E+02  0.96106983062E+01  0.61268745234E+03  0.61315286499E+03  0.00000000000E+00 0. -1.
</event>
<event>
 4    1  0.6754235E+001  0.2722574E+02  0.7546771E-02  0.1445354E+00
          2   -1    0    0  502    0  0.00000000000E+00  0.00000000000E+00  0.23504826266E+03  0.23504826266E+03  0.00000000000E+00 0. -1.
         -2   -1    0    0    0  501 -0.00000000000E+00 -0.00000000000E+00 -0.31542496017E+01  0.31542496017E+01  0.00000000000E+00 0.  1.
          1    1    1    2  502    0  0.18993437816E+02  0.19506162708E+02  0.11769569520E+03  0.12080363295E+03  0.00000000000E+00 0.  1.
         -1    1    1    2    0  501 -0.18993437816E+02 -0.19506162708E+02  0.11419831786E+03  0.11739887932E+03  0.00000000000E+00 0. -1.
</event>
