<event>
 4    1  0.1551744E+006  0.2197239E+02  0.7546771E-02  0.1505821E+00
         21   -1    0    0  504  501  0.00000000000E+00  0.00000000000E+00  0.26785461079E+01  0.26785461079E+01  0.00000000000E+00 0. -1.
         21   -1    0    0  503  502 -0.00000000000E+00 -0.00000000000E+00 -0.29431909828E+03  0.29431909828E+03  0.00000000000E+00 0. -1.
         21    1    1    2  503  501  0.13995879194E+02 -0.16938157070E+02 -0.53368869482E+02  0.57715006967E+02  0.00000000000E+00 0. -1.
         21    1    1    2  504  502 -0.13995879194E+02  0.16938157070E+02 -0.23827168269E+03  0.23928263742E+03  0.00000000000E+00 0. -1.
</event>
<event>
 4    1  0.1551744E+006  0.5057097E+02  0.7546771E-02  0.1295716E+00
         21   -1    0    0  503  501  0.00000000000E+00  0.00000000000E+00  0.50538641546E+02  0.50538641546E+02  0.00000000000E+00 0. -1.
         21   -1    0    0  504  502 -0.00000000000E+00 -0.00000000000E+00 -0.20938734564E+03  0.20938734564E+03  0.00000000000E+00 0. -1.
         21    1    1    2  503  502  0.49275718921E+02  0.11372183316E+02 -0.19259867249E+03  0.19912727506E+03  0.00000000000E+00 0. -1.
         21    1    1    2  504  501 -0.49275718921E+02 -0.11372183316E+02  0.33749968400E+02  0.60798712121E+02  0.00000000000E+00 0. -1.
</event>
<event>
 4    1  0.1551744E+006  0.2315485E+02  0.7546771E-02  0.1490563E+00
         21   -1    0    0  503  501  0.00000000000E+00  0.00000000000E+00  0.86566169345E+03  0.86566169345E+03  0.00000000000E+00 0. -1.
         21   -1    0    0  504  502 -0.00000000000E+00 -0.00000000000E+00 -0.10793642025E+03  0.10793642025E+03  0.00000000000E+00 0. -1.
         21    1    1    2  503  502 -0.19549979222E+02 -0.12407474181E+02  0.86426303448E+03  0.86457315472E+03  0.00000000000E+00 0. -1.
         21    1    1    2  504  501  0.19549979222E+02  0.12407474181E+02 -0.10653776128E+03  0.10902495898E+03  0.00000000000E+00 0. -1.
</event>
<event>
 4    1  0.1551744E+006  0.2249771E+02  0.7546771E-02  0.1498904E+00
         21   -1    0    0  503  501  0.00000000000E+00  0.00000000000E+00  0.15318578569E+04  0.15318578569E+04  0.00000000000E+00 0.  1.
         21   -1    0    0  504  502 -0.00000000000E+00 -0.00000000000E+00 -0.19768960604E+02  0.19768960604E+02  0.00000000000E+00 0.  1.
         21    1    1    2  503  502  0.29413719263E+01  0.22304600025E+02  0.15253471570E+04  0.15255130600E+04  0.00000000000E+00 0.  1.
         21    1    1    2  504  501 -0.29413719263E+01 -0.22304600025E+02 -0.13258260744E+02  0.26113757467E+02  0.00000000000E+00 0.  1.
</event>
<event>
 4    1  0.1551744E+006  0.2346576E+02  0.7546771E-02  0.1486731E+00
         21   -1    0    0  504  501  0.00000000000E+00  0.00000000000E+00  0.49455486147E+02  0.49455486147E+02  0.00000000000E+00 0. -1.
         21   -1    0    0  501  502 -0.00000000000E+00 -0.00000000000E+00 -0.14051908543E+02  0.14051908543E+02  0.00000000000E+00 0. -1.
         21    1    1    2  503  502  0.15966860383E+02  0.17195971833E+02  0.32322257511E+01  0.23687324903E+02  0.00000000000E+00 0. -1.
         21    1    1    2  504  503 -0.15966860383E+02 -0.17195971833E+02  0.32171351852E+02  0.39820069786E+02  0.00000000000E+00 0. -1.
</event>
<event>
 4    1  0.1551744E+006  0.2003001E+02  0.7546771E-02  0.1533577E+00
         21   -1    0    0  502  501  0.00000000000E+00  0.00000000000E+00  0.19177890630E+02  0.19177890630E+02  0.00000000000E+00 0.  1.
         21   -1    0    0  503  502 -0.00000000000E+00 -0.00000000000E+00 -0.20971907227E+02  0.20971907227E+02  0.00000000000E+00 0.  1.
         21    1    1    2  503  504  0.17922702801E+02  0.89430458161E+01  0.10178632737E+00  0.20030269709E+02  0.00000000000E+00 0.  1.
         21    1    1    2  504  501 -0.17922702801E+02 -0.89430458161E+01 -0.18958029249E+01  0.20119528148E+02  0.00000000000E+00 0.  1.
</event>
<event>
 4    1  0.1551744E+006  0.2415317E+02  0.7546771E-02  0.1478504E+00
         21   -1    0    0  504  501  0.00000000000E+00  0.00000000000E+00  0.10876461376E+03  0.10876461376E+03  0.00000000000E+00 0. -1.
         21   -1    0    0  503  502 -0.00000000000E+00 -0.00000000000E+00 -0.13475609778E+02  0.13475609778E+02  0.00000000000E+00 0. -1.
         21    1    1    2  503  501  0.31098742736E+01 -0.23952122852E+02  0.95065727685E+02  0.98086023914E+02  0.00000000000E+00 0. -1.
         21    1    1    2  504  502 -0.31098742736E+01  0.23952122852E+02  0.22327629646E+00  0.24154199623E+02  0.00000000000E+00 0. -1.
</event>
<event>
 4    1  0.1551744E+006  0.2941500E+02  0.7546771E-02  0.1424749E+00
         21   -1    0    0  502  501  0.00000000000E+00  0.00000000000E+00  0.13716266842E+03  0.13716266842E+03  0.00000000000E+00 0.  1.
         21   -1    0    0  503  502 -0.00000000000E+00 -0.00000000000E+00 -0.47897334476E+02  0.47897334476E+02  0.00000000000E+00 0. -1.
         21    1    1    2  503  504 -0.27109030060E+02 -0.11416783171E+02 -0.41589137486E+02  0.50940149250E+02  0.00000000000E+00 0. -1.
         21    1    1    2  504  501  0.27109030060E+02  0.11416783171E+02  0.13085447143E+03  0.13411985365E+03  0.00000000000E+00 0.  1.
</event>
<event>
 4    1  0.1551744E+006  0.2246907E+02  0.7546771E-02  0.1499275E+00
         21   -1    0    0  504  501  0.00000000000E+00  0.00000000000E+00  0.42795031205E+03  0.42795031205E+03  0.00000000000E+00 0. -1.
         21   -1    0    0  503  502 -0.00000000000E+00 -0.00000000000E+00 -0.14572326070E+01  0.14572326070E+01  0.00000000000E+00 0. -1.
         21    1    1    2  503  501 -0.21712320480E+02 -0.57822204919E+01  0.30694260675E+03  0.30776390752E+03  0.00000000000E+00 0. -1.
         21    1    1    2  504  502  0.21712320480E+02  0.57822204919E+01  0.11955047269E+03  0.12164363713E+03  0.00000000000E+00 0. -1.
</event>
<event>
 4    1  0.1551744E+006  0.2323481E+02  0.7546771E-02  0.1489570E+00
         21   -1    0    0  503  501  0.00000000000E+00  0.00000000000E+00  0.10838424473E+04  0.10838424473E+04  0.00000000000E+00 0. -1.
         21   -1    0    0  504  502 -0.00000000000E+00 -0.00000000000E+00 -0.18066105409E+01  0.18066105409E+01  0.00000000000E+00 0.  1.
         21    1    1    2  503  502  0.20712638810E+02  0.10528201000E+02  0.79044859704E+02  0.82388993612E+02  0.00000000000E+00 0.  1.
         21    1    1    2  504  501 -0.20712638810E+02 -0.10528201000E+02  0.10029909771E+04  0.10032600642E+04  0.00000000000E+00 0. -1.
</event>
<event>
 4    1  0.1551744E+006  0.2232156E+02  0.7546771E-02  0.1501198E+00
         21   -1    0    0  502  501  0.00000000000E+00  0.00000000000E+00  0.17236017487E+02  0.17236017487E+02  0.00000000000E+00 0.  1.
         21   -1    0    0  504  502 -0.00000000000E+00 -0.00000000000E+00 -0.51114488378E+03  0.51114488378E+03  0.00000000000E+00 0. -1.
         21    1    1    2  503  501  0.20257747153E+02 -0.93742074920E+01  0.96566997015E+01  0.24320853911E+02  0.00000000000E+00 0.  1.
         21    1    1    2  504  503 -0.20257747153E+02  0.93742074920E+01 -0.50356556599E+03  0.50406004736E+03  0.00000000000E+00 0. -1.
</event>
<event>
 4    1  0.1551744E+006  0.2618104E+02  0.7546771E-02  0.1456013E+00
         21   -1    0    0  504  501  0.00000000000E+00  0.00000000000E+00  0.18367042241E+03  0.18367042241E+03  0.00000000000E+00 0. -1.
         21   -1    0    0  503  502 -0.00000000000E+00 -0.00000000000E+00 -0.49747378720E+01  0.49747378720E+01  0.00000000000E+00 0. -1.
         21    1    1    2  503  501 -0.25998713573E+02  0.30844329187E+01  0.42203348572E+02  0.49664569510E+02  0.00000000000E+00 0. -1.
         21    1    1    2  504  502  0.25998713573E+02 -0.30844329187E+01  0.13649233597E+03  0.13898059077E+03  0.00000000000E+00 0. -1.
</event>
<event>
 4    1  0.1551744E+006  0.2306457E+02  0.7546771E-02  0.1491689E+00
         21   -1    0    0  504  501  0.00000000000E+00  0.00000000000E+00  0.10814180697E+02  0.10814180697E+02  0.00000000000E+00 0.  1.
         21   -1    0    0  503  502 -0.00000000000E+00 -0.00000000000E+00 -0.53983135685E+02  0.53983135685E+02  0.00000000000E+00 0.  1.
         21    1    1    2  503  501  0.18512891571E+02 -0.13756717606E+02 -0.31236171742E+02  0.38828763291E+02  0.00000000000E+00 0.  1.
         21    1    1    2  504  502 -0.18512891571E+02  0.13756717606E+02 -0.11932783247E+02  0.25968553091E+02  0.00000000000E+00 0.  1.
</event>
<event>
 4    1  0.1551744E+006  0.2730946E+02  0.7546771E-02  0.1444524E+00
         21   -1    0    0  503  501  0.00000000000E+00  0.00000000000E+00  0.15169500234E+03  0.15169500234E+03  0.00000000000E+00 0.  1.
         21   -1    0    0  501  502 -0.00000000000E+00 -0.00000000000E+00 -0.11294198436E+03  0.11294198436E+03  0.00000000000E+00 0.  1.
         21    1    1    2  503  504 -0.11574964175E+02 -0.24735138238E+02  0.14878297370E+03  0.15126856951E+03  0.00000000000E+00 0.  1.
         21    1    1    2  504  502  0.11574964175E+02  0.24735138238E+02 -0.11002995572E+03  0.11336841719E+03  0.00000000000E+00 0.  1.
</event>
<event>
 4    1  0.1551744E+006  0.2676281E+02  0.7546771E-02  0.1450005E+00
         21   -1    0    0  503  501  0.00000000000E+00  0.00000000000E+00  0.13075274193E+01  0.13075274193E+01  0.00000000000E+00 0. -1.
         21   -1    0    0  504  502 -0.00000000000E+00 -0.00000000000E+00 -0.81620438898E+03  0.81620438898E+03  0.00000000000E+00 0.  1.
         21    1    1    2  503  502  0.10594751482E+01  0.26741834921E+02 -0.17304233300E+03  0.17509967799E+03  0.00000000000E+00 0. -1.
         21    1    1    2  504  501 -0.10594751482E+01 -0.26741834921E+02 -0.64185452857E+03  0.64241223842E+03  0.00000000000E+00 0.  1.
</event>
<event>
 4    1  0.1551744E+006  0.2118352E+02  0.7546771E-02  0.1516661E+00
         21   -1    0    0  503  501  0.00000000000E+00  0.00000000000E+00  0.90986712496E+01  0.90986712496E+01  0.00000000000E+00 0.  1.
         21   -1    0    0  504  502 -0.00000000000E+00 -0.00000000000E+00 -0.76195580123E+02  0.76195580123E+02  0.00000000000E+00 0.  1.
         21    1    1    2  503  502  0.17562768813E+02 -0.11844444341E+02 -0.58876870003E+02  0.62571779034E+02  0.00000000000E+00 0.  1.
         21    1    1    2  504  501 -0.17562768813E+02  0.11844444341E+02 -0.82200388702E+01  0.22722472338E+02  0.00000000000E+00 0.  1.
</event>
<event>
 4    1  0.1551744E+006  0.3272114E+02  0.7546771E-02  0.1397333E+00
         21   -1    0    0  503  501  0.00000000000E+00  0.00000000000E+00  0.38734352409E+03  0.38734352409E+03  0.00000000000E+00 0.  1.
         21   -1    0    0  504  502 -0.00000000000E+00 -0.00000000000E+00 -0.16330970303E+02  0.16330970303E+02  0.00000000000E+00 0. -1.
         21    1    1    2  503  502 -0.12254379627E+02  0.30339798150E+02  0.15415938442E+01  0.32757437070E+02  0.00000000000E+00 0. -1.
         21    1    1    2  504  501  0.12254379627E+02 -0.30339798150E+02  0.36947095995E+03  0.37091705733E+03  0.00000000000E+00 0.  1.
</event>
<event>
 4    1  0.1551744E+006  0.2203263E+02  0.7546771E-02  0.1505016E+00
         21   -1    0    0  503  501  0.00000000000E+00  0.00000000000E+00  0.14323096221E+02  0.14323096221E+02  0.00000000000E+00 0. -1.
         21   -1    0    0  501  502 -0.00000000000E+00 -0.00000000000E+00 -0.39333256689E+03  0.39333256689E+03  0.00000000000E+00 0.  1.
         21    1    1    2  503  504  0.53506319117E+01 -0.21373056899E+02  0.53437983362E+01  0.22671413800E+02  0.00000000000E+00 0. -1.
         21    1    1    2  504  502 -0.53506319117E+01  0.21373056899E+02 -0.38435326900E+03  0.38498424931E+03  0.00000000000E+00 0.  1.
</event>
<event>
 4    1  0.1551744E+006  0.3422827E+02  0.7546771E-02  0.1386071E+00
         21   -1    0    0  503  501  0.00000000000E+00  0.00000000000E+00  0.69910038829E+03  0.69910038829E+03  0.00000000000E+00 0.  1.
         21   -1    0    0  504  502 -0.00000000000E+00 -0.00000000000E+00 -0.23459218504E+02  0.23459218504E+02  0.00000000000E+00 0.  1.
         21    1    1    2  503  502 -0.10844723728E+02 -0.32464853359E+02 -0.10315958769E+02  0.35749038332E+02  0.00000000000E+00 0.  1.
         21    1    1    2  504  501  0.10844723728E+02  0.32464853359E+02  0.68595712856E+03  0.68681056846E+03  0.00000000000E+00 0.  1.
</event>
<event>
 4    1  0.1551744E+006  0.2150094E+02  0.7546771E-02  0.1512231E+00
         21   -1    0    0  503  501  0.00000000000E+00  0.00000000000E+00  0.65801806160E+02  0.65801806160E+02  0.00000000000E+00 0. -1.
         21   -1    0    0  504  502 -0.00000000000E+00 -0.00000000000E+00 -0.62858499113E+02  0.62858499113E+02  0.00000000000E+00 0.  1.
         21    1    1    2  503  502  0.15487487575E+02 -0.14914031319E+02 -0.59157018538E+02  0.62943176309E+02  0.00000000000E+00 0.  1.
         21    1    1    2  504  501 -0.15487487575E+02  0.14914031319E+02  0.62100325585E+02  0.65717128965E+02  0.00000000000E+00 0. -1.
</event>
<event>
 4    1  0.1551744E+006  0.2075179E+02  0.7546771E-02  0.1522838E+00
         21   -1    0    0  503  501  0.00000000000E+00  0.00000000000E+00  0.40538118512E+02  0.40538118512E+02  0.00000000000E+00 0.  1.
         21   -1    0    0  504  502 -0.00000000000E+00 -0.00000000000E+00 -0.12840176121E+02  0.12840176121E+02  0.00000000000E+00 0.  1.
         21    1    1    2  503  502  0.19994554022E+02  0.55547012466E+01  0.27585463062E+01  0.20934337205E+02  0.00000000000E+00 0.  1.
         21    1    1    2  504  501 -0.19994554022E+02 -0.55547012466E+01  0.24939396085E+02  0.32443957428E+02  0.00000000000E+00 0.  1.
</event>
<event>
 4    1  0.1551744E+006  0.2015763E+02  0.7546771E-02  0.1531640E+00
         21   -1    0    0  504  501  0.00000000000E+00  0.00000000000E+00  0.71548576809E+03  0.71548576809E+03  0.00000000000E+00 0. -1.
         21   -1    0    0  503  502 -0.00000000000E+00 -0.00000000000E+00 -0.59865317149E+00  0.59865317149E+00  0.00000000000E+00 0. -1.
         21    1    1    2  503  501  0.75092594215E+01  0.18706706919E+02  0.43858399104E+03  0.43904697591E+03  0.00000000000E+00 0. -1.
         21    1    1    2  504  502 -0.75092594215E+01 -0.18706706919E+02  0.27630312387E+03  0.27703744534E+03  0.00000000000E+00 0. -1.
</event>
<event>
 4    1  0.1551744E+006  0.2858851E+02  0.7546771E-02  0.1432272E+00
         21   -1    0    0  502  501  0.00000000000E+00  0.00000000000E+00  0.18342752818E+02  0.18342752818E+02  0.00000000000E+00 0.  1.
         21   -1    0    0  504  502 -0.00000000000E+00 -0.00000000000E+00 -0.33679159851E+03  0.33679159851E+03  0.00000000000E+00 0. -1.
         21    1    1    2  503  501 -0.28531385284E+02 -0.18064363963E+01  0.61802105010E+01  0.29248900159E+02  0.00000000000E+00 0.  1.
         21    1    1    2  504  503  0.28531385284E+02  0.18064363963E+01 -0.32462905620E+03  0.32588545117E+03  0.00000000000E+00 0. -1.
</event>
<event>
 4    1  0.1551744E+006  0.2019432E+02  0.7546771E-02  0.1531086E+00
         21   -1    0    0  503  501  0.00000000000E+00  0.00000000000E+00  0.84972590133E+02  0.84972590133E+02  0.00000000000E+00 0.  1.
         21   -1    0    0  504  502 -0.00000000000E+00 -0.00000000000E+00 -0.31255847726E+02  0.31255847726E+02  0.00000000000E+00 0.  1.
         21    1    1    2  503  502 -0.12040407058E+02  0.16212320742E+02 -0.26608303832E+02  0.33403780906E+02  0.00000000000E+00 0.  1.
         21    1    1    2  504  501  0.12040407058E+02 -0.16212320742E+02  0.80325046240E+02  0.82824656953E+02  0.00000000000E+00 0.  1.
</event>
<event>
 4    1  0.1551744E+006  0.2938560E+02  0.7546771E-02  0.1425012E+00
         21   -1    0    0  503  501  0.00000000000E+00  0.00000000000E+00  0.56159895656E+02  0.56159895656E+02  0.00000000000E+00 0.  1.
         21   -1    0    0  501  502 -0.00000000000E+00 -0.00000000000E+00 -0.24457474090E+02  0.24457474090E+02  0.00000000000E+00 0.  1.
         21    1    1    2  503  504  0.37411349684E+01 -0.29146484128E+02  0.40413644568E+02  0.49967752553E+02  0.00000000000E+00 0.  1.
         21    1    1    2  504  502 -0.37411349684E+01  0.29146484128E+02 -0.87112230019E+01  0.30649617193E+02  0.00000000000E+00 0.  1.
</event>
<event>
 4    1  0.1551744E+006  0.2833687E+02  0.7546771E-02  0.1434622E+00
         21   -1    0    0  504  501  0.00000000000E+00  0.00000000000E+00  0.35537283795E+01  0.35537283795E+01  0.00000000000E+00 0. -1.
         21   -1    0    0  503  502 -0.00000000000E+00 -0.00000000000E+00 -0.35791038563E+03  0.35791038563E+03  0.00000000000E+00 0.  1.
         21    1    1    2  503  501  0.27300784921E+02 -0.75924674000E+01 -0.28691798149E+03  0.28831390276E+03  0.00000000000E+00 0.  1.
         21    1    1    2  504  502 -0.27300784921E+02  0.75924674000E+01 -0.67438675759E+02  0.73150211255E+02  0.00000000000E+00 0. -1.
</event>
<event>
 4    1  0.1551744E+006  0.2078382E+02  0.7546771E-02  0.1522374E+00
         21   -1    0    0  503  501  0.00000000000E+00  0.00000000000E+00  0.54348130395E+02  0.54348130395E+02  0.00000000000E+00 0. -1.
         21   -1    0    0  504  502 -0.00000000000E+00 -0.00000000000E+00 -0.29464689767E+02  0.29464689767E+02  0.00000000000E+00 0.  1.
         21    1    1    2  503  502  0.95508859492E+01 -0.18459352536E+02 -0.23369220647E+02  0.31274391954E+02  0.00000000000E+00 0.  1.
         21    1    1    2  504  501 -0.95508859492E+01  0.18459352536E+02  0.48252661275E+02  0.52538428208E+02  0.00000000000E+00 0. -1.
</event>
<event>
 4    1  0.1551744E+006  0.3494508E+02  0.7546771E-02  0.1380950E+00
         21   -1    0    0  502  501  0.00000000000E+00  0.00000000000E+00  0.15866420541E+01  0.15866420541E+01  0.00000000000E+00 0.  1.
         21   -1    0    0  503  502 -0.00000000000E+00 -0.00000000000E+00 -0.78434206511E+03  0.78434206511E+03  0.00000000000E+00 0.  1.
         21    1    1    2  503  504 -0.31629851931E+02 -0.14856344787E+02 -0.33759448084E+03  0.33939827932E+03  0.00000000000E+00 0.  1.
         21    1    1    2  504  501  0.31629851931E+02  0.14856344787E+02 -0.44516094222E+03  0.44653042784E+03  0.00000000000E+00 0.  1.
</event>
<event>
 4    1  0.1551744E+006  0.2731034E+02  0.7546771E-02  0.1444515E+00
         21   -1    0    0  504  501  0.00000000000E+00  0.00000000000E+00  0.10785054522E+03  0.10785054522E+03  0.00000000000E+00 0.  1.
         21   -1    0    0  503  502 -0.00000000000E+00 -0.00000000000E+00 -0.11607491115E+03  0.11607491115E+03  0.00000000000E+00 0.  1.
         21    1    1    2  503  501 -0.23968223364E+02  0.13091182773E+02 -0.11268837843E+03  0.11595053010E+03  0.00000000000E+00 0.  1.
         21    1    1    2  504  502  0.23968223364E+02 -0.13091182773E+02  0.10446401249E+03  0.10797492627E+03  0.00000000000E+00 0.  1.
</event>
<event>
 4    1  0.1551744E+006  0.2265334E+02  0.7546771E-02  0.1496898E+00
         21   -1    0    0  503  501  0.00000000000E+00  0.00000000000E+00  0.53849022017E+03  0.53849022017E+03  0.00000000000E+00 0. -1.
         21   -1    0    0  504  502 -0.00000000000E+00 -0.00000000000E+00 -0.44870389174E+01  0.44870389174E+01  0.00000000000E+00 0. -1.
         21    1    1    2  503  502  0.22572733375E+02 -0.19093797683E+01  0.26061978119E+02  0.34531155883E+02  0.00000000000E+00 0. -1.
         21    1    1    2  504  501 -0.22572733375E+02  0.19093797683E+01  0.50794120313E+03  0.50844610320E+03  0.00000000000E+00 0. -1.
</event>
<event>
 4    1  0.1551744E+006  0.2544029E+02  0.7546771E-02  0.1463938E+00
         21   -1    0    0  504  501  0.00000000000E+00  0.00000000000E+00  0.51549908368E+02  0.51549908368E+02  0.00000000000E+00 0. -1.
         21   -1    0    0  503  502 -0.00000000000E+00 -0.00000000000E+00 -0.88868588692E+03  0.88868588692E+03  0.00000000000E+00 0.  1.
         21    1    1    2  503  501 -0.26246539609E+01 -0.25304536755E+02  0.48217280510E+02  0.54517103083E+02  0.00000000000E+00 0. -1.
         21    1    1    2  504  502  0.26246539609E+01  0.25304536755E+02 -0.88535325906E+03  0.88571869221E+03  0.00000000000E+00 0.  1.
</event>
<event>
 4    1  0.1551744E+006  0.2255244E+02  0.7546771E-02  0.1498196E+00
         21   -1    0    0  503  501  0.00000000000E+00  0.00000000000E+00  0.24045284123E+01  0.24045284123E+01  0.00000000000E+00 0. -1.
         21   -1    0    0  504  502 -0.00000000000E+00 -0.00000000000E+00 -0.44299059127E+03  0.44299059127E+03  0.00000000000E+00 0. -1.
         21    1    1    2  503  502 -0.13213574080E+02  0.18276052325E+02 -0.38126989928E+03  0.38193631501E+03  0.00000000000E+00 0. -1.
         21    1    1    2  504  501  0.13213574080E+02 -0.18276052325E+02 -0.59316163579E+02  0.63458804671E+02  0.00000000000E+00 0. -1.
</event>
<event>
 4    1  0.1551744E+006  0.2383181E+02  0.7546771E-02  0.1482309E+00
         21   -1    0    0  503  501  0.00000000000E+00  0.00000000000E+00  0.11606144746E+02  0.11606144746E+02  0.00000000000E+00 0. -1.
         21   -1    0    0  504  502 -0.00000000000E+00 -0.00000000000E+00 -0.51440167912E+02  0.51440167912E+02  0.00000000000E+00 0. -1.
         21    1    1    2  503  502 -0.23051246193E+02 -0.60493799617E+01 -0.12961400991E+02  0.27128451203E+02  0.00000000000E+00 0. -1.
         21    1    1    2  504  501  0.23051246193E+02  0.60493799617E+01 -0.26872622175E+02  0.35917861456E+02  0.00000000000E+00 0. -1.
</event>
<event>
 4    1  0.1551744E+006  0.2196011E+02  0.7546771E-02  0.1505986E+00
         21   -1    0    0  504  501  0.00000000000E+00  0.00000000000E+00  0.43670381710E+02  0.43670381710E+02  0.00000000000E+00 0. -1.
         21   -1    0    0  503  502 -0.00000000000E+00 -0.00000000000E+00 -0.11114815678E+02  0.11114815678E+02  0.00000000000E+00 0. -1.
         21    1    1    2  503  501 -0.16093497147E+02  0.14941410727E+02  0.14073940648E+02  0.26082986990E+02  0.00000000000E+00 0. -1.
         21    1    1    2  504  502  0.16093497147E+02 -0.14941410727E+02  0.18481625384E+02  0.28702210398E+02  0.00000000000E+00 0. -1.
</event>
<event>
 4    1  0.1551744E+006  0.4922207E+02  0.7546771E-02  0.1301581E+00
         21   -1    0    0  503  501  0.00000000000E+00  0.00000000000E+00  0.15812590320E+03  0.15812590320E+03  0.00000000000E+00 0. -1.
         21   -1    0    0  504  502 -0.00000000000E+00 -0.00000000000E+00 -0.32479799806E+02  0.32479799806E+02  0.00000000000E+00 0. -1.
         21    1    1    2  503  502  0.34064333802E+02  0.35530739044E+02 -0.64444378533E+01  0.49642149768E+02  0.00000000000E+00 0. -1.
         21    1    1    2  504  501 -0.34064333802E+02 -0.35530739044E+02  0.13209054125E+03  0.14096355324E+03  0.00000000000E+00 0. -1.
</event>
<event>
 4    1  0.1551744E+006  0.3109181E+02  0.7546771E-02  0.1410340E+00
         21   -1    0    0  503  501  0.00000000000E+00  0.00000000000E+00  0.26840259526E+01  0.26840259526E+01  0.00000000000E+00 0.  1.
         21   -1    0    0  504  502 -0.00000000000E+00 -0.00000000000E+00 -0.36444442335E+03  0.36444442335E+03  0.00000000000E+00 0.  1.
         21    1    1    2  503  502  0.11500148729E+02  0.28886797831E+02 -0.16099600441E+03  0.16397077162E+03  0.00000000000E+00 0.  1.
         21    1    1    2  504  501 -0.11500148729E+02 -0.28886797831E+02 -0.20076439298E+03  0.20315767767E+03  0.00000000000E+00 0.  1.
</event>
<event>
 4    1  0.1551744E+006  0.5248979E+02  0.7546771E-02  0.1287724E+00
         21   -1    0    0  503  501  0.00000000000E+00  0.00000000000E+00  0.11259708797E+02  0.11259708797E+02  0.00000000000E+00 0. -1.
         21   -1    0    0  501  502 -0.00000000000E+00 -0.00000000000E+00 -0.70062340076E+03  0.70062340076E+03  0.00000000000E+00 0.  1.
         21    1    1    2  503  504  0.52236378416E+02 -0.51515934568E+01 -0.57547340011E+02  0.77890143712E+02  0.00000000000E+00 0. -1.
         21    1    1    2  504  502 -0.52236378416E+02  0.51515934568E+01 -0.63181635196E+03  0.63399296585E+03  0.00000000000E+00 0.  1.
</event>
<event>
 4    1  0.1551744E+006  0.3313437E+02  0.7546771E-02  0.1394176E+00
         21   -1    0    0  502  501  0.00000000000E+00  0.00000000000E+00  0.46648849566E+03  0.46648849566E+03  0.00000000000E+00 0.  1.
         21   -1    0    0  504  502 -0.00000000000E+00 -0.00000000000E+00 -0.13828784415E+02  0.13828784415E+02  0.00000000000E+00 0. -1.
         21    1    1    2  503  501  0.23666845253E+02  0.23189808768E+02  0.44509981864E+03  0.44633141873E+03  0.00000000000E+00 0.  1.
         21    1    1    2  504  503 -0.23666845253E+02 -0.23189808768E+02  0.75598926053E+01  0.33985861342E+02  0.00000000000E+00 0. -1.
</event>
<event>
 4    1  0.1551744E+006  0.2722013E+02  0.7546771E-02  0.1445409E+00
         21   -1    0    0  503  501  0.00000000000E+00  0.00000000000E+00  0.29552217754E+03  0.29552217754E+03  0.00000000000E+00 0.  1.
         21   -1    0    0  504  502 -0.00000000000E+00 -0.00000000000E+00 -0.28349927040E+01  0.28349927040E+01  0.00000000000E+00 0.  1.
         21    1    1    2  503  502 -0.25779088874E+02 -0.87392144024E+01  0.19706899141E+03  0.19893999766E+03  0.00000000000E+00 0.  1.
         21    1    1    2  504  501  0.25779088874E+02  0.87392144024E+01  0.95618193423E+02  0.99417172586E+02  0.00000000000E+00 0.  1.
</event>
<event>
 4    1  0.1551744E+006  0.2919755E+02  0.7546771E-02  0.1426700E+00
         21   -1    0    0  503  501  0.00000000000E+00  0.00000000000E+00  0.16324502061E+01  0.16324502061E+01  0.00000000000E+00 0. -1.
         21   -1    0    0  504  502 -0.00000000000E+00 -0.00000000000E+00 -0.56859202633E+03  0.56859202633E+03  0.00000000000E+00 0.  1.
         21    1    1    2  503  502 -0.20467373760E+02 -0.20822664677E+02 -0.20205671080E+03  0.20415536028E+03  0.00000000000E+00 0. -1.
         21    1    1    2  504  501  0.20467373760E+02  0.20822664677E+02 -0.36490286533E+03  0.36606911625E+03  0.00000000000E+00 0.  1.
</event>
<event>
 4    1  0.1551744E+006  0.2029370E+02  0.7546771E-02  0.1529592E+00
         21   -1    0    0  504  501  0.00000000000E+00  0.00000000000E+00  0.83871243360E+02  0.83871243360E+02  0.00000000000E+00 0. -1.
         21   -1    0    0  503  502 -0.00000000000E+00 -0.00000000000E+00 -0.23206922910E+02  0.23206922910E+02  0.00000000000E+00 0. -1.
         21    1    1    2  503  501 -0.18654777848E+02  0.79895762249E+01 -0.17206557481E+02  0.26606384293E+02  0.00000000000E+00 0. -1.
         21    1    1    2  504  502  0.18654777848E+02 -0.79895762249E+01  0.77870877931E+02  0.80471781977E+02  0.00000000000E+00 0. -1.
</event>
<event>
 4    1  0.1551744E+006  0.2859212E+02  0.7546771E-02  0.1432239E+00
         21   -1    0    0  502  501  0.00000000000E+00  0.00000000000E+00  0.22738882176E+02  0.22738882176E+02  0.00000000000E+00 0.  1.
         21   -1    0    0  503  502 -0.00000000000E+00 -0.00000000000E+00 -0.10097955853E+03  0.10097955853E+03  0.00000000000E+00 0.  1.
         21    1    1    2  503  504  0.14778902317E+02  0.24476384743E+02 -0.88760852793E+02  0.93252336980E+02  0.00000000000E+00 0.  1.
         21    1    1    2  504  501 -0.14778902317E+02 -0.24476384743E+02  0.10520176441E+02  0.30466103724E+02  0.00000000000E+00 0.  1.
</event>
<event>
 4    1  0.1551744E+006  0.2014676E+02  0.7546771E-02  0.1531804E+00
         21   -1    0    0  504  501  0.00000000000E+00  0.00000000000E+00  0.68068720479E+02  0.68068720479E+02  0.00000000000E+00 0. -1.
         21   -1    0    0  503  502 -0.00000000000E+00 -0.00000000000E+00 -0.41886708412E+03  0.41886708412E+03  0.00000000000E+00 0.  1.
         21    1    1    2  503  501  0.10657800966E+02  0.17096880341E+02  0.66329508982E+02  0.69321683480E+02  0.00000000000E+00 0. -1.
         21    1    1    2  504  502 -0.10657800966E+02 -0.17096880341E+02 -0.41712787263E+03  0.41761412112E+03  0.00000000000E+00 0.  1.
</event>
<event>
 4    1  0.1551744E+006  0.2480068E+02  0.7546771E-02  0.1471046E+00
         21   -1    0    0  504  501  0.00000000000E+00  0.00000000000E+00  0.32072524069E+01  0.32072524069E+01  0.00000000000E+00 0.  1.
         21   -1    0    0  503  502 -0.00000000000E+00 -0.00000000000E+00 -0.78454437895E+03  0.78454437895E+03  0.00000000000E+00 0.  1.
         21    1    1    2  503  501 -0.16609086940E+02  0.18417707072E+02 -0.73303651955E+03  0.73345593780E+03  0.00000000000E+00 0.  1.
         21    1    1    2  504  502  0.16609086940E+02 -0.18417707072E+02 -0.48300606996E+02  0.54295693558E+02  0.00000000000E+00 0.  1.
</event>
<event>
 4    1  0.1551744E+006  0.4844649E+02  0.7546771E-02  0.1305052E+00
         21   -1    0    0  503  501  0.00000000000E+00  0.00000000000E+00  0.53857592755E+02  0.53857592755E+02  0.00000000000E+00 0.  1.
         21   -1    0    0  501  502 -0.00000000000E+00 -0.00000000000E+00 -0.80666278890E+02  0.80666278890E+02  0.00000000000E+00 0. -1.
         21    1    1    2  503  504  0.11719185266E+02 -0.47007692243E+02  0.32203084265E+02  0.58173026993E+02  0.00000000000E+00 0.  1.
         21    1    1    2  504  502 -0.11719185266E+02  0.47007692243E+02 -0.59011770400E+02  0.76350844652E+02  0.00000000000E+00 0. -1.
</event>
<event>
 4    1  0.1551744E+006  0.2147700E+02  0.7546771E-02  0.1512562E+00
         21   -1    0    0  502  501  0.00000000000E+00  0.00000000000E+00  0.66437155067E+02  0.66437155067E+02  0.00000000000E+00 0.  1.
         21   -1    0    0  503  502 -0.00000000000E+00 -0.00000000000E+00 -0.58559007666E+02  0.58559007666E+02  0.00000000000E+00 0.  1.
         21    1    1    2  503  504 -0.65451664839E+01  0.20455373277E+02 -0.54737233643E+02  0.58799883053E+02  0.00000000000E+00 0.  1.
         21    1    1    2  504  501  0.65451664839E+01 -0.20455373277E+02  0.62615381044E+02  0.66196279680E+02  0.00000000000E+00 0.  1.
</event>
<event>
 4    1  0.1551744E+006  0.2026967E+02  0.7546771E-02  0.1529952E+00
         21   -1    0    0  503  501  0.00000000000E+00  0.00000000000E+00  0.90267168169E+03  0.90267168169E+03  0.00000000000E+00 0.  1.
         21   -1    0    0  501  502 -0.00000000000E+00 -0.00000000000E+00 -0.30883634436E+01  0.30883634436E+01  0.00000000000E+00 0. -1.
         21    1    1    2  503  504  0.10600405463E+02  0.17276890850E+02  0.86796969053E+03  0.86820633679E+03  0.00000000000E+00 0.  1.
         21    1    1    2  504  502 -0.10600405463E+02 -0.17276890850E+02  0.31613627717E+02  0.37553708350E+02  0.00000000000E+00 0. -1.
</event>
<event>
 4    1  0.1551744E+006  0.3241558E+02  0.7546771E-02  0.1399704E+00
         21   -1    0    0  504  501  0.00000000000E+00  0.00000000000E+00  0.78816550829E+01  0.78816550829E+01  0.00000000000E+00 0.  1.
         21   -1    0    0  503  502 -0.00000000000E+00 -0.00000000000E+00 -0.13416091701E+03  0.13416091701E+03  0.00000000000E+00 0.  1.
         21    1    1    2  503  501  0.22739989003E+02  0.23101137252E+02 -0.57511490173E+02  0.66017733558E+02  0.00000000000E+00 0.  1.
         21    1    1    2  504  502 -0.22739989003E+02 -0.23101137252E+02 -0.68767771752E+02  0.76024838533E+02  0.00000000000E+00 0.  1.
</event>
<event>
 4    1  0.1551744E+006  0.3352935E+02  0.7546771E-02  0.1391208E+00
         21   -1    0    0  504  501  0.00000000000E+00  0.00000000000E+00  0.37400875345E+03  0.37400875345E+03  0.00000000000E+00 0. -1.
         21   -1    0    0  503  502 -0.00000000000E+00 -0.00000000000E+00 -0.42942769566E+01  0.42942769566E+01  0.00000000000E+00 0. -1.
         21    1    1    2  503  501 -0.24085617368E+00  0.33528488613E+02  0.28846521468E+03  0.29040729612E+03  0.00000000000E+00 0. -1.
         21    1    1    2  504  502  0.24085617368E+00 -0.33528488613E+02  0.81249261822E+02  0.87895734293E+02  0.00000000000E+00 0. -1.
</event>
<event>
 4    1  0.1551744E+006  0.2386973E+02  0.7546771E-02  0.1481856E+00
         21   -1    0    0  504  501  0.00000000000E+00  0.00000000000E+00  0.36328195012E+02  0.36328195012E+02  0.00000000000E+00 0. -1.
         21   -1    0    0  503  502 -0.00000000000E+00 -0.00000000000E+00 -0.88941958520E+03  0.88941958520E+03  0.00000000000E+00 0. -1.
         21    1    1    2  503  501 -0.23867381753E+02  0.33505543788E+00 -0.88532033277E+03  0.88564205850E+03  0.00000000000E+00 0. -1.
         21    1    1    2  504  502  0.23867381753E+02 -0.33505543788E+00  0.32228942581E+02  0.40105721709E+02  0.00000000000E+00 0. -1.
</event>
<event>
 4    1  0.1551744E+006  0.2788714E+02  0.7546771E-02  0.1438895E+00
         21   -1    0    0  504  501  0.00000000000E+00  0.00000000000E+00  0.30221800084E+02  0.30221800084E+02  0.00000000000E+00 0. -1.
         21   -1    0    0  503  502 -0.00000000000E+00 -0.00000000000E+00 -0.29488567736E+02  0.29488567736E+02  0.00000000000E+00 0. -1.
         21    1    1    2  503  501 -0.17523202397E+02 -0.21694003897E+02 -0.10288067773E+02  0.29724346348E+02  0.00000000000E+00 0. -1.
         21    1    1    2  504  502  0.17523202397E+02  0.21694003897E+02  0.11021300121E+02  0.29986021471E+02  0.00000000000E+00 0. -1.
</event>
<event>
 4    1  0.1551744E+006  0.2665252E+02  0.7546771E-02  0.1451130E+00
         21   -1    0    0  504  501  0.00000000000E+00  0.00000000000E+00  0.11435251048E+02  0.11435251048E+02  0.00000000000E+00 0. -1.
         21   -1    0    0  501  502 -0.00000000000E+00 -0.00000000000E+00 -0.72298243949E+02  0.72298243949E+02  0.00000000000E+00 0.  1.
         21    1    1    2  503  502  0.18296384848E+02 -0.19380379467E+02 -0.46140318513E+02  0.53284949088E+02  0.00000000000E+00 0.  1.
         21    1    1    2  504  503 -0.18296384848E+02  0.19380379467E+02 -0.14722674388E+02  0.30448545909E+02  0.00000000000E+00 0. -1.
</event>
<event>
 4    1  0.1551744E+006  0.2361138E+02  0.7546771E-02  0.1484961E+00
         21   -1    0    0  503  501  0.00000000000E+00  0.00000000000E+00  0.50647321144E+03  0.50647321144E+03  0.00000000000E+00 0.  1.
         21   -1    0    0  504  502 -0.00000000000E+00 -0.00000000000E+00 -0.36557029571E+01  0.36557029571E+01  0.00000000000E+00 0. -1.
         21    1    1    2  503  502  0.12466988888E+02  0.20051714097E+02  0.46464278119E+03  0.46524231446E+03  0.00000000000E+00 0.  1.
         21    1    1    2  504  501 -0.12466988888E+02 -0.20051714097E+02  0.38174727290E+02  0.44886599936E+02  0.00000000000E+00 0. -1.
</event>
<event>
 4    1  0.1551744E+006  0.2233919E+02  0.7546771E-02  0.1500967E+00
         21   -1    0    0  503  501  0.00000000000E+00  0.00000000000E+00  0.37002489210E+02  0.37002489210E+02  0.00000000000E+00 0.  1.
         21   -1    0    0  501  502 -0.00000000000E+00 -0.00000000000E+00 -0.54788189745E+02  0.54788189745E+02  0.00000000000E+00 0.  1.
         21    1    1    2  503  504  0.90695153633E+01 -0.20415268715E+02  0.30955310160E+02  0.38174212929E+02  0.00000000000E+00 0.  1.
         21    1    1    2  504  502 -0.90695153633E+01  0.20415268715E+02 -0.48741010694E+02  0.53616466026E+02  0.00000000000E+00 0.  1.
</event>
<event>
 4    1  0.1551744E+006  0.2179017E+02  0.7546771E-02  0.1508276E+00
         21   -1    0    0  504  501  0.00000000000E+00  0.00000000000E+00  0.25688937807E+00  0.25688937807E+00  0.00000000000E+00 0.  1.
         21   -1    0    0  503  502 -0.00000000000E+00 -0.00000000000E+00 -0.18681968466E+04  0.18681968466E+04  0.00000000000E+00 0. -1.
         21    1    1    2  503  501 -0.21387221941E+02  0.41711245318E+01 -0.83758491842E+03  0.83786831132E+03  0.00000000000E+00 0. -1.
         21    1    1    2  504  502  0.21387221941E+02 -0.41711245318E+01 -0.10303550388E+04  0.10305854247E+04  0.00000000000E+00 0.  1.
</event>
<event>
 4    1  0.1551744E+006  0.2122650E+02  0.7546771E-02  0.1516055E+00
         21   -1    0    0  504  501  0.00000000000E+00  0.00000000000E+00  0.92506732966E+00  0.92506732966E+00  0.00000000000E+00 0. -1.
         21   -1    0    0  503  502 -0.00000000000E+00 -0.00000000000E+00 -0.59150087876E+03  0.59150087876E+03  0.00000000000E+00 0. -1.
         21    1    1    2  503  501 -0.20781563799E+02  0.43232884424E+01 -0.41975643602E+03  0.42029279056E+03  0.00000000000E+00 0. -1.
         21    1    1    2  504  502  0.20781563799E+02 -0.43232884424E+01 -0.17081937542E+03  0.17213315554E+03  0.00000000000E+00 0. -1.
</event>
<event>
 4    1  0.1551744E+006  0.3214315E+02  0.7546771E-02  0.1401843E+00
         21   -1    0    0  502  501  0.00000000000E+00  0.00000000000E+00  0.31355449652E+03  0.31355449652E+03  0.00000000000E+00 0. -1.
         21   -1    0    0  504  502 -0.00000000000E+00 -0.00000000000E+00 -0.25314762997E+03  0.25314762997E+03  0.00000000000E+00 0. -1.
         21    1    1    2  503  501 -0.14057813464E+02  0.28906052951E+02  0.31170435490E+03  0.31335728311E+03  0.00000000000E+00 0. -1.
         21    1    1    2  504  503  0.14057813464E+02 -0.28906052951E+02 -0.25129748835E+03  0.25334484338E+03  0.00000000000E+00 0. -1.
</event>
<event>
 4    1  0.1551744E+006  0.2036885E+02  0.7546771E-02  0.1528470E+00
         21   -1    0    0  503  501  0.00000000000E+00  0.00000000000E+00  0.60570087081E+00  0.60570087081E+00  0.00000000000E+00 0. -1.
         21   -1    0    0  501  502 -0.00000000000E+00 -0.00000000000E+00 -0.13156719761E+04  0.13156719761E+04  0.00000000000E+00 0. -1.
         21    1    1    2  503  504  0.19709445392E+02  0.51407917536E+01 -0.20185932639E+03  0.20288439474E+03  0.00000000000E+00 0. -1.
         21    1    1    2  504  502 -0.19709445392E+02 -0.51407917536E+01 -0.11132069489E+04  0.11133932823E+04  0.00000000000E+00 0. -1.
</event>
<event>
 4    1  0.1551744E+006  0.2261910E+02  0.7546771E-02  0.1497337E+00
         21   -1    0    0  504  501  0.00000000000E+00  0.00000000000E+00  0.44482494515E+01  0.44482494515E+01  0.00000000000E+00 0.  1.
         21   -1    0    0  503  502 -0.00000000000E+00 -0.00000000000E+00 -0.11675868126E+03  0.11675868126E+03  0.00000000000E+00 0.  1.
         21    1    1    2  503  501  0.16049979809E+02 -0.15938058035E+02 -0.48753054576E+02  0.53744617185E+02  0.00000000000E+00 0.  1.
         21    1    1    2  504  502 -0.16049979809E+02  0.15938058035E+02 -0.63557377231E+02  0.67462313526E+02  0.00000000000E+00 0.  1.
</event>
<event>
 4    1  0.1551744E+006  0.2996608E+02  0.7546771E-02  0.1419892E+00
         21   -1    0    0  504  501  0.00000000000E+00  0.00000000000E+00  0.26880978643E+01  0.26880978643E+01  0.00000000000E+00 0.  1.
         21   -1    0    0  503  502 -0.00000000000E+00 -0.00000000000E+00 -0.33419770393E+03  0.33419770393E+03  0.00000000000E+00 0.  1.
         21    1    1    2  503  501 -0.29209947210E+02  0.66891616741E+01 -0.16224412387E+03  0.16498824694E+03  0.00000000000E+00 0.  1.
         21    1    1    2  504  502  0.29209947210E+02 -0.66891616741E+01 -0.16926548220E+03  0.17189755485E+03  0.00000000000E+00 0.  1.
</event>
<event>
 4    1  0.1551744E+006  0.2320841E+02  0.7546771E-02  0.1489898E+00
         21   -1    0    0  503  501  0.00000000000E+00  0.00000000000E+00  0.38693978303E+01  0.38693978303E+01  0.00000000000E+00 0.  1.
         21   -1    0    0  504  502 -0.00000000000E+00 -0.00000000000E+00 -0.16260188074E+03  0.16260188074E+03  0.00000000000E+00 0.  1.
         21    1    1    2  503  502  0.18701742675E+02  0.13743180720E+02 -0.47790911729E+02  0.53128160511E+02  0.00000000000E+00 0.  1.
         21    1    1    2  504  501 -0.18701742675E+02 -0.13743180720E+02 -0.11094157118E+03  0.11334311806E+03  0.00000000000E+00 0.  1.
</event>
<event>
 4    1  0.1551744E+006  0.5950455E+02  0.7546771E-02  0.1261525E+00
         21   -1    0    0  504  501  0.00000000000E+00  0.00000000000E+00  0.18942351049E+03  0.18942351049E+03  0.00000000000E+00 0. -1.
         21   -1    0    0  503  502 -0.00000000000E+00 -0.00000000000E+00 -0.19151143235E+02  0.19151143235E+02  0.00000000000E+00 0. -1.
         21    1    1    2  503  501  0.10883768408E+02  0.58500731953E+02  0.10127564234E+03  0.11746296346E+03  0.00000000000E+00 0. -1.
         21    1    1    2  504  502 -0.10883768408E+02 -0.58500731953E+02  0.68996724916E+02  0.91111690265E+02  0.00000000000E+00 0. -1.
</event>
<event>
 4    1  0.1551744E+006  0.2575880E+02  0.7546771E-02  0.1460491E+00
         21   -1    0    0  503  501  0.00000000000E+00  0.00000000000E+00  0.35583107889E+03  0.35583107889E+03  0.00000000000E+00 0.  1.
         21   -1    0    0  504  502 -0.00000000000E+00 -0.00000000000E+00 -0.24918942715E+02  0.24918942715E+02  0.00000000000E+00 0.  1.
         21    1    1    2  503  502  0.97202114522E+01 -0.23854418653E+02  0.34856968016E+03  0.34952015354E+03  0.00000000000E+00 0.  1.
         21    1    1    2  504  501 -0.97202114522E+01  0.23854418653E+02 -0.17657543987E+02  0.31229868069E+02  0.00000000000E+00 0.  1.
</event>
<event>
 4    1  0.1551744E+006  0.2552660E+02  0.7546771E-02  0.1462998E+00
         21   -1    0    0  504  501  0.00000000000E+00  0.00000000000E+00  0.83814438638E+01  0.83814438638E+01  0.00000000000E+00 0.  1.
         21   -1    0    0  503  502 -0.00000000000E+00 -0.00000000000E+00 -0.93558572970E+02  0.93558572970E+02  0.00000000000E+00 0. -1.
         21    1    1    2  503  501  0.24572765951E+02  0.69127619902E+01 -0.21632900499E+02  0.33460267315E+02  0.00000000000E+00 0.  1.
         21    1    1    2  504  502 -0.24572765951E+02 -0.69127619902E+01 -0.63544228607E+02  0.68479749518E+02  0.00000000000E+00 0. -1.
</event>
<event>
 4    1  0.1551744E+006  0.3124079E+02  0.7546771E-02  0.1409112E+00
         21   -1    0    0  503  501  0.00000000000E+00  0.00000000000E+00  0.29703387762E+03  0.29703387762E+03  0.00000000000E+00 0.  1.
         21   -1    0    0  501  502 -0.00000000000E+00 -0.00000000000E+00 -0.47770100467E+01  0.47770100467E+01  0.00000000000E+00 0.  1.
         21    1    1    2  503  504  0.25397894128E+02  0.18191598153E+02  0.23044239586E+03  0.23255039256E+03  0.00000000000E+00 0.  1.
         21    1    1    2  504  502 -0.25397894128E+02 -0.18191598153E+02  0.61814471720E+02  0.69260495114E+02  0.00000000000E+00 0.  1.
</event>
<event>
 4    1  0.1551744E+006  0.2691358E+02  0.7546771E-02  0.1448478E+00
         21   -1    0    0  503  501  0.00000000000E+00  0.00000000000E+00  0.11756547706E+02  0.11756547706E+02  0.00000000000E+00 0. -1.
         21   -1    0    0  504  502 -0.00000000000E+00 -0.00000000000E+00 -0.10620152434E+03  0.10620152434E+03  0.00000000000E+00 0. -1.
         21    1    1    2  503  502  0.37435896414E+01  0.26651947015E+02 -0.90060476117E+01  0.28380444618E+02  0.00000000000E+00 0. -1.
         21    1    1    2  504  501 -0.37435896414E+01 -0.26651947015E+02 -0.85438929024E+02  0.89577627430E+02  0.00000000000E+00 0. -1.
</event>
<event>
 4    1  0.1551744E+006  0.2491419E+02  0.7546771E-02  0.1469766E+00
         21   -1    0    0  502  501  0.00000000000E+00  0.00000000000E+00  0.46673124908E+02  0.46673124908E+02  0.00000000000E+00 0.  1.
         21   -1    0    0  504  502 -0.00000000000E+00 -0.00000000000E+00 -0.14985485210E+02  0.14985485210E+02  0.00000000000E+00 0.  1.
         21    1    1    2  503  501 -0.23719579193E+02 -0.76222298020E+01  0.26185460132E+02  0.36144088680E+02  0.00000000000E+00 0.  1.
         21    1    1    2  504  503  0.23719579193E+02  0.76222298020E+01  0.55021795654E+01  0.25514521438E+02  0.00000000000E+00 0.  1.
</event>
<event>
 4    1  0.1551744E+006  0.3514904E+02  0.7546771E-02  0.1379518E+00
         21   -1    0    0  502  501  0.00000000000E+00  0.00000000000E+00  0.18488453891E+01  0.18488453891E+01  0.00000000000E+00 0.  1.
         21   -1    0    0  503  502 -0.00000000000E+00 -0.00000000000E+00 -0.18631537825E+04  0.18631537825E+04  0.00000000000E+00 0. -1.
         21    1    1    2  503  504 -0.17155423806E+02  0.30678110972E+02 -0.16774366243E+04  0.16778048407E+04  0.00000000000E+00 0. -1.
         21    1    1    2  504  501  0.17155423806E+02 -0.30678110972E+02 -0.18386831284E+03  0.18719778718E+03  0.00000000000E+00 0.  1.
</event>
<event>
 4    1  0.1551744E+006  0.2069725E+02  0.7546771E-02  0.1523632E+00
         21   -1    0    0  504  501  0.00000000000E+00  0.00000000000E+00  0.34582437044E+01  0.34582437044E+01  0.00000000000E+00 0. -1.
         21   -1    0    0  501  502 -0.00000000000E+00 -0.00000000000E+00 -0.39762599862E+03  0.39762599862E+03  0.00000000000E+00 0. -1.
         21    1    1    2  503  502  0.20477070053E+02 -0.30109370972E+01 -0.36348231305E+03  0.36407110300E+03  0.00000000000E+00 0. -1.
         21    1    1    2  504  503 -0.20477070053E+02  0.30109370972E+01 -0.30685441872E+02  0.37013139329E+02  0.00000000000E+00 0. -1.
</event>
<event>
 4    1  0.1551744E+006  0.3536831E+02  0.7546771E-02  0.1377992E+00
         21   -1    0    0  504  501  0.00000000000E+00  0.00000000000E+00  0.50161761455E+01  0.50161761455E+01  0.00000000000E+00 0. -1.
         21   -1    0    0  501  502 -0.00000000000E+00 -0.00000000000E+00 -0.49949560764E+03  0.49949560764E+03  0.00000000000E+00 0. -1.
         21    1    1    2  503  502  0.21325138541E+02  0.28216228343E+02 -0.42574406785E+03  0.42721063702E+03  0.00000000000E+00 0. -1.
         21    1    1    2  504  503 -0.21325138541E+02 -0.28216228343E+02 -0.68735363651E+02  0.77301146770E+02  0.00000000000E+00 0. -1.
</event>
<event>
 4    1  0.1551744E+006  0.2061374E+02  0.7546771E-02  0.1524852E+00
         21   -1    0    0  502  501  0.00000000000E+00  0.00000000000E+00  0.29272016377E+02  0.29272016377E+02  0.00000000000E+00 0. -1.
         21   -1    0    0  503  502 -0.00000000000E+00 -0.00000000000E+00 -0.27874210999E+02  0.27874210999E+02  0.00000000000E+00 0.  1.
         21    1    1    2  503  504  0.19229168296E+02  0.74273475990E+01 -0.19080936411E+02  0.28089295827E+02  0.00000000000E+00 0.  1.
         21    1    1    2  504  501 -0.19229168296E+02 -0.74273475990E+01  0.20478741789E+02  0.29056931548E+02  0.00000000000E+00 0. -1.
</event>
<event>
 4    1  0.1551744E+006  0.2124816E+02  0.7546771E-02  0.1515751E+00
         21   -1    0    0  504  501  0.00000000000E+00  0.00000000000E+00  0.65134420561E+01  0.65134420561E+01  0.00000000000E+00 0. -1.
         21   -1    0    0  501  502 -0.00000000000E+00 -0.00000000000E+00 -0.63541667549E+03  0.63541667549E+03  0.00000000000E+00 0.  1.
         21    1    1    2  503  502  0.11855317832E+02 -0.17633368004E+02 -0.61740470116E+03  0.61777022366E+03  0.00000000000E+00 0.  1.
         21    1    1    2  504  503 -0.11855317832E+02  0.17633368004E+02 -0.11498532275E+02  0.24159893886E+02  0.00000000000E+00 0. -1.
</event>
<event>
 4    1  0.1551744E+006  0.2366083E+02  0.7546771E-02  0.1484363E+00
         21   -1    0    0  504  501  0.00000000000E+00  0.00000000000E+00  0.18937791099E+02  0.18937791099E+02  0.00000000000E+00 0. -1.
         21   -1    0    0  503  502 -0.00000000000E+00 -0.00000000000E+00 -0.32620811900E+02  0.32620811900E+02  0.00000000000E+00 0. -1.
         21    1    1    2  503  501  0.99708529075E+01  0.21457330434E+02  0.10528201113E+01  0.23684243016E+02  0.00000000000E+00 0. -1.
         21    1    1    2  504  502 -0.99708529075E+01 -0.21457330434E+02 -0.14735840912E+02  0.27874359983E+02  0.00000000000E+00 0. -1.
</event>
<event>
 4    1  0.1551744E+006  0.2524566E+02  0.7546771E-02  0.1466074E+00
         21   -1    0    0  504  501  0.00000000000E+00  0.00000000000E+00  0.62954843174E+02  0.62954843174E+02  0.00000000000E+00 0.  1.
         21   -1    0    0  503  502 -0.00000000000E+00 -0.00000000000E+00 -0.15857282630E+02  0.15857282630E+02  0.00000000000E+00 0.  1.
         21    1    1    2  503  501  0.16309446168E+02  0.19270321899E+02  0.47243809687E+02  0.53566042360E+02  0.00000000000E+00 0.  1.
         21    1    1    2  504  502 -0.16309446168E+02 -0.19270321899E+02 -0.14624914327E+00  0.25246083443E+02  0.00000000000E+00 0.  1.
</event>
<event>
 4    1  0.1551744E+006  0.2118077E+02  0.7546771E-02  0.1516699E+00
         21   -1    0    0  503  501  0.00000000000E+00  0.00000000000E+00  0.54180799089E+01  0.54180799089E+01  0.00000000000E+00 0.  1.
         21   -1    0    0  504  502 -0.00000000000E+00 -0.00000000000E+00 -0.15260057692E+03  0.15260057692E+03  0.00000000000E+00 0.  1.
         21    1    1    2  503  502  0.12689832127E+01  0.21142721983E+02 -0.20156324251E+02  0.29238714379E+02  0.00000000000E+00 0.  1.
         21    1    1    2  504  501 -0.12689832127E+01 -0.21142721983E+02 -0.12702617276E+03  0.12877994245E+03  0.00000000000E+00 0.  1.
</event>
<event>
 4    1  0.1551744E+006  0.2080673E+02  0.7546771E-02  0.1522042E+00
         21   -1    0    0  503  501  0.00000000000E+00  0.00000000000E+00  0.45087816440E+00  0.45087816440E+00  0.00000000000E+00 0. -1.
         21   -1    0    0  504  502 -0.00000000000E+00 -0.00000000000E+00 -0.97420703747E+03  0.97420703747E+03  0.00000000000E+00 0. -1.
         21    1    1    2  503  502 -0.15410507365E+02  0.13979852260E+02 -0.42838245809E+03  0.42888745657E+03  0.00000000000E+00 0. -1.
         21    1    1    2  504  501  0.15410507365E+02 -0.13979852260E+02 -0.54537370122E+03  0.54577045907E+03  0.00000000000E+00 0. -1.
</event>
<event>
 4    1  0.1551744E+006  0.2425576E+02  0.7546771E-02  0.1477304E+00
         21   -1    0    0  503  501  0.00000000000E+00  0.00000000000E+00  0.12494168934E+02  0.12494168934E+02  0.00000000000E+00 0. -1.
         21   -1    0    0  504  502 -0.00000000000E+00 -0.00000000000E+00 -0.61931666933E+02  0.61931666933E+02  0.00000000000E+00 0. -1.
         21    1    1    2  503  502 -0.34958621857E+01 -0.24002518124E+02 -0.65012556973E+01  0.25111914590E+02  0.00000000000E+00 0. -1.
         21    1    1    2  504  501  0.34958621857E+01  0.24002518124E+02 -0.42936242301E+02  0.49313921277E+02  0.00000000000E+00 0. -1.
</event>
<event>
 4    1  0.1551744E+006  0.2324177E+02  0.7546771E-02  0.1489484E+00
         21   -1    0    0  502  501  0.00000000000E+00  0.00000000000E+00  0.30490650922E+03  0.30490650922E+03  0.00000000000E+00 0.  1.
         21   -1    0    0  504  502 -0.00000000000E+00 -0.00000000000E+00 -0.19203680219E+01  0.19203680219E+01  0.00000000000E+00 0.  1.
         21    1    1    2  503  501  0.17084005081E+02 -0.15758065062E+02  0.19418936571E+03  0.19557527859E+03  0.00000000000E+00 0.  1.
         21    1    1    2  504  503 -0.17084005081E+02  0.15758065062E+02  0.10879677549E+03  0.11125159865E+03  0.00000000000E+00 0.  1.
</event>
<event>
 4    1  0.1551744E+006  0.2102911E+02  0.7546771E-02  0.1518849E+00
         21   -1    0    0  502  501  0.00000000000E+00  0.00000000000E+00  0.16991378633E+03  0.16991378633E+03  0.00000000000E+00 0.  1.
         21   -1    0    0  504  502 -0.00000000000E+00 -0.00000000000E+00 -0.91312081907E+01  0.91312081907E+01  0.00000000000E+00 0.  1.
         21    1    1    2  503  501  0.20964370630E+02 -0.16488716287E+01  0.15608803244E+03  0.15749824597E+03  0.00000000000E+00 0.  1.
         21    1    1    2  504  503 -0.20964370630E+02  0.16488716287E+01  0.46945456964E+01  0.21546748545E+02  0.00000000000E+00 0.  1.
</event>
<event>
 4    1  0.1551744E+006  0.2309817E+02  0.7546771E-02  0.1491269E+00
         21   -1    0    0  503  501  0.00000000000E+00  0.00000000000E+00  0.16072957721E+04  0.16072957721E+04  0.00000000000E+00 0. -1.
         21   -1    0    0  501  502 -0.00000000000E+00 -0.00000000000E+00 -0.45509287712E+01  0.45509287712E+01  0.00000000000E+00 0. -1.
         21    1    1    2  503  504  0.18197535271E+02 -0.14225862293E+02  0.15773477522E+04  0.15775168642E+04  0.00000000000E+00 0. -1.
         21    1    1    2  504  502 -0.18197535271E+02  0.14225862293E+02  0.25397091100E+02  0.34329836647E+02  0.00000000000E+00 0. -1.
</event>
<event>
 4    1  0.1551744E+006  0.2337218E+02  0.7546771E-02  0.1487877E+00
         21   -1    0    0  504  501  0.00000000000E+00  0.00000000000E+00  0.22949056276E+01  0.22949056276E+01  0.00000000000E+00 0.  1.
         21   -1    0    0  503  502 -0.00000000000E+00 -0.00000000000E+00 -0.11208987711E+04  0.11208987711E+04  0.00000000000E+00 0. -1.
         21    1    1    2  503  501 -0.23034575287E+02 -0.39582002136E+01 -0.10577148099E+04  0.10579730044E+04  0.00000000000E+00 0. -1.
         21    1    1    2  504  502  0.23034575287E+02  0.39582002136E+01 -0.60889055608E+02  0.65220672340E+02  0.00000000000E+00 0.  1.
</event>
<event>
 4    1  0.1551744E+006  0.2327217E+02  0.7546771E-02  0.1489108E+00
         21   -1    0    0  502  501  0.00000000000E+00  0.00000000000E+00  0.93386070616E+01  0.93386070616E+01  0.00000000000E+00 0. -1.
         21   -1    0    0  503  502 -0.00000000000E+00 -0.00000000000E+00 -0.35966464236E+03  0.35966464236E+03  0.00000000000E+00 0. -1.
         21    1    1    2  503  504  0.20306932493E+02  0.11367612836E+02 -0.34413589597E+03  0.34492188830E+03  0.00000000000E+00 0. -1.
         21    1    1    2  504  501 -0.20306932493E+02 -0.11367612836E+02 -0.61901393276E+01  0.24081361127E+02  0.00000000000E+00 0. -1.
</event>
<event>
 4    1  0.1551744E+006  0.2105414E+02  0.7546771E-02  0.1518493E+00
         21   -1    0    0  503  501  0.00000000000E+00  0.00000000000E+00  0.23003794500E+01  0.23003794500E+01  0.00000000000E+00 0. -1.
         21   -1    0    0  504  502 -0.00000000000E+00 -0.00000000000E+00 -0.19384679772E+03  0.19384679772E+03  0.00000000000E+00 0.  1.
         21    1    1    2  503  502  0.42903792213E+01 -0.20612361924E+02 -0.10332559700E+03  0.10544883031E+03  0.00000000000E+00 0.  1.
         21    1    1    2  504  501 -0.42903792213E+01  0.20612361924E+02 -0.88220821264E+02  0.90698346856E+02  0.00000000000E+00 0. -1.
</event>
<event>
 4    1  0.1551744E+006  0.2327863E+02  0.7546771E-02  0.1489029E+00
         21   -1    0    0  503  501  0.00000000000E+00  0.00000000000E+00  0.62990435910E+01  0.62990435910E+01  0.00000000000E+00 0.  1.
         21   -1    0    0  504  502 -0.00000000000E+00 -0.00000000000E+00 -0.89183273574E+02  0.89183273574E+02  0.00000000000E+00 0.  1.
         21    1    1    2  503  502 -0.11229934855E+02  0.20390763921E+02 -0.32462379319E+02  0.39946223365E+02  0.00000000000E+00 0.  1.
         21    1    1    2  504  501  0.11229934855E+02 -0.20390763921E+02 -0.50421850664E+02  0.55536093799E+02  0.00000000000E+00 0.  1.
</event>
<event>
 4    1  0.1551744E+006  0.2314399E+02  0.7546771E-02  0.1490698E+00
         21   -1    0    0  504  501  0.00000000000E+00  0.00000000000E+00  0.20026032514E+02  0.20026032514E+02  0.00000000000E+00 0.  1.
         21   -1    0    0  503  502 -0.00000000000E+00 -0.00000000000E+00 -0.40478984159E+02  0.40478984159E+02  0.00000000000E+00 0.  1.
         21    1    1    2  503  501 -0.21335557505E+02  0.89687504100E+01 -0.27846510286E+02  0.36208736971E+02  0.00000000000E+00 0.  1.
         21    1    1    2  504  502  0.21335557505E+02 -0.89687504100E+01  0.73935586411E+01  0.24296279701E+02  0.00000000000E+00 0.  1.
</event>
<event>
 4    1  0.1551744E+006  0.2769598E+02  0.7546771E-02  0.1440739E+00
         21   -1    0    0  504  501  0.00000000000E+00  0.00000000000E+00  0.27297965711E+01  0.27297965711E+01  0.00000000000E+00 0.  1.
         21   -1    0    0  501  502 -0.00000000000E+00 -0.00000000000E+00 -0.10230609652E+04  0.10230609652E+04  0.00000000000E+00 0. -1.
         21    1    1    2  503  502  0.25076819080E+02 -0.11756730602E+02 -0.94698143447E+03  0.94738635456E+03  0.00000000000E+00 0. -1.
         21    1    1    2  504  503 -0.25076819080E+02  0.11756730602E+02 -0.73349734177E+02  0.78404407232E+02  0.00000000000E+00 0.  1.
</event>
<event>
 4    1  0.1551744E+006  0.2154386E+02  0.7546771E-02  0.1511640E+00
         21   -1    0    0  504  501  0.00000000000E+00  0.00000000000E+00  0.54957905991E+02  0.54957905991E+02  0.00000000000E+00 0. -1.
         21   -1    0    0  503  502 -0.00000000000E+00 -0.00000000000E+00 -0.11180816482E+02  0.11180816482E+02  0.00000000000E+00 0. -1.
         21    1    1    2  503  501 -0.17705948734E+02 -0.12273430463E+02  0.38245642207E+02  0.43896091667E+02  0.00000000000E+00 0. -1.
         21    1    1    2  504  502  0.17705948734E+02  0.12273430463E+02  0.55314473023E+01  0.22242630805E+02  0.00000000000E+00 0. -1.
</event>
<event>
 4    1  0.1551744E+006  0.3484050E+02  0.7546771E-02  0.1381688E+00
         21   -1    0    0  503  501  0.00000000000E+00  0.00000000000E+00  0.19091059525E+04  0.19091059525E+04  0.00000000000E+00 0. -1.
         21   -1    0    0  501  502 -0.00000000000E+00 -0.00000000000E+00 -0.13753040046E+03  0.13753040046E+03  0.00000000000E+00 0. -1.
         21    1    1    2  503  504  0.32904470657E+02 -0.11452341381E+02  0.19067377246E+04  0.19070560062E+04  0.00000000000E+00 0. -1.
         21    1    1    2  504  502 -0.32904470657E+02  0.11452341381E+02 -0.13516217257E+03  0.13958034677E+03  0.00000000000E+00 0. -1.
</event>
<event>
 4    1  0.1551744E+006  0.2131463E+02  0.7546771E-02  0.1514820E+00
         21   -1    0    0  503  501  0.00000000000E+00  0.00000000000E+00  0.25469686138E+01  0.25469686138E+01  0.00000000000E+00 0.  1.
         21   -1    0    0  504  502 -0.00000000000E+00 -0.00000000000E+00 -0.20449592965E+03  0.20449592965E+03  0.00000000000E+00 0.  1.
         21    1    1    2  503  502  0.36717437522E+01 -0.20995998350E+02 -0.13797334979E+03  0.13961002436E+03  0.00000000000E+00 0.  1.
         21    1    1    2  504  501 -0.36717437522E+01  0.20995998350E+02 -0.63975611247E+02  0.67432873907E+02  0.00000000000E+00 0.  1.
</event>
<event>
 4    1  0.1551744E+006  0.2192918E+02  0.7546771E-02  0.1506401E+00
         21   -1    0    0  504  501  0.00000000000E+00  0.00000000000E+00  0.64673721246E+01  0.64673721246E+01  0.00000000000E+00 0. -1.
         21   -1    0    0  503  502 -0.00000000000E+00 -0.00000000000E+00 -0.74408194446E+02  0.74408194446E+02  0.00000000000E+00 0.  1.
         21    1    1    2  503  501 -0.19302929423E+02 -0.10406045620E+02 -0.32900917095E+02  0.39539337569E+02  0.00000000000E+00 0. -1.
         21    1    1    2  504  502  0.19302929423E+02  0.10406045620E+02 -0.35039905227E+02  0.41336229001E+02  0.00000000000E+00 0.  1.
</event>
<event>
 4    1  0.1551744E+006  0.2547210E+02  0.7546771E-02  0.1463591E+00
         21   -1    0    0  504  501  0.00000000000E+00  0.00000000000E+00  0.17060713795E+01  0.17060713795E+01  0.00000000000E+00 0. -1.
         21   -1    0    0  503  502 -0.00000000000E+00 -0.00000000000E+00 -0.76570245273E+03  0.76570245273E+03  0.00000000000E+00 0. -1.
         21    1    1    2  503  501 -0.25338237668E+02 -0.26079875067E+01 -0.10977765246E+03  0.11269410307E+03  0.00000000000E+00 0. -1.
         21    1    1    2  504  502  0.25338237668E+02  0.26079875067E+01 -0.65421872889E+03  0.65471442104E+03  0.00000000000E+00 0. -1.
</event>
<event>
 4    1  0.1551744E+006  0.2501307E+02  0.7546771E-02  0.1468657E+00
         21   -1    0    0  504  501  0.00000000000E+00  0.00000000000E+00  0.24625153147E+03  0.24625153147E+03  0.00000000000E+00 0.  1.
         21   -1    0    0  503  502 -0.00000000000E+00 -0.00000000000E+00 -0.61712530038E+02  0.61712530038E+02  0.00000000000E+00 0. -1.
         21    1    1    2  503  501  0.52047356778E+01 -0.24465580487E+02 -0.58509488780E+02  0.63631864497E+02  0.00000000000E+00 0. -1.
         21    1    1    2  504  502 -0.52047356778E+01  0.24465580487E+02  0.24304849021E+03  0.24433219701E+03  0.00000000000E+00 0.  1.
</event>
<event>
 4    1  0.1551744E+006  0.3613549E+02  0.7546771E-02  0.1372751E+00
         21   -1    0    0  503  501  0.00000000000E+00  0.00000000000E+00  0.31501803282E+02  0.31501803282E+02  0.00000000000E+00 0.  1.
         21   -1    0    0  504  502 -0.00000000000E+00 -0.00000000000E+00 -0.46338695711E+02  0.46338695711E+02  0.00000000000E+00 0. -1.
         21    1    1    2  503  502  0.29096907840E+02  0.21427635293E+02  0.52221214752E+01  0.36510877184E+02  0.00000000000E+00 0.  1.
         21    1    1    2  504  501 -0.29096907840E+02 -0.21427635293E+02 -0.20059013904E+02  0.41329621809E+02  0.00000000000E+00 0. -1.
</event>
<event>
 4    1  0.1551744E+006  0.2365360E+02  0.7546771E-02  0.1484450E+00
         21   -1    0    0  503  501  0.00000000000E+00  0.00000000000E+00  0.45163313646E+02  0.45163313646E+02  0.00000000000E+00 0.  1.
         21   -1    0    0  504  502 -0.00000000000E+00 -0.00000000000E+00 -0.87071621817E+03  0.87071621817E+03  0.00000000000E+00 0.  1.
         21    1    1    2  503  502 -0.12059582590E+02 -0.20348447072E+02 -0.86744685244E+03  0.86776928653E+03  0.00000000000E+00 0.  1.
         21    1    1    2  504  501  0.12059582590E+02  0.20348447072E+02  0.41893947913E+02  0.48110245293E+02  0.00000000000E+00 0.  1.
</event>
<event>
 4    1  0.1551744E+006  0.2064346E+02  0.7546771E-02  0.1524417E+00
         21   -1    0    0  504  501  0.00000000000E+00  0.00000000000E+00  0.16353607282E+02  0.16353607282E+02  0.00000000000E+00 0.  1.
         21   -1    0    0  503  502 -0.00000000000E+00 -0.00000000000E+00 -0.78930928980E+02  0.78930928980E+02  0.00000000000E+00 0. -1.
         21    1    1    2  503  501  0.11434016723E+02  0.17187655381E+02  0.77040124472E+01  0.22034156296E+02  0.00000000000E+00 0.  1.
         21    1    1    2  504  502 -0.11434016723E+02 -0.17187655381E+02 -0.70281334145E+02  0.73250379966E+02  0.00000000000E+00 0. -1.
</event>
<event>
 4    1  0.1551744E+006  0.2206158E+02  0.7546771E-02  0.1504631E+00
         21   -1    0    0  503  501  0.00000000000E+00  0.00000000000E+00  0.57690152652E+02  0.57690152652E+02  0.00000000000E+00 0.  1.
         21   -1    0    0  504  502 -0.00000000000E+00 -0.00000000000E+00 -0.30368975187E+03  0.30368975187E+03  0.00000000000E+00 0. -1.
         21    1    1    2  503  502 -0.20259833160E+02  0.87322608376E+01  0.55162639181E+02  0.59410689109E+02  0.00000000000E+00 0.  1.
         21    1    1    2  504  501  0.20259833160E+02 -0.87322608376E+01 -0.30116223840E+03  0.30196921541E+03  0.00000000000E+00 0. -1.
</event>
<event>
 4    1  0.1551744E+006  0.2280967E+02  0.7546771E-02  0.1494902E+00
         21   -1    0    0  504  501  0.00000000000E+00  0.00000000000E+00  0.44036143761E+01  0.44036143761E+01  0.00000000000E+00 0. -1.
         21   -1    0    0  503  502 -0.00000000000E+00 -0.00000000000E+00 -0.14307574048E+03  0.14307574048E+03  0.00000000000E+00 0. -1.
         21    1    1    2  503  501 -0.22238687681E+02 -0.50716899574E+01 -0.10011500460E+03  0.10268055032E+03  0.00000000000E+00 0. -1.
         21    1    1    2  504  502  0.22238687681E+02  0.50716899574E+01 -0.38557121502E+02  0.44798804530E+02  0.00000000000E+00 0. -1.
</event>
<event>
 4    1  0.1551744E+006  0.2348615E+02  0.7546771E-02  0.1486482E+00
         21   -1    0    0  503  501  0.00000000000E+00  0.00000000000E+00  0.35045693193E+03  0.35045693193E+03  0.00000000000E+00 0.  1.
         21   -1    0    0  504  502 -0.00000000000E+00 -0.00000000000E+00 -0.40552203034E+01  0.40552203034E+01  0.00000000000E+00 0. -1.
         21    1    1    2  503  502 -0.15973590562E+02 -0.17217533473E+02  0.31185459992E+03  0.31273773444E+03  0.00000000000E+00 0.  1.
         21    1    1    2  504  501  0.15973590562E+02  0.17217533473E+02  0.34547111709E+02  0.41774417791E+02  0.00000000000E+00 0. -1.
</event>
<event>
 4    1  0.1551744E+006  0.2494649E+02  0.7546771E-02  0.1469403E+00
         21   -1    0    0  502  501  0.00000000000E+00  0.00000000000E+00  0.10617535360E+02  0.10617535360E+02  0.00000000000E+00 0. -1.
         21   -1    0    0  503  502 -0.00000000000E+00 -0.00000000000E+00 -0.74654724281E+02  0.74654724281E+02  0.00000000000E+00 0.  1.
         21    1    1    2  503  504  0.33794403982E+01 -0.24716527917E+02 -0.51782482985E+02  0.57478282105E+02  0.00000000000E+00 0.  1.
         21    1    1    2  504  501 -0.33794403982E+01  0.24716527917E+02 -0.12254705935E+02  0.27793977535E+02  0.00000000000E+00 0. -1.
</event>
<event>
 4    1  0.1551744E+006  0.2155346E+02  0.7546771E-02  0.1511508E+00
         21   -1    0    0  504  501  0.00000000000E+00  0.00000000000E+00  0.19776106012E+03  0.19776106012E+03  0.00000000000E+00 0. -1.
         21   -1    0    0  501  502 -0.00000000000E+00 -0.00000000000E+00 -0.99435098504E+01  0.99435098504E+01  0.00000000000E+00 0.  1.
         21    1    1    2  503  502 -0.25045991202E+01 -0.21407444956E+02  0.31487748100E+01  0.21782251929E+02  0.00000000000E+00 0.  1.
         21    1    1    2  504  503  0.25045991202E+01  0.21407444956E+02  0.18466877546E+03  0.18592231804E+03  0.00000000000E+00 0. -1.
</event>
<event>
 4    1  0.1551744E+006  0.3024945E+02  0.7546771E-02  0.1417441E+00
         21   -1    0    0  503  501  0.00000000000E+00  0.00000000000E+00  0.41834440084E+02  0.41834440084E+02  0.00000000000E+00 0. -1.
         21   -1    0    0  504  502 -0.00000000000E+00 -0.00000000000E+00 -0.14173469745E+03  0.14173469745E+03  0.00000000000E+00 0. -1.
         21    1    1    2  503  502  0.15728201886E+02 -0.25838976912E+02  0.34455706347E+02  0.45850024671E+02  0.00000000000E+00 0. -1.
         21    1    1    2  504  501 -0.15728201886E+02  0.25838976912E+02 -0.13435596372E+03  0.13771911287E+03  0.00000000000E+00 0. -1.
</event>
<event>
 4    1  0.1551744E+006  0.3520060E+02  0.7546771E-02  0.1379158E+00
         21   -1    0    0  504  501  0.00000000000E+00  0.00000000000E+00  0.37555205477E+01  0.37555205477E+01  0.00000000000E+00 0. -1.
         21   -1    0    0  503  502 -0.00000000000E+00 -0.00000000000E+00 -0.57677242877E+03  0.57677242877E+03  0.00000000000E+00 0.  1.
         21    1    1    2  503  501  0.34062508045E+02  0.88785081467E+01 -0.96621424703E+02  0.10283375940E+03  0.00000000000E+00 0. -1.
         21    1    1    2  504  502 -0.34062508045E+02 -0.88785081467E+01 -0.47639548352E+03  0.47769418992E+03  0.00000000000E+00 0.  1.
</event>
<event>
 4    1  0.1551744E+006  0.3172835E+02  0.7546771E-02  0.1405149E+00
         21   -1    0    0  502  501  0.00000000000E+00  0.00000000000E+00  0.41773507062E+03  0.41773507062E+03  0.00000000000E+00 0. -1.
         21   -1    0    0  503  502 -0.00000000000E+00 -0.00000000000E+00 -0.36125757902E+02  0.36125757902E+02  0.00000000000E+00 0. -1.
         21    1    1    2  503  504  0.95423472225E+01  0.30259413744E+02 -0.28426110493E+02  0.42599674511E+02  0.00000000000E+00 0. -1.
         21    1    1    2  504  501 -0.95423472225E+01 -0.30259413744E+02  0.41003542321E+03  0.41126115401E+03  0.00000000000E+00 0. -1.
</event>
<event>
 4    1  0.1551744E+006  0.3365889E+02  0.7546771E-02  0.1390245E+00
         21   -1    0    0  503  501  0.00000000000E+00  0.00000000000E+00  0.78041987329E+01  0.78041987329E+01  0.00000000000E+00 0. -1.
         21   -1    0    0  504  502 -0.00000000000E+00 -0.00000000000E+00 -0.58948945006E+03  0.58948945006E+03  0.00000000000E+00 0. -1.
         21    1    1    2  503  502 -0.32530557302E+02 -0.86419919943E+01 -0.55012228261E+03  0.55115102015E+03  0.00000000000E+00 0. -1.
         21    1    1    2  504  501  0.32530557302E+02  0.86419919943E+01 -0.31562968711E+02  0.46142628641E+02  0.00000000000E+00 0. -1.
</event>
<event>
 4    1  0.1551744E+006  0.2184769E+02  0.7546771E-02  0.1507498E+00
         21   -1    0    0  504  501  0.00000000000E+00  0.00000000000E+00  0.55105564099E+02  0.55105564099E+02  0.00000000000E+00 0. -1.
         21   -1    0    0  501  502 -0.00000000000E+00 -0.00000000000E+00 -0.11466101969E+04  0.11466101969E+04  0.00000000000E+00 0.  1.
         21    1    1    2  503  502 -0.19220038955E+02 -0.10388045838E+02 -0.11443363356E+04  0.11445448748E+04  0.00000000000E+00 0.  1.
         21    1    1    2  504  503  0.19220038955E+02  0.10388045838E+02  0.52831702878E+02  0.57170886146E+02  0.00000000000E+00 0. -1.
</event>
<event>
 4    1  0.1551744E+006  0.2855403E+02  0.7546771E-02  0.1432593E+00
         21   -1    0    0  504  501  0.00000000000E+00  0.00000000000E+00  0.23736979338E+03  0.23736979338E+03  0.00000000000E+00 0. -1.
         21   -1    0    0  503  502 -0.00000000000E+00 -0.00000000000E+00 -0.48360743767E+02  0.48360743767E+02  0.00000000000E+00 0.  1.
         21    1    1    2  503  501  0.19277837441E+02  0.21064131419E+02  0.23220279284E+03  0.23395185328E+03  0.00000000000E+00 0. -1.
         21    1    1    2  504  502 -0.19277837441E+02 -0.21064131419E+02 -0.43193743230E+02  0.51778683867E+02  0.00000000000E+00 0.  1.
</event>
<event>
 4    1  0.1551744E+006  0.2321971E+02  0.7546771E-02  0.1489758E+00
         21   -1    0    0  504  501  0.00000000000E+00  0.00000000000E+00  0.91761153703E+02  0.91761153703E+02  0.00000000000E+00 0.  1.
         21   -1    0    0  503  502 -0.00000000000E+00 -0.00000000000E+00 -0.59645627401E+01  0.59645627401E+01  0.00000000000E+00 0.  1.
         21    1    1    2  503  501  0.21712257291E+02  0.82299825111E+01  0.36931836778E+02  0.43624709702E+02  0.00000000000E+00 0.  1.
         21    1    1    2  504  502 -0.21712257291E+02 -0.82299825111E+01  0.48864754185E+02  0.54101006741E+02  0.00000000000E+00 0.  1.
</event>
<event>
 4    1  0.1551744E+006  0.3771439E+02  0.7546771E-02  0.1362426E+00
         21   -1    0    0  503  501  0.00000000000E+00  0.00000000000E+00  0.63125079910E+03  0.63125079910E+03  0.00000000000E+00 0. -1.
         21   -1    0    0  501  502 -0.00000000000E+00 -0.00000000000E+00 -0.64071575208E+01  0.64071575208E+01  0.00000000000E+00 0. -1.
         21    1    1    2  503  504 -0.29309981892E+02  0.23733951469E+02  0.56913768133E+03  0.57038590077E+03  0.00000000000E+00 0. -1.
         21    1    1    2  504  502  0.29309981892E+02 -0.23733951469E+02  0.55705960253E+02  0.67272055852E+02  0.00000000000E+00 0. -1.
</event>
<event>
 4    1  0.1551744E+006  0.3132709E+02  0.7546771E-02  0.1408404E+00
         21   -1    0    0  503  501  0.00000000000E+00  0.00000000000E+00  0.56366389238E+03  0.56366389238E+03  0.00000000000E+00 0. -1.
         21   -1    0    0  504  502 -0.00000000000E+00 -0.00000000000E+00 -0.11871737350E+02  0.11871737350E+02  0.00000000000E+00 0. -1.
         21    1    1    2  503  502 -0.26436696549E+02 -0.16807367882E+02  0.10066198791E+02  0.32904633377E+02  0.00000000000E+00 0. -1.
         21    1    1    2  504  501  0.26436696549E+02  0.16807367882E+02  0.54172595624E+03  0.54263099635E+03  0.00000000000E+00 0. -1.
</event>
<event>
 4    1  0.1551744E+006  0.2988406E+02  0.7546771E-02  0.1420607E+00
         21   -1    0    0  503  501  0.00000000000E+00  0.00000000000E+00  0.28955948113E+03  0.28955948113E+03  0.00000000000E+00 0.  1.
         21   -1    0    0  504  502 -0.00000000000E+00 -0.00000000000E+00 -0.30906221270E+01  0.30906221270E+01  0.00000000000E+00 0.  1.
         21    1    1    2  503  502 -0.17184424594E+02 -0.24448979835E+02  0.13656018368E+03  0.13979177669E+03  0.00000000000E+00 0.  1.
         21    1    1    2  504  501  0.17184424594E+02  0.24448979835E+02  0.14990867533E+03  0.15285832657E+03  0.00000000000E+00 0.  1.
</event>
<event>
 4    1  0.1551744E+006  0.2149689E+02  0.7546771E-02  0.1512287E+00
         21   -1    0    0  502  501  0.00000000000E+00  0.00000000000E+00  0.20718969196E+02  0.20718969196E+02  0.00000000000E+00 0.  1.
         21   -1    0    0  503  502 -0.00000000000E+00 -0.00000000000E+00 -0.17399999114E+03  0.17399999114E+03  0.00000000000E+00 0.  1.
         21    1    1    2  503  504 -0.20507334349E+02 -0.64471443715E+01 -0.16754611308E+03  0.16891955613E+03  0.00000000000E+00 0.  1.
         21    1    1    2  504  501  0.20507334349E+02  0.64471443715E+01  0.14265091136E+02  0.25799404213E+02  0.00000000000E+00 0.  1.
</event>
<event>
 4    1  0.1551744E+006  0.2348694E+02  0.7546771E-02  0.1486473E+00
         21   -1    0    0  504  501  0.00000000000E+00  0.00000000000E+00  0.35151545055E+02  0.35151545055E+02  0.00000000000E+00 0. -1.
         21   -1    0    0  503  502 -0.00000000000E+00 -0.00000000000E+00 -0.17510186611E+02  0.17510186611E+02  0.00000000000E+00 0. -1.
         21    1    1    2  503  501 -0.86409345496E+01 -0.21839652943E+02  0.33846300455E+00  0.23489375211E+02  0.00000000000E+00 0. -1.
         21    1    1    2  504  502  0.86409345496E+01  0.21839652943E+02  0.17302895439E+02  0.29172356455E+02  0.00000000000E+00 0. -1.
</event>
<event>
 4    1  0.1551744E+006  0.2722678E+02  0.7546771E-02  0.1445343E+00
         21   -1    0    0  502  501  0.00000000000E+00  0.00000000000E+00  0.89564723442E+01  0.89564723442E+01  0.00000000000E+00 0.  1.
         21   -1    0    0  504  502 -0.00000000000E+00 -0.00000000000E+00 -0.88344381115E+02  0.88344381115E+02  0.00000000000E+00 0.  1.
         21    1    1    2  503  501 -0.21230090059E+01 -0.27143879083E+02 -0.27469614344E+02  0.38676569795E+02  0.00000000000E+00 0.  1.
         21    1    1    2  504  503  0.21230090059E+01  0.27143879083E+02 -0.51918294427E+02  0.58624283664E+02  0.00000000000E+00 0.  1.
</event>
<event>
 4    1  0.1551744E+006  0.2009382E+02  0.7546771E-02  0.1532606E+00
         21   -1    0    0  503  501  0.00000000000E+00  0.00000000000E+00  0.18883699468E+02  0.18883699468E+02  0.00000000000E+00 0.  1.
         21   -1    0    0  504  502 -0.00000000000E+00 -0.00000000000E+00 -0.33570569224E+02  0.33570569224E+02  0.00000000000E+00 0. -1.
         21    1    1    2  503  502 -0.59095601180E+01 -0.19205169702E+02  0.84602046402E+01  0.21802213342E+02  0.00000000000E+00 0.  1.
         21    1    1    2  504  501  0.59095601180E+01  0.19205169702E+02 -0.23147074396E+02  0.30652055350E+02  0.00000000000E+00 0. -1.
</event>
<event>
 4    1  0.1551744E+006  0.2402805E+02  0.7546771E-02  0.1479977E+00
         21   -1    0    0  504  501  0.00000000000E+00  0.00000000000E+00  0.14160687581E+03  0.14160687581E+03  0.00000000000E+00 0. -1.
         21   -1    0    0  501  502 -0.00000000000E+00 -0.00000000000E+00 -0.11874681042E+03  0.11874681042E+03  0.00000000000E+00 0. -1.
         21    1    1    2  503  502 -0.10273559395E+01 -0.24006078718E+02 -0.11649251244E+03  0.11894474655E+03  0.00000000000E+00 0. -1.
         21    1    1    2  504  503  0.10273559395E+01  0.24006078718E+02  0.13935257783E+03  0.14140893969E+03  0.00000000000E+00 0. -1.
</event>
<event>
 4    1  0.1551744E+006  0.2310046E+02  0.7546771E-02  0.1491241E+00
         21   -1    0    0  502  501  0.00000000000E+00  0.00000000000E+00  0.86490076119E+03  0.86490076119E+03  0.00000000000E+00 0. -1.
         21   -1    0    0  504  502 -0.00000000000E+00 -0.00000000000E+00 -0.31888694391E+02  0.31888694391E+02  0.00000000000E+00 0.  1.
         21    1    1    2  503  501  0.15307419494E+02 -0.17300693865E+02  0.86054178280E+03  0.86085178227E+03  0.00000000000E+00 0. -1.
         21    1    1    2  504  503 -0.15307419494E+02  0.17300693865E+02 -0.27529716000E+02  0.35937673308E+02  0.00000000000E+00 0.  1.
</event>
<event>
 4    1  0.1551744E+006  0.2278920E+02  0.7546771E-02  0.1495162E+00
         21   -1    0    0  503  501  0.00000000000E+00  0.00000000000E+00  0.89684341012E+02  0.89684341012E+02  0.00000000000E+00 0. -1.
         21   -1    0    0  504  502 -0.00000000000E+00 -0.00000000000E+00 -0.10972743553E+02  0.10972743553E+02  0.00000000000E+00 0. -1.
         21    1    1    2  503  502 -0.27235826874E+00 -0.22787573941E+02  0.47697154384E+01  0.23282995737E+02  0.00000000000E+00 0. -1.
         21    1    1    2  504  501  0.27235826874E+00  0.22787573941E+02  0.73941882021E+02  0.77374088828E+02  0.00000000000E+00 0. -1.
</event>
<event>
 4    1  0.1551744E+006  0.2242151E+02  0.7546771E-02  0.1499893E+00
         21   -1    0    0  503  501  0.00000000000E+00  0.00000000000E+00  0.53045795805E+02  0.53045795805E+02  0.00000000000E+00 0. -1.
         21   -1    0    0  504  502 -0.00000000000E+00 -0.00000000000E+00 -0.22935547708E+02  0.22935547708E+02  0.00000000000E+00 0.  1.
         21    1    1    2  503  502 -0.15342197602E+02  0.16350571580E+02 -0.14046599608E+02  0.26458102328E+02  0.00000000000E+00 0.  1.
         21    1    1    2  504  501  0.15342197602E+02 -0.16350571580E+02  0.44156847705E+02  0.49523241186E+02  0.00000000000E+00 0. -1.
</event>
<event>
 4    1  0.1551744E+006  0.2065516E+02  0.7546771E-02  0.1524246E+00
         21   -1    0    0  504  501  0.00000000000E+00  0.00000000000E+00  0.29474032761E+02  0.29474032761E+02  0.00000000000E+00 0. -1.
         21   -1    0    0  501  502 -0.00000000000E+00 -0.00000000000E+00 -0.10831964528E+03  0.10831964528E+03  0.00000000000E+00 0. -1.
         21    1    1    2  503  502 -0.13161942988E+02  0.15918513164E+02 -0.10355121967E+03  0.10559114973E+03  0.00000000000E+00 0. -1.
         21    1    1    2  504  503  0.13161942988E+02 -0.15918513164E+02  0.24705607158E+02  0.32202528311E+02  0.00000000000E+00 0. -1.
</event>
<event>
 4    1  0.1551744E+006  0.2617355E+02  0.7546771E-02  0.1456091E+00
         21   -1    0    0  504  501  0.00000000000E+00  0.00000000000E+00  0.36045490522E+02  0.36045490522E+02  0.00000000000E+00 0.  1.
         21   -1    0    0  501  502 -0.00000000000E+00 -0.00000000000E+00 -0.31340352971E+02  0.31340352971E+02  0.00000000000E+00 0.  1.
         21    1    1    2  503  502 -0.20648713386E+02  0.16083694604E+02 -0.18785125604E+02  0.32217007008E+02  0.00000000000E+00 0.  1.
         21    1    1    2  504  503  0.20648713386E+02 -0.16083694604E+02  0.23490263154E+02  0.35168836485E+02  0.00000000000E+00 0.  1.
</event>
<event>
 4    1  0.1551744E+006  0.2412147E+02  0.7546771E-02  0.1478876E+00
         21   -1    0    0  503  501  0.00000000000E+00  0.00000000000E+00  0.10922430593E+03  0.10922430593E+03  0.00000000000E+00 0.  1.
         21   -1    0    0  501  502 -0.00000000000E+00 -0.00000000000E+00 -0.72573450977E+02  0.72573450977E+02  0.00000000000E+00 0.  1.
         21    1    1    2  503  504  0.20593614665E+02  0.12559798098E+02  0.10582463035E+03  0.10853892335E+03  0.00000000000E+00 0.  1.
         21    1    1    2  504  502 -0.20593614665E+02 -0.12559798098E+02 -0.69173775391E+02  0.73258833563E+02  0.00000000000E+00 0.  1.
</event>
<event>
 4    1  0.1551744E+006  0.2648984E+02  0.7546771E-02  0.1452801E+00
         21   -1    0    0  503  501  0.00000000000E+00  0.00000000000E+00  0.93135371324E+01  0.93135371324E+01  0.00000000000E+00 0. -1.
         21   -1    0    0  501  502 -0.00000000000E+00 -0.00000000000E+00 -0.11681330061E+03  0.11681330061E+03  0.00000000000E+00 0. -1.
         21    1    1    2  503  504  0.18652903828E+02  0.18809060902E+02 -0.16174883984E+02  0.31037694263E+02  0.00000000000E+00 0. -1.
         21    1    1    2  504  502 -0.18652903828E+02 -0.18809060902E+02 -0.91324879494E+02  0.95089143480E+02  0.00000000000E+00 0. -1.
</event>
<event>
 4    1  0.1551744E+006  0.6032836E+02  0.7546771E-02  0.1258721E+00
         21   -1    0    0  503  501  0.00000000000E+00  0.00000000000E+00  0.17496137050E+03  0.17496137050E+03  0.00000000000E+00 0.  1.
         21   -1    0    0  504  502 -0.00000000000E+00 -0.00000000000E+00 -0.23472813216E+02  0.23472813216E+02  0.00000000000E+00 0.  1.
         21    1    1    2  503  502  0.58955242136E+02 -0.12798069487E+02  0.42275330014E+02  0.73666238438E+02  0.00000000000E+00 0.  1.
         21    1    1    2  504  501 -0.58955242136E+02  0.12798069487E+02  0.10921322727E+03  0.12476794528E+03  0.00000000000E+00 0.  1.
</event>
<event>
 4    1  0.1551744E+006  0.2831610E+02  0.7546771E-02  0.1434817E+00
         21   -1    0    0  504  501  0.00000000000E+00  0.00000000000E+00  0.62532939894E+01  0.62532939894E+01  0.00000000000E+00 0. -1.
         21   -1    0    0  503  502 -0.00000000000E+00 -0.00000000000E+00 -0.55529920486E+03  0.55529920486E+03  0.00000000000E+00 0. -1.
         21    1    1    2  503  501 -0.82687775864E+01  0.27081887063E+02 -0.52075849501E+03  0.52152776667E+03  0.00000000000E+00 0. -1.
         21    1    1    2  504  502  0.82687775864E+01 -0.27081887063E+02 -0.28287415870E+02  0.40024732182E+02  0.00000000000E+00 0. -1.
</event>
<event>
 4    1  0.1551744E+006  0.2386442E+02  0.7546771E-02  0.1481920E+00
         21   -1    0    0  503  501  0.00000000000E+00  0.00000000000E+00  0.11812943680E+03  0.11812943680E+03  0.00000000000E+00 0. -1.
         21   -1    0    0  504  502 -0.00000000000E+00 -0.00000000000E+00 -0.98245230372E+01  0.98245230372E+01  0.00000000000E+00 0.  1.
         21    1    1    2  503  502  0.19505365727E+02 -0.13749587851E+02  0.84959325392E+01  0.25331627028E+02  0.00000000000E+00 0.  1.
         21    1    1    2  504  501 -0.19505365727E+02  0.13749587851E+02  0.99808981222E+02  0.10262233281E+03  0.00000000000E+00 0. -1.
</event>
<event>
 4    1  0.1551744E+006  0.2251576E+02  0.7546771E-02  0.1498670E+00
         21   -1    0    0  503  501  0.00000000000E+00  0.00000000000E+00  0.11946157700E+03  0.11946157700E+03  0.00000000000E+00 0.  1.
         21   -1    0    0  504  502 -0.00000000000E+00 -0.00000000000E+00 -0.91053128048E+01  0.91053128048E+01  0.00000000000E+00 0. -1.
         21    1    1    2  503  502  0.27227757608E+01  0.22350521558E+02  0.82058342864E+01  0.23964453637E+02  0.00000000000E+00 0. -1.
         21    1    1    2  504  501 -0.27227757608E+01 -0.22350521558E+02  0.10215042991E+03  0.10460243617E+03  0.00000000000E+00 0.  1.
</event>
<event>
 4    1  0.1551744E+006  0.2105738E+02  0.7546771E-02  0.1518447E+00
         21   -1    0    0  503  501  0.00000000000E+00  0.00000000000E+00  0.90734940026E+02  0.90734940026E+02  0.00000000000E+00 0.  1.
         21   -1    0    0  504  502 -0.00000000000E+00 -0.00000000000E+00 -0.52394900812E+02  0.52394900812E+02  0.00000000000E+00 0.  1.
         21    1    1    2  503  502 -0.18297428305E+02  0.10421955977E+02 -0.48975771135E+02  0.53310779465E+02  0.00000000000E+00 0.  1.
         21    1    1    2  504  501  0.18297428305E+02 -0.10421955977E+02  0.87315810349E+02  0.89819061373E+02  0.00000000000E+00 0.  1.
</event>
<event>
 4    1  0.1551744E+006  0.2416079E+02  0.7546771E-02  0.1478415E+00
         21   -1    0    0  503  501  0.00000000000E+00  0.00000000000E+00  0.34139392895E+02  0.34139392895E+02  0.00000000000E+00 0.  1.
         21   -1    0    0  501  502 -0.00000000000E+00 -0.00000000000E+00 -0.68875131921E+02  0.68875131921E+02  0.00000000000E+00 0. -1.
         21    1    1    2  503  504  0.21738129372E+02 -0.10545016034E+02  0.27290489987E+02  0.36448792511E+02  0.00000000000E+00 0.  1.
         21    1    1    2  504  502 -0.21738129372E+02  0.10545016034E+02 -0.62026229013E+02  0.66565732306E+02  0.00000000000E+00 0. -1.
</event>
<event>
 4    1  0.1551744E+006  0.2187048E+02  0.7546771E-02  0.1507190E+00
         21   -1    0    0  503  501  0.00000000000E+00  0.00000000000E+00  0.34558212103E+02  0.34558212103E+02  0.00000000000E+00 0.  1.
         21   -1    0    0  504  502 -0.00000000000E+00 -0.00000000000E+00 -0.21659758292E+02  0.21659758292E+02  0.00000000000E+00 0.  1.
         21    1    1    2  503  502  0.13897689672E+02  0.16887034545E+02 -0.10439202646E+02  0.24234163197E+02  0.00000000000E+00 0.  1.
         21    1    1    2  504  501 -0.13897689672E+02 -0.16887034545E+02  0.23337656458E+02  0.31983807198E+02  0.00000000000E+00 0.  1.
</event>
<event>
 4    1  0.1551744E+006  0.2035829E+02  0.7546771E-02  0.1528627E+00
         21   -1    0    0  504  501  0.00000000000E+00  0.00000000000E+00  0.13724645450E+03  0.13724645450E+03  0.00000000000E+00 0.  1.
         21   -1    0    0  501  502 -0.00000000000E+00 -0.00000000000E+00 -0.14984731410E+02  0.14984731410E+02  0.00000000000E+00 0.  1.
         21    1    1    2  503  502  0.18474250407E+02  0.85534720895E+01 -0.68840076982E+01  0.21490681117E+02  0.00000000000E+00 0.  1.
         21    1    1    2  504  503 -0.18474250407E+02 -0.85534720895E+01  0.12914573079E+03  0.13074050480E+03  0.00000000000E+00 0.  1.
</event>
<event>
 4    1  0.1551744E+006  0.2070251E+02  0.7546771E-02  0.1523555E+00
         21   -1    0    0  503  501  0.00000000000E+00  0.00000000000E+00  0.21830300346E+02  0.21830300346E+02  0.00000000000E+00 0.  1.
         21   -1    0    0  501  502 -0.00000000000E+00 -0.00000000000E+00 -0.37415936181E+03  0.37415936181E+03  0.00000000000E+00 0. -1.
         21    1    1    2  503  504  0.12895848667E+02  0.16195399005E+02  0.16565692032E+02  0.26514449160E+02  0.00000000000E+00 0.  1.
         21    1    1    2  504  502 -0.12895848667E+02 -0.16195399005E+02 -0.36889475350E+03  0.36947521300E+03  0.00000000000E+00 0. -1.
</event>
<event>
 4    1  0.1551744E+006  0.2063021E+02  0.7546771E-02  0.1524611E+00
         21   -1    0    0  504  501  0.00000000000E+00  0.00000000000E+00  0.78054399243E+02  0.78054399243E+02  0.00000000000E+00 0. -1.
         21   -1    0    0  501  502 -0.00000000000E+00 -0.00000000000E+00 -0.10797890213E+03  0.10797890213E+03  0.00000000000E+00 0. -1.
         21    1    1    2  503  502 -0.20061016841E+02 -0.48126082604E+01 -0.10559991942E+03  0.10759622938E+03  0.00000000000E+00 0. -1.
         21    1    1    2  504  503  0.20061016841E+02  0.48126082604E+01  0.75675416535E+02  0.78437071993E+02  0.00000000000E+00 0. -1.
</event>
<event>
 4    1  0.1551744E+006  0.3360692E+02  0.7546771E-02  0.1390631E+00
         21   -1    0    0  504  501  0.00000000000E+00  0.00000000000E+00  0.10618603882E+04  0.10618603882E+04  0.00000000000E+00 0. -1.
         21   -1    0    0  501  502 -0.00000000000E+00 -0.00000000000E+00 -0.47288899482E+01  0.47288899482E+01  0.00000000000E+00 0.  1.
         21    1    1    2  503  502 -0.18390497054E+02  0.28128544288E+02  0.59060912232E+02  0.67953048051E+02  0.00000000000E+00 0.  1.
         21    1    1    2  504  503  0.18390497054E+02 -0.28128544288E+02  0.99807058597E+03  0.99863623005E+03  0.00000000000E+00 0. -1.
</event>
<event>
 4    1  0.1551744E+006  0.3489368E+02  0.7546771E-02  0.1381312E+00
         21   -1    0    0  503  501  0.00000000000E+00  0.00000000000E+00  0.19692141104E+01  0.19692141104E+01  0.00000000000E+00 0.  1.
         21   -1    0    0  504  502 -0.00000000000E+00 -0.00000000000E+00 -0.80394590076E+03  0.80394590076E+03  0.00000000000E+00 0.  1.
         21    1    1    2  503  502 -0.22599816886E+02 -0.26586039039E+02 -0.59462435690E+03  0.59564729078E+03  0.00000000000E+00 0.  1.
         21    1    1    2  504  501  0.22599816886E+02  0.26586039039E+02 -0.20735232975E+03  0.21026782409E+03  0.00000000000E+00 0.  1.
</event>
<event>
 4    1  0.1551744E+006  0.2062254E+02  0.7546771E-02  0.1524723E+00
         21   -1    0    0  504  501  0.00000000000E+00  0.00000000000E+00  0.22224476876E+02  0.22224476876E+02  0.00000000000E+00 0.  1.
         21   -1    0    0  503  502 -0.00000000000E+00 -0.00000000000E+00 -0.21822116920E+02  0.21822116920E+02  0.00000000000E+00 0.  1.
         21    1    1    2  503  501  0.19509556513E+02  0.66832855494E+01 -0.75254631231E+01  0.21952715009E+02  0.00000000000E+00 0.  1.
         21    1    1    2  504  502 -0.19509556513E+02 -0.66832855494E+01  0.79278230794E+01  0.22093878787E+02  0.00000000000E+00 0.  1.
</event>
<event>
 4    1  0.1551744E+006  0.2092096E+02  0.7546771E-02  0.1520396E+00
         21   -1    0    0  502  501  0.00000000000E+00  0.00000000000E+00  0.57851267038E+03  0.57851267038E+03  0.00000000000E+00 0. -1.
         21   -1    0    0  503  502 -0.00000000000E+00 -0.00000000000E+00 -0.61818388861E+01  0.61818388861E+01  0.00000000000E+00 0.  1.
         21    1    1    2  503  504 -0.98522805910E+01 -0.18455872586E+02  0.12291469129E+02  0.24264518934E+02  0.00000000000E+00 0.  1.
         21    1    1    2  504  501  0.98522805910E+01  0.18455872586E+02  0.56003936236E+03  0.56042999033E+03  0.00000000000E+00 0. -1.
</event>
<event>
 4    1  0.1551744E+006  0.2215411E+02  0.7546771E-02  0.1503402E+00
         21   -1    0    0  504  501  0.00000000000E+00  0.00000000000E+00  0.16374282807E+04  0.16374282807E+04  0.00000000000E+00 0. -1.
         21   -1    0    0  503  502 -0.00000000000E+00 -0.00000000000E+00 -0.34096239931E+00  0.34096239931E+00  0.00000000000E+00 0. -1.
         21    1    1    2  503  501 -0.10049170059E+02  0.19743826349E+02  0.11032718642E+04  0.11034942731E+04  0.00000000000E+00 0. -1.
         21    1    1    2  504  502  0.10049170059E+02 -0.19743826349E+02  0.53381545408E+03  0.53427496995E+03  0.00000000000E+00 0. -1.
</event>
<event>
 4    1  0.1551744E+006  0.3034283E+02  0.7546771E-02  0.1416640E+00
         21   -1    0    0  502  501  0.00000000000E+00  0.00000000000E+00  0.85693631892E+01  0.85693631892E+01  0.00000000000E+00 0.  1.
         21   -1    0    0  503  502 -0.00000000000E+00 -0.00000000000E+00 -0.12105522266E+03  0.12105522266E+03  0.00000000000E+00 0.  1.
         21    1    1    2  503  504  0.96978396353E+00 -0.30327328796E+02 -0.77979316483E+02  0.83674734251E+02  0.00000000000E+00 0.  1.
         21    1    1    2  504  501 -0.96978396353E+00  0.30327328796E+02 -0.34506542984E+02  0.45949851594E+02  0.00000000000E+00 0.  1.
</event>
<event>
 4    1  0.1551744E+006  0.7368236E+02  0.7546771E-02  0.1219326E+00
         21   -1    0    0  504  501  0.00000000000E+00  0.00000000000E+00  0.67609761133E+02  0.67609761133E+02  0.00000000000E+00 0. -1.
         21   -1    0    0  503  502 -0.00000000000E+00 -0.00000000000E+00 -0.27419840351E+03  0.27419840351E+03  0.00000000000E+00 0. -1.
         21    1    1    2  503  501  0.72476050270E+02  0.13278276348E+02  0.40422184971E+02  0.84041915276E+02  0.00000000000E+00 0. -1.
         21    1    1    2  504  502 -0.72476050270E+02 -0.13278276348E+02 -0.24701082735E+03  0.25776624937E+03  0.00000000000E+00 0. -1.
</event>
<event>
 4    1  0.1551744E+006  0.2246962E+02  0.7546771E-02  0.1499268E+00
         21   -1    0    0  503  501  0.00000000000E+00  0.00000000000E+00  0.36271203049E+03  0.36271203049E+03  0.00000000000E+00 0.  1.
         21   -1    0    0  504  502 -0.00000000000E+00 -0.00000000000E+00 -0.17295942839E+01  0.17295942839E+01  0.00000000000E+00 0.  1.
         21    1    1    2  503  502 -0.14932567728E+02  0.16789942076E+02  0.26100007081E+03  0.26196549524E+03  0.00000000000E+00 0.  1.
         21    1    1    2  504  501  0.14932567728E+02 -0.16789942076E+02  0.99982365392E+02  0.10247612953E+03  0.00000000000E+00 0.  1.
</event>
<event>
 4    1  0.1551744E+006  0.2185512E+02  0.7546771E-02  0.1507397E+00
         21   -1    0    0  504  501  0.00000000000E+00  0.00000000000E+00  0.18427421239E+02  0.18427421239E+02  0.00000000000E+00 0.  1.
         21   -1    0    0  503  502 -0.00000000000E+00 -0.00000000000E+00 -0.15153458393E+03  0.15153458393E+03  0.00000000000E+00 0.  1.
         21    1    1    2  503  501  0.21453530989E+02  0.41704300671E+01 -0.14392584052E+03  0.14557573303E+03  0.00000000000E+00 0.  1.
         21    1    1    2  504  502 -0.21453530989E+02 -0.41704300671E+01  0.10818677827E+02  0.24386272138E+02  0.00000000000E+00 0.  1.
</event>
<event>
 4    1  0.1551744E+006  0.2059243E+02  0.7546771E-02  0.1525164E+00
         21   -1    0    0  504  501  0.00000000000E+00  0.00000000000E+00  0.26913781566E+03  0.26913781566E+03  0.00000000000E+00 0.  1.
         21   -1    0    0  503  502 -0.00000000000E+00 -0.00000000000E+00 -0.20359301912E+01  0.20359301912E+01  0.00000000000E+00 0.  1.
         21    1    1    2  503  501 -0.11392922296E+02 -0.17153705825E+02  0.19802427510E+03  0.19909209384E+03  0.00000000000E+00 0.  1.
         21    1    1    2  504  502  0.11392922296E+02  0.17153705825E+02  0.69077610373E+02  0.72081652012E+02  0.00000000000E+00 0.  1.
</event>
<event>
 4    1  0.1551744E+006  0.2299087E+02  0.7546771E-02  0.1492613E+00
         21   -1    0    0  503  501  0.00000000000E+00  0.00000000000E+00  0.10269691811E+03  0.10269691811E+03  0.00000000000E+00 0.  1.
         21   -1    0    0  504  502 -0.00000000000E+00 -0.00000000000E+00 -0.84670550279E+01  0.84670550279E+01  0.00000000000E+00 0. -1.
         21    1    1    2  503  502 -0.21028497906E+02 -0.92942234782E+01  0.81919878428E+02  0.85084938713E+02  0.00000000000E+00 0.  1.
         21    1    1    2  504  501  0.21028497906E+02  0.92942234782E+01  0.12309984651E+02  0.26079034421E+02  0.00000000000E+00 0. -1.
</event>
<event>
 4    1  0.1551744E+006  0.2478101E+02  0.7546771E-02  0.1471268E+00
         21   -1    0    0  503  501  0.00000000000E+00  0.00000000000E+00  0.98400323457E+03  0.98400323457E+03  0.00000000000E+00 0.  1.
         21   -1    0    0  504  502 -0.00000000000E+00 -0.00000000000E+00 -0.19625704962E+01  0.19625704962E+01  0.00000000000E+00 0.  1.
         21    1    1    2  503  502 -0.42967081259E+00  0.24777283347E+02  0.83896431451E+02  0.87479766788E+02  0.00000000000E+00 0.  1.
         21    1    1    2  504  501  0.42967081259E+00 -0.24777283347E+02  0.89814423262E+03  0.89848603828E+03  0.00000000000E+00 0.  1.
</event>
<event>
 4    1  0.1551744E+006  0.2163806E+02  0.7546771E-02  0.1510347E+00
         21   -1    0    0  504  501  0.00000000000E+00  0.00000000000E+00  0.14568876074E+01  0.14568876074E+01  0.00000000000E+00 0. -1.
         21   -1    0    0  503  502 -0.00000000000E+00 -0.00000000000E+00 -0.11311763895E+04  0.11311763895E+04  0.00000000000E+00 0.  1.
         21    1    1    2  503  501  0.15009937612E+02 -0.15585489086E+02 -0.10440232208E+04  0.10442474282E+04  0.00000000000E+00 0.  1.
         21    1    1    2  504  502 -0.15009937612E+02  0.15585489086E+02 -0.85696281123E+02  0.88385848955E+02  0.00000000000E+00 0. -1.
</event>
<event>
 4    1  0.1551744E+006  0.2327410E+02  0.7546771E-02  0.1489085E+00
         21   -1    0    0  503  501  0.00000000000E+00  0.00000000000E+00  0.23908295015E+03  0.23908295015E+03  0.00000000000E+00 0. -1.
         21   -1    0    0  501  502 -0.00000000000E+00 -0.00000000000E+00 -0.11490437410E+02  0.11490437410E+02  0.00000000000E+00 0. -1.
         21    1    1    2  503  504 -0.23227671067E+02 -0.14693698632E+01  0.22605348418E+03  0.22724845756E+03  0.00000000000E+00 0. -1.
         21    1    1    2  504  502  0.23227671067E+02  0.14693698632E+01  0.15390285619E+01  0.23324930008E+02  0.00000000000E+00 0. -1.
</event>
<event>
 4    1  0.1551744E+006  0.2105542E+02  0.7546771E-02  0.1518475E+00
         21   -1    0    0  503  501  0.00000000000E+00  0.00000000000E+00  0.61834387184E+01  0.61834387184E+01  0.00000000000E+00 0. -1.
         21   -1    0    0  501  502 -0.00000000000E+00 -0.00000000000E+00 -0.29723295998E+03  0.29723295998E+03  0.00000000000E+00 0. -1.
         21    1    1    2  503  504 -0.18075211773E+02 -0.10798954394E+02 -0.13374207867E+02  0.24943939799E+02  0.00000000000E+00 0. -1.
         21    1    1    2  504  502  0.18075211773E+02  0.10798954394E+02 -0.27767531339E+03  0.27847245890E+03  0.00000000000E+00 0. -1.
</event>
<event>
 4    1  0.1551744E+006  0.3069295E+02  0.7546771E-02  0.1413668E+00
         21   -1    0    0  503  501  0.00000000000E+00  0.00000000000E+00  0.16924283094E+02  0.16924283094E+02  0.00000000000E+00 0.  1.
         21   -1    0    0  501  502 -0.00000000000E+00 -0.00000000000E+00 -0.93375512012E+02  0.93375512012E+02  0.00000000000E+00 0.  1.
         21    1    1    2  503  504  0.10936305680E+02 -0.28678462162E+02 -0.31770094393E+01  0.30856933790E+02  0.00000000000E+00 0.  1.
         21    1    1    2  504  502 -0.10936305680E+02  0.28678462162E+02 -0.73274219479E+02  0.79442861316E+02  0.00000000000E+00 0.  1.
</event>
<event>
 4    1  0.1551744E+006  0.2191422E+02  0.7546771E-02  0.1506602E+00
         21   -1    0    0  502  501  0.00000000000E+00  0.00000000000E+00  0.26745072638E+01  0.26745072638E+01  0.00000000000E+00 0.  1.
         21   -1    0    0  503  502 -0.00000000000E+00 -0.00000000000E+00 -0.41358816056E+03  0.41358816056E+03  0.00000000000E+00 0. -1.
         21    1    1    2  503  504 -0.80282515255E+01 -0.20390689002E+02 -0.36201941761E+03  0.36268208082E+03  0.00000000000E+00 0. -1.
         21    1    1    2  504  501  0.80282515255E+01  0.20390689002E+02 -0.48894235693E+02  0.53580587012E+02  0.00000000000E+00 0.  1.
</event>
<event>
 4    1  0.1551744E+006  0.2110172E+02  0.7546771E-02  0.1517817E+00
         21   -1    0    0  504  501  0.00000000000E+00  0.00000000000E+00  0.17161974687E+03  0.17161974687E+03  0.00000000000E+00 0. -1.
         21   -1    0    0  503  502 -0.00000000000E+00 -0.00000000000E+00 -0.47553297891E+01  0.47553297891E+01  0.00000000000E+00 0. -1.
         21    1    1    2  503  501 -0.17261628651E+02 -0.12137489983E+02  0.14287762358E+03  0.14442748287E+03  0.00000000000E+00 0. -1.
         21    1    1    2  504  502  0.17261628651E+02  0.12137489983E+02  0.23986793500E+02  0.31947593794E+02  0.00000000000E+00 0. -1.
</event>
<event>
 4    1  0.1551744E+006  0.2044832E+02  0.7546771E-02  0.1527289E+00
         21   -1    0    0  503  501  0.00000000000E+00  0.00000000000E+00  0.17138864828E+03  0.17138864828E+03  0.00000000000E+00 0.  1.
         21   -1    0    0  504  502 -0.00000000000E+00 -0.00000000000E+00 -0.26056993133E+01  0.26056993133E+01  0.00000000000E+00 0.  1.
         21    1    1    2  503  502 -0.13634130488E+02 -0.15239565577E+02  0.10635080671E+03  0.10829879021E+03  0.00000000000E+00 0.  1.
         21    1    1    2  504  501  0.13634130488E+02  0.15239565577E+02  0.62432142260E+02  0.65695557387E+02  0.00000000000E+00 0.  1.
</event>
<event>
 4    1  0.1551744E+006  0.2847263E+02  0.7546771E-02  0.1433351E+00
         21   -1    0    0  503  501  0.00000000000E+00  0.00000000000E+00  0.16783995084E+01  0.16783995084E+01  0.00000000000E+00 0. -1.
         21   -1    0    0  504  502 -0.00000000000E+00 -0.00000000000E+00 -0.86336667092E+03  0.86336667092E+03  0.00000000000E+00 0. -1.
         21    1    1    2  503  502 -0.25403405267E+02  0.12859148828E+02 -0.71792500407E+03  0.71848938905E+03  0.00000000000E+00 0. -1.
         21    1    1    2  504  501  0.25403405267E+02 -0.12859148828E+02 -0.14376326734E+03  0.14655568138E+03  0.00000000000E+00 0. -1.
</event>
<event>
 4    1  0.1551744E+006  0.2381343E+02  0.7546771E-02  0.1482529E+00
         21   -1    0    0  504  501  0.00000000000E+00  0.00000000000E+00  0.12076848848E+02  0.12076848848E+02  0.00000000000E+00 0.  1.
         21   -1    0    0  503  502 -0.00000000000E+00 -0.00000000000E+00 -0.52466846840E+02  0.52466846840E+02  0.00000000000E+00 0.  1.
         21    1    1    2  503  501  0.21119699171E+02  0.11001720808E+02 -0.30654083113E+02  0.38816908240E+02  0.00000000000E+00 0.  1.
         21    1    1    2  504  502 -0.21119699171E+02 -0.11001720808E+02 -0.97359148783E+01  0.25726787447E+02  0.00000000000E+00 0.  1.
</event>
<event>
 4    1  0.1551744E+006  0.2560332E+02  0.7546771E-02  0.1462166E+00
         21   -1    0    0  504  501  0.00000000000E+00  0.00000000000E+00  0.18312775001E+03  0.18312775001E+03  0.00000000000E+00 0. -1.
         21   -1    0    0  501  502 -0.00000000000E+00 -0.00000000000E+00 -0.16110008182E+02  0.16110008182E+02  0.00000000000E+00 0. -1.
         21    1    1    2  503  502  0.16217279459E+02  0.19812364565E+02 -0.43480191298E+01  0.25969890509E+02  0.00000000000E+00 0. -1.
         21    1    1    2  504  503 -0.16217279459E+02 -0.19812364565E+02  0.17136576095E+03  0.17326786768E+03  0.00000000000E+00 0. -1.
</event>
<event>
 4    1  0.1551744E+006  0.2194316E+02  0.7546771E-02  0.1506213E+00
         21   -1    0    0  504  501  0.00000000000E+00  0.00000000000E+00  0.79011987508E+02  0.79011987508E+02  0.00000000000E+00 0. -1.
         21   -1    0    0  503  502 -0.00000000000E+00 -0.00000000000E+00 -0.92379038180E+01  0.92379038180E+01  0.00000000000E+00 0. -1.
         21    1    1    2  503  501  0.20713776466E+02  0.72416711925E+01  0.91458163444E+01  0.23772847826E+02  0.00000000000E+00 0. -1.
         21    1    1    2  504  502 -0.20713776466E+02 -0.72416711925E+01  0.60628267345E+02  0.64477043500E+02  0.00000000000E+00 0. -1.
</event>
<event>
 4    1  0.1551744E+006  0.2994227E+02  0.7546771E-02  0.1420099E+00
         21   -1    0    0  503  501  0.00000000000E+00  0.00000000000E+00  0.34227817381E+02  0.34227817381E+02  0.00000000000E+00 0.  1.
         21   -1    0    0  504  502 -0.00000000000E+00 -0.00000000000E+00 -0.51053930578E+02  0.51053930578E+02  0.00000000000E+00 0.  1.
         21    1    1    2  503  502 -0.20731082522E+02 -0.21604667278E+02 -0.38168579779E+02  0.48511647190E+02  0.00000000000E+00 0.  1.
         21    1    1    2  504  501  0.20731082522E+02  0.21604667278E+02  0.21342466582E+02  0.36770100769E+02  0.00000000000E+00 0.  1.
</event>
<event>
 4    1  0.1551744E+006  0.2707620E+02  0.7546771E-02  0.1446844E+00
         21   -1    0    0  502  501  0.00000000000E+00  0.00000000000E+00  0.15990915558E+02  0.15990915558E+02  0.00000000000E+00 0.  1.
         21   -1    0    0  503  502 -0.00000000000E+00 -0.00000000000E+00 -0.58281388974E+02  0.58281388974E+02  0.00000000000E+00 0.  1.
         21    1    1    2  503  504 -0.11059152928E+02  0.24714686624E+02 -0.38299041393E+02  0.46903487823E+02  0.00000000000E+00 0.  1.
         21    1    1    2  504  501  0.11059152928E+02 -0.24714686624E+02 -0.39914320231E+01  0.27368816708E+02  0.00000000000E+00 0.  1.
</event>
<event>
 4    1  0.1551744E+006  0.2250138E+02  0.7546771E-02  0.1498856E+00
         21   -1    0    0  503  501  0.00000000000E+00  0.00000000000E+00  0.39977631120E+03  0.39977631120E+03  0.00000000000E+00 0.  1.
         21   -1    0    0  504  502 -0.00000000000E+00 -0.00000000000E+00 -0.57663838749E+01  0.57663838749E+01  0.00000000000E+00 0. -1.
         21    1    1    2  503  502 -0.50957009844E+01  0.21916795198E+02  0.17880038201E+02  0.28740352231E+02  0.00000000000E+00 0. -1.
         21    1    1    2  504  501  0.50957009844E+01 -0.21916795198E+02  0.37612988913E+03  0.37680234285E+03  0.00000000000E+00 0.  1.
</event>
<event>
 4    1  0.1551744E+006  0.3313644E+02  0.7546771E-02  0.1394160E+00
         21   -1    0    0  504  501  0.00000000000E+00  0.00000000000E+00  0.62821463580E+03  0.62821463580E+03  0.00000000000E+00 0. -1.
         21   -1    0    0  503  502 -0.00000000000E+00 -0.00000000000E+00 -0.55394452264E+01  0.55394452264E+01  0.00000000000E+00 0. -1.
         21    1    1    2  503  501 -0.27396682381E+02  0.18639880712E+02  0.57349900650E+03  0.57445551073E+03  0.00000000000E+00 0. -1.
         21    1    1    2  504  502  0.27396682381E+02 -0.18639880712E+02  0.49176184073E+02  0.59298570290E+02  0.00000000000E+00 0. -1.
</event>
<event>
 4    1  0.1551744E+006  0.2154034E+02  0.7546771E-02  0.1511688E+00
         21   -1    0    0  503  501  0.00000000000E+00  0.00000000000E+00  0.27314193285E+02  0.27314193285E+02  0.00000000000E+00 0.  1.
         21   -1    0    0  504  502 -0.00000000000E+00 -0.00000000000E+00 -0.17020178950E+02  0.17020178950E+02  0.00000000000E+00 0.  1.
         21    1    1    2  503  502 -0.65508110580E+00  0.21530373857E+02  0.41682454086E+01  0.21939927062E+02  0.00000000000E+00 0.  1.
         21    1    1    2  504  501  0.65508110580E+00 -0.21530373857E+02  0.61257689260E+01  0.22394445173E+02  0.00000000000E+00 0.  1.
</event>
<event>
 4    1  0.1551744E+006  0.2134895E+02  0.7546771E-02  0.1514341E+00
         21   -1    0    0  502  501  0.00000000000E+00  0.00000000000E+00  0.74246622167E+01  0.74246622167E+01  0.00000000000E+00 0.  1.
         21   -1    0    0  504  502 -0.00000000000E+00 -0.00000000000E+00 -0.44251922484E+03  0.44251922484E+03  0.00000000000E+00 0. -1.
         21    1    1    2  503  501  0.20278231999E+02 -0.66761568161E+01 -0.87618832277E+01  0.23077009350E+02  0.00000000000E+00 0.  1.
         21    1    1    2  504  503 -0.20278231999E+02  0.66761568161E+01 -0.42633267939E+03  0.42686687771E+03  0.00000000000E+00 0. -1.
</event>
<event>
 4    1  0.1551744E+006  0.2170343E+02  0.7546771E-02  0.1509454E+00
         21   -1    0    0  503  501  0.00000000000E+00  0.00000000000E+00  0.41801129889E+00  0.41801129889E+00  0.00000000000E+00 0.  1.
         21   -1    0    0  504  502 -0.00000000000E+00 -0.00000000000E+00 -0.11457719829E+04  0.11457719829E+04  0.00000000000E+00 0. -1.
         21    1    1    2  503  502 -0.21667560147E+02 -0.12473004119E+01 -0.49904245634E+03  0.49951417613E+03  0.00000000000E+00 0.  1.
         21    1    1    2  504  501  0.21667560147E+02  0.12473004119E+01 -0.64631151527E+03  0.64667581808E+03  0.00000000000E+00 0. -1.
</event>
<event>
 4    1  0.1551744E+006  0.4464503E+02  0.7546771E-02  0.1323224E+00
         21   -1    0    0  503  501  0.00000000000E+00  0.00000000000E+00  0.56741476773E+02  0.56741476773E+02  0.00000000000E+00 0.  1.
         21   -1    0    0  504  502 -0.00000000000E+00 -0.00000000000E+00 -0.37279193602E+02  0.37279193602E+02  0.00000000000E+00 0.  1.
         21    1    1    2  503  502  0.67915009269E+01  0.44125434680E+02 -0.15632827287E+01  0.44672388826E+02  0.00000000000E+00 0.  1.
         21    1    1    2  504  501 -0.67915009269E+01 -0.44125434680E+02  0.21025565900E+02  0.49348281550E+02  0.00000000000E+00 0.  1.
</event>
<event>
 4    1  0.1551744E+006  0.2659123E+02  0.7546771E-02  0.1451758E+00
         21   -1    0    0  504  501  0.00000000000E+00  0.00000000000E+00  0.21416766361E+03  0.21416766361E+03  0.00000000000E+00 0. -1.
         21   -1    0    0  503  502 -0.00000000000E+00 -0.00000000000E+00 -0.11084533885E+02  0.11084533885E+02  0.00000000000E+00 0. -1.
         21    1    1    2  503  501  0.98388786365E+01 -0.24704053016E+02  0.19591554666E+03  0.19771189947E+03  0.00000000000E+00 0. -1.
         21    1    1    2  504  502 -0.98388786365E+01  0.24704053016E+02  0.71675830620E+01  0.27540298023E+02  0.00000000000E+00 0. -1.
</event>
<event>
 4    1  0.1551744E+006  0.2106305E+02  0.7546771E-02  0.1518366E+00
         21   -1    0    0  502  501  0.00000000000E+00  0.00000000000E+00  0.58773903217E+02  0.58773903217E+02  0.00000000000E+00 0.  1.
         21   -1    0    0  504  502 -0.00000000000E+00 -0.00000000000E+00 -0.22027516856E+02  0.22027516856E+02  0.00000000000E+00 0. -1.
         21    1    1    2  503  501  0.11990770959E+02 -0.17316858079E+02  0.51128105323E+02  0.55296792998E+02  0.00000000000E+00 0.  1.
         21    1    1    2  504  503 -0.11990770959E+02  0.17316858079E+02 -0.14381718962E+02  0.25504627075E+02  0.00000000000E+00 0. -1.
</event>
<event>
 4    1  0.1551744E+006  0.2404398E+02  0.7546771E-02  0.1479789E+00
         21   -1    0    0  504  501  0.00000000000E+00  0.00000000000E+00  0.15635139067E+03  0.15635139067E+03  0.00000000000E+00 0. -1.
         21   -1    0    0  501  502 -0.00000000000E+00 -0.00000000000E+00 -0.46638008311E+03  0.46638008311E+03  0.00000000000E+00 0. -1.
         21    1    1    2  503  502  0.22397918106E+02 -0.87433403114E+01 -0.46514335289E+03  0.46576437334E+03  0.00000000000E+00 0. -1.
         21    1    1    2  504  503 -0.22397918106E+02  0.87433403114E+01  0.15511466045E+03  0.15696710044E+03  0.00000000000E+00 0. -1.
</event>
<event>
 4    1  0.1551744E+006  0.2106674E+02  0.7546771E-02  0.1518314E+00
         21   -1    0    0  503  501  0.00000000000E+00  0.00000000000E+00  0.12281802486E+03  0.12281802486E+03  0.00000000000E+00 0. -1.
         21   -1    0    0  501  502 -0.00000000000E+00 -0.00000000000E+00 -0.75609794929E+01  0.75609794929E+01  0.00000000000E+00 0.  1.
         21    1    1    2  503  504  0.12876497697E+02  0.16673428011E+02  0.10473130675E+03  0.10682908784E+03  0.00000000000E+00 0. -1.
         21    1    1    2  504  502 -0.12876497697E+02 -0.16673428011E+02  0.10525738621E+02  0.23549916519E+02  0.00000000000E+00 0.  1.
</event>
<event>
 4    1  0.1551744E+006  0.2505066E+02  0.7546771E-02  0.1468237E+00
         21   -1    0    0  504  501  0.00000000000E+00  0.00000000000E+00  0.64289754336E+01  0.64289754336E+01  0.00000000000E+00 0.  1.
         21   -1    0    0  503  502 -0.00000000000E+00 -0.00000000000E+00 -0.14944872955E+03  0.14944872955E+03  0.00000000000E+00 0. -1.
         21    1    1    2  503  501 -0.24196860195E+02  0.64844011593E+01 -0.11741202168E+03  0.12005464729E+03  0.00000000000E+00 0. -1.
         21    1    1    2  504  502  0.24196860195E+02 -0.64844011593E+01 -0.25607732432E+02  0.35823057686E+02  0.00000000000E+00 0.  1.
</event>
<event>
 4    1  0.1551744E+006  0.2311015E+02  0.7546771E-02  0.1491120E+00
         21   -1    0    0  504  501  0.00000000000E+00  0.00000000000E+00  0.54448644400E+01  0.54448644400E+01  0.00000000000E+00 0. -1.
         21   -1    0    0  503  502 -0.00000000000E+00 -0.00000000000E+00 -0.26282717407E+03  0.26282717407E+03  0.00000000000E+00 0. -1.
         21    1    1    2  503  501  0.19370549194E+02 -0.12604002098E+02 -0.22495205197E+02  0.32250787615E+02  0.00000000000E+00 0. -1.
         21    1    1    2  504  502 -0.19370549194E+02  0.12604002098E+02 -0.23488710443E+03  0.23602125089E+03  0.00000000000E+00 0. -1.
</event>
<event>
 4    1  0.1551744E+006  0.2227798E+02  0.7546771E-02  0.1501769E+00
         21   -1    0    0  504  501  0.00000000000E+00  0.00000000000E+00  0.66283439117E+02  0.66283439117E+02  0.00000000000E+00 0.  1.
         21   -1    0    0  503  502 -0.00000000000E+00 -0.00000000000E+00 -0.49046839046E+02  0.49046839046E+02  0.00000000000E+00 0.  1.
         21    1    1    2  503  501  0.69849891548E+00  0.22267028840E+02  0.61699564943E+02  0.65598359646E+02  0.00000000000E+00 0.  1.
         21    1    1    2  504  502 -0.69849891548E+00 -0.22267028840E+02 -0.44462964872E+02  0.49731918517E+02  0.00000000000E+00 0.  1.
</event>
<event>
 4    1  0.1551744E+006  0.2117442E+02  0.7546771E-02  0.1516789E+00
         21   -1    0    0  503  501  0.00000000000E+00  0.00000000000E+00  0.92004949840E+01  0.92004949840E+01  0.00000000000E+00 0.  1.
         21   -1    0    0  501  502 -0.00000000000E+00 -0.00000000000E+00 -0.14503581574E+03  0.14503581574E+03  0.00000000000E+00 0. -1.
         21    1    1    2  503  504  0.19923048874E+02 -0.71713396625E+01 -0.50769088737E+01  0.21774549197E+02  0.00000000000E+00 0.  1.
         21    1    1    2  504  502 -0.19923048874E+02  0.71713396625E+01 -0.13075841189E+03  0.13246176153E+03  0.00000000000E+00 0. -1.
</event>
<event>
 4    1  0.1551744E+006  0.2033036E+02  0.7546771E-02  0.1529044E+00
         21   -1    0    0  504  501  0.00000000000E+00  0.00000000000E+00  0.69853598107E+03  0.69853598107E+03  0.00000000000E+00 0. -1.
         21   -1    0    0  503  502 -0.00000000000E+00 -0.00000000000E+00 -0.67362081114E+00  0.67362081114E+00  0.00000000000E+00 0.  1.
         21    1    1    2  503  501 -0.12962171933E+02  0.15662237937E+02  0.22701332906E+03  0.22792186198E+03  0.00000000000E+00 0.  1.
         21    1    1    2  504  502  0.12962171933E+02 -0.15662237937E+02  0.47084903120E+03  0.47128773990E+03  0.00000000000E+00 0. -1.
</event>
<event>
 4    1  0.1551744E+006  0.5146782E+02  0.7546771E-02  0.1291931E+00
         21   -1    0    0  503  501  0.00000000000E+00  0.00000000000E+00  0.91363833187E+02  0.91363833187E+02  0.00000000000E+00 0.  1.
         21   -1    0    0  504  502 -0.00000000000E+00 -0.00000000000E+00 -0.19828088409E+03  0.19828088409E+03  0.00000000000E+00 0. -1.
         21    1    1    2  503  502 -0.50975890179E+02  0.70989463303E+01 -0.18727444512E+03  0.19421805841E+03  0.00000000000E+00 0. -1.
         21    1    1    2  504  501  0.50975890179E+02 -0.70989463303E+01  0.80357394211E+02  0.95426658869E+02  0.00000000000E+00 0.  1.
</event>
<event>
 4    1  0.1551744E+006  0.2984555E+02  0.7546771E-02  0.1420944E+00
         21   -1    0    0  504  501  0.00000000000E+00  0.00000000000E+00  0.14978309747E+04  0.14978309747E+04  0.00000000000E+00 0.  1.
         21   -1    0    0  503  502 -0.00000000000E+00 -0.00000000000E+00 -0.52429651178E+01  0.52429651178E+01  0.00000000000E+00 0.  1.
         21    1    1    2  503  501  0.10479882729E+02 -0.27945108029E+02  0.38662098601E+02  0.48841732903E+02  0.00000000000E+00 0.  1.
         21    1    1    2  504  502 -0.10479882729E+02  0.27945108029E+02  0.14539259109E+04  0.14542322069E+04  0.00000000000E+00 0.  1.
</event>
<event>
 4    1  0.1551744E+006  0.4325792E+02  0.7546771E-02  0.1330384E+00
         21   -1    0    0  503  501  0.00000000000E+00  0.00000000000E+00  0.84933366605E+03  0.84933366605E+03  0.00000000000E+00 0.  1.
         21   -1    0    0  504  502 -0.00000000000E+00 -0.00000000000E+00 -0.18658630010E+02  0.18658630010E+02  0.00000000000E+00 0.  1.
         21    1    1    2  503  502 -0.42970883730E+02 -0.49750360257E+01  0.82290608271E+03  0.82404227367E+03  0.00000000000E+00 0.  1.
         21    1    1    2  504  501  0.42970883730E+02  0.49750360257E+01  0.77689533260E+01  0.43950022387E+02  0.00000000000E+00 0.  1.
</event>
<event>
 4    1  0.1551744E+006  0.2251591E+02  0.7546771E-02  0.1498668E+00
         21   -1    0    0  503  501  0.00000000000E+00  0.00000000000E+00  0.16268352048E+02  0.16268352048E+02  0.00000000000E+00 0.  1.
         21   -1    0    0  501  502 -0.00000000000E+00 -0.00000000000E+00 -0.32250754706E+03  0.32250754706E+03  0.00000000000E+00 0. -1.
         21    1    1    2  503  504 -0.13387697831E+02  0.18103468429E+02  0.78768262655E+01  0.23853939180E+02  0.00000000000E+00 0.  1.
         21    1    1    2  504  502  0.13387697831E+02 -0.18103468429E+02 -0.31411602128E+03  0.31492195993E+03  0.00000000000E+00 0. -1.
</event>
<event>
 4    1  0.1551744E+006  0.2950489E+02  0.7546771E-02  0.1423948E+00
         21   -1    0    0  504  501  0.00000000000E+00  0.00000000000E+00  0.75819635597E+03  0.75819635597E+03  0.00000000000E+00 0.  1.
         21   -1    0    0  503  502 -0.00000000000E+00 -0.00000000000E+00 -0.11225024059E+02  0.11225024059E+02  0.00000000000E+00 0.  1.
         21    1    1    2  503  501  0.48419115922E+01  0.29104882977E+02  0.89809948758E+01  0.30841475158E+02  0.00000000000E+00 0.  1.
         21    1    1    2  504  502 -0.48419115922E+01 -0.29104882977E+02  0.73799033704E+03  0.73857990487E+03  0.00000000000E+00 0.  1.
</event>
<event>
 4    1  0.1551744E+006  0.2392436E+02  0.7546771E-02  0.1481206E+00
         21   -1    0    0  502  501  0.00000000000E+00  0.00000000000E+00  0.24810243214E+03  0.24810243214E+03  0.00000000000E+00 0. -1.
         21   -1    0    0  504  502 -0.00000000000E+00 -0.00000000000E+00 -0.13659804213E+02  0.13659804213E+02  0.00000000000E+00 0.  1.
         21    1    1    2  503  501 -0.83727436612E+01  0.22411432089E+02  0.23653935558E+03  0.23774617108E+03  0.00000000000E+00 0. -1.
         21    1    1    2  504  503  0.83727436612E+01 -0.22411432089E+02 -0.20967276466E+01  0.24016065279E+02  0.00000000000E+00 0.  1.
</event>
<event>
 4    1  0.1551744E+006  0.2572238E+02  0.7546771E-02  0.1460882E+00
         21   -1    0    0  504  501  0.00000000000E+00  0.00000000000E+00  0.92441258027E+03  0.92441258027E+03  0.00000000000E+00 0. -1.
         21   -1    0    0  501  502 -0.00000000000E+00 -0.00000000000E+00 -0.28407241907E+01  0.28407241907E+01  0.00000000000E+00 0. -1.
         21    1    1    2  503  502 -0.19632501900E+02 -0.16619442979E+02  0.59797818477E+02  0.65095469200E+02  0.00000000000E+00 0. -1.
         21    1    1    2  504  503  0.19632501900E+02  0.16619442979E+02  0.86177403760E+03  0.86215783526E+03  0.00000000000E+00 0. -1.
</event>
<event>
 4    1  0.1551744E+006  0.2586698E+02  0.7546771E-02  0.1459334E+00
         21   -1    0    0  504  501  0.00000000000E+00  0.00000000000E+00  0.49868626382E+01  0.49868626382E+01  0.00000000000E+00 0.  1.
         21   -1    0    0  503  502 -0.00000000000E+00 -0.00000000000E+00 -0.26090381702E+03  0.26090381702E+03  0.00000000000E+00 0.  1.
         21    1    1    2  503  501 -0.20218456316E+02 -0.16134277410E+02 -0.35302271157E+02  0.43764725889E+02  0.00000000000E+00 0.  1.
         21    1    1    2  504  502  0.20218456316E+02  0.16134277410E+02 -0.22061468322E+03  0.22212595376E+03  0.00000000000E+00 0.  1.
</event>
<event>
 4    1  0.1551744E+006  0.2490343E+02  0.7546771E-02  0.1469887E+00
         21   -1    0    0  504  501  0.00000000000E+00  0.00000000000E+00  0.34354036515E+01  0.34354036515E+01  0.00000000000E+00 0.  1.
         21   -1    0    0  503  502 -0.00000000000E+00 -0.00000000000E+00 -0.48094232436E+03  0.48094232436E+03  0.00000000000E+00 0.  1.
         21    1    1    2  503  501 -0.36119541992E+01  0.24640096910E+02 -0.43016549686E+03  0.43088575664E+03  0.00000000000E+00 0.  1.
         21    1    1    2  504  502  0.36119541992E+01 -0.24640096910E+02 -0.47341423845E+02  0.53491971365E+02  0.00000000000E+00 0.  1.
</event>
<event>
 4    1  0.1551744E+006  0.2657234E+02  0.7546771E-02  0.1451952E+00
         21   -1    0    0  504  501  0.00000000000E+00  0.00000000000E+00  0.11460170769E+02  0.11460170769E+02  0.00000000000E+00 0.  1.
         21   -1    0    0  501  502 -0.00000000000E+00 -0.00000000000E+00 -0.45532347034E+03  0.45532347034E+03  0.00000000000E+00 0. -1.
         21    1    1    2  503  502  0.99819788795E+01  0.24626194680E+02 -0.43895896135E+03  0.43976250308E+03  0.00000000000E+00 0. -1.
         21    1    1    2  504  503 -0.99819788795E+01 -0.24626194680E+02 -0.49043382181E+01  0.27021138024E+02  0.00000000000E+00 0.  1.
</event>
<event>
 4    1  0.1551744E+006  0.4603033E+02  0.7546771E-02  0.1316366E+00
         21   -1    0    0  502  501  0.00000000000E+00  0.00000000000E+00  0.38028364544E+03  0.38028364544E+03  0.00000000000E+00 0.  1.
         21   -1    0    0  504  502 -0.00000000000E+00 -0.00000000000E+00 -0.39747268143E+02  0.39747268143E+02  0.00000000000E+00 0. -1.
         21    1    1    2  503  501 -0.24230230401E+02  0.39136771462E+02  0.36500859893E+03  0.36789953553E+03  0.00000000000E+00 0.  1.
         21    1    1    2  504  503  0.24230230401E+02 -0.39136771462E+02 -0.24472221639E+02  0.52131378053E+02  0.00000000000E+00 0. -1.
</event>
<event>
 4    1  0.1551744E+006  0.2139516E+02  0.7546771E-02  0.1513697E+00
         21   -1    0    0  503  501  0.00000000000E+00  0.00000000000E+00  0.90948265992E+01  0.90948265992E+01  0.00000000000E+00 0.  1.
         21   -1    0    0  504  502 -0.00000000000E+00 -0.00000000000E+00 -0.50437941327E+02  0.50437941327E+02  0.00000000000E+00 0.  1.
         21    1    1    2  503  502  0.80017802123E+01 -0.19842491526E+02 -0.19301800776E+02  0.28815143063E+02  0.00000000000E+00 0.  1.
         21    1    1    2  504  501 -0.80017802123E+01  0.19842491526E+02 -0.22041313952E+02  0.30717624864E+02  0.00000000000E+00 0.  1.
</event>
<event>
 4    1  0.1551744E+006  0.6376418E+02  0.7546771E-02  0.1247553E+00
         21   -1    0    0  503  501  0.00000000000E+00  0.00000000000E+00  0.27928565765E+03  0.27928565765E+03  0.00000000000E+00 0.  1.
         21   -1    0    0  504  502 -0.00000000000E+00 -0.00000000000E+00 -0.15632657237E+02  0.15632657237E+02  0.00000000000E+00 0.  1.
         21    1    1    2  503  502 -0.51318003380E+02  0.37846173176E+02  0.93165877322E+02  0.11289708142E+03  0.00000000000E+00 0.  1.
         21    1    1    2  504  501  0.51318003380E+02 -0.37846173176E+02  0.17048712309E+03  0.18202123347E+03  0.00000000000E+00 0.  1.
</event>
<event>
 4    1  0.1551744E+006  0.2763443E+02  0.7546771E-02  0.1441337E+00
         21   -1    0    0  502  501  0.00000000000E+00  0.00000000000E+00  0.11622859152E+03  0.11622859152E+03  0.00000000000E+00 0. -1.
         21   -1    0    0  504  502 -0.00000000000E+00 -0.00000000000E+00 -0.28133843815E+02  0.28133843815E+02  0.00000000000E+00 0.  1.
         21    1    1    2  503  501  0.43835914804E+01 -0.27284532282E+02  0.10724042352E+03  0.11074371320E+03  0.00000000000E+00 0. -1.
         21    1    1    2  504  503 -0.43835914804E+01  0.27284532282E+02 -0.19145675811E+02  0.33618722141E+02  0.00000000000E+00 0.  1.
</event>
<event>
 4    1  0.1551744E+006  0.2279397E+02  0.7546771E-02  0.1495102E+00
         21   -1    0    0  504  501  0.00000000000E+00  0.00000000000E+00  0.39585739412E+02  0.39585739412E+02  0.00000000000E+00 0.  1.
         21   -1    0    0  503  502 -0.00000000000E+00 -0.00000000000E+00 -0.25580980776E+02  0.25580980776E+02  0.00000000000E+00 0.  1.
         21    1    1    2  503  501  0.22788542448E+02  0.49747770319E+00 -0.15734204629E+02  0.27697118014E+02  0.00000000000E+00 0.  1.
         21    1    1    2  504  502 -0.22788542448E+02 -0.49747770319E+00  0.29738963265E+02  0.37469602173E+02  0.00000000000E+00 0.  1.
</event>
<event>
 4    1  0.1551744E+006  0.3052603E+02  0.7546771E-02  0.1415079E+00
         21   -1    0    0  504  501  0.00000000000E+00  0.00000000000E+00  0.37025347747E+02  0.37025347747E+02  0.00000000000E+00 0. -1.
         21   -1    0    0  501  502 -0.00000000000E+00 -0.00000000000E+00 -0.30634952390E+02  0.30634952390E+02  0.00000000000E+00 0. -1.
         21    1    1    2  503  502  0.17328927102E+02  0.25130595709E+02 -0.11096521768E+02  0.32480322513E+02  0.00000000000E+00 0. -1.
         21    1    1    2  504  503 -0.17328927102E+02 -0.25130595709E+02  0.17486917125E+02  0.35179977625E+02  0.00000000000E+00 0. -1.
</event>
<event>
 4    1  0.1551744E+006  0.4175274E+02  0.7546771E-02  0.1338510E+00
         21   -1    0    0  504  501  0.00000000000E+00  0.00000000000E+00  0.12107738061E+03  0.12107738061E+03  0.00000000000E+00 0. -1.
         21   -1    0    0  501  502 -0.00000000000E+00 -0.00000000000E+00 -0.18298757857E+02  0.18298757857E+02  0.00000000000E+00 0. -1.
         21    1    1    2  503  502  0.40302921807E+02  0.10907138299E+02  0.19214695842E+02  0.45961894089E+02  0.00000000000E+00 0. -1.
         21    1    1    2  504  503 -0.40302921807E+02 -0.10907138299E+02  0.83563926915E+02  0.93414244382E+02  0.00000000000E+00 0. -1.
</event>
<event>
 4    1  0.1551744E+006  0.2150883E+02  0.7546771E-02  0.1512123E+00
         21   -1    0    0  503  501  0.00000000000E+00  0.00000000000E+00  0.19198483587E+02  0.19198483587E+02  0.00000000000E+00 0. -1.
         21   -1    0    0  504  502 -0.00000000000E+00 -0.00000000000E+00 -0.12319539076E+03  0.12319539076E+03  0.00000000000E+00 0. -1.
         21    1    1    2  503  502  0.21439203962E+02 -0.17292861669E+01 -0.11585374946E+03  0.11783344670E+03  0.00000000000E+00 0. -1.
         21    1    1    2  504  501 -0.21439203962E+02  0.17292861669E+01  0.11856842288E+02  0.24560427647E+02  0.00000000000E+00 0. -1.
</event>
<event>
 4    1  0.1551744E+006  0.2349267E+02  0.7546771E-02  0.1486403E+00
         21   -1    0    0  504  501  0.00000000000E+00  0.00000000000E+00  0.10836847727E+02  0.10836847727E+02  0.00000000000E+00 0.  1.
         21   -1    0    0  501  502 -0.00000000000E+00 -0.00000000000E+00 -0.58455524569E+02  0.58455524569E+02  0.00000000000E+00 0.  1.
         21    1    1    2  503  502  0.21327813193E+02 -0.98503832908E+01 -0.36241623119E+02  0.43189824182E+02  0.00000000000E+00 0.  1.
         21    1    1    2  504  503 -0.21327813193E+02  0.98503832908E+01 -0.11377053724E+02  0.26102548113E+02  0.00000000000E+00 0.  1.
</event>
<event>
 4    1  0.1551744E+006  0.2284968E+02  0.7546771E-02  0.1494394E+00
         21   -1    0    0  503  501  0.00000000000E+00  0.00000000000E+00  0.99260913120E+01  0.99260913120E+01  0.00000000000E+00 0. -1.
         21   -1    0    0  504  502 -0.00000000000E+00 -0.00000000000E+00 -0.21601961208E+03  0.21601961208E+03  0.00000000000E+00 0.  1.
         21    1    1    2  503  502  0.22809160207E+02 -0.13601136817E+01 -0.20130754280E+03  0.20260018382E+03  0.00000000000E+00 0.  1.
         21    1    1    2  504  501 -0.22809160207E+02  0.13601136817E+01 -0.47859779666E+01  0.23345519564E+02  0.00000000000E+00 0. -1.
</event>
<event>
 4    1  0.1551744E+006  0.2639202E+02  0.7546771E-02  0.1453813E+00
         21   -1    0    0  504  501  0.00000000000E+00  0.00000000000E+00  0.22641931377E+03  0.22641931377E+03  0.00000000000E+00 0. -1.
         21   -1    0    0  501  502 -0.00000000000E+00 -0.00000000000E+00 -0.35105710902E+01  0.35105710902E+01  0.00000000000E+00 0. -1.
         21    1    1    2  503  502 -0.19930216538E+02  0.17301023854E+02  0.71020486909E+02  0.75765747659E+02  0.00000000000E+00 0. -1.
         21    1    1    2  504  503  0.19930216538E+02 -0.17301023854E+02  0.15188825577E+03  0.15416413720E+03  0.00000000000E+00 0. -1.
</event>
<event>
 4    1  0.1551744E+006  0.2497560E+02  0.7546771E-02  0.1469077E+00
         21   -1    0    0  503  501  0.00000000000E+00  0.00000000000E+00  0.20674597659E+03  0.20674597659E+03  0.00000000000E+00 0.  1.
         21   -1    0    0  504  502 -0.00000000000E+00 -0.00000000000E+00 -0.51654219588E+01  0.51654219588E+01  0.00000000000E+00 0. -1.
         21    1    1    2  503  502 -0.12577381063E+02 -0.21577534220E+02  0.32459308563E+02  0.40955917885E+02  0.00000000000E+00 0. -1.
         21    1    1    2  504  501  0.12577381063E+02  0.21577534220E+02  0.16912124607E+03  0.17095548067E+03  0.00000000000E+00 0.  1.
</event>
<event>
 4    1  0.1551744E+006  0.2104673E+02  0.7546771E-02  0.1518599E+00
         21   -1    0    0  504  501  0.00000000000E+00  0.00000000000E+00  0.76957197796E+00  0.76957197796E+00  0.00000000000E+00 0.  1.
         21   -1    0    0  503  502 -0.00000000000E+00 -0.00000000000E+00 -0.59052599112E+03  0.59052599112E+03  0.00000000000E+00 0.  1.
         21    1    1    2  503  501 -0.15743662921E+02  0.13967890062E+02 -0.34188287748E+03  0.34253009618E+03  0.00000000000E+00 0.  1.
         21    1    1    2  504  502  0.15743662921E+02 -0.13967890062E+02 -0.24787354166E+03  0.24876546692E+03  0.00000000000E+00 0.  1.
</event>
<event>
 4    1  0.1551744E+006  0.2047130E+02  0.7546771E-02  0.1526949E+00
         21   -1    0    0  502  501  0.00000000000E+00  0.00000000000E+00  0.43430985232E+03  0.43430985232E+03  0.00000000000E+00 0. -1.
         21   -1    0    0  503  502 -0.00000000000E+00 -0.00000000000E+00 -0.58066279088E+01  0.58066279088E+01  0.00000000000E+00 0.  1.
         21    1    1    2  503  504  0.13512636854E+02  0.15377997710E+02  0.13307660158E+02  0.24416551501E+02  0.00000000000E+00 0.  1.
         21    1    1    2  504  501 -0.13512636854E+02 -0.15377997710E+02  0.41519556425E+03  0.41569992873E+03  0.00000000000E+00 0. -1.
</event>
<event>
 4    1  0.1551744E+006  0.2037308E+02  0.7546771E-02  0.1528407E+00
         21   -1    0    0  504  501  0.00000000000E+00  0.00000000000E+00  0.10135001663E+03  0.10135001663E+03  0.00000000000E+00 0. -1.
         21   -1    0    0  501  502 -0.00000000000E+00 -0.00000000000E+00 -0.91706951090E+01  0.91706951090E+01  0.00000000000E+00 0. -1.
         21    1    1    2  503  502  0.20322061870E+02  0.14409127439E+01  0.49798086723E+01  0.20972861574E+02  0.00000000000E+00 0. -1.
         21    1    1    2  504  503 -0.20322061870E+02 -0.14409127439E+01  0.87199512853E+02  0.89547850169E+02  0.00000000000E+00 0. -1.
</event>
<event>
 4    1  0.1551744E+006  0.2081187E+02  0.7546771E-02  0.1521968E+00
         21   -1    0    0  503  501  0.00000000000E+00  0.00000000000E+00  0.34497669139E+01  0.34497669139E+01  0.00000000000E+00 0.  1.
         21   -1    0    0  504  502 -0.00000000000E+00 -0.00000000000E+00 -0.26998491883E+03  0.26998491883E+03  0.00000000000E+00 0.  1.
         21    1    1    2  503  502  0.20472283300E+02 -0.37442811221E+01 -0.23326367924E+03  0.23419026043E+03  0.00000000000E+00 0.  1.
         21    1    1    2  504  501 -0.20472283300E+02  0.37442811221E+01 -0.33271472672E+02  0.39244425317E+02  0.00000000000E+00 0.  1.
</event>
<event>
 4    1  0.1551744E+006  0.3883317E+02  0.7546771E-02  0.1355462E+00
         21   -1    0    0  504  501  0.00000000000E+00  0.00000000000E+00  0.47958494612E+02  0.47958494612E+02  0.00000000000E+00 0. -1.
         21   -1    0    0  503  502 -0.00000000000E+00 -0.00000000000E+00 -0.34165272544E+02  0.34165272544E+02  0.00000000000E+00 0. -1.
         21    1    1    2  503  501  0.37015534334E+02 -0.11741604568E+02 -0.46916661012E+01  0.39115556888E+02  0.00000000000E+00 0. -1.
         21    1    1    2  504  502 -0.37015534334E+02  0.11741604568E+02  0.18484888169E+02  0.43008210268E+02  0.00000000000E+00 0. -1.
</event>
<event>
 4    1  0.1551744E+006  0.2009370E+02  0.7546771E-02  0.1532608E+00
         21   -1    0    0  504  501  0.00000000000E+00  0.00000000000E+00  0.12640238151E+01  0.12640238151E+01  0.00000000000E+00 0.  1.
         21   -1    0    0  503  502 -0.00000000000E+00 -0.00000000000E+00 -0.33009128121E+03  0.33009128121E+03  0.00000000000E+00 0.  1.
         21    1    1    2  503  501  0.34592269333E+01  0.19793703718E+02 -0.19419984975E+03  0.19523662207E+03  0.00000000000E+00 0.  1.
         21    1    1    2  504  502 -0.34592269333E+01 -0.19793703718E+02 -0.13462740765E+03  0.13611868296E+03  0.00000000000E+00 0.  1.
</event>
<event>
 4    1  0.1551744E+006  0.2206312E+02  0.7546771E-02  0.1504610E+00
         21   -1    0    0  504  501  0.00000000000E+00  0.00000000000E+00  0.31917405550E+01  0.31917405550E+01  0.00000000000E+00 0. -1.
         21   -1    0    0  501  502 -0.00000000000E+00 -0.00000000000E+00 -0.27455919573E+03  0.27455919573E+03  0.00000000000E+00 0. -1.
         21    1    1    2  503  502  0.20940791861E+02  0.69472797908E+01 -0.22827497235E+03  0.22933871121E+03  0.00000000000E+00 0. -1.
         21    1    1    2  504  503 -0.20940791861E+02 -0.69472797908E+01 -0.43092482827E+02  0.48412225073E+02  0.00000000000E+00 0. -1.
</event>
<event>
 4    1  0.1551744E+006  0.2503889E+02  0.7546771E-02  0.1468369E+00
         21   -1    0    0  504  501  0.00000000000E+00  0.00000000000E+00  0.75173923716E+01  0.75173923716E+01  0.00000000000E+00 0. -1.
         21   -1    0    0  501  502 -0.00000000000E+00 -0.00000000000E+00 -0.22113646735E+03  0.22113646735E+03  0.00000000000E+00 0.  1.
         21    1    1    2  503  502  0.40859628780E+01  0.24703261266E+02 -0.19703803637E+03  0.19862259183E+03  0.00000000000E+00 0.  1.
         21    1    1    2  504  503 -0.40859628780E+01 -0.24703261266E+02 -0.16581038613E+02  0.30031267893E+02  0.00000000000E+00 0. -1.
</event>
<event>
 4    1  0.1551744E+006  0.2059070E+02  0.7546771E-02  0.1525190E+00
         21   -1    0    0  504  501  0.00000000000E+00  0.00000000000E+00  0.33077849546E+01  0.33077849546E+01  0.00000000000E+00 0. -1.
         21   -1    0    0  503  502 -0.00000000000E+00 -0.00000000000E+00 -0.14202444376E+03  0.14202444376E+03  0.00000000000E+00 0. -1.
         21    1    1    2  503  501  0.65986114534E+01 -0.19504750044E+02 -0.46667053344E+02  0.51007752501E+02  0.00000000000E+00 0. -1.
         21    1    1    2  504  502 -0.65986114534E+01  0.19504750044E+02 -0.92049605462E+02  0.94324476214E+02  0.00000000000E+00 0. -1.
</event>
<event>
 4    1  0.1551744E+006  0.2211885E+02  0.7546771E-02  0.1503869E+00
         21   -1    0    0  503  501  0.00000000000E+00  0.00000000000E+00  0.13084906714E+03  0.13084906714E+03  0.00000000000E+00 0.  1.
         21   -1    0    0  504  502 -0.00000000000E+00 -0.00000000000E+00 -0.39911010233E+01  0.39911010233E+01  0.00000000000E+00 0.  1.
         21    1    1    2  503  502 -0.27621718733E+01 -0.21945704419E+02  0.80373829853E+02  0.83361838159E+02  0.00000000000E+00 0.  1.
         21    1    1    2  504  501  0.27621718733E+01  0.21945704419E+02  0.46484136261E+02  0.51478330003E+02  0.00000000000E+00 0.  1.
</event>
<event>
 4    1  0.1551744E+006  0.2439177E+02  0.7546771E-02  0.1475724E+00
         21   -1    0    0  504  501  0.00000000000E+00  0.00000000000E+00  0.23606082187E+03  0.23606082187E+03  0.00000000000E+00 0. -1.
         21   -1    0    0  503  502 -0.00000000000E+00 -0.00000000000E+00 -0.47833455961E+01  0.47833455961E+01  0.00000000000E+00 0. -1.
         21    1    1    2  503  501  0.20563824342E+02  0.13118209459E+02  0.19846749386E+03  0.19996075717E+03  0.00000000000E+00 0. -1.
         21    1    1    2  504  502 -0.20563824342E+02 -0.13118209459E+02  0.32809982411E+02  0.40883410288E+02  0.00000000000E+00 0. -1.
</event>
<event>
 4    1  0.1551744E+006  0.2842587E+02  0.7546771E-02  0.1433788E+00
         21   -1    0    0  502  501  0.00000000000E+00  0.00000000000E+00  0.24924995054E+03  0.24924995054E+03  0.00000000000E+00 0.  1.
         21   -1    0    0  503  502 -0.00000000000E+00 -0.00000000000E+00 -0.17615867703E+03  0.17615867703E+03  0.00000000000E+00 0.  1.
         21    1    1    2  503  504  0.27680259557E+02 -0.64678692296E+01 -0.17419239083E+03  0.17649651306E+03  0.00000000000E+00 0.  1.
         21    1    1    2  504  501 -0.27680259557E+02  0.64678692296E+01  0.24728366433E+03  0.24891211450E+03  0.00000000000E+00 0.  1.
</event>
<event>
 4    1  0.1551744E+006  0.2192188E+02  0.7546771E-02  0.1506499E+00
         21   -1    0    0  503  501  0.00000000000E+00  0.00000000000E+00  0.14344436928E+03  0.14344436928E+03  0.00000000000E+00 0.  1.
         21   -1    0    0  501  502 -0.00000000000E+00 -0.00000000000E+00 -0.14865140779E+03  0.14865140779E+03  0.00000000000E+00 0.  1.
         21    1    1    2  503  504 -0.15402887275E+02 -0.15598714046E+02  0.14178922351E+03  0.14347387469E+03  0.00000000000E+00 0.  1.
         21    1    1    2  504  502  0.15402887275E+02  0.15598714046E+02 -0.14699626202E+03  0.14862190237E+03  0.00000000000E+00 0.  1.
</event>
<event>
 4    1  0.1551744E+006  0.2433509E+02  0.7546771E-02  0.1476381E+00
         21   -1    0    0  502  501  0.00000000000E+00  0.00000000000E+00  0.15160781269E+02  0.15160781269E+02  0.00000000000E+00 0. -1.
         21   -1    0    0  504  502 -0.00000000000E+00 -0.00000000000E+00 -0.10606746532E+03  0.10606746532E+03  0.00000000000E+00 0. -1.
         21    1    1    2  503  501  0.65724107644E+01 -0.23430749843E+02  0.27237741172E+01  0.24487048963E+02  0.00000000000E+00 0. -1.
         21    1    1    2  504  503 -0.65724107644E+01  0.23430749843E+02 -0.93630458163E+02  0.96741197622E+02  0.00000000000E+00 0. -1.
</event>
<event>
 4    1  0.1551744E+006  0.2475997E+02  0.7546771E-02  0.1471507E+00
         21   -1    0    0  504  501  0.00000000000E+00  0.00000000000E+00  0.11882610813E+01  0.11882610813E+01  0.00000000000E+00 0.  1.
         21   -1    0    0  501  502 -0.00000000000E+00 -0.00000000000E+00 -0.84051772700E+03  0.84051772700E+03  0.00000000000E+00 0.  1.
         21    1    1    2  503  502 -0.14292913709E+02  0.20218029718E+02 -0.68119680937E+03  0.68164664541E+03  0.00000000000E+00 0.  1.
         21    1    1    2  504  503  0.14292913709E+02 -0.20218029718E+02 -0.15813265654E+03  0.16005934266E+03  0.00000000000E+00 0.  1.
</event>
<event>
 4    1  0.1551744E+006  0.2312719E+02  0.7546771E-02  0.1490907E+00
         21   -1    0    0  503  501  0.00000000000E+00  0.00000000000E+00  0.17159188229E+03  0.17159188229E+03  0.00000000000E+00 0.  1.
         21   -1    0    0  504  502 -0.00000000000E+00 -0.00000000000E+00 -0.38673942860E+01  0.38673942860E+01  0.00000000000E+00 0.  1.
         21    1    1    2  503  502  0.17588426504E+02  0.15017129299E+02  0.12250397181E+03  0.12466791900E+03  0.00000000000E+00 0.  1.
         21    1    1    2  504  501 -0.17588426504E+02 -0.15017129299E+02  0.45220516193E+02  0.50791357573E+02  0.00000000000E+00 0.  1.
</event>
<event>
 4    1  0.1551744E+006  0.2037841E+02  0.7546771E-02  0.1528328E+00
         21   -1    0    0  502  501  0.00000000000E+00  0.00000000000E+00  0.79363560681E+01  0.79363560681E+01  0.00000000000E+00 0.  1.
         21   -1    0    0  503  502 -0.00000000000E+00 -0.00000000000E+00 -0.52598854972E+02  0.52598854972E+02  0.00000000000E+00 0.  1.
         21    1    1    2  503  504 -0.20311362241E+02 -0.16516824665E+01 -0.20152120324E+02  0.28659857722E+02  0.00000000000E+00 0.  1.
         21    1    1    2  504  501  0.20311362241E+02  0.16516824665E+01 -0.24510378580E+02  0.31875353319E+02  0.00000000000E+00 0.  1.
</event>
<event>
 4    1  0.1551744E+006  0.2277643E+02  0.7546771E-02  0.1495325E+00
         21   -1    0    0  503  501  0.00000000000E+00  0.00000000000E+00  0.12169011121E+04  0.12169011121E+04  0.00000000000E+00 0. -1.
         21   -1    0    0  501  502 -0.00000000000E+00 -0.00000000000E+00 -0.32015124412E+03  0.32015124412E+03  0.00000000000E+00 0.  1.
         21    1    1    2  503  504  0.10595653930E+02  0.20161789266E+02  0.12163892723E+04  0.12166024936E+04  0.00000000000E+00 0. -1.
         21    1    1    2  504  502 -0.10595653930E+02 -0.20161789266E+02 -0.31963940435E+03  0.32044986260E+03  0.00000000000E+00 0.  1.
</event>
<event>
 4    1  0.1551744E+006  0.2786438E+02  0.7546771E-02  0.1439113E+00
         21   -1    0    0  503  501  0.00000000000E+00  0.00000000000E+00  0.17839438810E+02  0.17839438810E+02  0.00000000000E+00 0. -1.
         21   -1    0    0  501  502 -0.00000000000E+00 -0.00000000000E+00 -0.92630998158E+02  0.92630998158E+02  0.00000000000E+00 0.  1.
         21    1    1    2  503  504 -0.14615464597E+02  0.23723658447E+02  0.28216716767E+01  0.28006884985E+02  0.00000000000E+00 0. -1.
         21    1    1    2  504  502  0.14615464597E+02 -0.23723658447E+02 -0.77613231025E+02  0.82463551983E+02  0.00000000000E+00 0.  1.
</event>
<event>
 4    1  0.1551744E+006  0.2292951E+02  0.7546771E-02  0.1493385E+00
         21   -1    0    0  503  501  0.00000000000E+00  0.00000000000E+00  0.30389812247E+01  0.30389812247E+01  0.00000000000E+00 0.  1.
         21   -1    0    0  504  502 -0.00000000000E+00 -0.00000000000E+00 -0.25157299803E+03  0.25157299803E+03  0.00000000000E+00 0.  1.
         21    1    1    2  503  502 -0.14866639680E+02  0.17456961869E+02 -0.53123309223E+02  0.57860595191E+02  0.00000000000E+00 0.  1.
         21    1    1    2  504  501  0.14866639680E+02 -0.17456961869E+02 -0.19541070759E+03  0.19675138407E+03  0.00000000000E+00 0.  1.
</event>
<event>
 4    1  0.1551744E+006  0.2526130E+02  0.7546771E-02  0.1465901E+00
         21   -1    0    0  503  501  0.00000000000E+00  0.00000000000E+00  0.89126087850E+02  0.89126087850E+02  0.00000000000E+00 0. -1.
         21   -1    0    0  504  502 -0.00000000000E+00 -0.00000000000E+00 -0.31171333005E+02  0.31171333005E+02  0.00000000000E+00 0. -1.
         21    1    1    2  503  502 -0.24195794513E+02 -0.72592534234E+01 -0.23813361187E+02  0.34716125984E+02  0.00000000000E+00 0. -1.
         21    1    1    2  504  501  0.24195794513E+02  0.72592534234E+01  0.81768116032E+02  0.85581294870E+02  0.00000000000E+00 0. -1.
</event>
<event>
 4    1  0.1551744E+006  0.3342825E+02  0.7546771E-02  0.1391963E+00
         21   -1    0    0  504  501  0.00000000000E+00  0.00000000000E+00  0.56436402825E+02  0.56436402825E+02  0.00000000000E+00 0.  1.
         21   -1    0    0  503  502 -0.00000000000E+00 -0.00000000000E+00 -0.22176414434E+03  0.22176414434E+03  0.00000000000E+00 0. -1.
         21    1    1    2  503  501 -0.30254287957E+02  0.14217094126E+02 -0.21540922309E+03  0.21798757097E+03  0.00000000000E+00 0. -1.
         21    1    1    2  504  502  0.30254287957E+02 -0.14217094126E+02  0.50081481576E+02  0.60212976193E+02  0.00000000000E+00 0.  1.
</event>
<event>
 4    1  0.1551744E+006  0.3384799E+02  0.7546771E-02  0.1388848E+00
         21   -1    0    0  502  501  0.00000000000E+00  0.00000000000E+00  0.19321544576E+02  0.19321544576E+02  0.00000000000E+00 0. -1.
         21   -1    0    0  503  502 -0.00000000000E+00 -0.00000000000E+00 -0.12362588696E+03  0.12362588696E+03  0.00000000000E+00 0. -1.
         21    1    1    2  503  504  0.30856768955E+02  0.13912099011E+02 -0.10371048158E+03  0.10909422844E+03  0.00000000000E+00 0. -1.
         21    1    1    2  504  501 -0.30856768955E+02 -0.13912099011E+02 -0.59386080467E+00  0.33853203097E+02  0.00000000000E+00 0. -1.
</event>
<event>
 4    1  0.1551744E+006  0.2156141E+02  0.7546771E-02  0.1511398E+00
         21   -1    0    0  503  501  0.00000000000E+00  0.00000000000E+00  0.16975323466E+03  0.16975323466E+03  0.00000000000E+00 0. -1.
         21   -1    0    0  504  502 -0.00000000000E+00 -0.00000000000E+00 -0.47709826793E+01  0.47709826793E+01  0.00000000000E+00 0. -1.
         21    1    1    2  503  502 -0.21467584386E+02 -0.20092715193E+01  0.25537759429E+02  0.33422619707E+02  0.00000000000E+00 0. -1.
         21    1    1    2  504  501  0.21467584386E+02  0.20092715193E+01  0.13944449255E+03  0.14110159763E+03  0.00000000000E+00 0. -1.
</event>
<event>
 4    1  0.1551744E+006  0.2403496E+02  0.7546771E-02  0.1479896E+00
         21   -1    0    0  503  501  0.00000000000E+00  0.00000000000E+00  0.46586195403E+02  0.46586195403E+02  0.00000000000E+00 0.  1.
         21   -1    0    0  501  502 -0.00000000000E+00 -0.00000000000E+00 -0.50107048173E+02  0.50107048173E+02  0.00000000000E+00 0. -1.
         21    1    1    2  503  504 -0.14333536407E+02  0.19293234339E+02  0.40179408287E+02  0.46819483204E+02  0.00000000000E+00 0.  1.
         21    1    1    2  504  502  0.14333536407E+02 -0.19293234339E+02 -0.43700261057E+02  0.49873760372E+02  0.00000000000E+00 0. -1.
</event>
<event>
 4    1  0.1551744E+006  0.7003067E+02  0.7546771E-02  0.1229099E+00
         21   -1    0    0  504  501  0.00000000000E+00  0.00000000000E+00  0.17971423349E+02  0.17971423349E+02  0.00000000000E+00 0. -1.
         21   -1    0    0  503  502 -0.00000000000E+00 -0.00000000000E+00 -0.62546122225E+03  0.62546122225E+03  0.00000000000E+00 0. -1.
         21    1    1    2  503  501  0.49971885556E+01  0.69852148183E+02 -0.62202243278E+02  0.93666501846E+02  0.00000000000E+00 0. -1.
         21    1    1    2  504  502 -0.49971885556E+01 -0.69852148183E+02 -0.54528755562E+03  0.54976614375E+03  0.00000000000E+00 0. -1.
</event>
<event>
 4    1  0.1551744E+006  0.2579251E+02  0.7546771E-02  0.1460130E+00
         21   -1    0    0  503  501  0.00000000000E+00  0.00000000000E+00  0.46699158511E+02  0.46699158511E+02  0.00000000000E+00 0.  1.
         21   -1    0    0  501  502 -0.00000000000E+00 -0.00000000000E+00 -0.24750705774E+03  0.24750705774E+03  0.00000000000E+00 0.  1.
         21    1    1    2  503  504  0.18301395322E+02 -0.18174506192E+02  0.42403092325E+02  0.49631401197E+02  0.00000000000E+00 0.  1.
         21    1    1    2  504  502 -0.18301395322E+02  0.18174506192E+02 -0.24321099156E+03  0.24457481506E+03  0.00000000000E+00 0.  1.
</event>
<event>
 4    1  0.1551744E+006  0.4561800E+02  0.7546771E-02  0.1318378E+00
         21   -1    0    0  504  501  0.00000000000E+00  0.00000000000E+00  0.31206087270E+03  0.31206087270E+03  0.00000000000E+00 0.  1.
         21   -1    0    0  501  502 -0.00000000000E+00 -0.00000000000E+00 -0.16283481775E+02  0.16283481775E+02  0.00000000000E+00 0. -1.
         21    1    1    2  503  502  0.39476080036E+02 -0.22861349192E+02  0.21735458338E+02  0.50531498405E+02  0.00000000000E+00 0. -1.
         21    1    1    2  504  503 -0.39476080036E+02  0.22861349192E+02  0.27404193259E+03  0.27781285607E+03  0.00000000000E+00 0.  1.
</event>
<event>
 4    1  0.1551744E+006  0.2018251E+02  0.7546771E-02  0.1531264E+00
         21   -1    0    0  504  501  0.00000000000E+00  0.00000000000E+00  0.12565415062E+02  0.12565415062E+02  0.00000000000E+00 0.  1.
         21   -1    0    0  503  502 -0.00000000000E+00 -0.00000000000E+00 -0.83807651282E+02  0.83807651282E+02  0.00000000000E+00 0.  1.
         21    1    1    2  503  501  0.17410328833E+02  0.10208543556E+02  0.21122542471E+01  0.20292745738E+02  0.00000000000E+00 0.  1.
         21    1    1    2  504  502 -0.17410328833E+02 -0.10208543556E+02 -0.73354490468E+02  0.76080320605E+02  0.00000000000E+00 0.  1.
</event>
<event>
 4    1  0.1551744E+006  0.2673983E+02  0.7546771E-02  0.1450239E+00
         21   -1    0    0  503  501  0.00000000000E+00  0.00000000000E+00  0.37595346605E+02  0.37595346605E+02  0.00000000000E+00 0. -1.
         21   -1    0    0  504  502 -0.00000000000E+00 -0.00000000000E+00 -0.19970003796E+02  0.19970003796E+02  0.00000000000E+00 0. -1.
         21    1    1    2  503  502  0.96443429891E+01  0.24940030494E+02  0.15094387371E+02  0.30706009230E+02  0.00000000000E+00 0. -1.
         21    1    1    2  504  501 -0.96443429891E+01 -0.24940030494E+02  0.25309554385E+01  0.26859341171E+02  0.00000000000E+00 0. -1.
</event>
<event>
 4    1  0.1551744E+006  0.1333889E+03  0.7546771E-02  0.1115975E+00
         21   -1    0    0  503  501  0.00000000000E+00  0.00000000000E+00  0.12927989283E+04  0.12927989283E+04  0.00000000000E+00 0. -1.
         21   -1    0    0  504  502 -0.00000000000E+00 -0.00000000000E+00 -0.32101753614E+02  0.32101753614E+02  0.00000000000E+00 0.  1.
         21    1    1    2  503  502 -0.41552208333E+02  0.12675180545E+03  0.12965093423E+03  0.18601605025E+03  0.00000000000E+00 0.  1.
         21    1    1    2  504  501  0.41552208333E+02 -0.12675180545E+03  0.11310462404E+04  0.11388846317E+04  0.00000000000E+00 0. -1.
</event>
<event>
 4    1  0.1551744E+006  0.2641091E+02  0.7546771E-02  0.1453617E+00
         21   -1    0    0  504  501  0.00000000000E+00  0.00000000000E+00  0.13239364141E+03  0.13239364141E+03  0.00000000000E+00 0. -1.
         21   -1    0    0  503  502 -0.00000000000E+00 -0.00000000000E+00 -0.20598146283E+02  0.20598146283E+02  0.00000000000E+00 0.  1.
         21    1    1    2  503  501 -0.26049508901E+02  0.43542287325E+01  0.12188923955E+03  0.12471777315E+03  0.00000000000E+00 0. -1.
         21    1    1    2  504  502  0.26049508901E+02 -0.43542287325E+01 -0.10093744423E+02  0.28274014542E+02  0.00000000000E+00 0.  1.
</event>
<event>
 4    1  0.1551744E+006  0.2760888E+02  0.7546771E-02  0.1441586E+00
         21   -1    0    0  503  501  0.00000000000E+00  0.00000000000E+00  0.22610023963E+01  0.22610023963E+01  0.00000000000E+00 0. -1.
         21   -1    0    0  504  502 -0.00000000000E+00 -0.00000000000E+00 -0.33747369497E+03  0.33747369497E+03  0.00000000000E+00 0. -1.
         21    1    1    2  503  502  0.61471409136E+01 -0.26915847551E+02 -0.17303270375E+03  0.17522147915E+03  0.00000000000E+00 0. -1.
         21    1    1    2  504  501 -0.61471409136E+01  0.26915847551E+02 -0.16217998883E+03  0.16451321822E+03  0.00000000000E+00 0. -1.
</event>
<event>
 4    1  0.1551744E+006  0.3053076E+02  0.7546771E-02  0.1415039E+00
         21   -1    0    0  503  501  0.00000000000E+00  0.00000000000E+00  0.66201642272E+02  0.66201642272E+02  0.00000000000E+00 0.  1.
         21   -1    0    0  504  502 -0.00000000000E+00 -0.00000000000E+00 -0.88476301752E+03  0.88476301752E+03  0.00000000000E+00 0. -1.
         21    1    1    2  503  502 -0.12211129807E+02  0.27982412161E+02  0.62403055668E+02  0.69471349765E+02  0.00000000000E+00 0.  1.
         21    1    1    2  504  501  0.12211129807E+02 -0.27982412161E+02 -0.88096443091E+03  0.88149331002E+03  0.00000000000E+00 0. -1.
</event>
<event>
 4    1  0.1551744E+006  0.2169347E+02  0.7546771E-02  0.1509590E+00
         21   -1    0    0  504  501  0.00000000000E+00  0.00000000000E+00  0.67760506579E+02  0.67760506579E+02  0.00000000000E+00 0.  1.
         21   -1    0    0  503  502 -0.00000000000E+00 -0.00000000000E+00 -0.38003586486E+02  0.38003586486E+02  0.00000000000E+00 0.  1.
         21    1    1    2  503  501  0.20723868831E+02  0.64131183459E+01 -0.32927909288E+02  0.39431637505E+02  0.00000000000E+00 0.  1.
         21    1    1    2  504  502 -0.20723868831E+02 -0.64131183459E+01  0.62684829381E+02  0.66332455561E+02  0.00000000000E+00 0.  1.
</event>
<event>
 4    1  0.1551744E+006  0.2084221E+02  0.7546771E-02  0.1521530E+00
         21   -1    0    0  504  501  0.00000000000E+00  0.00000000000E+00  0.69799463459E+01  0.69799463459E+01  0.00000000000E+00 0. -1.
         21   -1    0    0  503  502 -0.00000000000E+00 -0.00000000000E+00 -0.91202255496E+02  0.91202255496E+02  0.00000000000E+00 0.  1.
         21    1    1    2  503  501  0.13511498367E+02 -0.15869374373E+02 -0.69777572778E+02  0.72823809938E+02  0.00000000000E+00 0.  1.
         21    1    1    2  504  502 -0.13511498367E+02  0.15869374373E+02 -0.14444736372E+02  0.25358391904E+02  0.00000000000E+00 0. -1.
</event>
<event>
 4    1  0.1551744E+006  0.2376352E+02  0.7546771E-02  0.1483127E+00
         21   -1    0    0  504  501  0.00000000000E+00  0.00000000000E+00  0.57290851146E+01  0.57290851146E+01  0.00000000000E+00 0.  1.
         21   -1    0    0  503  502 -0.00000000000E+00 -0.00000000000E+00 -0.16407019362E+03  0.16407019362E+03  0.00000000000E+00 0.  1.
         21    1    1    2  503  501 -0.63464984456E+01  0.22900365733E+02 -0.25526853585E+02  0.34875851921E+02  0.00000000000E+00 0.  1.
         21    1    1    2  504  502  0.63464984456E+01 -0.22900365733E+02 -0.13281425492E+03  0.13492342681E+03  0.00000000000E+00 0.  1.
</event>
<event>
 4    1  0.1551744E+006  0.2204098E+02  0.7546771E-02  0.1504905E+00
         21   -1    0    0  503  501  0.00000000000E+00  0.00000000000E+00  0.11006800317E+04  0.11006800317E+04  0.00000000000E+00 0. -1.
         21   -1    0    0  501  502 -0.00000000000E+00 -0.00000000000E+00 -0.97716465310E+01  0.97716465310E+01  0.00000000000E+00 0.  1.
         21    1    1    2  503  504 -0.40419899064E+01  0.21667191273E+02  0.10879958638E+04  0.10882190976E+04  0.00000000000E+00 0. -1.
         21    1    1    2  504  502  0.40419899064E+01 -0.21667191273E+02  0.29125214161E+01  0.22232580621E+02  0.00000000000E+00 0.  1.
</event>
<event>
 4    1  0.1551744E+006  0.3379616E+02  0.7546771E-02  0.1389230E+00
         21   -1    0    0  503  501  0.00000000000E+00  0.00000000000E+00  0.54872488426E+01  0.54872488426E+01  0.00000000000E+00 0.  1.
         21   -1    0    0  504  502 -0.00000000000E+00 -0.00000000000E+00 -0.57061795855E+03  0.57061795855E+03  0.00000000000E+00 0.  1.
         21    1    1    2  503  502 -0.32786452534E+02  0.81993392687E+01 -0.52986000789E+02  0.62846614180E+02  0.00000000000E+00 0.  1.
         21    1    1    2  504  501  0.32786452534E+02 -0.81993392687E+01 -0.51214470891E+03  0.51325859321E+03  0.00000000000E+00 0.  1.
</event>
<event>
 4    1  0.1551744E+006  0.5657530E+02  0.7546771E-02  0.1271934E+00
         21   -1    0    0  504  501  0.00000000000E+00  0.00000000000E+00  0.98914638622E+01  0.98914638622E+01  0.00000000000E+00 0.  1.
         21   -1    0    0  503  502 -0.00000000000E+00 -0.00000000000E+00 -0.33300652932E+03  0.33300652932E+03  0.00000000000E+00 0.  1.
         21    1    1    2  503  501 -0.56400501164E+02 -0.44438512945E+01 -0.13272467568E+03  0.14427960313E+03  0.00000000000E+00 0.  1.
         21    1    1    2  504  502  0.56400501164E+02  0.44438512945E+01 -0.19039038977E+03  0.19861839004E+03  0.00000000000E+00 0.  1.
</event>
<event>
 4    1  0.1551744E+006  0.2763623E+02  0.7546771E-02  0.1441320E+00
         21   -1    0    0  503  501  0.00000000000E+00  0.00000000000E+00  0.44207091514E+02  0.44207091514E+02  0.00000000000E+00 0. -1.
         21   -1    0    0  501  502 -0.00000000000E+00 -0.00000000000E+00 -0.24125304809E+03  0.24125304809E+03  0.00000000000E+00 0.  1.
         21    1    1    2  503  504 -0.27482133918E+02 -0.29143878112E+01  0.39001486300E+02  0.47800389900E+02  0.00000000000E+00 0. -1.
         21    1    1    2  504  502  0.27482133918E+02  0.29143878112E+01 -0.23604744288E+03  0.23765974971E+03  0.00000000000E+00 0.  1.
</event>
<event>
 4    1  0.1551744E+006  0.2358899E+02  0.7546771E-02  0.1485232E+00
         21   -1    0    0  503  501  0.00000000000E+00  0.00000000000E+00  0.68704888242E+02  0.68704888242E+02  0.00000000000E+00 0. -1.
         21   -1    0    0  501  502 -0.00000000000E+00 -0.00000000000E+00 -0.83722642904E+02  0.83722642904E+02  0.00000000000E+00 0.  1.
         21    1    1    2  503  504 -0.19843456932E+02  0.12754522317E+02  0.64924838228E+02  0.69077313508E+02  0.00000000000E+00 0. -1.
         21    1    1    2  504  502  0.19843456932E+02 -0.12754522317E+02 -0.79942592890E+02  0.83350217639E+02  0.00000000000E+00 0.  1.
</event>
<event>
 4    1  0.1551744E+006  0.2015135E+02  0.7546771E-02  0.1531735E+00
         21   -1    0    0  504  501  0.00000000000E+00  0.00000000000E+00  0.27973441406E+02  0.27973441406E+02  0.00000000000E+00 0.  1.
         21   -1    0    0  503  502 -0.00000000000E+00 -0.00000000000E+00 -0.15380353775E+02  0.15380353775E+02  0.00000000000E+00 0.  1.
         21    1    1    2  503  501  0.97119443496E+01 -0.17656585047E+02  0.11433791661E+02  0.23169127095E+02  0.00000000000E+00 0.  1.
         21    1    1    2  504  502 -0.97119443496E+01  0.17656585047E+02  0.11592959702E+01  0.20184668086E+02  0.00000000000E+00 0.  1.
</event>
<event>
 4    1  0.1551744E+006  0.2479836E+02  0.7546771E-02  0.1471072E+00
         21   -1    0    0  504  501  0.00000000000E+00  0.00000000000E+00  0.62489020934E+01  0.62489020934E+01  0.00000000000E+00 0.  1.
         21   -1    0    0  501  502 -0.00000000000E+00 -0.00000000000E+00 -0.10896569694E+03  0.10896569694E+03  0.00000000000E+00 0.  1.
         21    1    1    2  503  502 -0.94606805684E+01  0.22922788836E+02 -0.69287643020E+02  0.73591685673E+02  0.00000000000E+00 0.  1.
         21    1    1    2  504  503  0.94606805684E+01 -0.22922788836E+02 -0.33429151827E+02  0.41622913362E+02  0.00000000000E+00 0.  1.
</event>
<event>
 4    1  0.1551744E+006  0.2089782E+02  0.7546771E-02  0.1520729E+00
         21   -1    0    0  503  501  0.00000000000E+00  0.00000000000E+00  0.13094522487E+02  0.13094522487E+02  0.00000000000E+00 0. -1.
         21   -1    0    0  504  502 -0.00000000000E+00 -0.00000000000E+00 -0.85787639500E+02  0.85787639500E+02  0.00000000000E+00 0.  1.
         21    1    1    2  503  502 -0.17302001356E+02 -0.11720055607E+02  0.23072157898E+01  0.21024799619E+02  0.00000000000E+00 0. -1.
         21    1    1    2  504  501  0.17302001356E+02  0.11720055607E+02 -0.75000332803E+02  0.77857362368E+02  0.00000000000E+00 0.  1.
</event>
<event>
 4    1  0.1551744E+006  0.3370306E+02  0.7546771E-02  0.1389918E+00
         21   -1    0    0  502  501  0.00000000000E+00  0.00000000000E+00  0.44179440631E+02  0.44179440631E+02  0.00000000000E+00 0. -1.
         21   -1    0    0  503  502 -0.00000000000E+00 -0.00000000000E+00 -0.49877862264E+02  0.49877862264E+02  0.00000000000E+00 0. -1.
         21    1    1    2  503  504  0.22159148230E+02 -0.25394256735E+02 -0.35584715635E+02  0.49011918063E+02  0.00000000000E+00 0. -1.
         21    1    1    2  504  501 -0.22159148230E+02  0.25394256735E+02  0.29886294002E+02  0.45045384831E+02  0.00000000000E+00 0. -1.
</event>
<event>
 4    1  0.1551744E+006  0.2167016E+02  0.7546771E-02  0.1509908E+00
         21   -1    0    0  503  501  0.00000000000E+00  0.00000000000E+00  0.32661733859E+02  0.32661733859E+02  0.00000000000E+00 0.  1.
         21   -1    0    0  504  502 -0.00000000000E+00 -0.00000000000E+00 -0.16768678797E+03  0.16768678797E+03  0.00000000000E+00 0.  1.
         21    1    1    2  503  502  0.12574293490E+02 -0.17648879803E+02  0.28271012532E+02  0.35620864176E+02  0.00000000000E+00 0.  1.
         21    1    1    2  504  501 -0.12574293490E+02  0.17648879803E+02 -0.16329606664E+03  0.16472765765E+03  0.00000000000E+00 0.  1.
</event>
<event>
 4    1  0.1551744E+006  0.2159420E+02  0.7546771E-02  0.1510948E+00
         21   -1    0    0  503  501  0.00000000000E+00  0.00000000000E+00  0.23053846843E+02  0.23053846843E+02  0.00000000000E+00 0. -1.
         21   -1    0    0  504  502 -0.00000000000E+00 -0.00000000000E+00 -0.49251491202E+02  0.49251491202E+02  0.00000000000E+00 0.  1.
         21    1    1    2  503  502 -0.12790768384E+02  0.17398440426E+02 -0.40852030769E+02  0.46208201686E+02  0.00000000000E+00 0.  1.
         21    1    1    2  504  501  0.12790768384E+02 -0.17398440426E+02  0.14654386410E+02  0.26097136360E+02  0.00000000000E+00 0. -1.
</event>
<event>
 4    1  0.1551744E+006  0.3384016E+02  0.7546771E-02  0.1388906E+00
         21   -1    0    0  503  501  0.00000000000E+00  0.00000000000E+00  0.61966120689E+02  0.61966120689E+02  0.00000000000E+00 0.  1.
         21   -1    0    0  501  502 -0.00000000000E+00 -0.00000000000E+00 -0.12101750612E+03  0.12101750612E+03  0.00000000000E+00 0.  1.
         21    1    1    2  503  504 -0.31062263662E+02 -0.13427287534E+02  0.54691109535E+02  0.64313868928E+02  0.00000000000E+00 0.  1.
         21    1    1    2  504  502  0.31062263662E+02  0.13427287534E+02 -0.11374249496E+03  0.11866975788E+03  0.00000000000E+00 0.  1.
</event>
<event>
 4    1  0.1551744E+006  0.2887054E+02  0.7546771E-02  0.1429672E+00
         21   -1    0    0  503  501  0.00000000000E+00  0.00000000000E+00  0.19305805293E+02  0.19305805293E+02  0.00000000000E+00 0.  1.
         21   -1    0    0  504  502 -0.00000000000E+00 -0.00000000000E+00 -0.51535575209E+02  0.51535575209E+02  0.00000000000E+00 0.  1.
         21    1    1    2  503  502  0.98241668994E+01  0.27147635038E+02 -0.30382394491E+02  0.41911791162E+02  0.00000000000E+00 0.  1.
         21    1    1    2  504  501 -0.98241668994E+01 -0.27147635038E+02 -0.18473754243E+01  0.28929589340E+02  0.00000000000E+00 0.  1.
</event>
<event>
 4    1  0.1551744E+006  0.4105603E+02  0.7546771E-02  0.1342406E+00
         21   -1    0    0  504  501  0.00000000000E+00  0.00000000000E+00  0.10691236919E+03  0.10691236919E+03  0.00000000000E+00 0. -1.
         21   -1    0    0  503  502 -0.00000000000E+00 -0.00000000000E+00 -0.16832841597E+02  0.16832841597E+02  0.00000000000E+00 0. -1.
         21    1    1    2  503  501  0.37847010536E+02  0.15912311389E+02  0.60615064370E+02  0.73210544929E+02  0.00000000000E+00 0. -1.
         21    1    1    2  504  502 -0.37847010536E+02 -0.15912311389E+02  0.29464463223E+02  0.50534665857E+02  0.00000000000E+00 0. -1.
</event>
<event>
 4    1  0.1551744E+006  0.2487291E+02  0.7546771E-02  0.1470230E+00
         21   -1    0    0  503  501  0.00000000000E+00  0.00000000000E+00  0.10427114107E+03  0.10427114107E+03  0.00000000000E+00 0.  1.
         21   -1    0    0  504  502 -0.00000000000E+00 -0.00000000000E+00 -0.95596258457E+01  0.95596258457E+01  0.00000000000E+00 0. -1.
         21    1    1    2  503  502 -0.14621055847E+02  0.20121782870E+02  0.12300861444E+02  0.27748380353E+02  0.00000000000E+00 0. -1.
         21    1    1    2  504  501  0.14621055847E+02 -0.20121782870E+02  0.82410653781E+02  0.86082386564E+02  0.00000000000E+00 0.  1.
</event>
<event>
 4    1  0.1551744E+006  0.2217064E+02  0.7546771E-02  0.1503184E+00
         21   -1    0    0  504  501  0.00000000000E+00  0.00000000000E+00  0.92716426978E+01  0.92716426978E+01  0.00000000000E+00 0. -1.
         21   -1    0    0  501  502 -0.00000000000E+00 -0.00000000000E+00 -0.55593440657E+02  0.55593440657E+02  0.00000000000E+00 0. -1.
         21    1    1    2  503  502 -0.44231696030E+01 -0.21724936982E+02 -0.30145427144E+02  0.37420370039E+02  0.00000000000E+00 0. -1.
         21    1    1    2  504  503  0.44231696030E+01  0.21724936982E+02 -0.16176370815E+02  0.27444713315E+02  0.00000000000E+00 0. -1.
</event>
<event>
 4    1  0.1551744E+006  0.2045504E+02  0.7546771E-02  0.1527190E+00
         21   -1    0    0  503  501  0.00000000000E+00  0.00000000000E+00  0.62304215566E+01  0.62304215566E+01  0.00000000000E+00 0. -1.
         21   -1    0    0  504  502 -0.00000000000E+00 -0.00000000000E+00 -0.68681252456E+02  0.68681252456E+02  0.00000000000E+00 0.  1.
         21    1    1    2  503  502 -0.19497969421E+02  0.61836814983E+01 -0.25643224780E+02  0.32802190560E+02  0.00000000000E+00 0. -1.
         21    1    1    2  504  501  0.19497969421E+02 -0.61836814983E+01 -0.36807606119E+02  0.42109483453E+02  0.00000000000E+00 0.  1.
</event>
<event>
 4    1  0.1551744E+006  0.2769343E+02  0.7546771E-02  0.1440764E+00
         21   -1    0    0  504  501  0.00000000000E+00  0.00000000000E+00  0.26215363314E+02  0.26215363314E+02  0.00000000000E+00 0.  1.
         21   -1    0    0  501  502 -0.00000000000E+00 -0.00000000000E+00 -0.95374413033E+02  0.95374413033E+02  0.00000000000E+00 0. -1.
         21    1    1    2  503  502  0.22212164394E+02 -0.16539228591E+02 -0.85198824997E+02  0.89586640244E+02  0.00000000000E+00 0. -1.
         21    1    1    2  504  503 -0.22212164394E+02  0.16539228591E+02  0.16039775277E+02  0.32003136102E+02  0.00000000000E+00 0.  1.
</event>
<event>
 4    1  0.1551744E+006  0.2222909E+02  0.7546771E-02  0.1502412E+00
         21   -1    0    0  503  501  0.00000000000E+00  0.00000000000E+00  0.66527128657E+02  0.66527128657E+02  0.00000000000E+00 0. -1.
         21   -1    0    0  504  502 -0.00000000000E+00 -0.00000000000E+00 -0.21049428963E+03  0.21049428963E+03  0.00000000000E+00 0. -1.
         21    1    1    2  503  502 -0.22228984703E+02 -0.69060867088E-01  0.64061426797E+02  0.67808546170E+02  0.00000000000E+00 0. -1.
         21    1    1    2  504  501  0.22228984703E+02  0.69060867088E-01 -0.20802858777E+03  0.20921287212E+03  0.00000000000E+00 0. -1.
</event>
<event>
 4    1  0.1551744E+006  0.2629294E+02  0.7546771E-02  0.1454843E+00
         21   -1    0    0  502  501  0.00000000000E+00  0.00000000000E+00  0.35480533943E+03  0.35480533943E+03  0.00000000000E+00 0.  1.
         21   -1    0    0  504  502 -0.00000000000E+00 -0.00000000000E+00 -0.16989407008E+03  0.16989407008E+03  0.00000000000E+00 0. -1.
         21    1    1    2  503  501  0.25736065147E+02 -0.53827301540E+01  0.35329661063E+03  0.35427364271E+03  0.00000000000E+00 0.  1.
         21    1    1    2  504  503 -0.25736065147E+02  0.53827301540E+01 -0.16838534128E+03  0.17042576681E+03  0.00000000000E+00 0. -1.
</event>
<event>
 4    1  0.1551744E+006  0.3009269E+02  0.7546771E-02  0.1418793E+00
         21   -1    0    0  504  501  0.00000000000E+00  0.00000000000E+00  0.85660736263E+01  0.85660736263E+01  0.00000000000E+00 0. -1.
         21   -1    0    0  503  502 -0.00000000000E+00 -0.00000000000E+00 -0.12300349052E+03  0.12300349052E+03  0.00000000000E+00 0. -1.
         21    1    1    2  503  501 -0.29601139883E+02 -0.54168847653E+01 -0.32556381896E+02  0.44333825969E+02  0.00000000000E+00 0. -1.
         21    1    1    2  504  502  0.29601139883E+02  0.54168847653E+01 -0.81881034996E+02  0.87235738175E+02  0.00000000000E+00 0. -1.
</event>
<event>
 4    1  0.1551744E+006  0.2998902E+02  0.7546771E-02  0.1419692E+00
         21   -1    0    0  502  501  0.00000000000E+00  0.00000000000E+00  0.23040101978E+03  0.23040101978E+03  0.00000000000E+00 0.  1.
         21   -1    0    0  503  502 -0.00000000000E+00 -0.00000000000E+00 -0.60877574001E+01  0.60877574001E+01  0.00000000000E+00 0.  1.
         21    1    1    2  503  504  0.27818489234E+02  0.11201465596E+02  0.41326771610E+02  0.51061171417E+02  0.00000000000E+00 0.  1.
         21    1    1    2  504  501 -0.27818489234E+02 -0.11201465596E+02  0.18298649077E+03  0.18542760576E+03  0.00000000000E+00 0.  1.
</event>
<event>
 4    1  0.1551744E+006  0.2188142E+02  0.7546771E-02  0.1507043E+00
         21   -1    0    0  503  501  0.00000000000E+00  0.00000000000E+00  0.55492402326E+02  0.55492402326E+02  0.00000000000E+00 0.  1.
         21   -1    0    0  504  502 -0.00000000000E+00 -0.00000000000E+00 -0.10388558868E+03  0.10388558868E+03  0.00000000000E+00 0.  1.
         21    1    1    2  503  502 -0.21857882825E+02  0.10146232275E+01  0.52111422616E+02  0.56518995647E+02  0.00000000000E+00 0.  1.
         21    1    1    2  504  501  0.21857882825E+02 -0.10146232275E+01 -0.10050460897E+03  0.10285899536E+03  0.00000000000E+00 0.  1.
</event>
<event>
 4    1  0.1551744E+006  0.2513497E+02  0.7546771E-02  0.1467299E+00
         21   -1    0    0  504  501  0.00000000000E+00  0.00000000000E+00  0.15456991504E+03  0.15456991504E+03  0.00000000000E+00 0. -1.
         21   -1    0    0  503  502 -0.00000000000E+00 -0.00000000000E+00 -0.11173714378E+03  0.11173714378E+03  0.00000000000E+00 0.  1.
         21    1    1    2  503  501  0.25088725943E+02  0.15240137713E+01 -0.10927913125E+03  0.11213249000E+03  0.00000000000E+00 0.  1.
         21    1    1    2  504  502 -0.25088725943E+02 -0.15240137713E+01  0.15211190251E+03  0.15417456883E+03  0.00000000000E+00 0. -1.
</event>
<event>
 4    1  0.1551744E+006  0.2049324E+02  0.7546771E-02  0.1526625E+00
         21   -1    0    0  504  501  0.00000000000E+00  0.00000000000E+00  0.67830536064E+02  0.67830536064E+02  0.00000000000E+00 0. -1.
         21   -1    0    0  501  502 -0.00000000000E+00 -0.00000000000E+00 -0.55454018064E+02  0.55454018064E+02  0.00000000000E+00 0. -1.
         21    1    1    2  503  502  0.20339998317E+02 -0.25014476535E+01 -0.51910983013E+02  0.55809702824E+02  0.00000000000E+00 0. -1.
         21    1    1    2  504  503 -0.20339998317E+02  0.25014476535E+01  0.64287501013E+02  0.67474851304E+02  0.00000000000E+00 0. -1.
</event>
<event>
 4    1  0.1551744E+006  0.2956342E+02  0.7546771E-02  0.1423429E+00
         21   -1    0    0  502  501  0.00000000000E+00  0.00000000000E+00  0.16046260245E+02  0.16046260245E+02  0.00000000000E+00 0.  1.
         21   -1    0    0  503  502 -0.00000000000E+00 -0.00000000000E+00 -0.23395782891E+03  0.23395782891E+03  0.00000000000E+00 0. -1.
         21    1    1    2  503  504 -0.28997236567E+02 -0.57581473336E+01 -0.21844444172E+03  0.22043586393E+03  0.00000000000E+00 0. -1.
         21    1    1    2  504  501  0.28997236567E+02  0.57581473336E+01  0.53287305272E+00  0.29568225225E+02  0.00000000000E+00 0.  1.
</event>
<event>
 4    1  0.1551744E+006  0.3311633E+02  0.7546771E-02  0.1394312E+00
         21   -1    0    0  504  501  0.00000000000E+00  0.00000000000E+00  0.41265690695E+02  0.41265690695E+02  0.00000000000E+00 0.  1.
         21   -1    0    0  501  502 -0.00000000000E+00 -0.00000000000E+00 -0.46583703822E+02  0.46583703822E+02  0.00000000000E+00 0.  1.
         21    1    1    2  503  502 -0.92247445624E+01  0.31805589732E+02 -0.31445355948E+02  0.45667295312E+02  0.00000000000E+00 0.  1.
         21    1    1    2  504  503  0.92247445624E+01 -0.31805589732E+02  0.26127342821E+02  0.42182099205E+02  0.00000000000E+00 0.  1.
</event>
<event>
 4    1  0.1551744E+006  0.2711430E+02  0.7546771E-02  0.1446463E+00
         21   -1    0    0  504  501  0.00000000000E+00  0.00000000000E+00  0.15425822817E+03  0.15425822817E+03  0.00000000000E+00 0.  1.
         21   -1    0    0  501  502 -0.00000000000E+00 -0.00000000000E+00 -0.59078156000E+01  0.59078156000E+01  0.00000000000E+00 0.  1.
         21    1    1    2  503  502 -0.26866052302E+02  0.36606694133E+01  0.38967590068E+02  0.47472711556E+02  0.00000000000E+00 0.  1.
         21    1    1    2  504  503  0.26866052302E+02 -0.36606694133E+01  0.10938282250E+03  0.11269333222E+03  0.00000000000E+00 0.  1.
</event>
<event>
 4    1  0.1551744E+006  0.3330555E+02  0.7546771E-02  0.1392884E+00
         21   -1    0    0  503  501  0.00000000000E+00  0.00000000000E+00  0.85818090522E+02  0.85818090522E+02  0.00000000000E+00 0. -1.
         21   -1    0    0  501  502 -0.00000000000E+00 -0.00000000000E+00 -0.49050256213E+02  0.49050256213E+02  0.00000000000E+00 0. -1.
         21    1    1    2  503  504 -0.13197165861E+02  0.30579319762E+02  0.76254863172E+02  0.83210961665E+02  0.00000000000E+00 0. -1.
         21    1    1    2  504  502  0.13197165861E+02 -0.30579319762E+02 -0.39487028862E+02  0.51657385070E+02  0.00000000000E+00 0. -1.
</event>
<event>
 4    1  0.1551744E+006  0.2646191E+02  0.7546771E-02  0.1453089E+00
         21   -1    0    0  504  501  0.00000000000E+00  0.00000000000E+00  0.12752029078E+03  0.12752029078E+03  0.00000000000E+00 0.  1.
         21   -1    0    0  503  502 -0.00000000000E+00 -0.00000000000E+00 -0.12307933628E+02  0.12307933628E+02  0.00000000000E+00 0.  1.
         21    1    1    2  503  501 -0.10759399125E+02  0.24175775045E+02  0.55751875414E+01  0.27042845351E+02  0.00000000000E+00 0.  1.
         21    1    1    2  504  502  0.10759399125E+02 -0.24175775045E+02  0.10963716961E+03  0.11278537906E+03  0.00000000000E+00 0.  1.
</event>
<event>
 4    1  0.1551744E+006  0.3455408E+02  0.7546771E-02  0.1383725E+00
         21   -1    0    0  503  501  0.00000000000E+00  0.00000000000E+00  0.45951945255E+02  0.45951945255E+02  0.00000000000E+00 0.  1.
         21   -1    0    0  504  502 -0.00000000000E+00 -0.00000000000E+00 -0.42660625232E+02  0.42660625232E+02  0.00000000000E+00 0.  1.
         21    1    1    2  503  502  0.11609115488E+02  0.32545553607E+02 -0.26056556633E+02  0.43277347026E+02  0.00000000000E+00 0.  1.
         21    1    1    2  504  501 -0.11609115488E+02 -0.32545553607E+02  0.29347876656E+02  0.45335223461E+02  0.00000000000E+00 0.  1.
</event>
<event>
 4    1  0.1551744E+006  0.3256457E+02  0.7546771E-02  0.1398544E+00
         21   -1    0    0  504  501  0.00000000000E+00  0.00000000000E+00  0.18359759524E+03  0.18359759524E+03  0.00000000000E+00 0.  1.
         21   -1    0    0  503  502 -0.00000000000E+00 -0.00000000000E+00 -0.15088229488E+02  0.15088229488E+02  0.00000000000E+00 0. -1.
         21    1    1    2  503  501 -0.11504156483E+02 -0.30464828408E+02  0.16229978253E+03  0.16553450032E+03  0.00000000000E+00 0.  1.
         21    1    1    2  504  502  0.11504156483E+02  0.30464828408E+02  0.62095832204E+01  0.33151324409E+02  0.00000000000E+00 0. -1.
</event>
<event>
 4    1  0.1551744E+006  0.2758187E+02  0.7546771E-02  0.1441849E+00
         21   -1    0    0  502  501  0.00000000000E+00  0.00000000000E+00  0.92713853936E+03  0.92713853936E+03  0.00000000000E+00 0.  1.
         21   -1    0    0  503  502 -0.00000000000E+00 -0.00000000000E+00 -0.21663326905E+01  0.21663326905E+01  0.00000000000E+00 0.  1.
         21    1    1    2  503  504  0.24865219476E+02 -0.11936504953E+02  0.96256161211E+02  0.10012995486E+03  0.00000000000E+00 0.  1.
         21    1    1    2  504  501 -0.24865219476E+02  0.11936504953E+02  0.82871604546E+03  0.82917491719E+03  0.00000000000E+00 0.  1.
</event>
<event>
 4    1  0.1551744E+006  0.2980984E+02  0.7546771E-02  0.1421256E+00
         21   -1    0    0  503  501  0.00000000000E+00  0.00000000000E+00  0.15804689543E+03  0.15804689543E+03  0.00000000000E+00 0.  1.
         21   -1    0    0  504  502 -0.00000000000E+00 -0.00000000000E+00 -0.10528463500E+02  0.10528463500E+02  0.00000000000E+00 0.  1.
         21    1    1    2  503  502 -0.27894334589E+02  0.10513461778E+02  0.16222975043E+02  0.33938351462E+02  0.00000000000E+00 0.  1.
         21    1    1    2  504  501  0.27894334589E+02 -0.10513461778E+02  0.13129545689E+03  0.13463700747E+03  0.00000000000E+00 0.  1.
</event>
<event>
 4    1  0.1551744E+006  0.2492018E+02  0.7546771E-02  0.1469698E+00
         21   -1    0    0  504  501  0.00000000000E+00  0.00000000000E+00  0.31229647141E+02  0.31229647141E+02  0.00000000000E+00 0.  1.
         21   -1    0    0  503  502 -0.00000000000E+00 -0.00000000000E+00 -0.56378276867E+02  0.56378276867E+02  0.00000000000E+00 0.  1.
         21    1    1    2  503  501  0.21507590533E+02  0.12587244686E+02  0.22667748324E+02  0.33687415951E+02  0.00000000000E+00 0.  1.
         21    1    1    2  504  502 -0.21507590533E+02 -0.12587244686E+02 -0.47816378050E+02  0.53920508058E+02  0.00000000000E+00 0.  1.
</event>
<event>
 4    1  0.1551744E+006  0.2302928E+02  0.7546771E-02  0.1492131E+00
         21   -1    0    0  503  501  0.00000000000E+00  0.00000000000E+00  0.54968956515E+02  0.54968956515E+02  0.00000000000E+00 0.  1.
         21   -1    0    0  504  502 -0.00000000000E+00 -0.00000000000E+00 -0.15254501506E+02  0.15254501506E+02  0.00000000000E+00 0.  1.
         21    1    1    2  503  502 -0.13293932595E+02 -0.18804765686E+02  0.41143224124E+02  0.47149896582E+02  0.00000000000E+00 0.  1.
         21    1    1    2  504  501  0.13293932595E+02  0.18804765686E+02 -0.14287691152E+01  0.23073561440E+02  0.00000000000E+00 0.  1.
</event>
<event>
 4    1  0.1551744E+006  0.2499080E+02  0.7546771E-02  0.1468906E+00
         21   -1    0    0  502  501  0.00000000000E+00  0.00000000000E+00  0.98435988699E+02  0.98435988699E+02  0.00000000000E+00 0.  1.
         21   -1    0    0  503  502 -0.00000000000E+00 -0.00000000000E+00 -0.38140547625E+02  0.38140547625E+02  0.00000000000E+00 0. -1.
         21    1    1    2  503  504  0.21305967352E+02  0.13061229074E+02 -0.32202546331E+02  0.40762040429E+02  0.00000000000E+00 0. -1.
         21    1    1    2  504  501 -0.21305967352E+02 -0.13061229074E+02  0.92497987404E+02  0.95814495895E+02  0.00000000000E+00 0.  1.
</event>
<event>
 4    1  0.1551744E+006  0.2492311E+02  0.7546771E-02  0.1469665E+00
         21   -1    0    0  503  501  0.00000000000E+00  0.00000000000E+00  0.14103848910E+03  0.14103848910E+03  0.00000000000E+00 0. -1.
         21   -1    0    0  504  502 -0.00000000000E+00 -0.00000000000E+00 -0.65666208561E+02  0.65666208561E+02  0.00000000000E+00 0.  1.
         21    1    1    2  503  502  0.19519684776E+02  0.15496561259E+02  0.13751244641E+03  0.13975276177E+03  0.00000000000E+00 0. -1.
         21    1    1    2  504  501 -0.19519684776E+02 -0.15496561259E+02 -0.62140165873E+02  0.66951935890E+02  0.00000000000E+00 0.  1.
</event>
<event>
 4    1  0.1551744E+006  0.2431310E+02  0.7546771E-02  0.1476636E+00
         21   -1    0    0  504  501  0.00000000000E+00  0.00000000000E+00  0.17636537461E+03  0.17636537461E+03  0.00000000000E+00 0.  1.
         21   -1    0    0  503  502 -0.00000000000E+00 -0.00000000000E+00 -0.48164122808E+01  0.48164122808E+01  0.00000000000E+00 0.  1.
         21    1    1    2  503  501  0.23238462160E+01 -0.24201786181E+02  0.13573149238E+03  0.13789185886E+03  0.00000000000E+00 0.  1.
         21    1    1    2  504  502 -0.23238462160E+01  0.24201786181E+02  0.35817469954E+02  0.43289928037E+02  0.00000000000E+00 0.  1.
</event>
<event>
 4    1  0.1551744E+006  0.2528523E+02  0.7546771E-02  0.1465638E+00
         21   -1    0    0  503  501  0.00000000000E+00  0.00000000000E+00  0.53460951586E+01  0.53460951586E+01  0.00000000000E+00 0. -1.
         21   -1    0    0  501  502 -0.00000000000E+00 -0.00000000000E+00 -0.32340318722E+03  0.32340318722E+03  0.00000000000E+00 0. -1.
         21    1    1    2  503  504  0.16620796909E+02  0.19054965839E+02 -0.28538256771E+02  0.38128397718E+02  0.00000000000E+00 0. -1.
         21    1    1    2  504  502 -0.16620796909E+02 -0.19054965839E+02 -0.28951883529E+03  0.29062088466E+03  0.00000000000E+00 0. -1.
</event>
<event>
 4    1  0.1551744E+006  0.3438008E+02  0.7546771E-02  0.1384975E+00
         21   -1    0    0  502  501  0.00000000000E+00  0.00000000000E+00  0.19269610980E+02  0.19269610980E+02  0.00000000000E+00 0. -1.
         21   -1    0    0  503  502 -0.00000000000E+00 -0.00000000000E+00 -0.17685535780E+03  0.17685535780E+03  0.00000000000E+00 0.  1.
         21    1    1    2  503  504  0.17984236895E+02  0.29301145422E+02 -0.15804563953E+03  0.16174181300E+03  0.00000000000E+00 0.  1.
         21    1    1    2  504  501 -0.17984236895E+02 -0.29301145422E+02  0.45989271023E+00  0.34383155775E+02  0.00000000000E+00 0. -1.
</event>
<event>
 4    1  0.1551744E+006  0.3960544E+02  0.7546771E-02  0.1350814E+00
         21   -1    0    0  504  501  0.00000000000E+00  0.00000000000E+00  0.29860672596E+02  0.29860672596E+02  0.00000000000E+00 0.  1.
         21   -1    0    0  503  502 -0.00000000000E+00 -0.00000000000E+00 -0.19996090231E+03  0.19996090231E+03  0.00000000000E+00 0.  1.
         21    1    1    2  503  501  0.37097245924E+02 -0.13870292430E+02 -0.18371941511E+03  0.18793992167E+03  0.00000000000E+00 0.  1.
         21    1    1    2  504  502 -0.37097245924E+02  0.13870292430E+02  0.13619185397E+02  0.41881653240E+02  0.00000000000E+00 0.  1.
</event>
<event>
 4    1  0.1551744E+006  0.3301837E+02  0.7546771E-02  0.1395057E+00
         21   -1    0    0  503  501  0.00000000000E+00  0.00000000000E+00  0.82956924399E+02  0.82956924399E+02  0.00000000000E+00 0. -1.
         21   -1    0    0  504  502 -0.00000000000E+00 -0.00000000000E+00 -0.18066217674E+02  0.18066217674E+02  0.00000000000E+00 0. -1.
         21    1    1    2  503  502 -0.21398914762E+02 -0.25145562089E+02  0.60741693956E+01  0.33572434818E+02  0.00000000000E+00 0. -1.
         21    1    1    2  504  501  0.21398914762E+02  0.25145562089E+02  0.58816537330E+02  0.67450707255E+02  0.00000000000E+00 0. -1.
</event>
<event>
 4    1  0.1551744E+006  0.2761223E+02  0.7546771E-02  0.1441553E+00
         21   -1    0    0  503  501  0.00000000000E+00  0.00000000000E+00  0.55212871340E+01  0.55212871340E+01  0.00000000000E+00 0. -1.
         21   -1    0    0  504  502 -0.00000000000E+00 -0.00000000000E+00 -0.18186064932E+03  0.18186064932E+03  0.00000000000E+00 0. -1.
         21    1    1    2  503  502 -0.24917495348E+02 -0.11897622915E+02 -0.42205509731E+02  0.50435503935E+02  0.00000000000E+00 0. -1.
         21    1    1    2  504  501  0.24917495348E+02  0.11897622915E+02 -0.13413385245E+03  0.13694643252E+03  0.00000000000E+00 0. -1.
</event>
<event>
 4    1  0.1551744E+006  0.2242834E+02  0.7546771E-02  0.1499804E+00
         21   -1    0    0  502  501  0.00000000000E+00  0.00000000000E+00  0.14386981887E+01  0.14386981887E+01  0.00000000000E+00 0. -1.
         21   -1    0    0  504  502 -0.00000000000E+00 -0.00000000000E+00 -0.52419912457E+03  0.52419912457E+03  0.00000000000E+00 0. -1.
         21    1    1    2  503  501  0.41458242375E+00 -0.22424504484E+02 -0.10971833878E+03  0.11198724992E+03  0.00000000000E+00 0. -1.
         21    1    1    2  504  503 -0.41458242375E+00  0.22424504484E+02 -0.41304208760E+03  0.41365057284E+03  0.00000000000E+00 0. -1.
</event>
<event>
 4    1  0.1551744E+006  0.3264315E+02  0.7546771E-02  0.1397935E+00
         21   -1    0    0  504  501  0.00000000000E+00  0.00000000000E+00  0.38721653547E+03  0.38721653547E+03  0.00000000000E+00 0.  1.
         21   -1    0    0  503  502 -0.00000000000E+00 -0.00000000000E+00 -0.62430924684E+01  0.62430924684E+01  0.00000000000E+00 0. -1.
         21    1    1    2  503  501  0.22789529061E+01 -0.32563505395E+02  0.43371332329E+02  0.54283035821E+02  0.00000000000E+00 0. -1.
         21    1    1    2  504  502 -0.22789529061E+01  0.32563505395E+02  0.33760211067E+03  0.33917659212E+03  0.00000000000E+00 0.  1.
</event>
<event>
 4    1  0.1551744E+006  0.2112723E+02  0.7546771E-02  0.1517456E+00
         21   -1    0    0  502  501  0.00000000000E+00  0.00000000000E+00  0.29442795706E+02  0.29442795706E+02  0.00000000000E+00 0.  1.
         21   -1    0    0  504  502 -0.00000000000E+00 -0.00000000000E+00 -0.45671918852E+02  0.45671918852E+02  0.00000000000E+00 0. -1.
         21    1    1    2  503  501  0.35541984811E+01 -0.20826126163E+02  0.22582969426E+02  0.30924914970E+02  0.00000000000E+00 0.  1.
         21    1    1    2  504  503 -0.35541984811E+01  0.20826126163E+02 -0.38812092573E+02  0.44189799588E+02  0.00000000000E+00 0. -1.
</event>
<event>
 4    1  0.1551744E+006  0.2017395E+02  0.7546771E-02  0.1531393E+00
         21   -1    0    0  504  501  0.00000000000E+00  0.00000000000E+00  0.10659217773E+02  0.10659217773E+02  0.00000000000E+00 0.  1.
         21   -1    0    0  501  502 -0.00000000000E+00 -0.00000000000E+00 -0.58555956935E+02  0.58555956935E+02  0.00000000000E+00 0.  1.
         21    1    1    2  503  502 -0.20173600226E+02 -0.11797717781E+00 -0.44362254512E+02  0.48733948025E+02  0.00000000000E+00 0.  1.
         21    1    1    2  504  503  0.20173600226E+02  0.11797717781E+00 -0.35344846495E+01  0.20481226683E+02  0.00000000000E+00 0.  1.
</event>
<event>
 4    1  0.1551744E+006  0.2099664E+02  0.7546771E-02  0.1519313E+00
         21   -1    0    0  503  501  0.00000000000E+00  0.00000000000E+00  0.90829165792E+03  0.90829165792E+03  0.00000000000E+00 0.  1.
         21   -1    0    0  501  502 -0.00000000000E+00 -0.00000000000E+00 -0.18751537487E+01  0.18751537487E+01  0.00000000000E+00 0. -1.
         21    1    1    2  503  504  0.98943339227E+01  0.18519208840E+02  0.84499156027E+03  0.84525238589E+03  0.00000000000E+00 0.  1.
         21    1    1    2  504  502 -0.98943339227E+01 -0.18519208840E+02  0.61424943909E+02  0.64914425777E+02  0.00000000000E+00 0. -1.
</event>
<event>
 4    1  0.1551744E+006  0.2131717E+02  0.7546771E-02  0.1514784E+00
         21   -1    0    0  504  501  0.00000000000E+00  0.00000000000E+00  0.22892258976E+02  0.22892258976E+02  0.00000000000E+00 0.  1.
         21   -1    0    0  503  502 -0.00000000000E+00 -0.00000000000E+00 -0.64036098685E+02  0.64036098685E+02  0.00000000000E+00 0.  1.
         21    1    1    2  503  501  0.21148461259E+02  0.26766016546E+01  0.15532441798E+02  0.26375715312E+02  0.00000000000E+00 0.  1.
         21    1    1    2  504  502 -0.21148461259E+02 -0.26766016546E+01 -0.56676281507E+02  0.60552642349E+02  0.00000000000E+00 0.  1.
</event>
<event>
 4    1  0.1551744E+006  0.2596943E+02  0.7546771E-02  0.1458244E+00
         21   -1    0    0  503  501  0.00000000000E+00  0.00000000000E+00  0.15162731994E+03  0.15162731994E+03  0.00000000000E+00 0. -1.
         21   -1    0    0  504  502 -0.00000000000E+00 -0.00000000000E+00 -0.44504885959E+01  0.44504885959E+01  0.00000000000E+00 0. -1.
         21    1    1    2  503  502  0.51806034077E+01  0.25447453167E+02  0.71678645123E+02  0.76238046218E+02  0.00000000000E+00 0. -1.
         21    1    1    2  504  501 -0.51806034077E+01 -0.25447453167E+02  0.75498186217E+02  0.79839762315E+02  0.00000000000E+00 0. -1.
</event>
<event>
 4    1  0.1551744E+006  0.2403509E+02  0.7546771E-02  0.1479894E+00
         21   -1    0    0  503  501  0.00000000000E+00  0.00000000000E+00  0.56785724587E+02  0.56785724587E+02  0.00000000000E+00 0. -1.
         21   -1    0    0  504  502 -0.00000000000E+00 -0.00000000000E+00 -0.11266210019E+02  0.11266210019E+02  0.00000000000E+00 0. -1.
         21    1    1    2  503  502  0.10613076120E+02 -0.21564974271E+02  0.33358594831E+02  0.41115463625E+02  0.00000000000E+00 0. -1.
         21    1    1    2  504  501 -0.10613076120E+02  0.21564974271E+02  0.12160919738E+02  0.26936470981E+02  0.00000000000E+00 0. -1.
</event>
<event>
 4    1  0.1551744E+006  0.3208853E+02  0.7546771E-02  0.1402275E+00
         21   -1    0    0  503  501  0.00000000000E+00  0.00000000000E+00  0.30214746594E+03  0.30214746594E+03  0.00000000000E+00 0. -1.
         21   -1    0    0  501  502 -0.00000000000E+00 -0.00000000000E+00 -0.96397443481E+01  0.96397443481E+01  0.00000000000E+00 0.  1.
         21    1    1    2  503  504 -0.10521296558E+02  0.30314614155E+02  0.27159843867E+03  0.27348745017E+03  0.00000000000E+00 0. -1.
         21    1    1    2  504  502  0.10521296558E+02 -0.30314614155E+02  0.20909282917E+02  0.38299760113E+02  0.00000000000E+00 0.  1.
</event>
<event>
 4    1  0.1551744E+006  0.3547036E+02  0.7546771E-02  0.1377286E+00
         21   -1    0    0  503  501  0.00000000000E+00  0.00000000000E+00  0.16265887900E+03  0.16265887900E+03  0.00000000000E+00 0. -1.
         21   -1    0    0  501  502 -0.00000000000E+00 -0.00000000000E+00 -0.36246723600E+03  0.36246723600E+03  0.00000000000E+00 0. -1.
         21    1    1    2  503  504 -0.47895385571E+01  0.35145509964E+02  0.15984228664E+03  0.16373058098E+03  0.00000000000E+00 0. -1.
         21    1    1    2  504  502  0.47895385571E+01 -0.35145509964E+02 -0.35965064363E+03  0.36139553403E+03  0.00000000000E+00 0. -1.
</event>
<event>
 4    1  0.1551744E+006  0.2386781E+02  0.7546771E-02  0.1481879E+00
         21   -1    0    0  502  501  0.00000000000E+00  0.00000000000E+00  0.10092356110E+02  0.10092356110E+02  0.00000000000E+00 0.  1.
         21   -1    0    0  503  502 -0.00000000000E+00 -0.00000000000E+00 -0.35967535410E+03  0.35967535410E+03  0.00000000000E+00 0. -1.
         21    1    1    2  503  504 -0.11053017541E+02 -0.21154269731E+02 -0.34454913789E+03  0.34537484092E+03  0.00000000000E+00 0. -1.
         21    1    1    2  504  501  0.11053017541E+02  0.21154269731E+02 -0.50338601061E+01  0.24392869289E+02  0.00000000000E+00 0.  1.
</event>
<event>
 4    1  0.1551744E+006  0.2095063E+02  0.7546771E-02  0.1519971E+00
         21   -1    0    0  503  501  0.00000000000E+00  0.00000000000E+00  0.49752789556E+02  0.49752789556E+02  0.00000000000E+00 0. -1.
         21   -1    0    0  504  502 -0.00000000000E+00 -0.00000000000E+00 -0.11357385261E+02  0.11357385261E+02  0.00000000000E+00 0.  1.
         21    1    1    2  503  502  0.14149602555E+02 -0.15450484292E+02  0.33633799164E+02  0.39625259161E+02  0.00000000000E+00 0. -1.
         21    1    1    2  504  501 -0.14149602555E+02  0.15450484292E+02  0.47616051297E+01  0.21484915656E+02  0.00000000000E+00 0.  1.
</event>
<event>
 4    1  0.1551744E+006  0.2448907E+02  0.7546771E-02  0.1474601E+00
         21   -1    0    0  502  501  0.00000000000E+00  0.00000000000E+00  0.25986706507E+03  0.25986706507E+03  0.00000000000E+00 0. -1.
         21   -1    0    0  503  502 -0.00000000000E+00 -0.00000000000E+00 -0.27086439121E+01  0.27086439121E+01  0.00000000000E+00 0.  1.
         21    1    1    2  503  504 -0.88403144418E+01 -0.22837761944E+02  0.78072373740E+02  0.81823041202E+02  0.00000000000E+00 0.  1.
         21    1    1    2  504  501  0.88403144418E+01  0.22837761944E+02  0.17908604741E+03  0.18075266778E+03  0.00000000000E+00 0. -1.
</event>
<event>
 4    1  0.1551744E+006  0.2815561E+02  0.7546771E-02  0.1436333E+00
         21   -1    0    0  502  501  0.00000000000E+00  0.00000000000E+00  0.15318772961E+02  0.15318772961E+02  0.00000000000E+00 0.  1.
         21   -1    0    0  503  502 -0.00000000000E+00 -0.00000000000E+00 -0.19890047384E+03  0.19890047384E+03  0.00000000000E+00 0. -1.
         21    1    1    2  503  504  0.27898198331E+02  0.37985253826E+01 -0.18391897052E+03  0.18606161877E+03  0.00000000000E+00 0. -1.
         21    1    1    2  504  501 -0.27898198331E+02 -0.37985253826E+01  0.33726963825E+00  0.28157628025E+02  0.00000000000E+00 0.  1.
</event>
<event>
 4    1  0.1551744E+006  0.2230645E+02  0.7546771E-02  0.1501396E+00
         21   -1    0    0  503  501  0.00000000000E+00  0.00000000000E+00  0.29727474290E+01  0.29727474290E+01  0.00000000000E+00 0.  1.
         21   -1    0    0  504  502 -0.00000000000E+00 -0.00000000000E+00 -0.19681390146E+03  0.19681390146E+03  0.00000000000E+00 0.  1.
         21    1    1    2  503  502 -0.15134996990E+02 -0.16386257567E+02 -0.58289686896E+02  0.62412059487E+02  0.00000000000E+00 0.  1.
         21    1    1    2  504  501  0.15134996990E+02  0.16386257567E+02 -0.13555146714E+03  0.13737458941E+03  0.00000000000E+00 0.  1.
</event>
<event>
 4    1  0.1551744E+006  0.2459999E+02  0.7546771E-02  0.1473328E+00
         21   -1    0    0  504  501  0.00000000000E+00  0.00000000000E+00  0.11121064216E+02  0.11121064216E+02  0.00000000000E+00 0.  1.
         21   -1    0    0  503  502 -0.00000000000E+00 -0.00000000000E+00 -0.64359865160E+02  0.64359865160E+02  0.00000000000E+00 0.  1.
         21    1    1    2  503  501  0.17313156111E+01 -0.24538994130E+02 -0.41454328037E+02  0.48203952117E+02  0.00000000000E+00 0.  1.
         21    1    1    2  504  502 -0.17313156111E+01  0.24538994130E+02 -0.11784472907E+02  0.27276977259E+02  0.00000000000E+00 0.  1.
</event>
<event>
 4    1  0.1551744E+006  0.2287167E+02  0.7546771E-02  0.1494116E+00
         21   -1    0    0  503  501  0.00000000000E+00  0.00000000000E+00  0.22376691739E+03  0.22376691739E+03  0.00000000000E+00 0.  1.
         21   -1    0    0  504  502 -0.00000000000E+00 -0.00000000000E+00 -0.87670117970E+01  0.87670117970E+01  0.00000000000E+00 0. -1.
         21    1    1    2  503  502  0.16714402566E+02  0.15612239609E+02  0.20706588562E+03  0.20832521275E+03  0.00000000000E+00 0.  1.
         21    1    1    2  504  501 -0.16714402566E+02 -0.15612239609E+02  0.79340199745E+01  0.24208716441E+02  0.00000000000E+00 0. -1.
</event>
<event>
 4    1  0.1551744E+006  0.2139256E+02  0.7546771E-02  0.1513733E+00
         21   -1    0    0  502  501  0.00000000000E+00  0.00000000000E+00  0.23339556411E+02  0.23339556411E+02  0.00000000000E+00 0.  1.
         21   -1    0    0  503  502 -0.00000000000E+00 -0.00000000000E+00 -0.21760715280E+02  0.21760715280E+02  0.00000000000E+00 0. -1.
         21    1    1    2  503  504 -0.19181218136E+02 -0.94721856350E+01 -0.63032279019E+01  0.22301840997E+02  0.00000000000E+00 0. -1.
         21    1    1    2  504  501  0.19181218136E+02  0.94721856350E+01  0.78820690322E+01  0.22798430694E+02  0.00000000000E+00 0.  1.
</event>
<event>
 4    1  0.1551744E+006  0.3149100E+02  0.7546771E-02  0.1407068E+00
         21   -1    0    0  503  501  0.00000000000E+00  0.00000000000E+00  0.48393950731E+02  0.48393950731E+02  0.00000000000E+00 0.  1.
         21   -1    0    0  501  502 -0.00000000000E+00 -0.00000000000E+00 -0.60772871793E+02  0.60772871793E+02  0.00000000000E+00 0. -1.
         21    1    1    2  503  504 -0.24701393124E+02 -0.19532641150E+02  0.38248680957E+02  0.49544368878E+02  0.00000000000E+00 0.  1.
         21    1    1    2  504  502  0.24701393124E+02  0.19532641150E+02 -0.50627602019E+02  0.59622453646E+02  0.00000000000E+00 0. -1.
</event>
<event>
 4    1  0.1551744E+006  0.2878225E+02  0.7546771E-02  0.1430482E+00
         21   -1    0    0  504  501  0.00000000000E+00  0.00000000000E+00  0.44670792565E+03  0.44670792565E+03  0.00000000000E+00 0. -1.
         21   -1    0    0  501  502 -0.00000000000E+00 -0.00000000000E+00 -0.28406755100E+02  0.28406755100E+02  0.00000000000E+00 0.  1.
         21    1    1    2  503  502  0.27611631772E+02 -0.81250207533E+01 -0.20521586691E+02  0.35349026743E+02  0.00000000000E+00 0.  1.
         21    1    1    2  504  503 -0.27611631772E+02  0.81250207533E+01  0.43882275724E+03  0.43976565401E+03  0.00000000000E+00 0. -1.
</event>
<event>
 4    1  0.1551744E+006  0.2521034E+02  0.7546771E-02  0.1466464E+00
         21   -1    0    0  502  501  0.00000000000E+00  0.00000000000E+00  0.17434819521E+02  0.17434819521E+02  0.00000000000E+00 0. -1.
         21   -1    0    0  503  502 -0.00000000000E+00 -0.00000000000E+00 -0.38440276916E+02  0.38440276916E+02  0.00000000000E+00 0. -1.
         21    1    1    2  503  504  0.12942738490E+01  0.25177092304E+02 -0.16854045408E+02  0.30325236493E+02  0.00000000000E+00 0. -1.
         21    1    1    2  504  501 -0.12942738490E+01 -0.25177092304E+02 -0.41514119866E+01  0.25549859944E+02  0.00000000000E+00 0. -1.
</event>
<event>
 4    1  0.1551744E+006  0.7721437E+02  0.7546771E-02  0.1210466E+00
         21   -1    0    0  503  501  0.00000000000E+00  0.00000000000E+00  0.10592101236E+03  0.10592101236E+03  0.00000000000E+00 0. -1.
         21   -1    0    0  504  502 -0.00000000000E+00 -0.00000000000E+00 -0.65083133393E+02  0.65083133393E+02  0.00000000000E+00 0. -1.
         21    1    1    2  503  502 -0.54576722257E+02 -0.54620873600E+02  0.51850729145E+02  0.93008368215E+02  0.00000000000E+00 0. -1.
         21    1    1    2  504  501  0.54576722257E+02  0.54620873600E+02 -0.11012850175E+02  0.77995777541E+02  0.00000000000E+00 0. -1.
</event>
<event>
 4    1  0.1551744E+006  0.3046660E+02  0.7546771E-02  0.1415584E+00
         21   -1    0    0  504  501  0.00000000000E+00  0.00000000000E+00  0.39550061597E+03  0.39550061597E+03  0.00000000000E+00 0. -1.
         21   -1    0    0  503  502 -0.00000000000E+00 -0.00000000000E+00 -0.49504788255E+01  0.49504788255E+01  0.00000000000E+00 0. -1.
         21    1    1    2  503  501 -0.81563429256E+01  0.29354516335E+02  0.50071103593E+02  0.58611679503E+02  0.00000000000E+00 0. -1.
         21    1    1    2  504  502  0.81563429256E+01 -0.29354516335E+02  0.34047903356E+03  0.34183941530E+03  0.00000000000E+00 0. -1.
</event>
<event>
 4    1  0.1551744E+006  0.2227874E+02  0.7546771E-02  0.1501759E+00
         21   -1    0    0  504  501  0.00000000000E+00  0.00000000000E+00  0.76198771969E+02  0.76198771969E+02  0.00000000000E+00 0. -1.
         21   -1    0    0  503  502 -0.00000000000E+00 -0.00000000000E+00 -0.78435832526E+01  0.78435832526E+01  0.00000000000E+00 0. -1.
         21    1    1    2  503  501 -0.15468279878E+02  0.16033545470E+02  0.51479907795E+02  0.56093878181E+02  0.00000000000E+00 0. -1.
         21    1    1    2  504  502  0.15468279878E+02 -0.16033545470E+02  0.16875280921E+02  0.27948477040E+02  0.00000000000E+00 0. -1.
</event>
<event>
 4    1  0.1551744E+006  0.4228248E+02  0.7546771E-02  0.1335606E+00
         21   -1    0    0  502  501  0.00000000000E+00  0.00000000000E+00  0.11636181210E+03  0.11636181210E+03  0.00000000000E+00 0.  1.
         21   -1    0    0  504  502 -0.00000000000E+00 -0.00000000000E+00 -0.19405038191E+03  0.19405038191E+03  0.00000000000E+00 0. -1.
         21    1    1    2  503  501 -0.41500390067E+02 -0.80947914165E+01  0.11009079127E+03  0.11793129503E+03  0.00000000000E+00 0.  1.
         21    1    1    2  504  503  0.41500390067E+02  0.80947914165E+01 -0.18777936109E+03  0.19248089899E+03  0.00000000000E+00 0. -1.
</event>
<event>
 4    1  0.1551744E+006  0.3206707E+02  0.7546771E-02  0.1402445E+00
         21   -1    0    0  504  501  0.00000000000E+00  0.00000000000E+00  0.24347324827E+03  0.24347324827E+03  0.00000000000E+00 0.  1.
         21   -1    0    0  503  502 -0.00000000000E+00 -0.00000000000E+00 -0.42250535526E+01  0.42250535526E+01  0.00000000000E+00 0.  1.
         21    1    1    2  503  501 -0.91323616461E+01  0.30739170929E+02  0.11720997909E+03  0.12151738912E+03  0.00000000000E+00 0.  1.
         21    1    1    2  504  502  0.91323616461E+01 -0.30739170929E+02  0.12203821562E+03  0.12618091270E+03  0.00000000000E+00 0.  1.
</event>
<event>
 4    1  0.1551744E+006  0.2158944E+02  0.7546771E-02  0.1511013E+00
         21   -1    0    0  504  501  0.00000000000E+00  0.00000000000E+00  0.13969014694E+02  0.13969014694E+02  0.00000000000E+00 0.  1.
         21   -1    0    0  501  502 -0.00000000000E+00 -0.00000000000E+00 -0.36893494182E+02  0.36893494182E+02  0.00000000000E+00 0. -1.
         21    1    1    2  503  502  0.91299704388E+01 -0.19563934550E+02 -0.35996532671E+01  0.21887471278E+02  0.00000000000E+00 0.  1.
         21    1    1    2  504  503 -0.91299704388E+01  0.19563934550E+02 -0.19324826221E+02  0.28975037598E+02  0.00000000000E+00 0. -1.
</event>
<event>
 4    1  0.1551744E+006  0.2068214E+02  0.7546771E-02  0.1523852E+00
         21   -1    0    0  503  501  0.00000000000E+00  0.00000000000E+00  0.37509002152E+02  0.37509002152E+02  0.00000000000E+00 0. -1.
         21   -1    0    0  504  502 -0.00000000000E+00 -0.00000000000E+00 -0.34004263041E+02  0.34004263041E+02  0.00000000000E+00 0. -1.
         21    1    1    2  503  502 -0.19785424313E+02 -0.60239271166E+01  0.30902947820E+02  0.37185251070E+02  0.00000000000E+00 0. -1.
         21    1    1    2  504  501  0.19785424313E+02  0.60239271166E+01 -0.27398208709E+02  0.34328014123E+02  0.00000000000E+00 0. -1.
</event>
<event>
 4    1  0.1551744E+006  0.2268597E+02  0.7546771E-02  0.1496480E+00
         21   -1    0    0  504  501  0.00000000000E+00  0.00000000000E+00  0.17047631888E+03  0.17047631888E+03  0.00000000000E+00 0. -1.
         21   -1    0    0  501  502 -0.00000000000E+00 -0.00000000000E+00 -0.15434151916E+02  0.15434151916E+02  0.00000000000E+00 0. -1.
         21    1    1    2  503  502  0.18992455464E+02  0.12407244632E+02 -0.58489584212E+01  0.23427833842E+02  0.00000000000E+00 0. -1.
         21    1    1    2  504  503 -0.18992455464E+02 -0.12407244632E+02  0.16089112538E+03  0.16248263695E+03  0.00000000000E+00 0. -1.
</event>
<event>
 4    1  0.1551744E+006  0.2110548E+02  0.7546771E-02  0.1517764E+00
         21   -1    0    0  502  501  0.00000000000E+00  0.00000000000E+00  0.31129463083E+02  0.31129463083E+02  0.00000000000E+00 0.  1.
         21   -1    0    0  503  502 -0.00000000000E+00 -0.00000000000E+00 -0.52236069706E+02  0.52236069706E+02  0.00000000000E+00 0.  1.
         21    1    1    2  503  504  0.19430297306E+02  0.82404383360E+01 -0.46070945876E+02  0.50675174704E+02  0.00000000000E+00 0.  1.
         21    1    1    2  504  501 -0.19430297306E+02 -0.82404383360E+01  0.24964339253E+02  0.32690358085E+02  0.00000000000E+00 0.  1.
</event>
<event>
 4    1  0.1551744E+006  0.3685979E+02  0.7546771E-02  0.1367940E+00
         21   -1    0    0  503  501  0.00000000000E+00  0.00000000000E+00  0.24345851830E+03  0.24345851830E+03  0.00000000000E+00 0. -1.
         21   -1    0    0  501  502 -0.00000000000E+00 -0.00000000000E+00 -0.24926690373E+02  0.24926690373E+02  0.00000000000E+00 0. -1.
         21    1    1    2  503  504  0.36852043398E+02 -0.75545418539E+00  0.22748644740E+03  0.23045330886E+03  0.00000000000E+00 0. -1.
         21    1    1    2  504  502 -0.36852043398E+02  0.75545418539E+00 -0.89546194726E+01  0.37931899814E+02  0.00000000000E+00 0. -1.
</event>
<event>
 4    1  0.1551744E+006  0.2035203E+02  0.7546771E-02  0.1528721E+00
         21   -1    0    0  503  501  0.00000000000E+00  0.00000000000E+00  0.43300889238E+00  0.43300889238E+00  0.00000000000E+00 0. -1.
         21   -1    0    0  504  502 -0.00000000000E+00 -0.00000000000E+00 -0.96088932667E+03  0.96088932667E+03  0.00000000000E+00 0. -1.
         21    1    1    2  503  502 -0.14631573160E+02 -0.14146459496E+02 -0.44801852343E+03  0.44848054873E+03  0.00000000000E+00 0. -1.
         21    1    1    2  504  501  0.14631573160E+02  0.14146459496E+02 -0.51243779434E+03  0.51284178683E+03  0.00000000000E+00 0. -1.
</event>
<event>
 4    1  0.1551744E+006  0.2259098E+02  0.7546771E-02  0.1497699E+00
         21   -1    0    0  504  501  0.00000000000E+00  0.00000000000E+00  0.89087681350E+01  0.89087681350E+01  0.00000000000E+00 0. -1.
         21   -1    0    0  503  502 -0.00000000000E+00 -0.00000000000E+00 -0.19058617328E+03  0.19058617328E+03  0.00000000000E+00 0.  1.
         21    1    1    2  503  501  0.38343943728E+01 -0.22263193095E+02 -0.74186032191E+01  0.23777889324E+02  0.00000000000E+00 0. -1.
         21    1    1    2  504  502 -0.38343943728E+01  0.22263193095E+02 -0.17425880193E+03  0.17571705209E+03  0.00000000000E+00 0.  1.
</event>
<event>
 4    1  0.1551744E+006  0.2084612E+02  0.7546771E-02  0.1521473E+00
         21   -1    0    0  503  501  0.00000000000E+00  0.00000000000E+00  0.70719731584E+03  0.70719731584E+03  0.00000000000E+00 0. -1.
         21   -1    0    0  504  502 -0.00000000000E+00 -0.00000000000E+00 -0.22937570584E+01  0.22937570584E+01  0.00000000000E+00 0. -1.
         21    1    1    2  503  502  0.18622043372E+02  0.93691080350E+01  0.65598346113E+03  0.65631460593E+03  0.00000000000E+00 0. -1.
         21    1    1    2  504  501 -0.18622043372E+02 -0.93691080350E+01  0.48920097653E+02  0.53176466967E+02  0.00000000000E+00 0. -1.
</event>
<event>
 4    1  0.1551744E+006  0.2244091E+02  0.7546771E-02  0.1499641E+00
         21   -1    0    0  504  501  0.00000000000E+00  0.00000000000E+00  0.42606599597E+02  0.42606599597E+02  0.00000000000E+00 0. -1.
         21   -1    0    0  503  502 -0.00000000000E+00 -0.00000000000E+00 -0.23724606753E+02  0.23724606753E+02  0.00000000000E+00 0. -1.
         21    1    1    2  503  501 -0.22426404219E+02  0.80687120658E+00 -0.14052761610E+02  0.26477816303E+02  0.00000000000E+00 0. -1.
         21    1    1    2  504  502  0.22426404219E+02 -0.80687120658E+00  0.32934754453E+02  0.39853390047E+02  0.00000000000E+00 0. -1.
</event>
<event>
 4    1  0.1551744E+006  0.2725924E+02  0.7546771E-02  0.1445021E+00
         21   -1    0    0  504  501  0.00000000000E+00  0.00000000000E+00  0.29120464143E+02  0.29120464143E+02  0.00000000000E+00 0. -1.
         21   -1    0    0  501  502 -0.00000000000E+00 -0.00000000000E+00 -0.56538831165E+02  0.56538831165E+02  0.00000000000E+00 0. -1.
         21    1    1    2  503  502 -0.59997068989E+01 -0.26590784903E+02 -0.45434425095E+02  0.52984462896E+02  0.00000000000E+00 0. -1.
         21    1    1    2  504  503  0.59997068989E+01  0.26590784903E+02  0.18016058073E+02  0.32674832412E+02  0.00000000000E+00 0. -1.
</event>
<event>
 4    1  0.1551744E+006  0.3300922E+02  0.7546771E-02  0.1395126E+00
         21   -1    0    0  503  501  0.00000000000E+00  0.00000000000E+00  0.51257319106E+01  0.51257319106E+01  0.00000000000E+00 0. -1.
         21   -1    0    0  504  502 -0.00000000000E+00 -0.00000000000E+00 -0.21326278039E+03  0.21326278039E+03  0.00000000000E+00 0. -1.
         21    1    1    2  503  502  0.57013573235E+01 -0.32513127154E+02 -0.97873123677E+02  0.10328967640E+03  0.00000000000E+00 0. -1.
         21    1    1    2  504  501 -0.57013573235E+01  0.32513127154E+02 -0.11026392480E+03  0.11509883590E+03  0.00000000000E+00 0. -1.
</event>
<event>
 4    1  0.1551744E+006  0.3668469E+02  0.7546771E-02  0.1369091E+00
         21   -1    0    0  502  501  0.00000000000E+00  0.00000000000E+00  0.17815995869E+01  0.17815995869E+01  0.00000000000E+00 0.  1.
         21   -1    0    0  503  502 -0.00000000000E+00 -0.00000000000E+00 -0.77756185019E+03  0.77756185019E+03  0.00000000000E+00 0.  1.
         21    1    1    2  503  504  0.47480262303E+01 -0.36376125281E+02 -0.45372131039E+03  0.45520192634E+03  0.00000000000E+00 0.  1.
         21    1    1    2  504  501 -0.47480262303E+01  0.36376125281E+02 -0.32205894022E+03  0.32414152344E+03  0.00000000000E+00 0.  1.
</event>
<event>
 4    1  0.1551744E+006  0.2451732E+02  0.7546771E-02  0.1474276E+00
         21   -1    0    0  504  501  0.00000000000E+00  0.00000000000E+00  0.40918695126E+02  0.40918695126E+02  0.00000000000E+00 0. -1.
         21   -1    0    0  501  502 -0.00000000000E+00 -0.00000000000E+00 -0.81025864910E+02  0.81025864910E+02  0.00000000000E+00 0.  1.
         21    1    1    2  503  502  0.10685178980E+02  0.22066401237E+02 -0.75222509330E+02  0.79117160106E+02  0.00000000000E+00 0.  1.
         21    1    1    2  504  503 -0.10685178980E+02 -0.22066401237E+02  0.35115339545E+02  0.42827399930E+02  0.00000000000E+00 0. -1.
</event>
<event>
 4    1  0.1551744E+006  0.2072086E+02  0.7546771E-02  0.1523288E+00
         21   -1    0    0  504  501  0.00000000000E+00  0.00000000000E+00  0.96652139630E+00  0.96652139630E+00  0.00000000000E+00 0.  1.
         21   -1    0    0  503  502 -0.00000000000E+00 -0.00000000000E+00 -0.50896057155E+03  0.50896057155E+03  0.00000000000E+00 0.  1.
         21    1    1    2  503  501  0.11507581818E+02  0.17231646880E+02 -0.34492627455E+03  0.34554809935E+03  0.00000000000E+00 0.  1.
         21    1    1    2  504  502 -0.11507581818E+02 -0.17231646880E+02 -0.16306777561E+03  0.16437899360E+03  0.00000000000E+00 0.  1.
</event>
<event>
 4    1  0.1551744E+006  0.3145495E+02  0.7546771E-02  0.1407361E+00
         21   -1    0    0  503  501  0.00000000000E+00  0.00000000000E+00  0.87928251050E+02  0.87928251050E+02  0.00000000000E+00 0.  1.
         21   -1    0    0  501  502 -0.00000000000E+00 -0.00000000000E+00 -0.11421453771E+02  0.11421453771E+02  0.00000000000E+00 0.  1.
         21    1    1    2  503  504  0.17123565799E+02 -0.26385546845E+02  0.44294916340E+02  0.54327278614E+02  0.00000000000E+00 0.  1.
         21    1    1    2  504  502 -0.17123565799E+02  0.26385546845E+02  0.32211880939E+02  0.45022426207E+02  0.00000000000E+00 0.  1.
</event>
<event>
 4    1  0.1551744E+006  0.2056352E+02  0.7546771E-02  0.1525589E+00
         21   -1    0    0  504  501  0.00000000000E+00  0.00000000000E+00  0.34862881448E+02  0.34862881448E+02  0.00000000000E+00 0.  1.
         21   -1    0    0  501  502 -0.00000000000E+00 -0.00000000000E+00 -0.18432142770E+02  0.18432142770E+02  0.00000000000E+00 0.  1.
         21    1    1    2  503  502 -0.11657836126E+02 -0.16939694826E+02 -0.73672653577E+01  0.21843420125E+02  0.00000000000E+00 0.  1.
         21    1    1    2  504  503  0.11657836126E+02  0.16939694826E+02  0.23798004035E+02  0.31451604092E+02  0.00000000000E+00 0.  1.
</event>
<event>
 4    1  0.1551744E+006  0.2229264E+02  0.7546771E-02  0.1501577E+00
         21   -1    0    0  504  501  0.00000000000E+00  0.00000000000E+00  0.17752419697E+03  0.17752419697E+03  0.00000000000E+00 0. -1.
         21   -1    0    0  503  502 -0.00000000000E+00 -0.00000000000E+00 -0.66723287037E+01  0.66723287037E+01  0.00000000000E+00 0.  1.
         21    1    1    2  503  501 -0.16394535730E+02 -0.15105665388E+02  0.15259039784E+02  0.27014814894E+02  0.00000000000E+00 0.  1.
         21    1    1    2  504  502  0.16394535730E+02  0.15105665388E+02  0.15559282849E+03  0.15718171078E+03  0.00000000000E+00 0. -1.
</event>
<event>
 4    1  0.1551744E+006  0.2817626E+02  0.7546771E-02  0.1436137E+00
         21   -1    0    0  503  501  0.00000000000E+00  0.00000000000E+00  0.69108088316E+01  0.69108088316E+01  0.00000000000E+00 0. -1.
         21   -1    0    0  504  502 -0.00000000000E+00 -0.00000000000E+00 -0.20180150619E+03  0.20180150619E+03  0.00000000000E+00 0. -1.
         21    1    1    2  503  502 -0.75249550455E+01  0.27152836387E+02 -0.28955859605E+02  0.40402268225E+02  0.00000000000E+00 0. -1.
         21    1    1    2  504  501  0.75249550455E+01 -0.27152836387E+02 -0.16593483776E+03  0.16831004680E+03  0.00000000000E+00 0. -1.
</event>
<event>
 4    1  0.1551744E+006  0.2408738E+02  0.7546771E-02  0.1479277E+00
         21   -1    0    0  504  501  0.00000000000E+00  0.00000000000E+00  0.85631387074E+03  0.85631387074E+03  0.00000000000E+00 0.  1.
         21   -1    0    0  503  502 -0.00000000000E+00 -0.00000000000E+00 -0.77941381911E+00  0.77941381911E+00  0.00000000000E+00 0.  1.
         21    1    1    2  503  501 -0.33245529249E+01  0.23856852109E+02  0.27284717497E+03  0.27390834769E+03  0.00000000000E+00 0.  1.
         21    1    1    2  504  502  0.33245529249E+01 -0.23856852109E+02  0.58268728195E+03  0.58318493687E+03  0.00000000000E+00 0.  1.
</event>
<event>
 4    1  0.1551744E+006  0.2267578E+02  0.7546771E-02  0.1496610E+00
         21   -1    0    0  502  501  0.00000000000E+00  0.00000000000E+00  0.27800197669E+02  0.27800197669E+02  0.00000000000E+00 0.  1.
         21   -1    0    0  503  502 -0.00000000000E+00 -0.00000000000E+00 -0.18748698138E+03  0.18748698138E+03  0.00000000000E+00 0.  1.
         21    1    1    2  503  504  0.17660918146E+02  0.14222627353E+02 -0.18203951879E+03  0.18344638879E+03  0.00000000000E+00 0.  1.
         21    1    1    2  504  501 -0.17660918146E+02 -0.14222627353E+02  0.22352735082E+02  0.31840790257E+02  0.00000000000E+00 0.  1.
</event>
<event>
 4    1  0.1551744E+006  0.2025453E+02  0.7546771E-02  0.1530180E+00
         21   -1    0    0  504  501  0.00000000000E+00  0.00000000000E+00  0.43530169280E+03  0.43530169280E+03  0.00000000000E+00 0. -1.
         21   -1    0    0  503  502 -0.00000000000E+00 -0.00000000000E+00 -0.94281819729E+00  0.94281819729E+00  0.00000000000E+00 0. -1.
         21    1    1    2  503  501 -0.19952814713E+02  0.34830002075E+01  0.22154304779E+03  0.22246700458E+03  0.00000000000E+00 0. -1.
         21    1    1    2  504  502  0.19952814713E+02 -0.34830002075E+01  0.21281582682E+03  0.21377750642E+03  0.00000000000E+00 0. -1.
</event>
<event>
 4    1  0.1551744E+006  0.2083391E+02  0.7546771E-02  0.1521649E+00
         21   -1    0    0  504  501  0.00000000000E+00  0.00000000000E+00  0.16166619945E+02  0.16166619945E+02  0.00000000000E+00 0. -1.
         21   -1    0    0  503  502 -0.00000000000E+00 -0.00000000000E+00 -0.32917018014E+02  0.32917018014E+02  0.00000000000E+00 0. -1.
         21    1    1    2  503  501 -0.70843676577E+01  0.19592434538E+02  0.21621854038E+01  0.20945806310E+02  0.00000000000E+00 0. -1.
         21    1    1    2  504  502  0.70843676577E+01 -0.19592434538E+02 -0.18912583473E+02  0.28137831648E+02  0.00000000000E+00 0. -1.
</event>
<event>
 4    1  0.1551744E+006  0.3227239E+02  0.7546771E-02  0.1400825E+00
         21   -1    0    0  504  501  0.00000000000E+00  0.00000000000E+00  0.29016022129E+01  0.29016022129E+01  0.00000000000E+00 0. -1.
         21   -1    0    0  503  502 -0.00000000000E+00 -0.00000000000E+00 -0.21220165810E+04  0.21220165810E+04  0.00000000000E+00 0.  1.
         21    1    1    2  503  501 -0.31820077709E+02 -0.53842305232E+01 -0.20279984648E+04  0.20282552306E+04  0.00000000000E+00 0.  1.
         21    1    1    2  504  502  0.31820077709E+02  0.53842305232E+01 -0.91116513976E+02  0.96662952588E+02  0.00000000000E+00 0. -1.
</event>
<event>
 4    1  0.1551744E+006  0.2300661E+02  0.7546771E-02  0.1492415E+00
         21   -1    0    0  503  501  0.00000000000E+00  0.00000000000E+00  0.28817087064E+02  0.28817087064E+02  0.00000000000E+00 0. -1.
         21   -1    0    0  504  502 -0.00000000000E+00 -0.00000000000E+00 -0.12805343249E+03  0.12805343249E+03  0.00000000000E+00 0. -1.
         21    1    1    2  503  502  0.22440091284E+02 -0.50741045091E+01  0.22974160300E+02  0.32513324574E+02  0.00000000000E+00 0. -1.
         21    1    1    2  504  501 -0.22440091284E+02  0.50741045091E+01 -0.12221050573E+03  0.12435719498E+03  0.00000000000E+00 0. -1.
</event>
<event>
 4    1  0.1551744E+006  0.2083859E+02  0.7546771E-02  0.1521582E+00
         21   -1    0    0  504  501  0.00000000000E+00  0.00000000000E+00  0.23125555483E+00  0.23125555483E+00  0.00000000000E+00 0.  1.
         21   -1    0    0  503  502 -0.00000000000E+00 -0.00000000000E+00 -0.19594721999E+04  0.19594721999E+04  0.00000000000E+00 0.  1.
         21    1    1    2  503  501  0.20264588274E+02 -0.48573020418E+01 -0.77955015827E+03  0.77982863258E+03  0.00000000000E+00 0.  1.
         21    1    1    2  504  502 -0.20264588274E+02  0.48573020418E+01 -0.11796907861E+04  0.11798748229E+04  0.00000000000E+00 0.  1.
</event>
<event>
 4    1  0.1551744E+006  0.2194323E+02  0.7546771E-02  0.1506212E+00
         21   -1    0    0  503  501  0.00000000000E+00  0.00000000000E+00  0.36727441990E+02  0.36727441990E+02  0.00000000000E+00 0. -1.
         21   -1    0    0  501  502 -0.00000000000E+00 -0.00000000000E+00 -0.75925506910E+02  0.75925506910E+02  0.00000000000E+00 0.  1.
         21    1    1    2  503  504 -0.14802006497E+02 -0.16198951033E+02  0.31634150668E+02  0.38499674017E+02  0.00000000000E+00 0. -1.
         21    1    1    2  504  502  0.14802006497E+02  0.16198951033E+02 -0.70832215588E+02  0.74153274884E+02  0.00000000000E+00 0.  1.
</event>
<event>
 4    1  0.1551744E+006  0.4261126E+02  0.7546771E-02  0.1333828E+00
         21   -1    0    0  504  501  0.00000000000E+00  0.00000000000E+00  0.40009689069E+03  0.40009689069E+03  0.00000000000E+00 0. -1.
         21   -1    0    0  503  502 -0.00000000000E+00 -0.00000000000E+00 -0.80443146785E+01  0.80443146785E+01  0.00000000000E+00 0.  1.
         21    1    1    2  503  501  0.42532090466E+02  0.25962728599E+01  0.33075154954E+03  0.33348509243E+03  0.00000000000E+00 0. -1.
         21    1    1    2  504  502 -0.42532090466E+02 -0.25962728599E+01  0.61301026472E+02  0.74656112936E+02  0.00000000000E+00 0.  1.
</event>
<event>
 4    1  0.1551744E+006  0.2709669E+02  0.7546771E-02  0.1446639E+00
         21   -1    0    0  504  501  0.00000000000E+00  0.00000000000E+00  0.17552000199E+02  0.17552000199E+02  0.00000000000E+00 0.  1.
         21   -1    0    0  503  502 -0.00000000000E+00 -0.00000000000E+00 -0.41949236220E+02  0.41949236220E+02  0.00000000000E+00 0.  1.
         21    1    1    2  503  501  0.23796574416E+02 -0.12959684450E+02 -0.10623978800E+02  0.29104970375E+02  0.00000000000E+00 0.  1.
         21    1    1    2  504  502 -0.23796574416E+02  0.12959684450E+02 -0.13773257221E+02  0.30396266045E+02  0.00000000000E+00 0.  1.
</event>
<event>
 4    1  0.1551744E+006  0.5598458E+02  0.7546771E-02  0.1274122E+00
         21   -1    0    0  503  501  0.00000000000E+00  0.00000000000E+00  0.19815703598E+03  0.19815703598E+03  0.00000000000E+00 0.  1.
         21   -1    0    0  504  502 -0.00000000000E+00 -0.00000000000E+00 -0.79628697869E+02  0.79628697869E+02  0.00000000000E+00 0. -1.
         21    1    1    2  503  502  0.55438904757E+02  0.77975110847E+01 -0.65071255588E+02  0.85840209946E+02  0.00000000000E+00 0. -1.
         21    1    1    2  504  501 -0.55438904757E+02 -0.77975110847E+01  0.18359959370E+03  0.19194552391E+03  0.00000000000E+00 0.  1.
</event>
<event>
 4    1  0.1551744E+006  0.2441867E+02  0.7546771E-02  0.1475413E+00
         21   -1    0    0  503  501  0.00000000000E+00  0.00000000000E+00  0.35723193266E+03  0.35723193266E+03  0.00000000000E+00 0. -1.
         21   -1    0    0  504  502 -0.00000000000E+00 -0.00000000000E+00 -0.18951440101E+01  0.18951440101E+01  0.00000000000E+00 0.  1.
         21    1    1    2  503  502  0.24083288874E+02 -0.40332121426E+01  0.11565991265E+03  0.11820950469E+03  0.00000000000E+00 0.  1.
         21    1    1    2  504  501 -0.24083288874E+02  0.40332121426E+01  0.23967687599E+03  0.24091757198E+03  0.00000000000E+00 0. -1.
</event>
<event>
 4    1  0.1551744E+006  0.2416022E+02  0.7546771E-02  0.1478421E+00
         21   -1    0    0  504  501  0.00000000000E+00  0.00000000000E+00  0.16478031018E+03  0.16478031018E+03  0.00000000000E+00 0.  1.
         21   -1    0    0  503  502 -0.00000000000E+00 -0.00000000000E+00 -0.23789134814E+03  0.23789134814E+03  0.00000000000E+00 0.  1.
         21    1    1    2  503  501  0.18063962013E+02 -0.16043981539E+02  0.16327566324E+03  0.16505350124E+03  0.00000000000E+00 0.  1.
         21    1    1    2  504  502 -0.18063962013E+02  0.16043981539E+02 -0.23638670120E+03  0.23761815707E+03  0.00000000000E+00 0.  1.
</event>
<event>
 4    1  0.1551744E+006  0.3059169E+02  0.7546771E-02  0.1414523E+00
         21   -1    0    0  503  501  0.00000000000E+00  0.00000000000E+00  0.69722065036E+02  0.69722065036E+02  0.00000000000E+00 0. -1.
         21   -1    0    0  504  502 -0.00000000000E+00 -0.00000000000E+00 -0.32559189681E+02  0.32559189681E+02  0.00000000000E+00 0. -1.
         21    1    1    2  503  502  0.30107356522E+02  0.54220184746E+01 -0.20625377077E+02  0.36895221650E+02  0.00000000000E+00 0. -1.
         21    1    1    2  504  501 -0.30107356522E+02 -0.54220184746E+01  0.57788252432E+02  0.65386033067E+02  0.00000000000E+00 0. -1.
</event>
<event>
 4    1  0.1551744E+006  0.2961716E+02  0.7546771E-02  0.1422953E+00
         21   -1    0    0  504  501  0.00000000000E+00  0.00000000000E+00  0.28112887286E+02  0.28112887286E+02  0.00000000000E+00 0.  1.
         21   -1    0    0  501  502 -0.00000000000E+00 -0.00000000000E+00 -0.11537040443E+03  0.11537040443E+03  0.00000000000E+00 0.  1.
         21    1    1    2  503  502 -0.15276949427E+02  0.25373034957E+02 -0.10490595391E+03  0.10900658353E+03  0.00000000000E+00 0.  1.
         21    1    1    2  504  503  0.15276949427E+02 -0.25373034957E+02  0.17648436771E+02  0.34476708184E+02  0.00000000000E+00 0.  1.
</event>
<event>
 4    1  0.1551744E+006  0.2370749E+02  0.7546771E-02  0.1483800E+00
         21   -1    0    0  503  501  0.00000000000E+00  0.00000000000E+00  0.13614811109E+02  0.13614811109E+02  0.00000000000E+00 0. -1.
         21   -1    0    0  504  502 -0.00000000000E+00 -0.00000000000E+00 -0.32620806983E+03  0.32620806983E+03  0.00000000000E+00 0. -1.
         21    1    1    2  503  502 -0.14404277960E+02  0.18829812215E+02 -0.31509332233E+03  0.31598393445E+03  0.00000000000E+00 0. -1.
         21    1    1    2  504  501  0.14404277960E+02 -0.18829812215E+02  0.25000636129E+01  0.23838946488E+02  0.00000000000E+00 0. -1.
</event>
<event>
 4    1  0.1551744E+006  0.2472958E+02  0.7546771E-02  0.1471851E+00
         21   -1    0    0  502  501  0.00000000000E+00  0.00000000000E+00  0.72492857075E+01  0.72492857075E+01  0.00000000000E+00 0. -1.
         21   -1    0    0  504  502 -0.00000000000E+00 -0.00000000000E+00 -0.19911526481E+03  0.19911526481E+03  0.00000000000E+00 0.  1.
         21    1    1    2  503  501  0.36683947999E+01  0.24455980630E+02 -0.17601115972E+02  0.30353770646E+02  0.00000000000E+00 0. -1.
         21    1    1    2  504  503 -0.36683947999E+01 -0.24455980630E+02 -0.17426486313E+03  0.17601077987E+03  0.00000000000E+00 0.  1.
</event>
<event>
 4    1  0.1551744E+006  0.2282364E+02  0.7546771E-02  0.1494725E+00
         21   -1    0    0  503  501  0.00000000000E+00  0.00000000000E+00  0.22794964803E+02  0.22794964803E+02  0.00000000000E+00 0. -1.
         21   -1    0    0  504  502 -0.00000000000E+00 -0.00000000000E+00 -0.46824901812E+02  0.46824901812E+02  0.00000000000E+00 0. -1.
         21    1    1    2  503  502 -0.21595015022E+02 -0.73874026815E+01 -0.36921997991E+02  0.43406823516E+02  0.00000000000E+00 0. -1.
         21    1    1    2  504  501  0.21595015022E+02  0.73874026815E+01  0.12892060982E+02  0.26213043099E+02  0.00000000000E+00 0. -1.
</event>
<event>
 4    1  0.1551744E+006  0.2442108E+02  0.7546771E-02  0.1475385E+00
         21   -1    0    0  503  501  0.00000000000E+00  0.00000000000E+00  0.11585329867E+02  0.11585329867E+02  0.00000000000E+00 0.  1.
         21   -1    0    0  501  502 -0.00000000000E+00 -0.00000000000E+00 -0.53191586435E+02  0.53191586435E+02  0.00000000000E+00 0.  1.
         21    1    1    2  503  504  0.92443020643E+01 -0.22603805454E+02 -0.26616484596E+02  0.36122380790E+02  0.00000000000E+00 0.  1.
         21    1    1    2  504  502 -0.92443020643E+01  0.22603805454E+02 -0.14989771972E+02  0.28654535512E+02  0.00000000000E+00 0.  1.
</event>
<event>
 4    1  0.1551744E+006  0.2031188E+02  0.7546771E-02  0.1529320E+00
         21   -1    0    0  503  501  0.00000000000E+00  0.00000000000E+00  0.25282752892E+03  0.25282752892E+03  0.00000000000E+00 0.  1.
         21   -1    0    0  504  502 -0.00000000000E+00 -0.00000000000E+00 -0.16320845989E+01  0.16320845989E+01  0.00000000000E+00 0.  1.
         21    1    1    2  503  502  0.15727533054E+02  0.12853678176E+02  0.12401844921E+03  0.12567079248E+03  0.00000000000E+00 0.  1.
         21    1    1    2  504  501 -0.15727533054E+02 -0.12853678176E+02  0.12717699511E+03  0.12878882104E+03  0.00000000000E+00 0.  1.
</event>
<event>
 4    1  0.1551744E+006  0.4920079E+02  0.7546771E-02  0.1301675E+00
         21   -1    0    0  503  501  0.00000000000E+00  0.00000000000E+00  0.61118188479E+01  0.61118188479E+01  0.00000000000E+00 0.  1.
         21   -1    0    0  501  502 -0.00000000000E+00 -0.00000000000E+00 -0.43292420480E+03  0.43292420480E+03  0.00000000000E+00 0.  1.
         21    1    1    2  503  504  0.36406867282E+02 -0.33094685808E+02 -0.14935931126E+03  0.15725432291E+03  0.00000000000E+00 0.  1.
         21    1    1    2  504  502 -0.36406867282E+02  0.33094685808E+02 -0.27745307470E+03  0.28178170074E+03  0.00000000000E+00 0.  1.
</event>
<event>
 4    1  0.1551744E+006  0.2067053E+02  0.7546771E-02  0.1524021E+00
         21   -1    0    0  503  501  0.00000000000E+00  0.00000000000E+00  0.19635168868E+02  0.19635168868E+02  0.00000000000E+00 0.  1.
         21   -1    0    0  504  502 -0.00000000000E+00 -0.00000000000E+00 -0.14256730021E+03  0.14256730021E+03  0.00000000000E+00 0. -1.
         21    1    1    2  503  502  0.16031098358E+02 -0.13048929315E+02 -0.13612181033E+03  0.13768230793E+03  0.00000000000E+00 0. -1.
         21    1    1    2  504  501 -0.16031098358E+02  0.13048929315E+02  0.13189678986E+02  0.24520161145E+02  0.00000000000E+00 0.  1.
</event>
<event>
 4    1  0.1551744E+006  0.2765041E+02  0.7546771E-02  0.1441182E+00
         21   -1    0    0  503  501  0.00000000000E+00  0.00000000000E+00  0.11495569712E+03  0.11495569712E+03  0.00000000000E+00 0.  1.
         21   -1    0    0  501  502 -0.00000000000E+00 -0.00000000000E+00 -0.14024718215E+02  0.14024718215E+02  0.00000000000E+00 0.  1.
         21    1    1    2  503  504 -0.27648778524E+02  0.30013620800E+00  0.97227853070E+02  0.10108313632E+03  0.00000000000E+00 0.  1.
         21    1    1    2  504  502  0.27648778524E+02 -0.30013620800E+00  0.37031258364E+01  0.27897279017E+02  0.00000000000E+00 0.  1.
</event>
<event>
 4    1  0.1551744E+006  0.2420061E+02  0.7546771E-02  0.1477948E+00
         21   -1    0    0  502  501  0.00000000000E+00  0.00000000000E+00  0.24557372931E+02  0.24557372931E+02  0.00000000000E+00 0.  1.
         21   -1    0    0  504  502 -0.00000000000E+00 -0.00000000000E+00 -0.56164485302E+02  0.56164485302E+02  0.00000000000E+00 0.  1.
         21    1    1    2  503  501  0.23363864231E+02  0.63086660183E+01  0.14811526160E+02  0.28373415831E+02  0.00000000000E+00 0.  1.
         21    1    1    2  504  503 -0.23363864231E+02 -0.63086660183E+01 -0.46418638531E+02  0.52348442401E+02  0.00000000000E+00 0.  1.
</event>
<event>
 4    1  0.1551744E+006  0.5405183E+02  0.7546771E-02  0.1281500E+00
         21   -1    0    0  503  501  0.00000000000E+00  0.00000000000E+00  0.40499507540E+01  0.40499507540E+01  0.00000000000E+00 0.  1.
         21   -1    0    0  504  502 -0.00000000000E+00 -0.00000000000E+00 -0.72399078522E+03  0.72399078522E+03  0.00000000000E+00 0.  1.
         21    1    1    2  503  502 -0.35359958542E+02 -0.40881218165E+02 -0.38178130771E+03  0.38558859888E+03  0.00000000000E+00 0.  1.
         21    1    1    2  504  501  0.35359958542E+02  0.40881218165E+02 -0.33815952675E+03  0.34245213709E+03  0.00000000000E+00 0.  1.
</event>
<event>
 4    1  0.1551744E+006  0.2235467E+02  0.7546771E-02  0.1500765E+00
         21   -1    0    0  503  501  0.00000000000E+00  0.00000000000E+00  0.43973523960E+02  0.43973523960E+02  0.00000000000E+00 0. -1.
         21   -1    0    0  501  502 -0.00000000000E+00 -0.00000000000E+00 -0.21845177287E+02  0.21845177287E+02  0.00000000000E+00 0. -1.
         21    1    1    2  503  504 -0.38588252563E+01 -0.22019096845E+02  0.33859142341E+02  0.40573053598E+02  0.00000000000E+00 0. -1.
         21    1    1    2  504  502  0.38588252563E+01  0.22019096845E+02 -0.11730795668E+02  0.25245647649E+02  0.00000000000E+00 0. -1.
</event>
<event>
 4    1  0.1551744E+006  0.5229887E+02  0.7546771E-02  0.1288502E+00
         21   -1    0    0  504  501  0.00000000000E+00  0.00000000000E+00  0.76239727349E+02  0.76239727349E+02  0.00000000000E+00 0. -1.
         21   -1    0    0  501  502 -0.00000000000E+00 -0.00000000000E+00 -0.69569111768E+02  0.69569111768E+02  0.00000000000E+00 0.  1.
         21    1    1    2  503  502 -0.48480876128E+02 -0.19615732430E+02 -0.47400728980E+02  0.70583294176E+02  0.00000000000E+00 0.  1.
         21    1    1    2  504  503  0.48480876128E+02  0.19615732430E+02  0.54071344562E+02  0.75225544941E+02  0.00000000000E+00 0. -1.
</event>
<event>
 4    1  0.1551744E+006  0.2425462E+02  0.7546771E-02  0.1477317E+00
         21   -1    0    0  503  501  0.00000000000E+00  0.00000000000E+00  0.14080765403E+03  0.14080765403E+03  0.00000000000E+00 0.  1.
         21   -1    0    0  504  502 -0.00000000000E+00 -0.00000000000E+00 -0.27928907309E+02  0.27928907309E+02  0.00000000000E+00 0.  1.
         21    1    1    2  503  502 -0.24176375654E+02 -0.19466151036E+01  0.13424174641E+03  0.13641529580E+03  0.00000000000E+00 0.  1.
         21    1    1    2  504  501  0.24176375654E+02  0.19466151036E+01 -0.21362999688E+02  0.32321265535E+02  0.00000000000E+00 0.  1.
</event>
<event>
 4    1  0.1551744E+006  0.2318216E+02  0.7546771E-02  0.1490223E+00
         21   -1    0    0  503  501  0.00000000000E+00  0.00000000000E+00  0.32763324729E+02  0.32763324729E+02  0.00000000000E+00 0. -1.
         21   -1    0    0  504  502 -0.00000000000E+00 -0.00000000000E+00 -0.25358436597E+02  0.25358436597E+02  0.00000000000E+00 0. -1.
         21    1    1    2  503  502 -0.22832318695E+02  0.40122071728E+01 -0.13567623931E+02  0.26860621782E+02  0.00000000000E+00 0. -1.
         21    1    1    2  504  501  0.22832318695E+02 -0.40122071728E+01  0.20972512063E+02  0.31261139544E+02  0.00000000000E+00 0. -1.
</event>
<event>
 4    1  0.1551744E+006  0.2016916E+02  0.7546771E-02  0.1531465E+00
         21   -1    0    0  504  501  0.00000000000E+00  0.00000000000E+00  0.62863389307E+03  0.62863389307E+03  0.00000000000E+00 0. -1.
         21   -1    0    0  503  502 -0.00000000000E+00 -0.00000000000E+00 -0.25249882481E+01  0.25249882481E+01  0.00000000000E+00 0.  1.
         21    1    1    2  503  501  0.53688198882E+01  0.19441466962E+02  0.58520725649E+03  0.58555471812E+03  0.00000000000E+00 0. -1.
         21    1    1    2  504  502 -0.53688198882E+01 -0.19441466962E+02  0.40901648327E+02  0.45604163192E+02  0.00000000000E+00 0.  1.
</event>
<event>
 4    1  0.1551744E+006  0.2570806E+02  0.7546771E-02  0.1461036E+00
         21   -1    0    0  503  501  0.00000000000E+00  0.00000000000E+00  0.72722896594E+02  0.72722896594E+02  0.00000000000E+00 0.  1.
         21   -1    0    0  504  502 -0.00000000000E+00 -0.00000000000E+00 -0.30597969424E+02  0.30597969424E+02  0.00000000000E+00 0.  1.
         21    1    1    2  503  502  0.18126559285E+02  0.18229978264E+02 -0.22251889581E+02  0.34000747770E+02  0.00000000000E+00 0.  1.
         21    1    1    2  504  501 -0.18126559285E+02 -0.18229978264E+02  0.64376816750E+02  0.69320118248E+02  0.00000000000E+00 0.  1.
</event>
<event>
 4    1  0.1551744E+006  0.3634525E+02  0.7546771E-02  0.1371345E+00
         21   -1    0    0  503  501  0.00000000000E+00  0.00000000000E+00  0.30270824009E+03  0.30270824009E+03  0.00000000000E+00 0.  1.
         21   -1    0    0  501  502 -0.00000000000E+00 -0.00000000000E+00 -0.19021882586E+02  0.19021882586E+02  0.00000000000E+00 0.  1.
         21    1    1    2  503  504 -0.27573105350E+02  0.23679121036E+02  0.28305551816E+03  0.28537940233E+03  0.00000000000E+00 0.  1.
         21    1    1    2  504  502  0.27573105350E+02 -0.23679121036E+02  0.63083934651E+00  0.36350720351E+02  0.00000000000E+00 0.  1.
</event>
<event>
 4    1  0.1551744E+006  0.2001344E+02  0.7546771E-02  0.1533830E+00
         21   -1    0    0  503  501  0.00000000000E+00  0.00000000000E+00  0.11612582337E+03  0.11612582337E+03  0.00000000000E+00 0.  1.
         21   -1    0    0  504  502 -0.00000000000E+00 -0.00000000000E+00 -0.51916313497E+02  0.51916313497E+02  0.00000000000E+00 0.  1.
         21    1    1    2  503  502 -0.13213083472E+02  0.15031701135E+02  0.11328680095E+03  0.11504102261E+03  0.00000000000E+00 0.  1.
         21    1    1    2  504  501  0.13213083472E+02 -0.15031701135E+02 -0.49077291072E+02  0.53001114260E+02  0.00000000000E+00 0.  1.
</event>
<event>
 4    1  0.1551744E+006  0.2033137E+02  0.7546771E-02  0.1529029E+00
         21   -1    0    0  504  501  0.00000000000E+00  0.00000000000E+00  0.10910039803E+03  0.10910039803E+03  0.00000000000E+00 0. -1.
         21   -1    0    0  503  502 -0.00000000000E+00 -0.00000000000E+00 -0.37890384254E+01  0.37890384254E+01  0.00000000000E+00 0. -1.
         21    1    1    2  503  501  0.61399557781E+01 -0.19382097337E+02  0.53056508739E+02  0.56818640196E+02  0.00000000000E+00 0. -1.
         21    1    1    2  504  502 -0.61399557781E+01  0.19382097337E+02  0.52254850862E+02  0.56070796256E+02  0.00000000000E+00 0. -1.
</event>
<event>
 4    1  0.1551744E+006  0.3951187E+02  0.7546771E-02  0.1351370E+00
         21   -1    0    0  503  501  0.00000000000E+00  0.00000000000E+00  0.20712990247E+02  0.20712990247E+02  0.00000000000E+00 0. -1.
         21   -1    0    0  504  502 -0.00000000000E+00 -0.00000000000E+00 -0.81976918205E+02  0.81976918205E+02  0.00000000000E+00 0.  1.
         21    1    1    2  503  502 -0.17893138948E+02 -0.35228160683E+02 -0.16058169438E+02  0.42650352076E+02  0.00000000000E+00 0. -1.
         21    1    1    2  504  501  0.17893138948E+02  0.35228160683E+02 -0.45205758519E+02  0.60039556376E+02  0.00000000000E+00 0.  1.
</event>
<event>
 4    1  0.1551744E+006  0.2648726E+02  0.7546771E-02  0.1452828E+00
         21   -1    0    0  504  501  0.00000000000E+00  0.00000000000E+00  0.52880902032E+02  0.52880902032E+02  0.00000000000E+00 0.  1.
         21   -1    0    0  503  502 -0.00000000000E+00 -0.00000000000E+00 -0.33257930890E+02  0.33257930890E+02  0.00000000000E+00 0. -1.
         21    1    1    2  503  501  0.22789786395E+02  0.13498177274E+02  0.43203069102E+02  0.50676230458E+02  0.00000000000E+00 0.  1.
         21    1    1    2  504  502 -0.22789786395E+02 -0.13498177274E+02 -0.23580097960E+02  0.35462602463E+02  0.00000000000E+00 0. -1.
</event>
<event>
 4    1  0.1551744E+006  0.3509270E+02  0.7546771E-02  0.1379913E+00
         21   -1    0    0  504  501  0.00000000000E+00  0.00000000000E+00  0.34103490119E+02  0.34103490119E+02  0.00000000000E+00 0. -1.
         21   -1    0    0  503  502 -0.00000000000E+00 -0.00000000000E+00 -0.10768249781E+03  0.10768249781E+03  0.00000000000E+00 0. -1.
         21    1    1    2  503  501 -0.10960416234E+02 -0.33337172365E+02  0.21007057145E+02  0.40899807276E+02  0.00000000000E+00 0. -1.
         21    1    1    2  504  502  0.10960416234E+02  0.33337172365E+02 -0.94586064836E+02  0.10088618065E+03  0.00000000000E+00 0. -1.
</event>
<event>
 4    1  0.1551744E+006  0.2774276E+02  0.7546771E-02  0.1440286E+00
         21   -1    0    0  504  501  0.00000000000E+00  0.00000000000E+00  0.24189086340E+01  0.24189086340E+01  0.00000000000E+00 0.  1.
         21   -1    0    0  503  502 -0.00000000000E+00 -0.00000000000E+00 -0.33424378534E+03  0.33424378534E+03  0.00000000000E+00 0.  1.
         21    1    1    2  503  501  0.19229662896E+02 -0.19997016869E+02 -0.12901563888E+03  0.13196475171E+03  0.00000000000E+00 0.  1.
         21    1    1    2  504  502 -0.19229662896E+02  0.19997016869E+02 -0.20280923782E+03  0.20469794226E+03  0.00000000000E+00 0.  1.
</event>
<event>
 4    1  0.1551744E+006  0.2265359E+02  0.7546771E-02  0.1496894E+00
         21   -1    0    0  504  501  0.00000000000E+00  0.00000000000E+00  0.19189086191E+02  0.19189086191E+02  0.00000000000E+00 0.  1.
         21   -1    0    0  501  502 -0.00000000000E+00 -0.00000000000E+00 -0.14371383685E+03  0.14371383685E+03  0.00000000000E+00 0.  1.
         21    1    1    2  503  502 -0.74849888151E+01 -0.21381305200E+02 -0.13574544187E+03  0.13762270981E+03  0.00000000000E+00 0.  1.
         21    1    1    2  504  503  0.74849888151E+01  0.21381305200E+02  0.11220691206E+02  0.25280213226E+02  0.00000000000E+00 0.  1.
</event>
<event>
 4    1  0.1551744E+006  0.2159871E+02  0.7546771E-02  0.1510886E+00
         21   -1    0    0  502  501  0.00000000000E+00  0.00000000000E+00  0.46318287639E+02  0.46318287639E+02  0.00000000000E+00 0.  1.
         21   -1    0    0  503  502 -0.00000000000E+00 -0.00000000000E+00 -0.48393945038E+02  0.48393945038E+02  0.00000000000E+00 0. -1.
         21    1    1    2  503  504 -0.98048452739E+01  0.19244975464E+02 -0.43178943072E+02  0.48279656132E+02  0.00000000000E+00 0. -1.
         21    1    1    2  504  501  0.98048452739E+01 -0.19244975464E+02  0.41103285673E+02  0.46432576544E+02  0.00000000000E+00 0.  1.
</event>
<event>
 4    1  0.1551744E+006  0.2256347E+02  0.7546771E-02  0.1498054E+00
         21   -1    0    0  503  501  0.00000000000E+00  0.00000000000E+00  0.11183159001E+03  0.11183159001E+03  0.00000000000E+00 0. -1.
         21   -1    0    0  504  502 -0.00000000000E+00 -0.00000000000E+00 -0.14527976562E+02  0.14527976562E+02  0.00000000000E+00 0. -1.
         21    1    1    2  503  502 -0.24245642797E+01  0.22432826728E+02 -0.37013645106E+01  0.22865045948E+02  0.00000000000E+00 0. -1.
         21    1    1    2  504  501  0.24245642797E+01 -0.22432826728E+02  0.10100497796E+03  0.10349452063E+03  0.00000000000E+00 0. -1.
</event>
<event>
 4    1  0.1551744E+006  0.4022974E+02  0.7546771E-02  0.1347145E+00
         21   -1    0    0  503  501  0.00000000000E+00  0.00000000000E+00  0.42547740559E+02  0.42547740559E+02  0.00000000000E+00 0.  1.
         21   -1    0    0  504  502 -0.00000000000E+00 -0.00000000000E+00 -0.31694698436E+03  0.31694698436E+03  0.00000000000E+00 0.  1.
         21    1    1    2  503  502 -0.20262199758E+02  0.34754505173E+02  0.31417021893E+02  0.51043722763E+02  0.00000000000E+00 0.  1.
         21    1    1    2  504  501  0.20262199758E+02 -0.34754505173E+02 -0.30581626569E+03  0.30845100216E+03  0.00000000000E+00 0.  1.
</event>
<event>
 4    1  0.1551744E+006  0.2779820E+02  0.7546771E-02  0.1439751E+00
         21   -1    0    0  504  501  0.00000000000E+00  0.00000000000E+00  0.42317265768E+02  0.42317265768E+02  0.00000000000E+00 0.  1.
         21   -1    0    0  501  502 -0.00000000000E+00 -0.00000000000E+00 -0.26203079197E+02  0.26203079197E+02  0.00000000000E+00 0.  1.
         21    1    1    2  503  502 -0.26623048812E+02 -0.79970707306E+01 -0.10805032853E+02  0.29824295520E+02  0.00000000000E+00 0.  1.
         21    1    1    2  504  503  0.26623048812E+02  0.79970707306E+01  0.26919219424E+02  0.38696049446E+02  0.00000000000E+00 0.  1.
</event>
<event>
 4    1  0.1551744E+006  0.4158482E+02  0.7546771E-02  0.1339441E+00
         21   -1    0    0  503  501  0.00000000000E+00  0.00000000000E+00  0.14778310761E+03  0.14778310761E+03  0.00000000000E+00 0.  1.
         21   -1    0    0  501  502 -0.00000000000E+00 -0.00000000000E+00 -0.16801888543E+02  0.16801888543E+02  0.00000000000E+00 0.  1.
         21    1    1    2  503  504  0.15094214073E+02  0.38748699071E+02  0.11083035711E+03  0.11837510310E+03  0.00000000000E+00 0.  1.
         21    1    1    2  504  502 -0.15094214073E+02 -0.38748699071E+02  0.20150861963E+02  0.46209893053E+02  0.00000000000E+00 0.  1.
</event>
<event>
 4    1  0.1551744E+006  0.2277418E+02  0.7546771E-02  0.1495353E+00
         21   -1    0    0  504  501  0.00000000000E+00  0.00000000000E+00  0.24482652617E+03  0.24482652617E+03  0.00000000000E+00 0.  1.
         21   -1    0    0  503  502 -0.00000000000E+00 -0.00000000000E+00 -0.76205416960E+01  0.76205416960E+01  0.00000000000E+00 0. -1.
         21    1    1    2  503  501  0.63296686724E+01  0.21876893144E+02  0.11349943042E+02  0.25445714103E+02  0.00000000000E+00 0. -1.
         21    1    1    2  504  502 -0.63296686724E+01 -0.21876893144E+02  0.22585604143E+03  0.22700135377E+03  0.00000000000E+00 0.  1.
</event>
<event>
 4    1  0.1551744E+006  0.2096244E+02  0.7546771E-02  0.1519802E+00
         21   -1    0    0  504  501  0.00000000000E+00  0.00000000000E+00  0.56663399734E+01  0.56663399734E+01  0.00000000000E+00 0.  1.
         21   -1    0    0  503  502 -0.00000000000E+00 -0.00000000000E+00 -0.10252402386E+03  0.10252402386E+03  0.00000000000E+00 0.  1.
         21    1    1    2  503  501 -0.89668112044E+01  0.18947825166E+02 -0.75127619719E+02  0.77997327047E+02  0.00000000000E+00 0.  1.
         21    1    1    2  504  502  0.89668112044E+01 -0.18947825166E+02 -0.21730064168E+02  0.30193036788E+02  0.00000000000E+00 0.  1.
</event>
<event>
 4    1  0.1551744E+006  0.2584576E+02  0.7546771E-02  0.1459560E+00
         21   -1    0    0  504  501  0.00000000000E+00  0.00000000000E+00  0.18201452246E+03  0.18201452246E+03  0.00000000000E+00 0.  1.
         21   -1    0    0  503  502 -0.00000000000E+00 -0.00000000000E+00 -0.40542199738E+01  0.40542199738E+01  0.00000000000E+00 0.  1.
         21    1    1    2  503  501 -0.24783147806E+02  0.73347776631E+01  0.11761853053E+03  0.12042475702E+03  0.00000000000E+00 0.  1.
         21    1    1    2  504  502  0.24783147806E+02 -0.73347776631E+01  0.60341771953E+02  0.65643985414E+02  0.00000000000E+00 0.  1.
</event>
<event>
 4    1  0.1551744E+006  0.2152905E+02  0.7546771E-02  0.1511844E+00
         21   -1    0    0  502  501  0.00000000000E+00  0.00000000000E+00  0.16886721285E+03  0.16886721285E+03  0.00000000000E+00 0.  1.
         21   -1    0    0  503  502 -0.00000000000E+00 -0.00000000000E+00 -0.12297923350E+03  0.12297923350E+03  0.00000000000E+00 0. -1.
         21    1    1    2  503  504 -0.45903930896E+00 -0.21524154739E+02 -0.12134162239E+03  0.12323672050E+03  0.00000000000E+00 0. -1.
         21    1    1    2  504  501  0.45903930896E+00  0.21524154739E+02  0.16722960174E+03  0.16860972585E+03  0.00000000000E+00 0.  1.
</event>
<event>
 4    1  0.1551744E+006  0.2781573E+02  0.7546771E-02  0.1439582E+00
         21   -1    0    0  504  501  0.00000000000E+00  0.00000000000E+00  0.46420094663E+01  0.46420094663E+01  0.00000000000E+00 0.  1.
         21   -1    0    0  503  502 -0.00000000000E+00 -0.00000000000E+00 -0.18143665133E+03  0.18143665133E+03  0.00000000000E+00 0.  1.
         21    1    1    2  503  501  0.17378229765E+02  0.21718935762E+02 -0.61860687391E+02  0.67826688588E+02  0.00000000000E+00 0.  1.
         21    1    1    2  504  502 -0.17378229765E+02 -0.21718935762E+02 -0.11493395448E+03  0.11825197221E+03  0.00000000000E+00 0.  1.
</event>
<event>
 4    1  0.1551744E+006  0.2456243E+02  0.7546771E-02  0.1473758E+00
         21   -1    0    0  503  501  0.00000000000E+00  0.00000000000E+00  0.18202548562E+02  0.18202548562E+02  0.00000000000E+00 0. -1.
         21   -1    0    0  504  502 -0.00000000000E+00 -0.00000000000E+00 -0.62285136399E+02  0.62285136399E+02  0.00000000000E+00 0.  1.
         21    1    1    2  503  502 -0.16562675774E+02 -0.18138104398E+02  0.54856046872E+01  0.25167537002E+02  0.00000000000E+00 0. -1.
         21    1    1    2  504  501  0.16562675774E+02  0.18138104398E+02 -0.49568192524E+02  0.55320147958E+02  0.00000000000E+00 0.  1.
</event>
<event>
 4    1  0.1551744E+006  0.2004144E+02  0.7546771E-02  0.1533403E+00
         21   -1    0    0  504  501  0.00000000000E+00  0.00000000000E+00  0.30893851016E+02  0.30893851016E+02  0.00000000000E+00 0.  1.
         21   -1    0    0  503  502 -0.00000000000E+00 -0.00000000000E+00 -0.90405016097E+02  0.90405016097E+02  0.00000000000E+00 0. -1.
         21    1    1    2  503  501  0.45112151620E+01 -0.19527115265E+02 -0.85874783072E+02  0.88182411288E+02  0.00000000000E+00 0. -1.
         21    1    1    2  504  502 -0.45112151620E+01  0.19527115265E+02  0.26363617991E+02  0.33116455825E+02  0.00000000000E+00 0.  1.
</event>
<event>
 4    1  0.1551744E+006  0.2522662E+02  0.7546771E-02  0.1466284E+00
         21   -1    0    0  503  501  0.00000000000E+00  0.00000000000E+00  0.66209492102E+01  0.66209492102E+01  0.00000000000E+00 0. -1.
         21   -1    0    0  504  502 -0.00000000000E+00 -0.00000000000E+00 -0.15764954449E+03  0.15764954449E+03  0.00000000000E+00 0. -1.
         21    1    1    2  503  502 -0.24214281320E+02 -0.70746576284E+01 -0.24200099221E+02  0.34957502810E+02  0.00000000000E+00 0. -1.
         21    1    1    2  504  501  0.24214281320E+02  0.70746576284E+01 -0.12682849606E+03  0.12931299089E+03  0.00000000000E+00 0. -1.
</event>
<event>
 4    1  0.1551744E+006  0.2161855E+02  0.7546771E-02  0.1510614E+00
         21   -1    0    0  502  501  0.00000000000E+00  0.00000000000E+00  0.73976682333E+01  0.73976682333E+01  0.00000000000E+00 0.  1.
         21   -1    0    0  503  502 -0.00000000000E+00 -0.00000000000E+00 -0.14215500832E+03  0.14215500832E+03  0.00000000000E+00 0. -1.
         21    1    1    2  503  504 -0.19767033509E+02  0.87536445807E+01 -0.12311474937E+03  0.12499841367E+03  0.00000000000E+00 0. -1.
         21    1    1    2  504  501  0.19767033509E+02 -0.87536445807E+01 -0.11642590716E+02  0.24554262884E+02  0.00000000000E+00 0.  1.
</event>
<event>
 4    1  0.1551744E+006  0.2531682E+02  0.7546771E-02  0.1465290E+00
         21   -1    0    0  504  501  0.00000000000E+00  0.00000000000E+00  0.12373282072E+02  0.12373282072E+02  0.00000000000E+00 0.  1.
         21   -1    0    0  503  502 -0.00000000000E+00 -0.00000000000E+00 -0.55689577734E+02  0.55689577734E+02  0.00000000000E+00 0.  1.
         21    1    1    2  503  501  0.10447201385E+02  0.23060733875E+02 -0.12664831687E+02  0.28307939262E+02  0.00000000000E+00 0.  1.
         21    1    1    2  504  502 -0.10447201385E+02 -0.23060733875E+02 -0.30651463975E+02  0.39754920544E+02  0.00000000000E+00 0.  1.
</event>
<event>
 4    1  0.1551744E+006  0.2182909E+02  0.7546771E-02  0.1507749E+00
         21   -1    0    0  502  501  0.00000000000E+00  0.00000000000E+00  0.18023063638E+03  0.18023063638E+03  0.00000000000E+00 0. -1.
         21   -1    0    0  504  502 -0.00000000000E+00 -0.00000000000E+00 -0.70852553378E+01  0.70852553378E+01  0.00000000000E+00 0. -1.
         21    1    1    2  503  501  0.21190715188E+02  0.52404819787E+01  0.16072511808E+03  0.16220071715E+03  0.00000000000E+00 0. -1.
         21    1    1    2  504  503 -0.21190715188E+02 -0.52404819787E+01  0.12420262960E+02  0.25115174568E+02  0.00000000000E+00 0. -1.
</event>
<event>
 4    1  0.1551744E+006  0.2416145E+02  0.7546771E-02  0.1478407E+00
         21   -1    0    0  502  501  0.00000000000E+00  0.00000000000E+00  0.45778959905E+02  0.45778959905E+02  0.00000000000E+00 0.  1.
         21   -1    0    0  504  502 -0.00000000000E+00 -0.00000000000E+00 -0.30174769952E+02  0.30174769952E+02  0.00000000000E+00 0.  1.
         21    1    1    2  503  501 -0.14524397030E+02 -0.19308481731E+02  0.36659355925E+02  0.43905397763E+02  0.00000000000E+00 0.  1.
         21    1    1    2  504  503  0.14524397030E+02  0.19308481731E+02 -0.21055165973E+02  0.32048332094E+02  0.00000000000E+00 0.  1.
</event>
<event>
 4    1  0.1551744E+006  0.2719471E+02  0.7546771E-02  0.1445662E+00
         21   -1    0    0  502  501  0.00000000000E+00  0.00000000000E+00  0.12294195841E+03  0.12294195841E+03  0.00000000000E+00 0.  1.
         21   -1    0    0  503  502 -0.00000000000E+00 -0.00000000000E+00 -0.95878588306E+01  0.95878588306E+01  0.00000000000E+00 0.  1.
         21    1    1    2  503  504 -0.18465470441E+02 -0.19964435834E+02  0.16228512179E+02  0.31668863326E+02  0.00000000000E+00 0.  1.
         21    1    1    2  504  501  0.18465470441E+02  0.19964435834E+02  0.97125587402E+02  0.10086095392E+03  0.00000000000E+00 0.  1.
</event>
<event>
 4    1  0.1551744E+006  0.4877318E+02  0.7546771E-02  0.1303581E+00
         21   -1    0    0  502  501  0.00000000000E+00  0.00000000000E+00  0.11253704820E+04  0.11253704820E+04  0.00000000000E+00 0. -1.
         21   -1    0    0  504  502 -0.00000000000E+00 -0.00000000000E+00 -0.10834208367E+03  0.10834208367E+03  0.00000000000E+00 0. -1.
         21    1    1    2  503  501  0.26216883417E+02  0.41127822510E+02  0.11193232396E+04  0.11203853522E+04  0.00000000000E+00 0. -1.
         21    1    1    2  504  503 -0.26216883417E+02 -0.41127822510E+02 -0.10229484127E+03  0.11332721346E+03  0.00000000000E+00 0. -1.
</event>
<event>
 4    1  0.1551744E+006  0.4630290E+02  0.7546771E-02  0.1315050E+00
         21   -1    0    0  502  501  0.00000000000E+00  0.00000000000E+00  0.44368196235E+03  0.44368196235E+03  0.00000000000E+00 0.  1.
         21   -1    0    0  503  502 -0.00000000000E+00 -0.00000000000E+00 -0.59226003900E+01  0.59226003900E+01  0.00000000000E+00 0.  1.
         21    1    1    2  503  504  0.25211107977E+02  0.38837591611E+02  0.12242170002E+03  0.13088556499E+03  0.00000000000E+00 0.  1.
         21    1    1    2  504  501 -0.25211107977E+02 -0.38837591611E+02  0.31533766194E+03  0.31871899775E+03  0.00000000000E+00 0.  1.
</event>
<event>
 4    1  0.1551744E+006  0.2999133E+02  0.7546771E-02  0.1419672E+00
         21   -1    0    0  504  501  0.00000000000E+00  0.00000000000E+00  0.17788325684E+01  0.17788325684E+01  0.00000000000E+00 0.  1.
         21   -1    0    0  503  502 -0.00000000000E+00 -0.00000000000E+00 -0.50613538326E+03  0.50613538326E+03  0.00000000000E+00 0.  1.
         21    1    1    2  503  501 -0.25655381994E+02  0.15533221153E+02 -0.25998378959E+03  0.26170794875E+03  0.00000000000E+00 0.  1.
         21    1    1    2  504  502  0.25655381994E+02 -0.15533221153E+02 -0.24437276109E+03  0.24620626708E+03  0.00000000000E+00 0.  1.
</event>
<event>
 4    1  0.1551744E+006  0.2055111E+02  0.7546771E-02  0.1525771E+00
         21   -1    0    0  504  501  0.00000000000E+00  0.00000000000E+00  0.87385825110E+02  0.87385825110E+02  0.00000000000E+00 0. -1.
         21   -1    0    0  501  502 -0.00000000000E+00 -0.00000000000E+00 -0.43123498322E+02  0.43123498322E+02  0.00000000000E+00 0. -1.
         21    1    1    2  503  502 -0.12086358044E+02 -0.16621311020E+02 -0.39358095485E+02  0.44400537283E+02  0.00000000000E+00 0. -1.
         21    1    1    2  504  503  0.12086358044E+02  0.16621311020E+02  0.83620422274E+02  0.86108786149E+02  0.00000000000E+00 0. -1.
</event>
<event>
 4    1  0.1551744E+006  0.2997246E+02  0.7546771E-02  0.1419836E+00
         21   -1    0    0  503  501  0.00000000000E+00  0.00000000000E+00  0.13149661390E+03  0.13149661390E+03  0.00000000000E+00 0. -1.
         21   -1    0    0  504  502 -0.00000000000E+00 -0.00000000000E+00 -0.13332961558E+02  0.13332961558E+02  0.00000000000E+00 0.  1.
         21    1    1    2  503  502  0.22649308588E+02 -0.19630522116E+02  0.85154344075E+01  0.31158645690E+02  0.00000000000E+00 0.  1.
         21    1    1    2  504  501 -0.22649308588E+02  0.19630522116E+02  0.10964821794E+03  0.11367092977E+03  0.00000000000E+00 0. -1.
</event>
<event>
 4    1  0.1551744E+006  0.2235649E+02  0.7546771E-02  0.1500741E+00
         21   -1    0    0  503  501  0.00000000000E+00  0.00000000000E+00  0.36186296474E+01  0.36186296474E+01  0.00000000000E+00 0. -1.
         21   -1    0    0  504  502 -0.00000000000E+00 -0.00000000000E+00 -0.31608517228E+03  0.31608517228E+03  0.00000000000E+00 0. -1.
         21    1    1    2  503  502  0.75543075649E+01  0.21041503719E+02 -0.27617789518E+03  0.27708129173E+03  0.00000000000E+00 0. -1.
         21    1    1    2  504  501 -0.75543075649E+01 -0.21041503719E+02 -0.36288647457E+02  0.42622510201E+02  0.00000000000E+00 0. -1.
</event>
<event>
 4    1  0.1551744E+006  0.2549677E+02  0.7546771E-02  0.1463322E+00
         21   -1    0    0  503  501  0.00000000000E+00  0.00000000000E+00  0.18595374685E+02  0.18595374685E+02  0.00000000000E+00 0.  1.
         21   -1    0    0  504  502 -0.00000000000E+00 -0.00000000000E+00 -0.10472679352E+03  0.10472679352E+03  0.00000000000E+00 0. -1.
         21    1    1    2  503  502  0.15202938637E+02 -0.20468413174E+02 -0.93393532296E+02  0.96811348280E+02  0.00000000000E+00 0. -1.
         21    1    1    2  504  501 -0.15202938637E+02  0.20468413174E+02  0.72621134633E+01  0.26510819924E+02  0.00000000000E+00 0.  1.
</event>
<event>
 4    1  0.1551744E+006  0.2174955E+02  0.7546771E-02  0.1508827E+00
         21   -1    0    0  504  501  0.00000000000E+00  0.00000000000E+00  0.48331524105E+03  0.48331524105E+03  0.00000000000E+00 0.  1.
         21   -1    0    0  503  502 -0.00000000000E+00 -0.00000000000E+00 -0.86795585009E+01  0.86795585009E+01  0.00000000000E+00 0.  1.
         21    1    1    2  503  501 -0.12141595476E+01  0.21715634705E+02  0.46903061031E+03  0.46953461680E+03  0.00000000000E+00 0.  1.
         21    1    1    2  504  502  0.12141595476E+01 -0.21715634705E+02  0.56050722409E+01  0.22460182744E+02  0.00000000000E+00 0.  1.
</event>
<event>
 4    1  0.1551744E+006  0.2621994E+02  0.7546771E-02  0.1455605E+00
         21   -1    0    0  504  501  0.00000000000E+00  0.00000000000E+00  0.72299837157E+02  0.72299837157E+02  0.00000000000E+00 0.  1.
         21   -1    0    0  503  502 -0.00000000000E+00 -0.00000000000E+00 -0.11098479881E+02  0.11098479881E+02  0.00000000000E+00 0. -1.
         21    1    1    2  503  501 -0.25884368724E+02 -0.41814754688E+01  0.46382214488E+02  0.53280344426E+02  0.00000000000E+00 0.  1.
         21    1    1    2  504  502  0.25884368724E+02  0.41814754688E+01  0.14819142788E+02  0.30117972612E+02  0.00000000000E+00 0. -1.
</event>
<event>
 4    1  0.1551744E+006  0.2511722E+02  0.7546771E-02  0.1467496E+00
         21   -1    0    0  502  501  0.00000000000E+00  0.00000000000E+00  0.27401919228E+01  0.27401919228E+01  0.00000000000E+00 0. -1.
         21   -1    0    0  503  502 -0.00000000000E+00 -0.00000000000E+00 -0.27451064285E+03  0.27451064285E+03  0.00000000000E+00 0. -1.
         21    1    1    2  503  504 -0.23104157239E+02 -0.98525501007E+01 -0.19156140757E+03  0.19320105511E+03  0.00000000000E+00 0. -1.
         21    1    1    2  504  501  0.23104157239E+02  0.98525501007E+01 -0.80209043360E+02  0.84049779666E+02  0.00000000000E+00 0. -1.
</event>
<event>
 4    1  0.1551744E+006  0.2361096E+02  0.7546771E-02  0.1484965E+00
         21   -1    0    0  502  501  0.00000000000E+00  0.00000000000E+00  0.20572378683E+02  0.20572378683E+02  0.00000000000E+00 0. -1.
         21   -1    0    0  503  502 -0.00000000000E+00 -0.00000000000E+00 -0.34643393128E+03  0.34643393128E+03  0.00000000000E+00 0. -1.
         21    1    1    2  503  504 -0.94812500413E+01  0.21623680405E+02 -0.33911092638E+03  0.33993190207E+03  0.00000000000E+00 0. -1.
         21    1    1    2  504  501  0.94812500413E+01 -0.21623680405E+02  0.13249373787E+02  0.27074407885E+02  0.00000000000E+00 0. -1.
</event>
<event>
 4    1  0.1551744E+006  0.2914473E+02  0.7546771E-02  0.1427177E+00
         21   -1    0    0  504  501  0.00000000000E+00  0.00000000000E+00  0.15972910639E+03  0.15972910639E+03  0.00000000000E+00 0. -1.
         21   -1    0    0  501  502 -0.00000000000E+00 -0.00000000000E+00 -0.18129769066E+03  0.18129769066E+03  0.00000000000E+00 0. -1.
         21    1    1    2  503  502 -0.22773028230E+02 -0.18188024516E+02 -0.17877831783E+03  0.18113835038E+03  0.00000000000E+00 0. -1.
         21    1    1    2  504  503  0.22773028230E+02  0.18188024516E+02  0.15720973356E+03  0.15988844666E+03  0.00000000000E+00 0. -1.
</event>
<event>
 4    1  0.1551744E+006  0.2096475E+02  0.7546771E-02  0.1519769E+00
         21   -1    0    0  504  501  0.00000000000E+00  0.00000000000E+00  0.57875019564E+01  0.57875019564E+01  0.00000000000E+00 0.  1.
         21   -1    0    0  503  502 -0.00000000000E+00 -0.00000000000E+00 -0.19367411634E+03  0.19367411634E+03  0.00000000000E+00 0.  1.
         21    1    1    2  503  501  0.20280943226E+02 -0.53107654467E+01 -0.16186399225E+02  0.26486230529E+02  0.00000000000E+00 0.  1.
         21    1    1    2  504  502 -0.20280943226E+02  0.53107654467E+01 -0.17170021516E+03  0.17297538777E+03  0.00000000000E+00 0.  1.
</event>
<event>
 4    1  0.1551744E+006  0.2063783E+02  0.7546771E-02  0.1524499E+00
         21   -1    0    0  504  501  0.00000000000E+00  0.00000000000E+00  0.70595223508E+03  0.70595223508E+03  0.00000000000E+00 0.  1.
         21   -1    0    0  503  502 -0.00000000000E+00 -0.00000000000E+00 -0.42903789653E+01  0.42903789653E+01  0.00000000000E+00 0.  1.
         21    1    1    2  503  501  0.14059784877E+02 -0.15107696433E+02  0.21624328755E+02  0.29891999539E+02  0.00000000000E+00 0.  1.
         21    1    1    2  504  502 -0.14059784877E+02  0.15107696433E+02  0.68003752736E+03  0.68035061450E+03  0.00000000000E+00 0.  1.
</event>
<event>
 4    1  0.1551744E+006  0.2637512E+02  0.7546771E-02  0.1453988E+00
         21   -1    0    0  503  501  0.00000000000E+00  0.00000000000E+00  0.11635657840E+03  0.11635657840E+03  0.00000000000E+00 0. -1.
         21   -1    0    0  504  502 -0.00000000000E+00 -0.00000000000E+00 -0.72588618847E+01  0.72588618847E+01  0.00000000000E+00 0. -1.
         21    1    1    2  503  502 -0.31215969779E+01 -0.26189744356E+02  0.28591451082E+02  0.38898819417E+02  0.00000000000E+00 0. -1.
         21    1    1    2  504  501  0.31215969779E+01  0.26189744356E+02  0.80506265431E+02  0.84716620865E+02  0.00000000000E+00 0. -1.
</event>
<event>
 4    1  0.1551744E+006  0.5408098E+02  0.7546771E-02  0.1281386E+00
         21   -1    0    0  503  501  0.00000000000E+00  0.00000000000E+00  0.48054151356E+02  0.48054151356E+02  0.00000000000E+00 0.  1.
         21   -1    0    0  504  502 -0.00000000000E+00 -0.00000000000E+00 -0.24418040692E+03  0.24418040692E+03  0.00000000000E+00 0.  1.
         21    1    1    2  503  502  0.16662825139E+02  0.51450004402E+02  0.28540809525E+02  0.61150065437E+02  0.00000000000E+00 0.  1.
         21    1    1    2  504  501 -0.16662825139E+02 -0.51450004402E+02 -0.22466706509E+03  0.23108449284E+03  0.00000000000E+00 0.  1.
</event>
<event>
 4    1  0.1551744E+006  0.2246706E+02  0.7546771E-02  0.1499301E+00
         21   -1    0    0  504  501  0.00000000000E+00  0.00000000000E+00  0.32407942215E+03  0.32407942215E+03  0.00000000000E+00 0. -1.
         21   -1    0    0  503  502 -0.00000000000E+00 -0.00000000000E+00 -0.16750516014E+01  0.16750516014E+01  0.00000000000E+00 0. -1.
         21    1    1    2  503  501 -0.30099355572E+01  0.22264524916E+02  0.11806273668E+03  0.12018144022E+03  0.00000000000E+00 0. -1.
         21    1    1    2  504  502  0.30099355572E+01 -0.22264524916E+02  0.20434163388E+03  0.20557303354E+03  0.00000000000E+00 0. -1.
</event>
<event>
 4    1  0.1551744E+006  0.2199397E+02  0.7546771E-02  0.1505533E+00
         21   -1    0    0  504  501  0.00000000000E+00  0.00000000000E+00  0.16762714793E+01  0.16762714793E+01  0.00000000000E+00 0.  1.
         21   -1    0    0  503  502 -0.00000000000E+00 -0.00000000000E+00 -0.30818179026E+03  0.30818179026E+03  0.00000000000E+00 0.  1.
         21    1    1    2  503  501 -0.74202369487E+01  0.20704457983E+02 -0.11417738611E+03  0.11627643783E+03  0.00000000000E+00 0.  1.
         21    1    1    2  504  502  0.74202369487E+01 -0.20704457983E+02 -0.19232813267E+03  0.19358162390E+03  0.00000000000E+00 0.  1.
</event>
<event>
 4    1  0.1551744E+006  0.2343915E+02  0.7546771E-02  0.1487056E+00
         21   -1    0    0  504  501  0.00000000000E+00  0.00000000000E+00  0.11531325616E+02  0.11531325616E+02  0.00000000000E+00 0. -1.
         21   -1    0    0  503  502 -0.00000000000E+00 -0.00000000000E+00 -0.48565572484E+02  0.48565572484E+02  0.00000000000E+00 0. -1.
         21    1    1    2  503  501 -0.17340866597E+02 -0.15769840850E+02 -0.14376902361E+02  0.27497069958E+02  0.00000000000E+00 0. -1.
         21    1    1    2  504  502  0.17340866597E+02  0.15769840850E+02 -0.22657344507E+02  0.32599828142E+02  0.00000000000E+00 0. -1.
</event>
<event>
 4    1  0.1551744E+006  0.3675544E+02  0.7546771E-02  0.1368625E+00
         21   -1    0    0  503  501  0.00000000000E+00  0.00000000000E+00  0.13795649823E+02  0.13795649823E+02  0.00000000000E+00 0.  1.
         21   -1    0    0  504  502 -0.00000000000E+00 -0.00000000000E+00 -0.98908105687E+02  0.98908105687E+02  0.00000000000E+00 0.  1.
         21    1    1    2  503  502 -0.32285496475E+02  0.17567265605E+02 -0.48169582528E+02  0.60591012406E+02  0.00000000000E+00 0.  1.
         21    1    1    2  504  501  0.32285496475E+02 -0.17567265605E+02 -0.36942873336E+02  0.52112743104E+02  0.00000000000E+00 0.  1.
</event>
<event>
 4    1  0.1551744E+006  0.2511923E+02  0.7546771E-02  0.1467474E+00
         21   -1    0    0  504  501  0.00000000000E+00  0.00000000000E+00  0.18195933193E+02  0.18195933193E+02  0.00000000000E+00 0.  1.
         21   -1    0    0  501  502 -0.00000000000E+00 -0.00000000000E+00 -0.16114741728E+03  0.16114741728E+03  0.00000000000E+00 0.  1.
         21    1    1    2  503  502 -0.19716574091E+02  0.15563820817E+02 -0.15091561023E+03  0.15299182077E+03  0.00000000000E+00 0.  1.
         21    1    1    2  504  503  0.19716574091E+02 -0.15563820817E+02  0.79641261435E+01  0.26351529700E+02  0.00000000000E+00 0.  1.
</event>
<event>
 4    1  0.1551744E+006  0.2206949E+02  0.7546771E-02  0.1504525E+00
         21   -1    0    0  503  501  0.00000000000E+00  0.00000000000E+00  0.93082532967E+02  0.93082532967E+02  0.00000000000E+00 0. -1.
         21   -1    0    0  504  502 -0.00000000000E+00 -0.00000000000E+00 -0.25219457083E+02  0.25219457083E+02  0.00000000000E+00 0.  1.
         21    1    1    2  503  502 -0.21540708257E+02  0.48021166019E+01  0.86589807671E+02  0.89358028339E+02  0.00000000000E+00 0. -1.
         21    1    1    2  504  501  0.21540708257E+02 -0.48021166019E+01 -0.18726731787E+02  0.28943961711E+02  0.00000000000E+00 0.  1.
</event>
<event>
 4    1  0.1551744E+006  0.2933061E+02  0.7546771E-02  0.1425504E+00
         21   -1    0    0  504  501  0.00000000000E+00  0.00000000000E+00  0.10206634800E+03  0.10206634800E+03  0.00000000000E+00 0.  1.
         21   -1    0    0  503  502 -0.00000000000E+00 -0.00000000000E+00 -0.10604976720E+03  0.10604976720E+03  0.00000000000E+00 0. -1.
         21    1    1    2  503  501  0.58440768165E+01 -0.28742498085E+02  0.97845556179E+02  0.10214713552E+03  0.00000000000E+00 0.  1.
         21    1    1    2  504  502 -0.58440768165E+01  0.28742498085E+02 -0.10182897538E+03  0.10596897969E+03  0.00000000000E+00 0. -1.
</event>
<event>
 4    1  0.1551744E+006  0.2073270E+02  0.7546771E-02  0.1523116E+00
         21   -1    0    0  503  501  0.00000000000E+00  0.00000000000E+00  0.48442499120E+01  0.48442499120E+01  0.00000000000E+00 0. -1.
         21   -1    0    0  504  502 -0.00000000000E+00 -0.00000000000E+00 -0.11674086359E+03  0.11674086359E+03  0.00000000000E+00 0.  1.
         21    1    1    2  503  502  0.20220093830E+02  0.45817580477E+01 -0.26171429550E+02  0.33388447493E+02  0.00000000000E+00 0. -1.
         21    1    1    2  504  501 -0.20220093830E+02 -0.45817580477E+01 -0.85725184131E+02  0.88196666012E+02  0.00000000000E+00 0.  1.
</event>
<event>
 4    1  0.1551744E+006  0.2107600E+02  0.7546771E-02  0.1518182E+00
         21   -1    0    0  502  501  0.00000000000E+00  0.00000000000E+00  0.50135784792E+03  0.50135784792E+03  0.00000000000E+00 0. -1.
         21   -1    0    0  503  502 -0.00000000000E+00 -0.00000000000E+00 -0.60237723890E+01  0.60237723890E+01  0.00000000000E+00 0.  1.
         21    1    1    2  503  504  0.98095676414E+01  0.18653961643E+02  0.13374571978E+02  0.24961511931E+02  0.00000000000E+00 0.  1.
         21    1    1    2  504  501 -0.98095676414E+01 -0.18653961643E+02  0.48195950356E+03  0.48242010838E+03  0.00000000000E+00 0. -1.
</event>
<event>
 4    1  0.1551744E+006  0.3698607E+02  0.7546771E-02  0.1367114E+00
         21   -1    0    0  503  501  0.00000000000E+00  0.00000000000E+00  0.10331469397E+02  0.10331469397E+02  0.00000000000E+00 0. -1.
         21   -1    0    0  504  502 -0.00000000000E+00 -0.00000000000E+00 -0.13718618845E+03  0.13718618845E+03  0.00000000000E+00 0. -1.
         21    1    1    2  503  502  0.36574356732E+02 -0.55032489831E+01 -0.77192794149E+02  0.85596126012E+02  0.00000000000E+00 0. -1.
         21    1    1    2  504  501 -0.36574356732E+02  0.55032489831E+01 -0.49661924908E+02  0.61921531839E+02  0.00000000000E+00 0. -1.
</event>
<event>
 4    1  0.1551744E+006  0.2617672E+02  0.7546771E-02  0.1456058E+00
         21   -1    0    0  503  501  0.00000000000E+00  0.00000000000E+00  0.63925128937E+03  0.63925128937E+03  0.00000000000E+00 0. -1.
         21   -1    0    0  504  502 -0.00000000000E+00 -0.00000000000E+00 -0.13838124688E+02  0.13838124688E+02  0.00000000000E+00 0.  1.
         21    1    1    2  503  502 -0.84453923201E+01  0.24776920538E+02 -0.93604625063E+00  0.26193446230E+02  0.00000000000E+00 0.  1.
         21    1    1    2  504  501  0.84453923201E+01 -0.24776920538E+02  0.62634921093E+03  0.62689596782E+03  0.00000000000E+00 0. -1.
</event>
<event>
 4    1  0.1551744E+006  0.2473807E+02  0.7546771E-02  0.1471755E+00
         21   -1    0    0  503  501  0.00000000000E+00  0.00000000000E+00  0.18402016756E+02  0.18402016756E+02  0.00000000000E+00 0. -1.
         21   -1    0    0  501  502 -0.00000000000E+00 -0.00000000000E+00 -0.39597515375E+02  0.39597515375E+02  0.00000000000E+00 0. -1.
         21    1    1    2  503  504  0.15213966555E+02 -0.19506601970E+02  0.10078259531E+01  0.24758594708E+02  0.00000000000E+00 0. -1.
         21    1    1    2  504  502 -0.15213966555E+02  0.19506601970E+02 -0.22203324572E+02  0.33240937424E+02  0.00000000000E+00 0. -1.
</event>
<event>
 4    1  0.1551744E+006  0.2771017E+02  0.7546771E-02  0.1440602E+00
         21   -1    0    0  504  501  0.00000000000E+00  0.00000000000E+00  0.14935466018E+03  0.14935466018E+03  0.00000000000E+00 0. -1.
         21   -1    0    0  503  502 -0.00000000000E+00 -0.00000000000E+00 -0.80134117823E+01  0.80134117823E+01  0.00000000000E+00 0.  1.
         21    1    1    2  503  501 -0.27395884485E+02  0.41616035597E+01  0.11777817836E+03  0.12099401939E+03  0.00000000000E+00 0. -1.
         21    1    1    2  504  502  0.27395884485E+02 -0.41616035597E+01  0.23563070043E+02  0.36374052576E+02  0.00000000000E+00 0.  1.
</event>
<event>
 4    1  0.1551744E+006  0.2302841E+02  0.7546771E-02  0.1492142E+00
         21   -1    0    0  504  501  0.00000000000E+00  0.00000000000E+00  0.23298330302E+01  0.23298330302E+01  0.00000000000E+00 0.  1.
         21   -1    0    0  503  502 -0.00000000000E+00 -0.00000000000E+00 -0.51457746061E+03  0.51457746061E+03  0.00000000000E+00 0.  1.
         21    1    1    2  503  501 -0.12937793338E+02  0.19050490988E+02 -0.44912897944E+03  0.44971896544E+03  0.00000000000E+00 0.  1.
         21    1    1    2  504  502  0.12937793338E+02 -0.19050490988E+02 -0.63118648138E+02  0.67188328198E+02  0.00000000000E+00 0.  1.
</event>
<event>
 4    1  0.1551744E+006  0.2120102E+02  0.7546771E-02  0.1516414E+00
         21   -1    0    0  504  501  0.00000000000E+00  0.00000000000E+00  0.43792793601E+01  0.43792793601E+01  0.00000000000E+00 0.  1.
         21   -1    0    0  503  502 -0.00000000000E+00 -0.00000000000E+00 -0.41543646282E+03  0.41543646282E+03  0.00000000000E+00 0.  1.
         21    1    1    2  503  501 -0.14333885125E+02  0.15621231174E+02 -0.23387345868E+02  0.31566613264E+02  0.00000000000E+00 0.  1.
         21    1    1    2  504  502  0.14333885125E+02 -0.15621231174E+02 -0.38766983759E+03  0.38824912892E+03  0.00000000000E+00 0.  1.
</event>
<event>
 4    1  0.1551744E+006  0.2112641E+02  0.7546771E-02  0.1517468E+00
         21   -1    0    0  504  501  0.00000000000E+00  0.00000000000E+00  0.28411773792E+02  0.28411773792E+02  0.00000000000E+00 0. -1.
         21   -1    0    0  503  502 -0.00000000000E+00 -0.00000000000E+00 -0.21529984301E+02  0.21529984301E+02  0.00000000000E+00 0.  1.
         21    1    1    2  503  501  0.20397912893E+02  0.55000191025E+01 -0.95429786498E+01  0.23181749331E+02  0.00000000000E+00 0.  1.
         21    1    1    2  504  502 -0.20397912893E+02 -0.55000191025E+01  0.16424768140E+02  0.26760008763E+02  0.00000000000E+00 0. -1.
</event>
<event>
 4    1  0.1551744E+006  0.4306007E+02  0.7546771E-02  0.1331430E+00
         21   -1    0    0  502  501  0.00000000000E+00  0.00000000000E+00  0.10408798846E+03  0.10408798846E+03  0.00000000000E+00 0. -1.
         21   -1    0    0  503  502 -0.00000000000E+00 -0.00000000000E+00 -0.23528398765E+02  0.23528398765E+02  0.00000000000E+00 0. -1.
         21    1    1    2  503  504 -0.72957287077E+01 -0.42437502291E+02  0.88323538978E+01  0.43956566443E+02  0.00000000000E+00 0. -1.
         21    1    1    2  504  501  0.72957287077E+01  0.42437502291E+02  0.71727235798E+02  0.83659820783E+02  0.00000000000E+00 0. -1.
</event>
<event>
 4    1  0.1551744E+006  0.3039523E+02  0.7546771E-02  0.1416192E+00
         21   -1    0    0  504  501  0.00000000000E+00  0.00000000000E+00  0.20532898555E+02  0.20532898555E+02  0.00000000000E+00 0.  1.
         21   -1    0    0  501  502 -0.00000000000E+00 -0.00000000000E+00 -0.68591366580E+02  0.68591366580E+02  0.00000000000E+00 0.  1.
         21    1    1    2  503  502 -0.27664921197E+02  0.12590561264E+02 -0.50166324688E+02  0.58656033197E+02  0.00000000000E+00 0.  1.
         21    1    1    2  504  503  0.27664921197E+02 -0.12590561264E+02  0.21078566622E+01  0.30468231938E+02  0.00000000000E+00 0.  1.
</event>
<event>
 4    1  0.1551744E+006  0.2186291E+02  0.7546771E-02  0.1507292E+00
         21   -1    0    0  502  501  0.00000000000E+00  0.00000000000E+00  0.17047912962E+03  0.17047912962E+03  0.00000000000E+00 0.  1.
         21   -1    0    0  503  502 -0.00000000000E+00 -0.00000000000E+00 -0.29088532272E+01  0.29088532272E+01  0.00000000000E+00 0. -1.
         21    1    1    2  503  504 -0.75687297380E+01  0.20511004280E+02  0.67308746819E+02  0.70770434256E+02  0.00000000000E+00 0. -1.
         21    1    1    2  504  501  0.75687297380E+01 -0.20511004280E+02  0.10026152958E+03  0.10261754860E+03  0.00000000000E+00 0.  1.
</event>
<event>
 4    1  0.1551744E+006  0.4610851E+02  0.7546771E-02  0.1315988E+00
         21   -1    0    0  503  501  0.00000000000E+00  0.00000000000E+00  0.23629639657E+02  0.23629639657E+02  0.00000000000E+00 0.  1.
         21   -1    0    0  504  502 -0.00000000000E+00 -0.00000000000E+00 -0.90624827090E+02  0.90624827090E+02  0.00000000000E+00 0.  1.
         21    1    1    2  503  502 -0.20069887088E+02 -0.41511380036E+02 -0.38347932211E+02  0.59971317686E+02  0.00000000000E+00 0.  1.
         21    1    1    2  504  501  0.20069887088E+02  0.41511380036E+02 -0.28647255223E+02  0.54283149061E+02  0.00000000000E+00 0.  1.
</event>
<event>
 4    1  0.1551744E+006  0.2410240E+02  0.7546771E-02  0.1479101E+00
         21   -1    0    0  503  501  0.00000000000E+00  0.00000000000E+00  0.52743311174E+02  0.52743311174E+02  0.00000000000E+00 0.  1.
         21   -1    0    0  504  502 -0.00000000000E+00 -0.00000000000E+00 -0.38254497452E+02  0.38254497452E+02  0.00000000000E+00 0.  1.
         21    1    1    2  503  502  0.14024360609E+02  0.19602115919E+02 -0.31149788563E+02  0.39385720338E+02  0.00000000000E+00 0.  1.
         21    1    1    2  504  501 -0.14024360609E+02 -0.19602115919E+02  0.45638602285E+02  0.51612088288E+02  0.00000000000E+00 0.  1.
</event>
<event>
 4    1  0.1551744E+006  0.2047717E+02  0.7546771E-02  0.1526862E+00
         21   -1    0    0  502  501  0.00000000000E+00  0.00000000000E+00  0.52758402956E+01  0.52758402956E+01  0.00000000000E+00 0.  1.
         21   -1    0    0  503  502 -0.00000000000E+00 -0.00000000000E+00 -0.27590126135E+03  0.27590126135E+03  0.00000000000E+00 0. -1.
         21    1    1    2  503  504 -0.14687700918E+01  0.20424424872E+02 -0.25393582503E+03  0.25476011786E+03  0.00000000000E+00 0. -1.
         21    1    1    2  504  501  0.14687700918E+01 -0.20424424872E+02 -0.16689596020E+02  0.26416983784E+02  0.00000000000E+00 0.  1.
</event>
<event>
 4    1  0.1551744E+006  0.4405125E+02  0.7546771E-02  0.1326252E+00
         21   -1    0    0  503  501  0.00000000000E+00  0.00000000000E+00  0.59804685836E+01  0.59804685836E+01  0.00000000000E+00 0.  1.
         21   -1    0    0  504  502 -0.00000000000E+00 -0.00000000000E+00 -0.33444930244E+03  0.33444930244E+03  0.00000000000E+00 0. -1.
         21    1    1    2  503  502  0.18074228956E+02 -0.40172565934E+02 -0.19362936525E+03  0.19857704775E+03  0.00000000000E+00 0. -1.
         21    1    1    2  504  501 -0.18074228956E+02  0.40172565934E+02 -0.13483946861E+03  0.14185272328E+03  0.00000000000E+00 0.  1.
</event>
<event>
 4    1  0.1551744E+006  0.2106554E+02  0.7546771E-02  0.1518331E+00
         21   -1    0    0  503  501  0.00000000000E+00  0.00000000000E+00  0.60259070615E+02  0.60259070615E+02  0.00000000000E+00 0. -1.
         21   -1    0    0  501  502 -0.00000000000E+00 -0.00000000000E+00 -0.22249813597E+03  0.22249813597E+03  0.00000000000E+00 0. -1.
         21    1    1    2  503  504 -0.15586451157E+01 -0.21007795076E+02  0.57899739485E+02  0.61612796244E+02  0.00000000000E+00 0. -1.
         21    1    1    2  504  502  0.15586451157E+01  0.21007795076E+02 -0.22013880484E+03  0.22114441034E+03  0.00000000000E+00 0. -1.
</event>
<event>
 4    1  0.1551744E+006  0.2844620E+02  0.7546771E-02  0.1433598E+00
         21   -1    0    0  504  501  0.00000000000E+00  0.00000000000E+00  0.12117696220E+03  0.12117696220E+03  0.00000000000E+00 0. -1.
         21   -1    0    0  501  502 -0.00000000000E+00 -0.00000000000E+00 -0.43841587634E+02  0.43841587634E+02  0.00000000000E+00 0.  1.
         21    1    1    2  503  502 -0.15530142254E+02  0.23832776808E+02 -0.37298451144E+02  0.46908005996E+02  0.00000000000E+00 0.  1.
         21    1    1    2  504  503  0.15530142254E+02 -0.23832776808E+02  0.11463382571E+03  0.11811054384E+03  0.00000000000E+00 0. -1.
</event>
<event>
 4    1  0.1551744E+006  0.2055222E+02  0.7546771E-02  0.1525755E+00
         21   -1    0    0  502  501  0.00000000000E+00  0.00000000000E+00  0.12209134675E+02  0.12209134675E+02  0.00000000000E+00 0. -1.
         21   -1    0    0  504  502 -0.00000000000E+00 -0.00000000000E+00 -0.66492159380E+02  0.66492159380E+02  0.00000000000E+00 0. -1.
         21    1    1    2  503  501  0.18608885416E+02  0.87237176977E+01  0.11260683478E+00  0.20552531406E+02  0.00000000000E+00 0. -1.
         21    1    1    2  504  503 -0.18608885416E+02 -0.87237176977E+01 -0.54395631540E+02  0.58148762649E+02  0.00000000000E+00 0. -1.
</event>
<event>
 4    1  0.1551744E+006  0.2136013E+02  0.7546771E-02  0.1514185E+00
         21   -1    0    0  504  501  0.00000000000E+00  0.00000000000E+00  0.18109294418E+02  0.18109294418E+02  0.00000000000E+00 0. -1.
         21   -1    0    0  503  502 -0.00000000000E+00 -0.00000000000E+00 -0.46534165752E+02  0.46534165752E+02  0.00000000000E+00 0.  1.
         21    1    1    2  503  501  0.16178379792E+02 -0.13946874715E+02  0.76753619069E+01  0.22697278854E+02  0.00000000000E+00 0. -1.
         21    1    1    2  504  502 -0.16178379792E+02  0.13946874715E+02 -0.36100233241E+02  0.41946181316E+02  0.00000000000E+00 0.  1.
</event>
<event>
 4    1  0.1551744E+006  0.2501031E+02  0.7546771E-02  0.1468688E+00
         21   -1    0    0  504  501  0.00000000000E+00  0.00000000000E+00  0.51335802193E+02  0.51335802193E+02  0.00000000000E+00 0. -1.
         21   -1    0    0  503  502 -0.00000000000E+00 -0.00000000000E+00 -0.12233649427E+02  0.12233649427E+02  0.00000000000E+00 0. -1.
         21    1    1    2  503  501  0.67862725902E+01 -0.24072021554E+02  0.21559875186E+02  0.33020356379E+02  0.00000000000E+00 0. -1.
         21    1    1    2  504  502 -0.67862725902E+01  0.24072021554E+02  0.17542277580E+02  0.30549095241E+02  0.00000000000E+00 0. -1.
</event>
<event>
 4    1  0.1551744E+006  0.2450798E+02  0.7546771E-02  0.1474383E+00
         21   -1    0    0  504  501  0.00000000000E+00  0.00000000000E+00  0.12007991402E+02  0.12007991402E+02  0.00000000000E+00 0. -1.
         21   -1    0    0  503  502 -0.00000000000E+00 -0.00000000000E+00 -0.51219438835E+02  0.51219438835E+02  0.00000000000E+00 0. -1.
         21    1    1    2  503  501 -0.14871549078E+02 -0.19480199984E+02 -0.14768172595E+02  0.28613634603E+02  0.00000000000E+00 0. -1.
         21    1    1    2  504  502  0.14871549078E+02  0.19480199984E+02 -0.24443274838E+02  0.34613795634E+02  0.00000000000E+00 0. -1.
</event>
<event>
 4    1  0.1551744E+006  0.2393249E+02  0.7546771E-02  0.1481109E+00
         21   -1    0    0  503  501  0.00000000000E+00  0.00000000000E+00  0.71312414795E+02  0.71312414795E+02  0.00000000000E+00 0. -1.
         21   -1    0    0  501  502 -0.00000000000E+00 -0.00000000000E+00 -0.89836091847E+01  0.89836091847E+01  0.00000000000E+00 0.  1.
         21    1    1    2  503  504 -0.16701523822E+02 -0.17141277120E+02  0.44232803421E+02  0.50292197982E+02  0.00000000000E+00 0. -1.
         21    1    1    2  504  502  0.16701523822E+02  0.17141277120E+02  0.18096002189E+02  0.30003825998E+02  0.00000000000E+00 0.  1.
</event>
<event>
 4    1  0.1551744E+006  0.2799480E+02  0.7546771E-02  0.1437863E+00
         21   -1    0    0  504  501  0.00000000000E+00  0.00000000000E+00  0.83791710662E+02  0.83791710662E+02  0.00000000000E+00 0. -1.
         21   -1    0    0  501  502 -0.00000000000E+00 -0.00000000000E+00 -0.12815787896E+02  0.12815787896E+02  0.00000000000E+00 0. -1.
         21    1    1    2  503  502 -0.25695385980E+02  0.11111068875E+02  0.10379649925E+02  0.29857090361E+02  0.00000000000E+00 0. -1.
         21    1    1    2  504  503  0.25695385980E+02 -0.11111068875E+02  0.60596272841E+02  0.66750408197E+02  0.00000000000E+00 0. -1.
</event>
<event>
 4    1  0.1551744E+006  0.2007555E+02  0.7546771E-02  0.1532884E+00
         21   -1    0    0  504  501  0.00000000000E+00  0.00000000000E+00  0.80014555895E+03  0.80014555895E+03  0.00000000000E+00 0. -1.
         21   -1    0    0  503  502 -0.00000000000E+00 -0.00000000000E+00 -0.89886962365E+02  0.89886962365E+02  0.00000000000E+00 0.  1.
         21    1    1    2  503  501 -0.14992778235E+02  0.13350822826E+02  0.79889695430E+03  0.79914915470E+03  0.00000000000E+00 0. -1.
         21    1    1    2  504  502  0.14992778235E+02 -0.13350822826E+02 -0.88638357713E+02  0.90883366615E+02  0.00000000000E+00 0.  1.
</event>
<event>
 4    1  0.1551744E+006  0.2343578E+02  0.7546771E-02  0.1487097E+00
         21   -1    0    0  502  501  0.00000000000E+00  0.00000000000E+00  0.27498379276E+02  0.27498379276E+02  0.00000000000E+00 0. -1.
         21   -1    0    0  503  502 -0.00000000000E+00 -0.00000000000E+00 -0.20221557648E+03  0.20221557648E+03  0.00000000000E+00 0. -1.
         21    1    1    2  503  504  0.82647564054E+01  0.21930108306E+02 -0.19639576100E+03  0.19778910685E+03  0.00000000000E+00 0. -1.
         21    1    1    2  504  501 -0.82647564054E+01 -0.21930108306E+02  0.21678563804E+02  0.31924848901E+02  0.00000000000E+00 0. -1.
</event>
<event>
 4    1  0.1551744E+006  0.2161756E+02  0.7546771E-02  0.1510627E+00
         21   -1    0    0  503  501  0.00000000000E+00  0.00000000000E+00  0.25055397622E+01  0.25055397622E+01  0.00000000000E+00 0.  1.
         21   -1    0    0  504  502 -0.00000000000E+00 -0.00000000000E+00 -0.20909759867E+03  0.20909759867E+03  0.00000000000E+00 0.  1.
         21    1    1    2  503  502 -0.95362783955E+01 -0.19400468172E+02 -0.68525433458E+02  0.71854393057E+02  0.00000000000E+00 0.  1.
         21    1    1    2  504  501  0.95362783955E+01  0.19400468172E+02 -0.13806662545E+03  0.13974874537E+03  0.00000000000E+00 0.  1.
</event>
<event>
 4    1  0.1551744E+006  0.2430977E+02  0.7546771E-02  0.1476675E+00
         21   -1    0    0  503  501  0.00000000000E+00  0.00000000000E+00  0.18109367120E+02  0.18109367120E+02  0.00000000000E+00 0. -1.
         21   -1    0    0  501  502 -0.00000000000E+00 -0.00000000000E+00 -0.41899659884E+03  0.41899659884E+03  0.00000000000E+00 0.  1.
         21    1    1    2  503  504  0.26906119763E+01 -0.24160416778E+02  0.94259789912E+01  0.26073247048E+02  0.00000000000E+00 0. -1.
         21    1    1    2  504  502 -0.26906119763E+01  0.24160416778E+02 -0.41031321071E+03  0.41103271891E+03  0.00000000000E+00 0.  1.
</event>
<event>
 4    1  0.1551744E+006  0.2127158E+02  0.7546771E-02  0.1515423E+00
         21   -1    0    0  504  501  0.00000000000E+00  0.00000000000E+00  0.22683852733E+02  0.22683852733E+02  0.00000000000E+00 0. -1.
         21   -1    0    0  501  502 -0.00000000000E+00 -0.00000000000E+00 -0.55067785381E+02  0.55067785381E+02  0.00000000000E+00 0. -1.
         21    1    1    2  503  502 -0.16073135729E+02  0.13933211122E+02 -0.47238378867E+02  0.51806799769E+02  0.00000000000E+00 0. -1.
         21    1    1    2  504  503  0.16073135729E+02 -0.13933211122E+02  0.14854446219E+02  0.25944838346E+02  0.00000000000E+00 0. -1.
</event>
<event>
 4    1  0.1551744E+006  0.3343773E+02  0.7546771E-02  0.1391892E+00
         21   -1    0    0  503  501  0.00000000000E+00  0.00000000000E+00  0.12322635740E+02  0.12322635740E+02  0.00000000000E+00 0.  1.
         21   -1    0    0  504  502 -0.00000000000E+00 -0.00000000000E+00 -0.92198013101E+02  0.92198013101E+02  0.00000000000E+00 0. -1.
         21    1    1    2  503  502  0.16478329452E+02 -0.29095466159E+02 -0.46523211902E+02  0.57293025215E+02  0.00000000000E+00 0. -1.
         21    1    1    2  504  501 -0.16478329452E+02  0.29095466159E+02 -0.33352165459E+02  0.47227623626E+02  0.00000000000E+00 0.  1.
</event>
<event>
 4    1  0.1551744E+006  0.3237618E+02  0.7546771E-02  0.1400011E+00
         21   -1    0    0  502  501  0.00000000000E+00  0.00000000000E+00  0.64102266418E+03  0.64102266418E+03  0.00000000000E+00 0. -1.
         21   -1    0    0  503  502 -0.00000000000E+00 -0.00000000000E+00 -0.49986299428E+01  0.49986299428E+01  0.00000000000E+00 0.  1.
         21    1    1    2  503  504  0.20675565506E+02 -0.24914620327E+02  0.53051709102E+02  0.62150632770E+02  0.00000000000E+00 0.  1.
         21    1    1    2  504  501 -0.20675565506E+02  0.24914620327E+02  0.58297232513E+03  0.58387066135E+03  0.00000000000E+00 0. -1.
</event>
<event>
 4    1  0.1551744E+006  0.2008602E+02  0.7546771E-02  0.1532725E+00
         21   -1    0    0  504  501  0.00000000000E+00  0.00000000000E+00  0.23802510816E+02  0.23802510816E+02  0.00000000000E+00 0. -1.
         21   -1    0    0  503  502 -0.00000000000E+00 -0.00000000000E+00 -0.41331192433E+02  0.41331192433E+02  0.00000000000E+00 0. -1.
         21    1    1    2  503  501  0.19491719569E+02 -0.48498465021E+01  0.16248667722E+02  0.25835389402E+02  0.00000000000E+00 0. -1.
         21    1    1    2  504  502 -0.19491719569E+02  0.48498465021E+01 -0.33777349339E+02  0.39298313846E+02  0.00000000000E+00 0. -1.
</event>
<event>
 4    1  0.1551744E+006  0.2575509E+02  0.7546771E-02  0.1460531E+00
         21   -1    0    0  504  501  0.00000000000E+00  0.00000000000E+00  0.33029690343E+03  0.33029690343E+03  0.00000000000E+00 0. -1.
         21   -1    0    0  503  502 -0.00000000000E+00 -0.00000000000E+00 -0.22546981203E+01  0.22546981203E+01  0.00000000000E+00 0. -1.
         21    1    1    2  503  501  0.52988188869E+01  0.25204113935E+02  0.10905038967E+03  0.11205049008E+03  0.00000000000E+00 0. -1.
         21    1    1    2  504  502 -0.52988188869E+01 -0.25204113935E+02  0.21899181564E+03  0.22050111147E+03  0.00000000000E+00 0. -1.
</event>
<event>
 4    1  0.1551744E+006  0.2165535E+02  0.7546771E-02  0.1510110E+00
         21   -1    0    0  502  501  0.00000000000E+00  0.00000000000E+00  0.17235710919E+02  0.17235710919E+02  0.00000000000E+00 0.  1.
         21   -1    0    0  504  502 -0.00000000000E+00 -0.00000000000E+00 -0.51837107769E+02  0.51837107769E+02  0.00000000000E+00 0.  1.
         21    1    1    2  503  501  0.15939248346E+02 -0.14659285405E+02  0.65048697438E+01  0.22611227672E+02  0.00000000000E+00 0.  1.
         21    1    1    2  504  503 -0.15939248346E+02  0.14659285405E+02 -0.41106266595E+02  0.46461591016E+02  0.00000000000E+00 0.  1.
</event>
<event>
 4    1  0.1551744E+006  0.2684011E+02  0.7546771E-02  0.1449221E+00
         21   -1    0    0  503  501  0.00000000000E+00  0.00000000000E+00  0.53786364057E+02  0.53786364057E+02  0.00000000000E+00 0. -1.
         21   -1    0    0  504  502 -0.00000000000E+00 -0.00000000000E+00 -0.49373704047E+02  0.49373704047E+02  0.00000000000E+00 0.  1.
         21    1    1    2  503  502 -0.89796575592E+00  0.26825081267E+02  0.46238001287E+02  0.53463483711E+02  0.00000000000E+00 0. -1.
         21    1    1    2  504  501  0.89796575592E+00 -0.26825081267E+02 -0.41825341276E+02  0.49696584393E+02  0.00000000000E+00 0.  1.
</event>
<event>
 4    1  0.1551744E+006  0.2071132E+02  0.7546771E-02  0.1523427E+00
         21   -1    0    0  504  501  0.00000000000E+00  0.00000000000E+00  0.22143654562E+01  0.22143654562E+01  0.00000000000E+00 0.  1.
         21   -1    0    0  503  502 -0.00000000000E+00 -0.00000000000E+00 -0.19379011744E+03  0.19379011744E+03  0.00000000000E+00 0.  1.
         21    1    1    2  503  501  0.18340635278E+02  0.96218482439E+01 -0.93876234438E+02  0.96133793529E+02  0.00000000000E+00 0.  1.
         21    1    1    2  504  502 -0.18340635278E+02 -0.96218482439E+01 -0.97699517548E+02  0.99870689369E+02  0.00000000000E+00 0.  1.
</event>
<event>
 4    1  0.1551744E+006  0.2162696E+02  0.7546771E-02  0.1510499E+00
         21   -1    0    0  503  501  0.00000000000E+00  0.00000000000E+00  0.34433452717E+02  0.34433452717E+02  0.00000000000E+00 0.  1.
         21   -1    0    0  501  502 -0.00000000000E+00 -0.00000000000E+00 -0.90947664107E+02  0.90947664107E+02  0.00000000000E+00 0.  1.
         21    1    1    2  503  504  0.20908377502E+02  0.55285639752E+01  0.29562670679E+02  0.36628906168E+02  0.00000000000E+00 0.  1.
         21    1    1    2  504  502 -0.20908377502E+02 -0.55285639752E+01 -0.86076882069E+02  0.88752210655E+02  0.00000000000E+00 0.  1.
</event>
<event>
 4    1  0.1551744E+006  0.2812731E+02  0.7546771E-02  0.1436601E+00
         21   -1    0    0  504  501  0.00000000000E+00  0.00000000000E+00  0.23915510721E+01  0.23915510721E+01  0.00000000000E+00 0. -1.
         21   -1    0    0  503  502 -0.00000000000E+00 -0.00000000000E+00 -0.33169505439E+03  0.33169505439E+03  0.00000000000E+00 0.  1.
         21    1    1    2  503  501  0.13007301474E+02 -0.24939040145E+02 -0.17328735288E+03  0.17555526845E+03  0.00000000000E+00 0.  1.
         21    1    1    2  504  502 -0.13007301474E+02  0.24939040145E+02 -0.15601615044E+03  0.15853133700E+03  0.00000000000E+00 0. -1.
</event>
<event>
 4    1  0.1551744E+006  0.3136270E+02  0.7546771E-02  0.1408113E+00
         21   -1    0    0  503  501  0.00000000000E+00  0.00000000000E+00  0.18709881050E+02  0.18709881050E+02  0.00000000000E+00 0.  1.
         21   -1    0    0  504  502 -0.00000000000E+00 -0.00000000000E+00 -0.89658589839E+02  0.89658589839E+02  0.00000000000E+00 0.  1.
         21    1    1    2  503  502 -0.97417725277E+01  0.29811358545E+02 -0.62582980840E+00  0.31368947914E+02  0.00000000000E+00 0.  1.
         21    1    1    2  504  501  0.97417725277E+01 -0.29811358545E+02 -0.70322878981E+02  0.76999522975E+02  0.00000000000E+00 0.  1.
</event>
<event>
 4    1  0.1551744E+006  0.2036915E+02  0.7546771E-02  0.1528465E+00
         21   -1    0    0  502  501  0.00000000000E+00  0.00000000000E+00  0.20179945961E+03  0.20179945961E+03  0.00000000000E+00 0. -1.
         21   -1    0    0  504  502 -0.00000000000E+00 -0.00000000000E+00 -0.53270961393E+01  0.53270961393E+01  0.00000000000E+00 0. -1.
         21    1    1    2  503  501  0.17676161192E+02  0.10122038414E+02  0.17938950403E+03  0.18054222911E+03  0.00000000000E+00 0. -1.
         21    1    1    2  504  503 -0.17676161192E+02 -0.10122038414E+02  0.17082859441E+02  0.26584326639E+02  0.00000000000E+00 0. -1.
</event>
<event>
 4    1  0.1551744E+006  0.2614463E+02  0.7546771E-02  0.1456395E+00
         21   -1    0    0  503  501  0.00000000000E+00  0.00000000000E+00  0.51270371523E+02  0.51270371523E+02  0.00000000000E+00 0.  1.
         21   -1    0    0  504  502 -0.00000000000E+00 -0.00000000000E+00 -0.17049571981E+02  0.17049571981E+02  0.00000000000E+00 0.  1.
         21    1    1    2  503  502 -0.25868906351E+02 -0.37869779644E+01  0.11595125334E+01  0.26170326464E+02  0.00000000000E+00 0.  1.
         21    1    1    2  504  501  0.25868906351E+02  0.37869779644E+01  0.33061287008E+02  0.42149617039E+02  0.00000000000E+00 0.  1.
</event>
<event>
 4    1  0.1551744E+006  0.2472555E+02  0.7546771E-02  0.1471897E+00
         21   -1    0    0  503  501  0.00000000000E+00  0.00000000000E+00  0.53407275025E+02  0.53407275025E+02  0.00000000000E+00 0.  1.
         21   -1    0    0  504  502 -0.00000000000E+00 -0.00000000000E+00 -0.11496663663E+02  0.11496663663E+02  0.00000000000E+00 0.  1.
         21    1    1    2  503  502 -0.24505554906E+02  0.32910013359E+01  0.18822319097E+02  0.31074629640E+02  0.00000000000E+00 0.  1.
         21    1    1    2  504  501  0.24505554906E+02 -0.32910013359E+01  0.23088292265E+02  0.33829309049E+02  0.00000000000E+00 0.  1.
</event>
<event>
 4    1  0.1551744E+006  0.3683931E+02  0.7546771E-02  0.1368074E+00
         21   -1    0    0  502  501  0.00000000000E+00  0.00000000000E+00  0.39423974896E+03  0.39423974896E+03  0.00000000000E+00 0.  1.
         21   -1    0    0  504  502 -0.00000000000E+00 -0.00000000000E+00 -0.34393410441E+02  0.34393410441E+02  0.00000000000E+00 0.  1.
         21    1    1    2  503  501  0.31071290149E+02 -0.19791655640E+02  0.38323165086E+03  0.38499822457E+03  0.00000000000E+00 0.  1.
         21    1    1    2  504  503 -0.31071290149E+02  0.19791655640E+02 -0.23385312338E+02  0.43634934830E+02  0.00000000000E+00 0.  1.
</event>
<event>
 4    1  0.1551744E+006  0.2909930E+02  0.7546771E-02  0.1427588E+00
         21   -1    0    0  504  501  0.00000000000E+00  0.00000000000E+00  0.15680774939E+03  0.15680774939E+03  0.00000000000E+00 0.  1.
         21   -1    0    0  503  502 -0.00000000000E+00 -0.00000000000E+00 -0.34970265443E+02  0.34970265443E+02  0.00000000000E+00 0. -1.
         21    1    1    2  503  501  0.18978450118E+01  0.29037344304E+02 -0.27256493228E+02  0.39870861578E+02  0.00000000000E+00 0. -1.
         21    1    1    2  504  502 -0.18978450118E+01 -0.29037344304E+02  0.14909397718E+03  0.15190715326E+03  0.00000000000E+00 0.  1.
</event>
<event>
 4    1  0.1551744E+006  0.2526358E+02  0.7546771E-02  0.1465876E+00
         21   -1    0    0  504  501  0.00000000000E+00  0.00000000000E+00  0.11771353178E+03  0.11771353178E+03  0.00000000000E+00 0. -1.
         21   -1    0    0  503  502 -0.00000000000E+00 -0.00000000000E+00 -0.10094915233E+02  0.10094915233E+02  0.00000000000E+00 0.  1.
         21    1    1    2  503  501 -0.26953590156E+01  0.25119382183E+02  0.10331265691E+02  0.27294383529E+02  0.00000000000E+00 0.  1.
         21    1    1    2  504  502  0.26953590156E+01 -0.25119382183E+02  0.97287350851E+02  0.10051406348E+03  0.00000000000E+00 0. -1.
</event>
<event>
 4    1  0.1551744E+006  0.2333961E+02  0.7546771E-02  0.1488277E+00
         21   -1    0    0  503  501  0.00000000000E+00  0.00000000000E+00  0.22530039970E+02  0.22530039970E+02  0.00000000000E+00 0. -1.
         21   -1    0    0  504  502 -0.00000000000E+00 -0.00000000000E+00 -0.95417468132E+02  0.95417468132E+02  0.00000000000E+00 0. -1.
         21    1    1    2  503  502  0.73468182738E+01  0.22153143979E+02 -0.87400769320E+02  0.90463429101E+02  0.00000000000E+00 0. -1.
         21    1    1    2  504  501 -0.73468182738E+01 -0.22153143979E+02  0.14513341159E+02  0.27484079001E+02  0.00000000000E+00 0. -1.
</event>
<event>
 4    1  0.1551744E+006  0.3743095E+02  0.7546771E-02  0.1364236E+00
         21   -1    0    0  503  501  0.00000000000E+00  0.00000000000E+00  0.22304593565E+02  0.22304593565E+02  0.00000000000E+00 0. -1.
         21   -1    0    0  504  502 -0.00000000000E+00 -0.00000000000E+00 -0.14941277361E+03  0.14941277361E+03  0.00000000000E+00 0. -1.
         21    1    1    2  503  502  0.11190913172E+02  0.35718895702E+02 -0.12891863813E+03  0.13424265829E+03  0.00000000000E+00 0. -1.
         21    1    1    2  504  501 -0.11190913172E+02 -0.35718895702E+02  0.18104580803E+01  0.37474708888E+02  0.00000000000E+00 0. -1.
</event>
<event>
 4    1  0.1551744E+006  0.2172162E+02  0.7546771E-02  0.1509206E+00
         21   -1    0    0  504  501  0.00000000000E+00  0.00000000000E+00  0.65063790769E+01  0.65063790769E+01  0.00000000000E+00 0. -1.
         21   -1    0    0  501  502 -0.00000000000E+00 -0.00000000000E+00 -0.19917844902E+03  0.19917844902E+03  0.00000000000E+00 0. -1.
         21    1    1    2  503  502  0.10644153878E+02 -0.18934907119E+02 -0.17834698303E+03  0.17966489662E+03  0.00000000000E+00 0. -1.
         21    1    1    2  504  503 -0.10644153878E+02  0.18934907119E+02 -0.14325086916E+02  0.26019931486E+02  0.00000000000E+00 0. -1.
</event>
<event>
 4    1  0.1551744E+006  0.3111859E+02  0.7546771E-02  0.1410119E+00
         21   -1    0    0  503  501  0.00000000000E+00  0.00000000000E+00  0.57661787967E+02  0.57661787967E+02  0.00000000000E+00 0.  1.
         21   -1    0    0  501  502 -0.00000000000E+00 -0.00000000000E+00 -0.87108591017E+02  0.87108591017E+02  0.00000000000E+00 0. -1.
         21    1    1    2  503  504 -0.24572744912E+02 -0.19093113783E+02  0.50310862744E+02  0.59156991950E+02  0.00000000000E+00 0.  1.
         21    1    1    2  504  502  0.24572744912E+02  0.19093113783E+02 -0.79757665795E+02  0.85613387034E+02  0.00000000000E+00 0. -1.
</event>
<event>
 4    1  0.1551744E+006  0.2370382E+02  0.7546771E-02  0.1483844E+00
         21   -1    0    0  503  501  0.00000000000E+00  0.00000000000E+00  0.13374924241E+03  0.13374924241E+03  0.00000000000E+00 0. -1.
         21   -1    0    0  504  502 -0.00000000000E+00 -0.00000000000E+00 -0.41257919801E+02  0.41257919801E+02  0.00000000000E+00 0. -1.
         21    1    1    2  503  502 -0.21400472029E+02  0.10192686562E+02  0.12917481599E+03  0.13133165707E+03  0.00000000000E+00 0. -1.
         21    1    1    2  504  501  0.21400472029E+02 -0.10192686562E+02 -0.36683493383E+02  0.43675505140E+02  0.00000000000E+00 0. -1.
</event>
<event>
 4    1  0.1551744E+006  0.2002957E+02  0.7546771E-02  0.1533584E+00
         21   -1    0    0  503  501  0.00000000000E+00  0.00000000000E+00  0.31733639062E+03  0.31733639062E+03  0.00000000000E+00 0. -1.
         21   -1    0    0  504  502 -0.00000000000E+00 -0.00000000000E+00 -0.27657792246E+01  0.27657792246E+01  0.00000000000E+00 0. -1.
         21    1    1    2  503  502  0.28674150357E+01  0.19823259319E+02  0.39356256664E+02  0.44159920942E+02  0.00000000000E+00 0. -1.
         21    1    1    2  504  501 -0.28674150357E+01 -0.19823259319E+02  0.27521435473E+03  0.27594224890E+03  0.00000000000E+00 0. -1.
</event>
<event>
 4    1  0.1551744E+006  0.2062806E+02  0.7546771E-02  0.1524642E+00
         21   -1    0    0  503  501  0.00000000000E+00  0.00000000000E+00  0.69213376790E+00  0.69213376790E+00  0.00000000000E+00 0.  1.
         21   -1    0    0  504  502 -0.00000000000E+00 -0.00000000000E+00 -0.62193918799E+03  0.62193918799E+03  0.00000000000E+00 0.  1.
         21    1    1    2  503  502 -0.17899345434E+02 -0.10253308440E+02 -0.27724584564E+03  0.27801218647E+03  0.00000000000E+00 0.  1.
         21    1    1    2  504  501  0.17899345434E+02  0.10253308440E+02 -0.34400120858E+03  0.34461913529E+03  0.00000000000E+00 0.  1.
</event>
<event>
 4    1  0.1551744E+006  0.2120584E+02  0.7546771E-02  0.1516346E+00
         21   -1    0    0  502  501  0.00000000000E+00  0.00000000000E+00  0.15455731006E+03  0.15455731006E+03  0.00000000000E+00 0.  1.
         21   -1    0    0  503  502 -0.00000000000E+00 -0.00000000000E+00 -0.12064686936E+02  0.12064686936E+02  0.00000000000E+00 0.  1.
         21    1    1    2  503  504 -0.20994960610E+02 -0.29831719923E+01 -0.13270816732E+01  0.21247325289E+02  0.00000000000E+00 0.  1.
         21    1    1    2  504  501  0.20994960610E+02  0.29831719923E+01  0.14381970480E+03  0.14537467171E+03  0.00000000000E+00 0.  1.
</event>
<event>
 4    1  0.1551744E+006  0.3238377E+02  0.7546771E-02  0.1399952E+00
         21   -1    0    0  503  501  0.00000000000E+00  0.00000000000E+00  0.11150433466E+02  0.11150433466E+02  0.00000000000E+00 0.  1.
         21   -1    0    0  504  502 -0.00000000000E+00 -0.00000000000E+00 -0.97364145952E+02  0.97364145952E+02  0.00000000000E+00 0.  1.
         21    1    1    2  503  502  0.20129110418E+02 -0.25367838899E+02 -0.33097982615E+02  0.46305342995E+02  0.00000000000E+00 0.  1.
         21    1    1    2  504  501 -0.20129110418E+02  0.25367838899E+02 -0.53115729870E+02  0.62209236423E+02  0.00000000000E+00 0.  1.
</event>
<event>
 4    1  0.1551744E+006  0.2172999E+02  0.7546771E-02  0.1509093E+00
         21   -1    0    0  504  501  0.00000000000E+00  0.00000000000E+00  0.20531484395E+02  0.20531484395E+02  0.00000000000E+00 0. -1.
         21   -1    0    0  501  502 -0.00000000000E+00 -0.00000000000E+00 -0.40845118529E+02  0.40845118529E+02  0.00000000000E+00 0. -1.
         21    1    1    2  503  502  0.82096642810E+01  0.20119486758E+02 -0.30442112617E+02  0.37402066194E+02  0.00000000000E+00 0. -1.
         21    1    1    2  504  503 -0.82096642810E+01 -0.20119486758E+02  0.10128478483E+02  0.23974536729E+02  0.00000000000E+00 0. -1.
</event>
<event>
 4    1  0.1551744E+006  0.2320659E+02  0.7546771E-02  0.1489920E+00
         21   -1    0    0  503  501  0.00000000000E+00  0.00000000000E+00  0.60243062480E+02  0.60243062480E+02  0.00000000000E+00 0.  1.
         21   -1    0    0  504  502 -0.00000000000E+00 -0.00000000000E+00 -0.47177445404E+02  0.47177445404E+02  0.00000000000E+00 0. -1.
         21    1    1    2  503  502  0.10317119202E+02  0.20787083718E+02 -0.41821702106E+02  0.47828867488E+02  0.00000000000E+00 0. -1.
         21    1    1    2  504  501 -0.10317119202E+02 -0.20787083718E+02  0.54887319182E+02  0.59591640397E+02  0.00000000000E+00 0.  1.
</event>
<event>
 4    1  0.1551744E+006  0.2329981E+02  0.7546771E-02  0.1488767E+00
         21   -1    0    0  503  501  0.00000000000E+00  0.00000000000E+00  0.50750740545E+02  0.50750740545E+02  0.00000000000E+00 0.  1.
         21   -1    0    0  504  502 -0.00000000000E+00 -0.00000000000E+00 -0.28006481582E+02  0.28006481582E+02  0.00000000000E+00 0.  1.
         21    1    1    2  503  502  0.54007116103E+01 -0.22665244482E+02 -0.19585882835E+02  0.30438262102E+02  0.00000000000E+00 0.  1.
         21    1    1    2  504  501 -0.54007116103E+01  0.22665244482E+02  0.42330141798E+02  0.48318960026E+02  0.00000000000E+00 0.  1.
</event>
<event>
 4    1  0.1551744E+006  0.3019767E+02  0.7546771E-02  0.1417886E+00
         21   -1    0    0  504  501  0.00000000000E+00  0.00000000000E+00  0.52876533495E+02  0.52876533495E+02  0.00000000000E+00 0.  1.
         21   -1    0    0  501  502 -0.00000000000E+00 -0.00000000000E+00 -0.15238200421E+03  0.15238200421E+03  0.00000000000E+00 0.  1.
         21    1    1    2  503  502  0.11035901927E+02  0.28108858970E+02 -0.14640014601E+03  0.14948211209E+03  0.00000000000E+00 0.  1.
         21    1    1    2  504  503 -0.11035901927E+02 -0.28108858970E+02  0.46894675291E+02  0.55776425616E+02  0.00000000000E+00 0.  1.
</event>
<event>
 4    1  0.1551744E+006  0.2256685E+02  0.7546771E-02  0.1498010E+00
         21   -1    0    0  502  501  0.00000000000E+00  0.00000000000E+00  0.15921433315E+04  0.15921433315E+04  0.00000000000E+00 0.  1.
         21   -1    0    0  503  502 -0.00000000000E+00 -0.00000000000E+00 -0.36350434341E+00  0.36350434341E+00  0.00000000000E+00 0.  1.
         21    1    1    2  503  504 -0.21828001060E+02 -0.57272415870E+01  0.51998425155E+03  0.52047371191E+03  0.00000000000E+00 0.  1.
         21    1    1    2  504  501  0.21828001060E+02  0.57272415870E+01  0.10717955756E+04  0.10720331239E+04  0.00000000000E+00 0.  1.
</event>
<event>
 4    1  0.1551744E+006  0.2126840E+02  0.7546771E-02  0.1515467E+00
         21   -1    0    0  503  501  0.00000000000E+00  0.00000000000E+00  0.19345009294E+02  0.19345009294E+02  0.00000000000E+00 0.  1.
         21   -1    0    0  504  502 -0.00000000000E+00 -0.00000000000E+00 -0.94522732791E+02  0.94522732791E+02  0.00000000000E+00 0.  1.
         21    1    1    2  503  502 -0.16507365359E+02 -0.13410875932E+02  0.11803368646E+02  0.24324148819E+02  0.00000000000E+00 0.  1.
         21    1    1    2  504  501  0.16507365359E+02  0.13410875932E+02 -0.86981092143E+02  0.89543593265E+02  0.00000000000E+00 0.  1.
</event>
<event>
 4    1  0.1551744E+006  0.4651404E+02  0.7546771E-02  0.1314038E+00
         21   -1    0    0  503  501  0.00000000000E+00  0.00000000000E+00  0.57567377931E+01  0.57567377931E+01  0.00000000000E+00 0.  1.
         21   -1    0    0  504  502 -0.00000000000E+00 -0.00000000000E+00 -0.47137318046E+03  0.47137318046E+03  0.00000000000E+00 0.  1.
         21    1    1    2  503  502  0.46433852028E+02 -0.27301157644E+01 -0.12540346327E+03  0.13375195231E+03  0.00000000000E+00 0.  1.
         21    1    1    2  504  501 -0.46433852028E+02  0.27301157644E+01 -0.34021297940E+03  0.34337796594E+03  0.00000000000E+00 0.  1.
</event>
<event>
 4    1  0.1551744E+006  0.2724569E+02  0.7546771E-02  0.1445156E+00
         21   -1    0    0  504  501  0.00000000000E+00  0.00000000000E+00  0.50887566940E+01  0.50887566940E+01  0.00000000000E+00 0. -1.
         21   -1    0    0  503  502 -0.00000000000E+00 -0.00000000000E+00 -0.28198221925E+03  0.28198221925E+03  0.00000000000E+00 0. -1.
         21    1    1    2  503  501  0.22101995256E+02 -0.15932019334E+02 -0.38725547616E+02  0.47349714598E+02  0.00000000000E+00 0. -1.
         21    1    1    2  504  502 -0.22101995256E+02  0.15932019334E+02 -0.23816791494E+03  0.23972126134E+03  0.00000000000E+00 0. -1.
</event>
<event>
 4    1  0.1551744E+006  0.2098075E+02  0.7546771E-02  0.1519540E+00
         21   -1    0    0  503  501  0.00000000000E+00  0.00000000000E+00  0.37670468118E+02  0.37670468118E+02  0.00000000000E+00 0. -1.
         21   -1    0    0  504  502 -0.00000000000E+00 -0.00000000000E+00 -0.19949343790E+02  0.19949343790E+02  0.00000000000E+00 0.  1.
         21    1    1    2  503  502  0.17839642677E+02 -0.11042602571E+02  0.27403263370E+02  0.34512762360E+02  0.00000000000E+00 0. -1.
         21    1    1    2  504  501 -0.17839642677E+02  0.11042602571E+02 -0.96821390415E+01  0.23107049548E+02  0.00000000000E+00 0.  1.
</event>
<event>
 4    1  0.1551744E+006  0.3326963E+02  0.7546771E-02  0.1393154E+00
         21   -1    0    0  504  501  0.00000000000E+00  0.00000000000E+00  0.14673230807E+03  0.14673230807E+03  0.00000000000E+00 0. -1.
         21   -1    0    0  503  502 -0.00000000000E+00 -0.00000000000E+00 -0.76007646137E+01  0.76007646137E+01  0.00000000000E+00 0. -1.
         21    1    1    2  503  501  0.29526144624E+02 -0.15332153188E+02  0.62864995940E+02  0.71125774880E+02  0.00000000000E+00 0. -1.
         21    1    1    2  504  502 -0.29526144624E+02  0.15332153188E+02  0.76266547514E+02  0.83207297801E+02  0.00000000000E+00 0. -1.
</event>
<event>
 4    1  0.1551744E+006  0.2243850E+02  0.7546771E-02  0.1499672E+00
         21   -1    0    0  503  501  0.00000000000E+00  0.00000000000E+00  0.71349684765E+03  0.71349684765E+03  0.00000000000E+00 0. -1.
         21   -1    0    0  504  502 -0.00000000000E+00 -0.00000000000E+00 -0.15625559578E+03  0.15625559578E+03  0.00000000000E+00 0.  1.
         21    1    1    2  503  502 -0.18019004643E+02  0.13371683126E+02  0.71251377194E+03  0.71286700137E+03  0.00000000000E+00 0. -1.
         21    1    1    2  504  501  0.18019004643E+02 -0.13371683126E+02 -0.15527252008E+03  0.15688544206E+03  0.00000000000E+00 0.  1.
</event>
<event>
 4    1  0.1551744E+006  0.2436849E+02  0.7546771E-02  0.1475994E+00
         21   -1    0    0  502  501  0.00000000000E+00  0.00000000000E+00  0.14010611026E+02  0.14010611026E+02  0.00000000000E+00 0. -1.
         21   -1    0    0  503  502 -0.00000000000E+00 -0.00000000000E+00 -0.42168475000E+03  0.42168475000E+03  0.00000000000E+00 0. -1.
         21    1    1    2  503  504  0.33021615506E+00  0.24366252154E+02 -0.41044688194E+03  0.41116963188E+03  0.00000000000E+00 0. -1.
         21    1    1    2  504  501 -0.33021615506E+00 -0.24366252154E+02  0.27727429620E+01  0.24525729149E+02  0.00000000000E+00 0. -1.
</event>
<event>
 4    1  0.1551744E+006  0.2240004E+02  0.7546771E-02  0.1500172E+00
         21   -1    0    0  502  501  0.00000000000E+00  0.00000000000E+00  0.15744472111E+03  0.15744472111E+03  0.00000000000E+00 0. -1.
         21   -1    0    0  504  502 -0.00000000000E+00 -0.00000000000E+00 -0.13855691206E+03  0.13855691206E+03  0.00000000000E+00 0.  1.
         21    1    1    2  503  501  0.22347679951E+02  0.15307003933E+01  0.15573275747E+03  0.15733548103E+03  0.00000000000E+00 0. -1.
         21    1    1    2  504  503 -0.22347679951E+02 -0.15307003933E+01 -0.13684494842E+03  0.13866615214E+03  0.00000000000E+00 0.  1.
</event>
<event>
 4    1  0.1551744E+006  0.5320863E+02  0.7546771E-02  0.1284830E+00
         21   -1    0    0  503  501  0.00000000000E+00  0.00000000000E+00  0.12797839275E+03  0.12797839275E+03  0.00000000000E+00 0. -1.
         21   -1    0    0  504  502 -0.00000000000E+00 -0.00000000000E+00 -0.17755438412E+03  0.17755438412E+03  0.00000000000E+00 0. -1.
         21    1    1    2  503  502 -0.82738199488E+01  0.52561416279E+02 -0.16772103912E+03  0.17595881774E+03  0.00000000000E+00 0. -1.
         21    1    1    2  504  501  0.82738199488E+01 -0.52561416279E+02  0.11814504775E+03  0.12957395913E+03  0.00000000000E+00 0. -1.
</event>
<event>
 4    1  0.1551744E+006  0.2837540E+02  0.7546771E-02  0.1434261E+00
         21   -1    0    0  504  501  0.00000000000E+00  0.00000000000E+00  0.15573979275E+04  0.15573979275E+04  0.00000000000E+00 0.  1.
         21   -1    0    0  503  502 -0.00000000000E+00 -0.00000000000E+00 -0.51849869958E+00  0.51849869958E+00  0.00000000000E+00 0. -1.
         21    1    1    2  503  501 -0.24405141480E+02  0.14475916773E+02  0.82042306030E+03  0.82091361358E+03  0.00000000000E+00 0.  1.
         21    1    1    2  504  502  0.24405141480E+02 -0.14475916773E+02  0.73645636854E+03  0.73700281265E+03  0.00000000000E+00 0. -1.
</event>
<event>
 4    1  0.1551744E+006  0.2071290E+02  0.7546771E-02  0.1523404E+00
         21   -1    0    0  503  501  0.00000000000E+00  0.00000000000E+00  0.15668464230E+00  0.15668464230E+00  0.00000000000E+00 0. -1.
         21   -1    0    0  504  502 -0.00000000000E+00 -0.00000000000E+00 -0.27516621096E+04  0.27516621096E+04  0.00000000000E+00 0. -1.
         21    1    1    2  503  502 -0.14091285117E+02 -0.15180900558E+02 -0.12792902331E+04  0.12794579026E+04  0.00000000000E+00 0. -1.
         21    1    1    2  504  501  0.14091285117E+02  0.15180900558E+02 -0.14722151918E+04  0.14723608916E+04  0.00000000000E+00 0. -1.
</event>
<event>
 4    1  0.1551744E+006  0.2332524E+02  0.7546771E-02  0.1488454E+00
         21   -1    0    0  504  501  0.00000000000E+00  0.00000000000E+00  0.10983974300E+03  0.10983974300E+03  0.00000000000E+00 0. -1.
         21   -1    0    0  503  502 -0.00000000000E+00 -0.00000000000E+00 -0.41298355815E+02  0.41298355815E+02  0.00000000000E+00 0.  1.
         21    1    1    2  503  501 -0.10666338691E+02  0.20743581138E+02  0.10516320656E+03  0.10771892570E+03  0.00000000000E+00 0. -1.
         21    1    1    2  504  502  0.10666338691E+02 -0.20743581138E+02 -0.36621819377E+02  0.43419173115E+02  0.00000000000E+00 0.  1.
</event>
<event>
 4    1  0.1551744E+006  0.2889838E+02  0.7546771E-02  0.1429417E+00
         21   -1    0    0  504  501  0.00000000000E+00  0.00000000000E+00  0.79052505704E+02  0.79052505704E+02  0.00000000000E+00 0. -1.
         21   -1    0    0  503  502 -0.00000000000E+00 -0.00000000000E+00 -0.12342117015E+02  0.12342117015E+02  0.00000000000E+00 0. -1.
         21    1    1    2  503  501 -0.25874131364E+02  0.12870343642E+02  0.50699906879E+02  0.58357492894E+02  0.00000000000E+00 0. -1.
         21    1    1    2  504  502  0.25874131364E+02 -0.12870343642E+02  0.16010481809E+02  0.33037129825E+02  0.00000000000E+00 0. -1.
</event>
<event>
 4    1  0.1551744E+006  0.2576721E+02  0.7546771E-02  0.1460401E+00
         21   -1    0    0  503  501  0.00000000000E+00  0.00000000000E+00  0.52620640785E+01  0.52620640785E+01  0.00000000000E+00 0. -1.
         21   -1    0    0  504  502 -0.00000000000E+00 -0.00000000000E+00 -0.12618964491E+03  0.12618964491E+03  0.00000000000E+00 0.  1.
         21    1    1    2  503  502 -0.17856168444E+02 -0.18577040984E+02 -0.59794795676E+02  0.65110420004E+02  0.00000000000E+00 0. -1.
         21    1    1    2  504  501  0.17856168444E+02  0.18577040984E+02 -0.61132785155E+02  0.66341288984E+02  0.00000000000E+00 0.  1.
</event>
<event>
 4    1  0.1551744E+006  0.4261917E+02  0.7546771E-02  0.1333785E+00
         21   -1    0    0  503  501  0.00000000000E+00  0.00000000000E+00  0.40555525169E+02  0.40555525169E+02  0.00000000000E+00 0. -1.
         21   -1    0    0  504  502 -0.00000000000E+00 -0.00000000000E+00 -0.18005025185E+03  0.18005025185E+03  0.00000000000E+00 0. -1.
         21    1    1    2  503  502  0.42454655194E+02 -0.37410591516E+01 -0.16535192750E+03  0.17075612200E+03  0.00000000000E+00 0. -1.
         21    1    1    2  504  501 -0.42454655194E+02  0.37410591516E+01  0.25857200822E+02  0.49849655019E+02  0.00000000000E+00 0. -1.
</event>
<event>
 4    1  0.1551744E+006  0.4159811E+02  0.7546771E-02  0.1339367E+00
         21   -1    0    0  504  501  0.00000000000E+00  0.00000000000E+00  0.81428430358E+01  0.81428430358E+01  0.00000000000E+00 0.  1.
         21   -1    0    0  501  502 -0.00000000000E+00 -0.00000000000E+00 -0.31552213200E+03  0.31552213200E+03  0.00000000000E+00 0.  1.
         21    1    1    2  503  502 -0.39473291967E+02 -0.13124846690E+02 -0.24616022341E+03  0.24965027132E+03  0.00000000000E+00 0.  1.
         21    1    1    2  504  503  0.39473291967E+02  0.13124846690E+02 -0.61219065559E+02  0.74014703724E+02  0.00000000000E+00 0.  1.
</event>
<event>
 4    1  0.1551744E+006  0.2028498E+02  0.7546771E-02  0.1529723E+00
         21   -1    0    0  504  501  0.00000000000E+00  0.00000000000E+00  0.78743537114E+02  0.78743537114E+02  0.00000000000E+00 0. -1.
         21   -1    0    0  503  502 -0.00000000000E+00 -0.00000000000E+00 -0.22593005689E+03  0.22593005689E+03  0.00000000000E+00 0. -1.
         21    1    1    2  503  501 -0.15914186273E+02  0.12578510992E+02 -0.22415803866E+03  0.22507400241E+03  0.00000000000E+00 0. -1.
         21    1    1    2  504  502  0.15914186273E+02 -0.12578510992E+02  0.76971518883E+02  0.79599591598E+02  0.00000000000E+00 0. -1.
</event>
<event>
 4    1  0.1551744E+006  0.2389633E+02  0.7546771E-02  0.1481540E+00
         21   -1    0    0  504  501  0.00000000000E+00  0.00000000000E+00  0.17161343639E+04  0.17161343639E+04  0.00000000000E+00 0.  1.
         21   -1    0    0  503  502 -0.00000000000E+00 -0.00000000000E+00 -0.62306308722E+01  0.62306308722E+01  0.00000000000E+00 0.  1.
         21    1    1    2  503  501  0.23824147243E+02 -0.18559358195E+01  0.16928232913E+04  0.16929919462E+04  0.00000000000E+00 0.  1.
         21    1    1    2  504  502 -0.23824147243E+02  0.18559358195E+01  0.17080441712E+02  0.29373048509E+02  0.00000000000E+00 0.  1.
</event>
<event>
 4    1  0.1551744E+006  0.4047307E+02  0.7546771E-02  0.1345736E+00
         21   -1    0    0  504  501  0.00000000000E+00  0.00000000000E+00  0.16707689225E+02  0.16707689225E+02  0.00000000000E+00 0.  1.
         21   -1    0    0  503  502 -0.00000000000E+00 -0.00000000000E+00 -0.14362122907E+03  0.14362122907E+03  0.00000000000E+00 0.  1.
         21    1    1    2  503  501 -0.23078227487E+02  0.33248533548E+02 -0.18296975395E+02  0.44416763453E+02  0.00000000000E+00 0.  1.
         21    1    1    2  504  502  0.23078227487E+02 -0.33248533548E+02 -0.10861656445E+03  0.11591215484E+03  0.00000000000E+00 0.  1.
</event>
<event>
 4    1  0.1551744E+006  0.2341249E+02  0.7546771E-02  0.1487382E+00
         21   -1    0    0  502  501  0.00000000000E+00  0.00000000000E+00  0.10235428394E+02  0.10235428394E+02  0.00000000000E+00 0. -1.
         21   -1    0    0  503  502 -0.00000000000E+00 -0.00000000000E+00 -0.27890285125E+03  0.27890285125E+03  0.00000000000E+00 0. -1.
         21    1    1    2  503  504 -0.18573799630E+02  0.14253365876E+02 -0.26428396727E+03  0.26531897751E+03  0.00000000000E+00 0. -1.
         21    1    1    2  504  501  0.18573799630E+02 -0.14253365876E+02 -0.43834555925E+01  0.23819302140E+02  0.00000000000E+00 0. -1.
</event>
<event>
 4    1  0.1551744E+006  0.4719726E+02  0.7546771E-02  0.1310804E+00
         21   -1    0    0  504  501  0.00000000000E+00  0.00000000000E+00  0.19245831073E+03  0.19245831073E+03  0.00000000000E+00 0. -1.
         21   -1    0    0  503  502 -0.00000000000E+00 -0.00000000000E+00 -0.68802049529E+02  0.68802049529E+02  0.00000000000E+00 0.  1.
         21    1    1    2  503  501  0.32819983357E+02 -0.33917995628E+02  0.18096493445E+03  0.18701841951E+03  0.00000000000E+00 0. -1.
         21    1    1    2  504  502 -0.32819983357E+02  0.33917995628E+02 -0.57308673256E+02  0.74241940743E+02  0.00000000000E+00 0.  1.
</event>
<event>
 4    1  0.1551744E+006  0.3647894E+02  0.7546771E-02  0.1370454E+00
         21   -1    0    0  503  501  0.00000000000E+00  0.00000000000E+00  0.43646476838E+02  0.43646476838E+02  0.00000000000E+00 0.  1.
         21   -1    0    0  504  502 -0.00000000000E+00 -0.00000000000E+00 -0.32132820781E+02  0.32132820781E+02  0.00000000000E+00 0.  1.
         21    1    1    2  503  502 -0.35055533206E+02  0.10090722823E+02 -0.28144786026E+01  0.36587352805E+02  0.00000000000E+00 0.  1.
         21    1    1    2  504  501  0.35055533206E+02 -0.10090722823E+02  0.14328134660E+02  0.39191944814E+02  0.00000000000E+00 0.  1.
</event>
<event>
 4    1  0.1551744E+006  0.3128474E+02  0.7546771E-02  0.1408751E+00
         21   -1    0    0  504  501  0.00000000000E+00  0.00000000000E+00  0.79597175226E+01  0.79597175226E+01  0.00000000000E+00 0.  1.
         21   -1    0    0  503  502 -0.00000000000E+00 -0.00000000000E+00 -0.14394569248E+03  0.14394569248E+03  0.00000000000E+00 0.  1.
         21    1    1    2  503  501 -0.27355112037E+02 -0.15180012149E+02 -0.96992793130E+02  0.10191337911E+03  0.00000000000E+00 0.  1.
         21    1    1    2  504  502  0.27355112037E+02  0.15180012149E+02 -0.38993181831E+02  0.49992030892E+02  0.00000000000E+00 0.  1.
</event>
<event>
 4    1  0.1551744E+006  0.2027613E+02  0.7546771E-02  0.1529856E+00
         21   -1    0    0  503  501  0.00000000000E+00  0.00000000000E+00  0.41384483007E+03  0.41384483007E+03  0.00000000000E+00 0. -1.
         21   -1    0    0  504  502 -0.00000000000E+00 -0.00000000000E+00 -0.18657485960E+02  0.18657485960E+02  0.00000000000E+00 0. -1.
         21    1    1    2  503  502 -0.16586841474E+02  0.11661830067E+02  0.40800892722E+03  0.40851243100E+03  0.00000000000E+00 0. -1.
         21    1    1    2  504  501  0.16586841474E+02 -0.11661830067E+02 -0.12821583106E+02  0.23989885034E+02  0.00000000000E+00 0. -1.
</event>
<event>
 4    1  0.1551744E+006  0.2232920E+02  0.7546771E-02  0.1501098E+00
         21   -1    0    0  503  501  0.00000000000E+00  0.00000000000E+00  0.15676252523E+03  0.15676252523E+03  0.00000000000E+00 0. -1.
         21   -1    0    0  501  502 -0.00000000000E+00 -0.00000000000E+00 -0.13413799191E+03  0.13413799191E+03  0.00000000000E+00 0. -1.
         21    1    1    2  503  504  0.15500650480E+02 -0.16072436797E+02  0.15502778453E+03  0.15662760729E+03  0.00000000000E+00 0. -1.
         21    1    1    2  504  502 -0.15500650480E+02  0.16072436797E+02 -0.13240325120E+03  0.13427290985E+03  0.00000000000E+00 0. -1.
</event>
<event>
 4    1  0.1551744E+006  0.5656869E+02  0.7546771E-02  0.1271959E+00
         21   -1    0    0  503  501  0.00000000000E+00  0.00000000000E+00  0.50762857326E+01  0.50762857326E+01  0.00000000000E+00 0. -1.
         21   -1    0    0  504  502 -0.00000000000E+00 -0.00000000000E+00 -0.63111514494E+03  0.63111514494E+03  0.00000000000E+00 0. -1.
         21    1    1    2  503  502  0.41225974306E+02  0.38735451406E+02 -0.30220249403E+03  0.30745140031E+03  0.00000000000E+00 0. -1.
         21    1    1    2  504  501 -0.41225974306E+02 -0.38735451406E+02 -0.32383636517E+03  0.32874003036E+03  0.00000000000E+00 0. -1.
</event>
<event>
 4    1  0.1551744E+006  0.2480633E+02  0.7546771E-02  0.1470982E+00
         21   -1    0    0  503  501  0.00000000000E+00  0.00000000000E+00  0.49936587858E+02  0.49936587858E+02  0.00000000000E+00 0.  1.
         21   -1    0    0  501  502 -0.00000000000E+00 -0.00000000000E+00 -0.15284853124E+02  0.15284853124E+02  0.00000000000E+00 0.  1.
         21    1    1    2  503  504 -0.60695954778E+01 -0.24052316851E+02  0.31681852724E+02  0.40237963755E+02  0.00000000000E+00 0.  1.
         21    1    1    2  504  502  0.60695954778E+01  0.24052316851E+02  0.29698820103E+01  0.24983477226E+02  0.00000000000E+00 0.  1.
</event>
<event>
 4    1  0.1551744E+006  0.2139215E+02  0.7546771E-02  0.1513739E+00
         21   -1    0    0  504  501  0.00000000000E+00  0.00000000000E+00  0.76212345639E+00  0.76212345639E+00  0.00000000000E+00 0.  1.
         21   -1    0    0  503  502 -0.00000000000E+00 -0.00000000000E+00 -0.60050705200E+03  0.60050705200E+03  0.00000000000E+00 0.  1.
         21    1    1    2  503  501 -0.90255909372E+01  0.19394919959E+02 -0.30254983750E+03  0.30330517368E+03  0.00000000000E+00 0.  1.
         21    1    1    2  504  502  0.90255909372E+01 -0.19394919959E+02 -0.29719509104E+03  0.29796400177E+03  0.00000000000E+00 0.  1.
</event>
<event>
 4    1  0.1551744E+006  0.2358345E+02  0.7546771E-02  0.1485299E+00
         21   -1    0    0  502  501  0.00000000000E+00  0.00000000000E+00  0.35597599327E+01  0.35597599327E+01  0.00000000000E+00 0. -1.
         21   -1    0    0  503  502 -0.00000000000E+00 -0.00000000000E+00 -0.24111257198E+03  0.24111257198E+03  0.00000000000E+00 0. -1.
         21    1    1    2  503  504  0.17532839131E+02  0.15772722496E+02 -0.19135807391E+03  0.19280583932E+03  0.00000000000E+00 0. -1.
         21    1    1    2  504  501 -0.17532839131E+02 -0.15772722496E+02 -0.46194738135E+02  0.51866492597E+02  0.00000000000E+00 0. -1.
</event>
<event>
 4    1  0.1551744E+006  0.2426749E+02  0.7546771E-02  0.1477167E+00
         21   -1    0    0  502  501  0.00000000000E+00  0.00000000000E+00  0.11509703273E+02  0.11509703273E+02  0.00000000000E+00 0.  1.
         21   -1    0    0  504  502 -0.00000000000E+00 -0.00000000000E+00 -0.10540204576E+03  0.10540204576E+03  0.00000000000E+00 0. -1.
         21    1    1    2  503  501 -0.24077574336E+02  0.30300985048E+01 -0.50141592472E+01  0.24780090311E+02  0.00000000000E+00 0.  1.
         21    1    1    2  504  503  0.24077574336E+02 -0.30300985048E+01 -0.88878183243E+02  0.92131658725E+02  0.00000000000E+00 0. -1.
</event>
<event>
 4    1  0.1551744E+006  0.3169252E+02  0.7546771E-02  0.1405437E+00
         21   -1    0    0  504  501  0.00000000000E+00  0.00000000000E+00  0.84419520765E+01  0.84419520765E+01  0.00000000000E+00 0.  1.
         21   -1    0    0  501  502 -0.00000000000E+00 -0.00000000000E+00 -0.27351770883E+03  0.27351770883E+03  0.00000000000E+00 0.  1.
         21    1    1    2  503  502 -0.56935413015E+01  0.31176910135E+02 -0.23850782412E+03  0.24060423584E+03  0.00000000000E+00 0.  1.
         21    1    1    2  504  503  0.56935413015E+01 -0.31176910135E+02 -0.26567932640E+02  0.41355425072E+02  0.00000000000E+00 0.  1.
</event>
<event>
 4    1  0.1551744E+006  0.2162233E+02  0.7546771E-02  0.1510562E+00
         21   -1    0    0  504  501  0.00000000000E+00  0.00000000000E+00  0.19355228491E+03  0.19355228491E+03  0.00000000000E+00 0.  1.
         21   -1    0    0  501  502 -0.00000000000E+00 -0.00000000000E+00 -0.32244987888E+03  0.32244987888E+03  0.00000000000E+00 0.  1.
         21    1    1    2  503  502  0.14063060159E+01 -0.21576548034E+02 -0.32148170895E+03  0.32220802955E+03  0.00000000000E+00 0.  1.
         21    1    1    2  504  503 -0.14063060159E+01  0.21576548034E+02  0.19258411497E+03  0.19379413423E+03  0.00000000000E+00 0.  1.
</event>
<event>
 4    1  0.1551744E+006  0.2434429E+02  0.7546771E-02  0.1476274E+00
         21   -1    0    0  502  501  0.00000000000E+00  0.00000000000E+00  0.45298437047E+03  0.45298437047E+03  0.00000000000E+00 0. -1.
         21   -1    0    0  503  502 -0.00000000000E+00 -0.00000000000E+00 -0.67167168352E+01  0.67167168352E+01  0.00000000000E+00 0. -1.
         21    1    1    2  503  504  0.23609077572E+02 -0.59376668216E+01  0.16880172394E+02  0.29624055278E+02  0.00000000000E+00 0. -1.
         21    1    1    2  504  501 -0.23609077572E+02  0.59376668216E+01  0.42938748124E+03  0.43007703202E+03  0.00000000000E+00 0. -1.
</event>
<event>
 4    1  0.1551744E+006  0.2177955E+02  0.7546771E-02  0.1508420E+00
         21   -1    0    0  504  501  0.00000000000E+00  0.00000000000E+00  0.17513507893E+02  0.17513507893E+02  0.00000000000E+00 0. -1.
         21   -1    0    0  503  502 -0.00000000000E+00 -0.00000000000E+00 -0.36700677292E+02  0.36700677292E+02  0.00000000000E+00 0. -1.
         21    1    1    2  503  501  0.20916388031E+00 -0.21778549397E+02  0.42816874584E+01  0.22196436895E+02  0.00000000000E+00 0. -1.
         21    1    1    2  504  502 -0.20916388031E+00  0.21778549397E+02 -0.23468856858E+02  0.32017748290E+02  0.00000000000E+00 0. -1.
</event>
<event>
 4    1  0.1551744E+006  0.4346098E+02  0.7546771E-02  0.1329317E+00
         21   -1    0    0  504  501  0.00000000000E+00  0.00000000000E+00  0.96361210096E+01  0.96361210096E+01  0.00000000000E+00 0.  1.
         21   -1    0    0  503  502 -0.00000000000E+00 -0.00000000000E+00 -0.36475004857E+03  0.36475004857E+03  0.00000000000E+00 0.  1.
         21    1    1    2  503  501 -0.26415219118E+02 -0.34512211566E+02 -0.30487515504E+03  0.30795732936E+03  0.00000000000E+00 0.  1.
         21    1    1    2  504  502  0.26415219118E+02  0.34512211566E+02 -0.50238772525E+02  0.66428840220E+02  0.00000000000E+00 0.  1.
</event>
<event>
 4    1  0.1551744E+006  0.4325274E+02  0.7546771E-02  0.1330411E+00
         21   -1    0    0  503  501  0.00000000000E+00  0.00000000000E+00  0.59973175556E+01  0.59973175556E+01  0.00000000000E+00 0. -1.
         21   -1    0    0  504  502 -0.00000000000E+00 -0.00000000000E+00 -0.71398969037E+03  0.71398969037E+03  0.00000000000E+00 0.  1.
         21    1    1    2  503  502 -0.54586539860E+00  0.43249298679E+02 -0.62413616978E+03  0.62563308594E+03  0.00000000000E+00 0.  1.
         21    1    1    2  504  501  0.54586539860E+00 -0.43249298679E+02 -0.83856203035E+02  0.94353921978E+02  0.00000000000E+00 0. -1.
</event>
<event>
 4    1  0.1551744E+006  0.3042911E+02  0.7546771E-02  0.1415903E+00
         21   -1    0    0  502  501  0.00000000000E+00  0.00000000000E+00  0.66190631891E+02  0.66190631891E+02  0.00000000000E+00 0. -1.
         21   -1    0    0  504  502 -0.00000000000E+00 -0.00000000000E+00 -0.41104910562E+02  0.41104910562E+02  0.00000000000E+00 0. -1.
         21    1    1    2  503  501  0.21489518302E+02 -0.21543705001E+02  0.56115929877E+02  0.63835164353E+02  0.00000000000E+00 0. -1.
         21    1    1    2  504  503 -0.21489518302E+02  0.21543705001E+02 -0.31030208548E+02  0.43460378100E+02  0.00000000000E+00 0. -1.
</event>
<event>
 4    1  0.1551744E+006  0.2402437E+02  0.7546771E-02  0.1480021E+00
         21   -1    0    0  504  501  0.00000000000E+00  0.00000000000E+00  0.47931958976E+01  0.47931958976E+01  0.00000000000E+00 0.  1.
         21   -1    0    0  503  502 -0.00000000000E+00 -0.00000000000E+00 -0.85557197140E+03  0.85557197140E+03  0.00000000000E+00 0. -1.
         21    1    1    2  503  501  0.23845439548E+02 -0.29267053225E+01 -0.26626513029E+02  0.35862819010E+02  0.00000000000E+00 0.  1.
         21    1    1    2  504  502 -0.23845439548E+02  0.29267053225E+01 -0.82415226247E+03  0.82450234829E+03  0.00000000000E+00 0. -1.
</event>
<event>
 4    1  0.1551744E+006  0.2129332E+02  0.7546771E-02  0.1515118E+00
         21   -1    0    0  502  501  0.00000000000E+00  0.00000000000E+00  0.72765385511E+03  0.72765385511E+03  0.00000000000E+00 0. -1.
         21   -1    0    0  504  502 -0.00000000000E+00 -0.00000000000E+00 -0.21125858656E+01  0.21125858656E+01  0.00000000000E+00 0. -1.
         21    1    1    2  503  501 -0.20685257947E+02 -0.50522825661E+01  0.66915318815E+03  0.66949189291E+03  0.00000000000E+00 0. -1.
         21    1    1    2  504  503  0.20685257947E+02  0.50522825661E+01  0.56388081092E+02  0.60274548067E+02  0.00000000000E+00 0. -1.
</event>
<event>
 4    1  0.1551744E+006  0.3988527E+02  0.7546771E-02  0.1349159E+00
         21   -1    0    0  504  501  0.00000000000E+00  0.00000000000E+00  0.90889518763E+00  0.90889518763E+00  0.00000000000E+00 0. -1.
         21   -1    0    0  503  502 -0.00000000000E+00 -0.00000000000E+00 -0.17505819932E+04  0.17505819932E+04  0.00000000000E+00 0. -1.
         21    1    1    2  503  501 -0.37722091264E+02  0.12956803976E+02 -0.86362860876E+03  0.86454913614E+03  0.00000000000E+00 0. -1.
         21    1    1    2  504  502  0.37722091264E+02 -0.12956803976E+02 -0.88604448928E+03  0.88694175227E+03  0.00000000000E+00 0. -1.
</event>
<event>
 4    1  0.1551744E+006  0.2884823E+02  0.7546771E-02  0.1429876E+00
         21   -1    0    0  502  501  0.00000000000E+00  0.00000000000E+00  0.59532661488E+02  0.59532661488E+02  0.00000000000E+00 0.  1.
         21   -1    0    0  503  502 -0.00000000000E+00 -0.00000000000E+00 -0.20252544598E+03  0.20252544598E+03  0.00000000000E+00 0.  1.
         21    1    1    2  503  504 -0.64381157235E+00 -0.28841044607E+02 -0.19792248745E+03  0.20001382799E+03  0.00000000000E+00 0.  1.
         21    1    1    2  504  501  0.64381157235E+00  0.28841044607E+02  0.54929702966E+02  0.62044279473E+02  0.00000000000E+00 0.  1.
</event>
<event>
 4    1  0.1551744E+006  0.2197629E+02  0.7546771E-02  0.1505769E+00
         21   -1    0    0  504  501  0.00000000000E+00  0.00000000000E+00  0.15085904761E+02  0.15085904761E+02  0.00000000000E+00 0. -1.
         21   -1    0    0  501  502 -0.00000000000E+00 -0.00000000000E+00 -0.39838118990E+02  0.39838118990E+02  0.00000000000E+00 0. -1.
         21    1    1    2  503  502 -0.25906341031E+01 -0.21823054907E+02 -0.24546546637E+02  0.32946776205E+02  0.00000000000E+00 0. -1.
         21    1    1    2  504  503  0.25906341031E+01  0.21823054907E+02 -0.20566759203E+00  0.21977247545E+02  0.00000000000E+00 0. -1.
</event>
<event>
 4    1  0.1551744E+006  0.2415348E+02  0.7546771E-02  0.1478500E+00
         21   -1    0    0  503  501  0.00000000000E+00  0.00000000000E+00  0.10181507664E+03  0.10181507664E+03  0.00000000000E+00 0.  1.
         21   -1    0    0  504  502 -0.00000000000E+00 -0.00000000000E+00 -0.11413854593E+02  0.11413854593E+02  0.00000000000E+00 0.  1.
         21    1    1    2  503  502  0.18239840229E+02 -0.15833472029E+02  0.52488070346E+01  0.24717212289E+02  0.00000000000E+00 0.  1.
         21    1    1    2  504  501 -0.18239840229E+02  0.15833472029E+02  0.85152415014E+02  0.88511718946E+02  0.00000000000E+00 0.  1.
</event>
<event>
 4    1  0.1551744E+006  0.2434167E+02  0.7546771E-02  0.1476305E+00
         21   -1    0    0  504  501  0.00000000000E+00  0.00000000000E+00  0.25740571254E+03  0.25740571254E+03  0.00000000000E+00 0.  1.
         21   -1    0    0  503  502 -0.00000000000E+00 -0.00000000000E+00 -0.29926760483E+01  0.29926760483E+01  0.00000000000E+00 0.  1.
         21    1    1    2  503  501  0.18678885530E+02  0.15608214704E+02  0.18976025821E+03  0.19131511369E+03  0.00000000000E+00 0.  1.
         21    1    1    2  504  502 -0.18678885530E+02 -0.15608214704E+02  0.64652778280E+02  0.69083274895E+02  0.00000000000E+00 0.  1.
</event>
<event>
 4    1  0.1551744E+006  0.2310981E+02  0.7546771E-02  0.1491124E+00
         21   -1    0    0  503  501  0.00000000000E+00  0.00000000000E+00  0.12424090198E+02  0.12424090198E+02  0.00000000000E+00 0.  1.
         21   -1    0    0  501  502 -0.00000000000E+00 -0.00000000000E+00 -0.55441391203E+02  0.55441391203E+02  0.00000000000E+00 0.  1.
         21    1    1    2  503  504 -0.17310134064E+02 -0.15310860640E+02 -0.54252155918E+01  0.23738074039E+02  0.00000000000E+00 0.  1.
         21    1    1    2  504  502  0.17310134064E+02  0.15310860640E+02 -0.37592085412E+02  0.44127407362E+02  0.00000000000E+00 0.  1.
</event>
<event>
 4    1  0.1551744E+006  0.2747932E+02  0.7546771E-02  0.1442852E+00
         21   -1    0    0  502  501  0.00000000000E+00  0.00000000000E+00  0.21200495605E+02  0.21200495605E+02  0.00000000000E+00 0.  1.
         21   -1    0    0  504  502 -0.00000000000E+00 -0.00000000000E+00 -0.54387205717E+03  0.54387205717E+03  0.00000000000E+00 0. -1.
         21    1    1    2  503  501 -0.25708003780E+02  0.97062744806E+01  0.11792324872E+02  0.29902711390E+02  0.00000000000E+00 0.  1.
         21    1    1    2  504  503  0.25708003780E+02 -0.97062744806E+01 -0.53446388644E+03  0.53516984139E+03  0.00000000000E+00 0. -1.
</event>
<event>
 4    1  0.1551744E+006  0.2091239E+02  0.7546771E-02  0.1520519E+00
         21   -1    0    0  502  501  0.00000000000E+00  0.00000000000E+00  0.48137167466E+02  0.48137167466E+02  0.00000000000E+00 0. -1.
         21   -1    0    0  503  502 -0.00000000000E+00 -0.00000000000E+00 -0.16056744089E+02  0.16056744089E+02  0.00000000000E+00 0. -1.
         21    1    1    2  503  504  0.19427583960E+02 -0.77393223581E+01 -0.51095047818E+01  0.21527544407E+02  0.00000000000E+00 0. -1.
         21    1    1    2  504  501 -0.19427583960E+02  0.77393223581E+01  0.37189928158E+02  0.42666367147E+02  0.00000000000E+00 0. -1.
</event>
<event>
 4    1  0.1551744E+006  0.2961806E+02  0.7546771E-02  0.1422945E+00
         21   -1    0    0  503  501  0.00000000000E+00  0.00000000000E+00  0.23625963801E+02  0.23625963801E+02  0.00000000000E+00 0.  1.
         21   -1    0    0  504  502 -0.00000000000E+00 -0.00000000000E+00 -0.38277689064E+02  0.38277689064E+02  0.00000000000E+00 0. -1.
         21    1    1    2  503  502 -0.14721314552E+02 -0.25700434682E+02 -0.19660908776E+01  0.29683243730E+02  0.00000000000E+00 0. -1.
         21    1    1    2  504  501  0.14721314552E+02  0.25700434682E+02 -0.12685634386E+02  0.32220409134E+02  0.00000000000E+00 0.  1.
</event>
<event>
 4    1  0.1551744E+006  0.2661403E+02  0.7546771E-02  0.1451524E+00
         21   -1    0    0  504  501  0.00000000000E+00  0.00000000000E+00  0.44135424748E+02  0.44135424748E+02  0.00000000000E+00 0.  1.
         21   -1    0    0  501  502 -0.00000000000E+00 -0.00000000000E+00 -0.88892345821E+02  0.88892345821E+02  0.00000000000E+00 0.  1.
         21    1    1    2  503  502  0.26613360568E+02  0.18917995922E+00 -0.82589567026E+02  0.86771788798E+02  0.00000000000E+00 0.  1.
         21    1    1    2  504  503 -0.26613360568E+02 -0.18917995922E+00  0.37832645952E+02  0.46255981770E+02  0.00000000000E+00 0.  1.
</event>
<event>
 4    1  0.1551744E+006  0.2560265E+02  0.7546771E-02  0.1462173E+00
         21   -1    0    0  504  501  0.00000000000E+00  0.00000000000E+00  0.36317735851E+02  0.36317735851E+02  0.00000000000E+00 0. -1.
         21   -1    0    0  501  502 -0.00000000000E+00 -0.00000000000E+00 -0.21400584744E+03  0.21400584744E+03  0.00000000000E+00 0.  1.
         21    1    1    2  503  502  0.25038210088E+02  0.53463784018E+01 -0.20861163388E+03  0.21017685295E+03  0.00000000000E+00 0.  1.
         21    1    1    2  504  503 -0.25038210088E+02 -0.53463784018E+01  0.30923522289E+02  0.40146730342E+02  0.00000000000E+00 0. -1.
</event>
<event>
 4    1  0.1551744E+006  0.3137543E+02  0.7546771E-02  0.1408009E+00
         21   -1    0    0  504  501  0.00000000000E+00  0.00000000000E+00  0.48114629918E+02  0.48114629918E+02  0.00000000000E+00 0.  1.
         21   -1    0    0  501  502 -0.00000000000E+00 -0.00000000000E+00 -0.11552205336E+03  0.11552205336E+03  0.00000000000E+00 0. -1.
         21    1    1    2  503  502  0.10805843248E+02 -0.29455925562E+02 -0.10792392118E+03  0.11239212856E+03  0.00000000000E+00 0. -1.
         21    1    1    2  504  503 -0.10805843248E+02  0.29455925562E+02  0.40516497741E+02  0.51244554717E+02  0.00000000000E+00 0.  1.
</event>
<event>
 4    1  0.1551744E+006  0.3172577E+02  0.7546771E-02  0.1405170E+00
         21   -1    0    0  502  501  0.00000000000E+00  0.00000000000E+00  0.48416065806E+03  0.48416065806E+03  0.00000000000E+00 0.  1.
         21   -1    0    0  504  502 -0.00000000000E+00 -0.00000000000E+00 -0.20030513508E+02  0.20030513508E+02  0.00000000000E+00 0. -1.
         21    1    1    2  503  501 -0.38010886662E+01  0.31497243828E+02  0.47072025391E+03  0.47178817502E+03  0.00000000000E+00 0.  1.
         21    1    1    2  504  503  0.38010886662E+01 -0.31497243828E+02 -0.65901093626E+01  0.32402996547E+02  0.00000000000E+00 0. -1.
</event>
<event>
 4    1  0.1551744E+006  0.2082780E+02  0.7546771E-02  0.1521738E+00
         21   -1    0    0  504  501  0.00000000000E+00  0.00000000000E+00  0.13364967765E+03  0.13364967765E+03  0.00000000000E+00 0.  1.
         21   -1    0    0  501  502 -0.00000000000E+00 -0.00000000000E+00 -0.82186931483E+01  0.82186931483E+01  0.00000000000E+00 0.  1.
         21    1    1    2  503  502 -0.10877300533E+01  0.20799375822E+02  0.75382838036E+01  0.22150009345E+02  0.00000000000E+00 0.  1.
         21    1    1    2  504  503  0.10877300533E+01 -0.20799375822E+02  0.11789270070E+03  0.11971836145E+03  0.00000000000E+00 0.  1.
</event>
<event>
 4    1  0.1551744E+006  0.2160932E+02  0.7546771E-02  0.1510740E+00
         21   -1    0    0  504  501  0.00000000000E+00  0.00000000000E+00  0.36015452709E+02  0.36015452709E+02  0.00000000000E+00 0.  1.
         21   -1    0    0  503  502 -0.00000000000E+00 -0.00000000000E+00 -0.24477722660E+03  0.24477722660E+03  0.00000000000E+00 0. -1.
         21    1    1    2  503  501  0.19903283269E+02  0.84155795651E+01  0.32246533561E+02  0.38817542310E+02  0.00000000000E+00 0.  1.
         21    1    1    2  504  502 -0.19903283269E+02 -0.84155795651E+01 -0.24100830745E+03  0.24197513700E+03  0.00000000000E+00 0. -1.
</event>
<event>
 4    1  0.1551744E+006  0.2312527E+02  0.7546771E-02  0.1490931E+00
         21   -1    0    0  503  501  0.00000000000E+00  0.00000000000E+00  0.46042798646E+02  0.46042798646E+02  0.00000000000E+00 0.  1.
         21   -1    0    0  504  502 -0.00000000000E+00 -0.00000000000E+00 -0.12155718788E+02  0.12155718788E+02  0.00000000000E+00 0.  1.
         21    1    1    2  503  502  0.22965712727E+02  0.27118697145E+01  0.23081937523E+02  0.32673445460E+02  0.00000000000E+00 0.  1.
         21    1    1    2  504  501 -0.22965712727E+02 -0.27118697145E+01  0.10805142334E+02  0.25525071974E+02  0.00000000000E+00 0.  1.
</event>
<event>
 4    1  0.1551744E+006  0.2061506E+02  0.7546771E-02  0.1524832E+00
         21   -1    0    0  504  501  0.00000000000E+00  0.00000000000E+00  0.39854796319E+03  0.39854796319E+03  0.00000000000E+00 0. -1.
         21   -1    0    0  503  502 -0.00000000000E+00 -0.00000000000E+00 -0.11831723232E+01  0.11831723232E+01  0.00000000000E+00 0. -1.
         21    1    1    2  503  501 -0.56903627904E+01 -0.19814147494E+02  0.13587251481E+03  0.13742751162E+03  0.00000000000E+00 0. -1.
         21    1    1    2  504  502  0.56903627904E+01  0.19814147494E+02  0.26149227605E+03  0.26230362389E+03  0.00000000000E+00 0. -1.
</event>
<event>
 4    1  0.1551744E+006  0.3966855E+02  0.7546771E-02  0.1350439E+00
         21   -1    0    0  504  501  0.00000000000E+00  0.00000000000E+00  0.19683118065E+01  0.19683118065E+01  0.00000000000E+00 0.  1.
         21   -1    0    0  501  502 -0.00000000000E+00 -0.00000000000E+00 -0.15699178538E+04  0.15699178538E+04  0.00000000000E+00 0.  1.
         21    1    1    2  503  502  0.28332267949E+02 -0.27764657058E+02 -0.13345619170E+04  0.13351513412E+04  0.00000000000E+00 0.  1.
         21    1    1    2  504  503 -0.28332267949E+02  0.27764657058E+02 -0.23338762494E+03  0.23673482436E+03  0.00000000000E+00 0.  1.
</event>
<event>
 4    1  0.1551744E+006  0.3678885E+02  0.7546771E-02  0.1368405E+00
         21   -1    0    0  504  501  0.00000000000E+00  0.00000000000E+00  0.32130666263E+03  0.32130666263E+03  0.00000000000E+00 0.  1.
         21   -1    0    0  503  502 -0.00000000000E+00 -0.00000000000E+00 -0.46075936803E+01  0.46075936803E+01  0.00000000000E+00 0.  1.
         21    1    1    2  503  501 -0.36767728519E+02  0.12465279995E+01  0.20608388538E+03  0.20934179589E+03  0.00000000000E+00 0.  1.
         21    1    1    2  504  502  0.36767728519E+02 -0.12465279995E+01  0.11061518356E+03  0.11657246041E+03  0.00000000000E+00 0.  1.
</event>
<event>
 4    1  0.1551744E+006  0.2132181E+02  0.7546771E-02  0.1514719E+00
         21   -1    0    0  503  501  0.00000000000E+00  0.00000000000E+00  0.66464186549E+01  0.66464186549E+01  0.00000000000E+00 0. -1.
         21   -1    0    0  504  502 -0.00000000000E+00 -0.00000000000E+00 -0.10339476261E+03  0.10339476261E+03  0.00000000000E+00 0. -1.
         21    1    1    2  503  502  0.17547209646E+02  0.12112602501E+02 -0.80383248458E+02  0.83163010638E+02  0.00000000000E+00 0. -1.
         21    1    1    2  504  501 -0.17547209646E+02 -0.12112602501E+02 -0.16365095502E+02  0.26878170631E+02  0.00000000000E+00 0. -1.
</event>
<event>
 4    1  0.1551744E+006  0.7448913E+02  0.7546771E-02  0.1217254E+00
         21   -1    0    0  504  501  0.00000000000E+00  0.00000000000E+00  0.12127002731E+03  0.12127002731E+03  0.00000000000E+00 0.  1.
         21   -1    0    0  503  502 -0.00000000000E+00 -0.00000000000E+00 -0.10026183916E+03  0.10026183916E+03  0.00000000000E+00 0. -1.
         21    1    1    2  503  501  0.14884918474E+02 -0.72986778975E+02 -0.71166644822E+02  0.10302097863E+03  0.00000000000E+00 0. -1.
         21    1    1    2  504  502 -0.14884918474E+02  0.72986778975E+02  0.92174832975E+02  0.11851088784E+03  0.00000000000E+00 0.  1.
</event>
<event>
 4    1  0.1551744E+006  0.4598636E+02  0.7546771E-02  0.1316580E+00
         21   -1    0    0  504  501  0.00000000000E+00  0.00000000000E+00  0.49922386412E+02  0.49922386412E+02  0.00000000000E+00 0. -1.
         21   -1    0    0  503  502 -0.00000000000E+00 -0.00000000000E+00 -0.43342855007E+02  0.43342855007E+02  0.00000000000E+00 0.  1.
         21    1    1    2  503  501  0.18891565564E+02  0.41926766530E+02 -0.37301350511E+01  0.46137391653E+02  0.00000000000E+00 0. -1.
         21    1    1    2  504  502 -0.18891565564E+02 -0.41926766530E+02  0.10309666455E+02  0.47127849765E+02  0.00000000000E+00 0.  1.
</event>
<event>
 4    1  0.1551744E+006  0.3050445E+02  0.7546771E-02  0.1415262E+00
         21   -1    0    0  503  501  0.00000000000E+00  0.00000000000E+00  0.43160445629E+02  0.43160445629E+02  0.00000000000E+00 0.  1.
         21   -1    0    0  504  502 -0.00000000000E+00 -0.00000000000E+00 -0.13522789348E+03  0.13522789348E+03  0.00000000000E+00 0. -1.
         21    1    1    2  503  502 -0.30255506099E+02 -0.38892243683E+01  0.35741737804E+02  0.46989291724E+02  0.00000000000E+00 0.  1.
         21    1    1    2  504  501  0.30255506099E+02  0.38892243683E+01 -0.12780918565E+03  0.13139904738E+03  0.00000000000E+00 0. -1.
</event>
<event>
 4    1  0.1551744E+006  0.3304703E+02  0.7546771E-02  0.1394839E+00
         21   -1    0    0  504  501  0.00000000000E+00  0.00000000000E+00  0.44838141784E+01  0.44838141784E+01  0.00000000000E+00 0. -1.
         21   -1    0    0  501  502 -0.00000000000E+00 -0.00000000000E+00 -0.27734468152E+03  0.27734468152E+03  0.00000000000E+00 0. -1.
         21    1    1    2  503  502 -0.24564497097E+02 -0.22106374840E+02 -0.18560765415E+03  0.18852667611E+03  0.00000000000E+00 0. -1.
         21    1    1    2  504  503  0.24564497097E+02  0.22106374840E+02 -0.87253213197E+02  0.93301819594E+02  0.00000000000E+00 0. -1.
</event>
<event>
 4    1  0.1551744E+006  0.3289813E+02  0.7546771E-02  0.1395974E+00
         21   -1    0    0  503  501  0.00000000000E+00  0.00000000000E+00  0.15572970865E+02  0.15572970865E+02  0.00000000000E+00 0.  1.
         21   -1    0    0  504  502 -0.00000000000E+00 -0.00000000000E+00 -0.67247162035E+03  0.67247162035E+03  0.00000000000E+00 0.  1.
         21    1    1    2  503  502  0.27662852600E+02 -0.17805993314E+02 -0.26885069264E+01  0.33007800311E+02  0.00000000000E+00 0.  1.
         21    1    1    2  504  501 -0.27662852600E+02  0.17805993314E+02 -0.65421014255E+03  0.65503679090E+03  0.00000000000E+00 0.  1.
</event>
<event>
 4    1  0.1551744E+006  0.2008641E+02  0.7546771E-02  0.1532719E+00
         21   -1    0    0  503  501  0.00000000000E+00  0.00000000000E+00  0.20983622998E+03  0.20983622998E+03  0.00000000000E+00 0.  1.
         21   -1    0    0  504  502 -0.00000000000E+00 -0.00000000000E+00 -0.25615152273E+01  0.25615152273E+01  0.00000000000E+00 0. -1.
         21    1    1    2  503  502 -0.10050792639E+02 -0.17390961198E+02  0.50605128942E+02  0.54445780730E+02  0.00000000000E+00 0. -1.
         21    1    1    2  504  501  0.10050792639E+02  0.17390961198E+02  0.15666958581E+03  0.15795196447E+03  0.00000000000E+00 0.  1.
</event>
<event>
 4    1  0.1551744E+006  0.2369892E+02  0.7546771E-02  0.1483903E+00
         21   -1    0    0  504  501  0.00000000000E+00  0.00000000000E+00  0.13898102130E+03  0.13898102130E+03  0.00000000000E+00 0.  1.
         21   -1    0    0  503  502 -0.00000000000E+00 -0.00000000000E+00 -0.39025528457E+03  0.39025528457E+03  0.00000000000E+00 0.  1.
         21    1    1    2  503  501 -0.19281789770E+02 -0.13778657839E+02 -0.38888165020E+03  0.38960310149E+03  0.00000000000E+00 0.  1.
         21    1    1    2  504  502  0.19281789770E+02  0.13778657839E+02  0.13760738693E+03  0.13963320438E+03  0.00000000000E+00 0.  1.
</event>
<event>
 4    1  0.1551744E+006  0.3398570E+02  0.7546771E-02  0.1387838E+00
         21   -1    0    0  504  501  0.00000000000E+00  0.00000000000E+00  0.15152216189E+03  0.15152216189E+03  0.00000000000E+00 0.  1.
         21   -1    0    0  503  502 -0.00000000000E+00 -0.00000000000E+00 -0.90767266607E+01  0.90767266607E+01  0.00000000000E+00 0. -1.
         21    1    1    2  503  501  0.15307702057E+02 -0.30343073830E+02  0.39085039771E+02  0.51794480455E+02  0.00000000000E+00 0. -1.
         21    1    1    2  504  502 -0.15307702057E+02  0.30343073830E+02  0.10336039546E+03  0.10880440809E+03  0.00000000000E+00 0.  1.
</event>
<event>
 4    1  0.1551744E+006  0.2170087E+02  0.7546771E-02  0.1509489E+00
         21   -1    0    0  503  501  0.00000000000E+00  0.00000000000E+00  0.26759545156E+01  0.26759545156E+01  0.00000000000E+00 0. -1.
         21   -1    0    0  501  502 -0.00000000000E+00 -0.00000000000E+00 -0.49231278225E+03  0.49231278225E+03  0.00000000000E+00 0. -1.
         21    1    1    2  503  504  0.11485204746E+02 -0.18412441948E+02 -0.46431322449E+02  0.51252274592E+02  0.00000000000E+00 0. -1.
         21    1    1    2  504  502 -0.11485204746E+02  0.18412441948E+02 -0.44320550528E+03  0.44373646217E+03  0.00000000000E+00 0. -1.
</event>
<event>
 4    1  0.1551744E+006  0.2044302E+02  0.7546771E-02  0.1527368E+00
         21   -1    0    0  504  501  0.00000000000E+00  0.00000000000E+00  0.88687989673E+01  0.88687989673E+01  0.00000000000E+00 0.  1.
         21   -1    0    0  503  502 -0.00000000000E+00 -0.00000000000E+00 -0.32676442500E+03  0.32676442500E+03  0.00000000000E+00 0.  1.
         21    1    1    2  503  501  0.13256591694E+02 -0.15562125138E+02 -0.37023309074E+01  0.20775567774E+02  0.00000000000E+00 0.  1.
         21    1    1    2  504  502 -0.13256591694E+02  0.15562125138E+02 -0.31419329513E+03  0.31485765619E+03  0.00000000000E+00 0.  1.
</event>
<event>
 4    1  0.1551744E+006  0.2411197E+02  0.7546771E-02  0.1478988E+00
         21   -1    0    0  502  501  0.00000000000E+00  0.00000000000E+00  0.15865159875E+03  0.15865159875E+03  0.00000000000E+00 0.  1.
         21   -1    0    0  503  502 -0.00000000000E+00 -0.00000000000E+00 -0.25521154269E+03  0.25521154269E+03  0.00000000000E+00 0.  1.
         21    1    1    2  503  504 -0.13188776203E+02  0.20185226830E+02 -0.25372051772E+03  0.25486366613E+03  0.00000000000E+00 0.  1.
         21    1    1    2  504  501  0.13188776203E+02 -0.20185226830E+02  0.15716057377E+03  0.15899947531E+03  0.00000000000E+00 0.  1.
</event>
<event>
 4    1  0.1551744E+006  0.3798891E+02  0.7546771E-02  0.1360691E+00
         21   -1    0    0  504  501  0.00000000000E+00  0.00000000000E+00  0.12655224267E+02  0.12655224267E+02  0.00000000000E+00 0. -1.
         21   -1    0    0  503  502 -0.00000000000E+00 -0.00000000000E+00 -0.21495640070E+03  0.21495640070E+03  0.00000000000E+00 0. -1.
         21    1    1    2  503  501  0.32486780610E+02 -0.19691786088E+02 -0.17912959189E+03  0.18311353867E+03  0.00000000000E+00 0. -1.
         21    1    1    2  504  502 -0.32486780610E+02  0.19691786088E+02 -0.23171584543E+02  0.44498086295E+02  0.00000000000E+00 0. -1.
</event>
<event>
 4    1  0.1551744E+006  0.2237440E+02  0.7546771E-02  0.1500507E+00
         21   -1    0    0  504  501  0.00000000000E+00  0.00000000000E+00  0.67674358634E+02  0.67674358634E+02  0.00000000000E+00 0.  1.
         21   -1    0    0  503  502 -0.00000000000E+00 -0.00000000000E+00 -0.98453362712E+01  0.98453362712E+01  0.00000000000E+00 0.  1.
         21    1    1    2  503  501 -0.18909556182E+02 -0.11960028011E+02  0.95873631253E+01  0.24341962056E+02  0.00000000000E+00 0.  1.
         21    1    1    2  504  502  0.18909556182E+02  0.11960028011E+02  0.48241659237E+02  0.53177732849E+02  0.00000000000E+00 0.  1.
</event>
<event>
 4    1  0.1551744E+006  0.2029779E+02  0.7546771E-02  0.1529531E+00
         21   -1    0    0  503  501  0.00000000000E+00  0.00000000000E+00  0.23429325822E+03  0.23429325822E+03  0.00000000000E+00 0.  1.
         21   -1    0    0  504  502 -0.00000000000E+00 -0.00000000000E+00 -0.19344172342E+01  0.19344172342E+01  0.00000000000E+00 0. -1.
         21    1    1    2  503  502  0.13395780440E+02  0.15249696762E+02  0.80558621530E+02  0.83076420768E+02  0.00000000000E+00 0.  1.
         21    1    1    2  504  501 -0.13395780440E+02 -0.15249696762E+02  0.15180021946E+03  0.15315125469E+03  0.00000000000E+00 0. -1.
</event>
<event>
 4    1  0.1551744E+006  0.3725679E+02  0.7546771E-02  0.1365357E+00
         21   -1    0    0  504  501  0.00000000000E+00  0.00000000000E+00  0.13295029454E+02  0.13295029454E+02  0.00000000000E+00 0. -1.
         21   -1    0    0  503  502 -0.00000000000E+00 -0.00000000000E+00 -0.10938582830E+03  0.10938582830E+03  0.00000000000E+00 0. -1.
         21    1    1    2  503  501  0.33842160323E+02  0.15581282727E+02 -0.34956142989E+02  0.51088160267E+02  0.00000000000E+00 0. -1.
         21    1    1    2  504  502 -0.33842160323E+02 -0.15581282727E+02 -0.61134655858E+02  0.71592697488E+02  0.00000000000E+00 0. -1.
</event>
<event>
 4    1  0.1551744E+006  0.2000377E+02  0.7546771E-02  0.1533978E+00
         21   -1    0    0  504  501  0.00000000000E+00  0.00000000000E+00  0.49127766546E+02  0.49127766546E+02  0.00000000000E+00 0.  1.
         21   -1    0    0  503  502 -0.00000000000E+00 -0.00000000000E+00 -0.31289067739E+02  0.31289067739E+02  0.00000000000E+00 0.  1.
         21    1    1    2  503  501 -0.92516349617E+01  0.17735783910E+02 -0.25661808650E+02  0.32537350899E+02  0.00000000000E+00 0.  1.
         21    1    1    2  504  502  0.92516349617E+01 -0.17735783910E+02  0.43500507457E+02  0.47879483386E+02  0.00000000000E+00 0.  1.
</event>
<event>
 4    1  0.1551744E+006  0.2433538E+02  0.7546771E-02  0.1476378E+00
         21   -1    0    0  503  501  0.00000000000E+00  0.00000000000E+00  0.16508886147E+01  0.16508886147E+01  0.00000000000E+00 0. -1.
         21   -1    0    0  504  502 -0.00000000000E+00 -0.00000000000E+00 -0.38445560229E+03  0.38445560229E+03  0.00000000000E+00 0. -1.
         21    1    1    2  503  502  0.12650598847E+02 -0.20788774218E+02 -0.14145636669E+03  0.14353436683E+03  0.00000000000E+00 0. -1.
         21    1    1    2  504  501 -0.12650598847E+02  0.20788774218E+02 -0.24134834699E+03  0.24257212407E+03  0.00000000000E+00 0. -1.
</event>
<event>
 4    1  0.1551744E+006  0.2385568E+02  0.7546771E-02  0.1482024E+00
         21   -1    0    0  504  501  0.00000000000E+00  0.00000000000E+00  0.50907305933E+02  0.50907305933E+02  0.00000000000E+00 0.  1.
         21   -1    0    0  503  502 -0.00000000000E+00 -0.00000000000E+00 -0.11186574839E+02  0.11186574839E+02  0.00000000000E+00 0.  1.
         21    1    1    2  503  501  0.16620042406E+02  0.17113378741E+02  0.19053272224E+02  0.30530652203E+02  0.00000000000E+00 0.  1.
         21    1    1    2  504  502 -0.16620042406E+02 -0.17113378741E+02  0.20667458870E+02  0.31563228568E+02  0.00000000000E+00 0.  1.
</event>
<event>
 4    1  0.1551744E+006  0.2043673E+02  0.7546771E-02  0.1527461E+00
         21   -1    0    0  503  501  0.00000000000E+00  0.00000000000E+00  0.10744012289E+03  0.10744012289E+03  0.00000000000E+00 0. -1.
         21   -1    0    0  504  502 -0.00000000000E+00 -0.00000000000E+00 -0.38921427831E+02  0.38921427831E+02  0.00000000000E+00 0. -1.
         21    1    1    2  503  502  0.20371450057E+02 -0.16322069465E+01 -0.35170756054E+02  0.40677292909E+02  0.00000000000E+00 0. -1.
         21    1    1    2  504  501 -0.20371450057E+02  0.16322069465E+01  0.10368945111E+03  0.10568425781E+03  0.00000000000E+00 0. -1.
</event>
<event>
 4    1  0.1551744E+006  0.2125378E+02  0.7546771E-02  0.1515672E+00
         21   -1    0    0  504  501  0.00000000000E+00  0.00000000000E+00  0.52785936694E+00  0.52785936694E+00  0.00000000000E+00 0.  1.
         21   -1    0    0  503  502 -0.00000000000E+00 -0.00000000000E+00 -0.87908782751E+03  0.87908782751E+03  0.00000000000E+00 0.  1.
         21    1    1    2  503  501  0.16770352298E+02 -0.13056735045E+02 -0.51091851898E+03  0.51136039745E+03  0.00000000000E+00 0.  1.
         21    1    1    2  504  502 -0.16770352298E+02  0.13056735045E+02 -0.36764144917E+03  0.36825528943E+03  0.00000000000E+00 0.  1.
</event>
<event>
 4    1  0.1551744E+006  0.2164413E+02  0.7546771E-02  0.1510264E+00
         21   -1    0    0  502  501  0.00000000000E+00  0.00000000000E+00  0.92630731591E+01  0.92630731591E+01  0.00000000000E+00 0. -1.
         21   -1    0    0  504  502 -0.00000000000E+00 -0.00000000000E+00 -0.39508095429E+03  0.39508095429E+03  0.00000000000E+00 0. -1.
         21    1    1    2  503  501  0.15624861977E+01  0.21587657910E+02 -0.41197412465E+01  0.22032716698E+02  0.00000000000E+00 0. -1.
         21    1    1    2  504  503 -0.15624861977E+01 -0.21587657910E+02 -0.38169813988E+03  0.38231131075E+03  0.00000000000E+00 0. -1.
</event>
<event>
 4    1  0.1551744E+006  0.2275519E+02  0.7546771E-02  0.1495595E+00
         21   -1    0    0  502  501  0.00000000000E+00  0.00000000000E+00  0.64069269594E+01  0.64069269594E+01  0.00000000000E+00 0. -1.
         21   -1    0    0  503  502 -0.00000000000E+00 -0.00000000000E+00 -0.66745471803E+03  0.66745471803E+03  0.00000000000E+00 0. -1.
         21    1    1    2  503  504  0.20368427633E+02  0.10145238665E+02 -0.64639816209E+03  0.64679856421E+03  0.00000000000E+00 0. -1.
         21    1    1    2  504  501 -0.20368427633E+02 -0.10145238665E+02 -0.14649628975E+02  0.27063080773E+02  0.00000000000E+00 0. -1.
</event>
<event>
 4    1  0.1551744E+006  0.2733896E+02  0.7546771E-02  0.1444233E+00
         21   -1    0    0  503  501  0.00000000000E+00  0.00000000000E+00  0.44867297969E+01  0.44867297969E+01  0.00000000000E+00 0.  1.
         21   -1    0    0  504  502 -0.00000000000E+00 -0.00000000000E+00 -0.15709774622E+04  0.15709774622E+04  0.00000000000E+00 0. -1.
         21    1    1    2  503  502 -0.26176899937E+02  0.78859851066E+01 -0.15280423568E+04  0.15282869047E+04  0.00000000000E+00 0. -1.
         21    1    1    2  504  501  0.26176899937E+02 -0.78859851066E+01 -0.38448375585E+02  0.47177287295E+02  0.00000000000E+00 0.  1.
</event>
<event>
 4    1  0.1551744E+006  0.2613913E+02  0.7546771E-02  0.1456453E+00
         21   -1    0    0  502  501  0.00000000000E+00  0.00000000000E+00  0.37234484431E+02  0.37234484431E+02  0.00000000000E+00 0.  1.
         21   -1    0    0  504  502 -0.00000000000E+00 -0.00000000000E+00 -0.55916958038E+02  0.55916958038E+02  0.00000000000E+00 0.  1.
         21    1    1    2  503  501  0.24194242278E+02 -0.98940691578E+01  0.28834783479E+02  0.38919130285E+02  0.00000000000E+00 0.  1.
         21    1    1    2  504  503 -0.24194242278E+02  0.98940691578E+01 -0.47517257085E+02  0.54232312184E+02  0.00000000000E+00 0.  1.
</event>
<event>
 4    1  0.1551744E+006  0.7712455E+02  0.7546771E-02  0.1210685E+00
         21   -1    0    0  504  501  0.00000000000E+00  0.00000000000E+00  0.73239025117E+03  0.73239025117E+03  0.00000000000E+00 0. -1.
         21   -1    0    0  503  502 -0.00000000000E+00 -0.00000000000E+00 -0.12357631235E+02  0.12357631235E+02  0.00000000000E+00 0.  1.
         21    1    1    2  503  501  0.28834916310E+02 -0.71531420193E+02  0.14199942203E+03  0.16159217905E+03  0.00000000000E+00 0.  1.
         21    1    1    2  504  502 -0.28834916310E+02  0.71531420193E+02  0.57803319791E+03  0.58315570336E+03  0.00000000000E+00 0. -1.
</event>
<event>
 4    1  0.1551744E+006  0.2904796E+02  0.7546771E-02  0.1428054E+00
         21   -1    0    0  503  501  0.00000000000E+00  0.00000000000E+00  0.45734129606E+02  0.45734129606E+02  0.00000000000E+00 0. -1.
         21   -1    0    0  504  502 -0.00000000000E+00 -0.00000000000E+00 -0.20283823131E+02  0.20283823131E+02  0.00000000000E+00 0. -1.
         21    1    1    2  503  502  0.63446772603E+00 -0.29041033593E+02  0.27994089585E+01  0.29182543960E+02  0.00000000000E+00 0. -1.
         21    1    1    2  504  501 -0.63446772603E+00  0.29041033593E+02  0.22650897517E+02  0.36835408777E+02  0.00000000000E+00 0. -1.
</event>
<event>
 4    1  0.1551744E+006  0.3550878E+02  0.7546771E-02  0.1377021E+00
         21   -1    0    0  504  501  0.00000000000E+00  0.00000000000E+00  0.14844623996E+02  0.14844623996E+02  0.00000000000E+00 0. -1.
         21   -1    0    0  503  502 -0.00000000000E+00 -0.00000000000E+00 -0.86817411765E+02  0.86817411765E+02  0.00000000000E+00 0. -1.
         21    1    1    2  503  501  0.22929392075E+01 -0.35434672379E+02 -0.43465149207E+02  0.56125687278E+02  0.00000000000E+00 0. -1.
         21    1    1    2  504  502 -0.22929392075E+01  0.35434672379E+02 -0.28507638562E+02  0.45536348483E+02  0.00000000000E+00 0. -1.
</event>
<event>
 4    1  0.1551744E+006  0.3047688E+02  0.7546771E-02  0.1415497E+00
         21   -1    0    0  504  501  0.00000000000E+00  0.00000000000E+00  0.39745133583E+02  0.39745133583E+02  0.00000000000E+00 0.  1.
         21   -1    0    0  503  502 -0.00000000000E+00 -0.00000000000E+00 -0.22542095259E+03  0.22542095259E+03  0.00000000000E+00 0. -1.
         21    1    1    2  503  501 -0.22342809304E+02 -0.20727741282E+02 -0.21836035309E+03  0.22047694706E+03  0.00000000000E+00 0. -1.
         21    1    1    2  504  502  0.22342809304E+02  0.20727741282E+02  0.32684534081E+02  0.44689139109E+02  0.00000000000E+00 0.  1.
</event>
<event>
 4    1  0.1551744E+006  0.2039019E+02  0.7546771E-02  0.1528152E+00
         21   -1    0    0  503  501  0.00000000000E+00  0.00000000000E+00  0.95226026424E+01  0.95226026424E+01  0.00000000000E+00 0.  1.
         21   -1    0    0  501  502 -0.00000000000E+00 -0.00000000000E+00 -0.28077994530E+03  0.28077994530E+03  0.00000000000E+00 0. -1.
         21    1    1    2  503  504  0.20381328986E+02 -0.60116410349E+00 -0.22392001984E+01  0.20512776191E+02  0.00000000000E+00 0.  1.
         21    1    1    2  504  502 -0.20381328986E+02  0.60116410349E+00 -0.26901814246E+03  0.26978977175E+03  0.00000000000E+00 0. -1.
</event>
<event>
 4    1  0.1551744E+006  0.2740631E+02  0.7546771E-02  0.1443569E+00
         21   -1    0    0  503  501  0.00000000000E+00  0.00000000000E+00  0.82981642463E+02  0.82981642463E+02  0.00000000000E+00 0.  1.
         21   -1    0    0  504  502 -0.00000000000E+00 -0.00000000000E+00 -0.45366250062E+02  0.45366250062E+02  0.00000000000E+00 0. -1.
         21    1    1    2  503  502  0.24006808572E+02 -0.13220399115E+02 -0.38608447065E+02  0.47346784424E+02  0.00000000000E+00 0. -1.
         21    1    1    2  504  501 -0.24006808572E+02  0.13220399115E+02  0.76223839467E+02  0.81001108101E+02  0.00000000000E+00 0.  1.
</event>
<event>
 4    1  0.1551744E+006  0.2435965E+02  0.7546771E-02  0.1476096E+00
         21   -1    0    0  503  501  0.00000000000E+00  0.00000000000E+00  0.46979625585E+01  0.46979625585E+01  0.00000000000E+00 0. -1.
         21   -1    0    0  504  502 -0.00000000000E+00 -0.00000000000E+00 -0.25472799544E+03  0.25472799544E+03  0.00000000000E+00 0. -1.
         21    1    1    2  503  502 -0.24315455227E+02 -0.14667258534E+01 -0.21711521328E+03  0.21847747821E+03  0.00000000000E+00 0. -1.
         21    1    1    2  504  501  0.24315455227E+02  0.14667258534E+01 -0.32914819606E+02  0.40948479793E+02  0.00000000000E+00 0. -1.
</event>
<event>
 4    1  0.1551744E+006  0.3071724E+02  0.7546771E-02  0.1413464E+00
         21   -1    0    0  504  501  0.00000000000E+00  0.00000000000E+00  0.17543849695E+02  0.17543849695E+02  0.00000000000E+00 0.  1.
         21   -1    0    0  503  502 -0.00000000000E+00 -0.00000000000E+00 -0.73683438012E+02  0.73683438012E+02  0.00000000000E+00 0.  1.
         21    1    1    2  503  501 -0.15169447973E+02  0.26710233820E+02 -0.43643178542E+01  0.31025731464E+02  0.00000000000E+00 0.  1.
         21    1    1    2  504  502  0.15169447973E+02 -0.26710233820E+02 -0.51775270463E+02  0.60201556243E+02  0.00000000000E+00 0.  1.
</event>
<event>
 4    1  0.1551744E+006  0.3286644E+02  0.7546771E-02  0.1396217E+00
         21   -1    0    0  504  501  0.00000000000E+00  0.00000000000E+00  0.38044699077E+02  0.38044699077E+02  0.00000000000E+00 0. -1.
         21   -1    0    0  501  502 -0.00000000000E+00 -0.00000000000E+00 -0.29830867507E+02  0.29830867507E+02  0.00000000000E+00 0. -1.
         21    1    1    2  503  502  0.15221823599E+02 -0.29129000038E+02 -0.33440451018E+01  0.33036119544E+02  0.00000000000E+00 0. -1.
         21    1    1    2  504  503 -0.15221823599E+02  0.29129000038E+02  0.11557876672E+02  0.34839447040E+02  0.00000000000E+00 0. -1.
</event>
<event>
 4    1  0.1551744E+006  0.2074862E+02  0.7546771E-02  0.1522884E+00
         21   -1    0    0  504  501  0.00000000000E+00  0.00000000000E+00  0.30432654498E+02  0.30432654498E+02  0.00000000000E+00 0. -1.
         21   -1    0    0  501  502 -0.00000000000E+00 -0.00000000000E+00 -0.38533687948E+02  0.38533687948E+02  0.00000000000E+00 0.  1.
         21    1    1    2  503  502 -0.63771781033E+01  0.19744285088E+02 -0.31483358730E+02  0.37705531041E+02  0.00000000000E+00 0.  1.
         21    1    1    2  504  503  0.63771781033E+01 -0.19744285088E+02  0.23382325280E+02  0.31260811405E+02  0.00000000000E+00 0. -1.
</event>
<event>
 4    1  0.1551744E+006  0.2164922E+02  0.7546771E-02  0.1510194E+00
         21   -1    0    0  503  501  0.00000000000E+00  0.00000000000E+00  0.70634776153E+01  0.70634776153E+01  0.00000000000E+00 0.  1.
         21   -1    0    0  504  502 -0.00000000000E+00 -0.00000000000E+00 -0.71320179009E+02  0.71320179009E+02  0.00000000000E+00 0. -1.
         21    1    1    2  503  502 -0.61405733772E+01 -0.20760103279E+02 -0.42470470393E+02  0.47670005086E+02  0.00000000000E+00 0. -1.
         21    1    1    2  504  501  0.61405733772E+01  0.20760103279E+02 -0.21786231001E+02  0.30713651538E+02  0.00000000000E+00 0.  1.
</event>
<event>
 4    1  0.1551744E+006  0.2095512E+02  0.7546771E-02  0.1519906E+00
         21   -1    0    0  504  501  0.00000000000E+00  0.00000000000E+00  0.20025362733E+02  0.20025362733E+02  0.00000000000E+00 0. -1.
         21   -1    0    0  503  502 -0.00000000000E+00 -0.00000000000E+00 -0.20191533946E+03  0.20191533946E+03  0.00000000000E+00 0. -1.
         21    1    1    2  503  501  0.68623603529E+00  0.20943883949E+02  0.13826525544E+02  0.25105577137E+02  0.00000000000E+00 0. -1.
         21    1    1    2  504  502 -0.68623603529E+00 -0.20943883949E+02 -0.19571650227E+03  0.19683512505E+03  0.00000000000E+00 0. -1.
</event>
<event>
 4    1  0.1551744E+006  0.2146861E+02  0.7546771E-02  0.1512678E+00
         21   -1    0    0  503  501  0.00000000000E+00  0.00000000000E+00  0.52948687491E+01  0.52948687491E+01  0.00000000000E+00 0. -1.
         21   -1    0    0  504  502 -0.00000000000E+00 -0.00000000000E+00 -0.42496169500E+03  0.42496169500E+03  0.00000000000E+00 0.  1.
         21    1    1    2  503  502 -0.21437527645E+02  0.11548398184E+01 -0.17999096190E+02  0.28015508387E+02  0.00000000000E+00 0. -1.
         21    1    1    2  504  501  0.21437527645E+02 -0.11548398184E+01 -0.40166773006E+03  0.40224105536E+03  0.00000000000E+00 0.  1.
</event>
<event>
 4    1  0.1551744E+006  0.2213136E+02  0.7546771E-02  0.1503704E+00
         21   -1    0    0  503  501  0.00000000000E+00  0.00000000000E+00  0.23164307789E+03  0.23164307789E+03  0.00000000000E+00 0.  1.
         21   -1    0    0  501  502 -0.00000000000E+00 -0.00000000000E+00 -0.10397893053E+02  0.10397893053E+02  0.00000000000E+00 0. -1.
         21    1    1    2  503  504 -0.10103762019E+02 -0.19690377061E+02  0.21863950207E+03  0.21975674921E+03  0.00000000000E+00 0.  1.
         21    1    1    2  504  502  0.10103762019E+02  0.19690377061E+02  0.26056827659E+01  0.22284221737E+02  0.00000000000E+00 0. -1.
</event>
<event>
 4    1  0.1551744E+006  0.2498419E+02  0.7546771E-02  0.1468980E+00
         21   -1    0    0  502  501  0.00000000000E+00  0.00000000000E+00  0.34966767458E+02  0.34966767458E+02  0.00000000000E+00 0. -1.
         21   -1    0    0  504  502 -0.00000000000E+00 -0.00000000000E+00 -0.48639803024E+02  0.48639803024E+02  0.00000000000E+00 0.  1.
         21    1    1    2  503  501 -0.18357846885E+01 -0.24916652281E+02  0.26422337835E+02  0.36364125219E+02  0.00000000000E+00 0. -1.
         21    1    1    2  504  503  0.18357846885E+01  0.24916652281E+02 -0.40095373400E+02  0.47242445263E+02  0.00000000000E+00 0.  1.
</event>
<event>
 4    1  0.1551744E+006  0.2643865E+02  0.7546771E-02  0.1453330E+00
         21   -1    0    0  502  501  0.00000000000E+00  0.00000000000E+00  0.23798299059E+02  0.23798299059E+02  0.00000000000E+00 0.  1.
         21   -1    0    0  503  502 -0.00000000000E+00 -0.00000000000E+00 -0.18670217479E+03  0.18670217479E+03  0.00000000000E+00 0. -1.
         21    1    1    2  503  504 -0.22596331471E+02 -0.13726177410E+02 -0.17806914806E+03  0.18002117552E+03  0.00000000000E+00 0. -1.
         21    1    1    2  504  501  0.22596331471E+02  0.13726177410E+02  0.15165272329E+02  0.30479298336E+02  0.00000000000E+00 0.  1.
</event>
<event>
 4    1  0.1551744E+006  0.2208175E+02  0.7546771E-02  0.1504362E+00
         21   -1    0    0  503  501  0.00000000000E+00  0.00000000000E+00  0.18371732919E+03  0.18371732919E+03  0.00000000000E+00 0. -1.
         21   -1    0    0  501  502 -0.00000000000E+00 -0.00000000000E+00 -0.65971734455E+01  0.65971734455E+01  0.00000000000E+00 0. -1.
         21    1    1    2  503  504  0.99956554682E-01  0.22081523536E+02  0.16212664957E+03  0.16362351351E+03  0.00000000000E+00 0. -1.
         21    1    1    2  504  502 -0.99956554682E-01 -0.22081523536E+02  0.14993506173E+02  0.26690989123E+02  0.00000000000E+00 0. -1.
</event>
<event>
 4    1  0.1551744E+006  0.2602817E+02  0.7546771E-02  0.1457622E+00
         21   -1    0    0  503  501  0.00000000000E+00  0.00000000000E+00  0.56414050188E+02  0.56414050188E+02  0.00000000000E+00 0.  1.
         21   -1    0    0  501  502 -0.00000000000E+00 -0.00000000000E+00 -0.12042111894E+02  0.12042111894E+02  0.00000000000E+00 0. -1.
         21    1    1    2  503  504  0.18421152152E+02  0.18388231085E+02  0.23985807253E+02  0.35394700714E+02  0.00000000000E+00 0.  1.
         21    1    1    2  504  502 -0.18421152152E+02 -0.18388231085E+02  0.20386131040E+02  0.33061461368E+02  0.00000000000E+00 0. -1.
</event>
<event>
 4    1  0.1551744E+006  0.3381514E+02  0.7546771E-02  0.1389090E+00
         21   -1    0    0  502  501  0.00000000000E+00  0.00000000000E+00  0.10890079008E+02  0.10890079008E+02  0.00000000000E+00 0.  1.
         21   -1    0    0  503  502 -0.00000000000E+00 -0.00000000000E+00 -0.33119370774E+03  0.33119370774E+03  0.00000000000E+00 0.  1.
         21    1    1    2  503  504  0.31959653585E+02  0.11047356202E+02 -0.30150358551E+03  0.30339392811E+03  0.00000000000E+00 0.  1.
         21    1    1    2  504  501 -0.31959653585E+02 -0.11047356202E+02 -0.18800043214E+02  0.38689858635E+02  0.00000000000E+00 0.  1.
</event>
<event>
 4    1  0.1551744E+006  0.6713049E+02  0.7546771E-02  0.1237358E+00
         21   -1    0    0  502  501  0.00000000000E+00  0.00000000000E+00  0.50782913047E+02  0.50782913047E+02  0.00000000000E+00 0. -1.
         21   -1    0    0  503  502 -0.00000000000E+00 -0.00000000000E+00 -0.21498902830E+03  0.21498902830E+03  0.00000000000E+00 0.  1.
         21    1    1    2  503  504  0.61089079299E+02  0.27832113859E+02 -0.18393501937E+03  0.19580243493E+03  0.00000000000E+00 0.  1.
         21    1    1    2  504  501 -0.61089079299E+02 -0.27832113859E+02  0.19728904117E+02  0.69969506424E+02  0.00000000000E+00 0. -1.
</event>
<event>
 4    1  0.1551744E+006  0.2022303E+02  0.7546771E-02  0.1530653E+00
         21   -1    0    0  504  501  0.00000000000E+00  0.00000000000E+00  0.23589937124E+02  0.23589937124E+02  0.00000000000E+00 0.  1.
         21   -1    0    0  503  502 -0.00000000000E+00 -0.00000000000E+00 -0.17428134883E+02  0.17428134883E+02  0.00000000000E+00 0.  1.
         21    1    1    2  503  501  0.12864779839E+02  0.15603478052E+02  0.15951924469E+01  0.20285850403E+02  0.00000000000E+00 0.  1.
         21    1    1    2  504  502 -0.12864779839E+02 -0.15603478052E+02  0.45666097945E+01  0.20732221604E+02  0.00000000000E+00 0.  1.
</event>
<event>
 4    1  0.1551744E+006  0.2507925E+02  0.7546771E-02  0.1467919E+00
         21   -1    0    0  504  501  0.00000000000E+00  0.00000000000E+00  0.32370028529E+01  0.32370028529E+01  0.00000000000E+00 0.  1.
         21   -1    0    0  503  502 -0.00000000000E+00 -0.00000000000E+00 -0.48120694301E+03  0.48120694301E+03  0.00000000000E+00 0. -1.
         21    1    1    2  503  501  0.76876260428E+01 -0.23871928746E+02 -0.42601601471E+03  0.42675357452E+03  0.00000000000E+00 0. -1.
         21    1    1    2  504  502 -0.76876260428E+01  0.23871928746E+02 -0.51953925439E+02  0.57690371334E+02  0.00000000000E+00 0.  1.
</event>
<event>
 4    1  0.1551744E+006  0.3923758E+02  0.7546771E-02  0.1353012E+00
         21   -1    0    0  503  501  0.00000000000E+00  0.00000000000E+00  0.49899311294E+02  0.49899311294E+02  0.00000000000E+00 0.  1.
         21   -1    0    0  504  502 -0.00000000000E+00 -0.00000000000E+00 -0.88180690197E+02  0.88180690197E+02  0.00000000000E+00 0.  1.
         21    1    1    2  503  502 -0.31150940470E+02  0.23858044001E+02  0.36525684106E+02  0.53607023375E+02  0.00000000000E+00 0.  1.
         21    1    1    2  504  501  0.31150940470E+02 -0.23858044001E+02 -0.74807063009E+02  0.84472978116E+02  0.00000000000E+00 0.  1.
</event>
<event>
 4    1  0.1551744E+006  0.2407510E+02  0.7546771E-02  0.1479422E+00
         21   -1    0    0  503  501  0.00000000000E+00  0.00000000000E+00  0.16335373851E+03  0.16335373851E+03  0.00000000000E+00 0.  1.
         21   -1    0    0  504  502 -0.00000000000E+00 -0.00000000000E+00 -0.22226064476E+03  0.22226064476E+03  0.00000000000E+00 0. -1.
         21    1    1    2  503  502 -0.73136876749E+01 -0.22937311719E+02  0.16180855016E+03  0.16358978330E+03  0.00000000000E+00 0.  1.
         21    1    1    2  504  501  0.73136876749E+01  0.22937311719E+02 -0.22071545640E+03  0.22202459997E+03  0.00000000000E+00 0. -1.
</event>
<event>
 4    1  0.1551744E+006  0.2574390E+02  0.7546771E-02  0.1460651E+00
         21   -1    0    0  503  501  0.00000000000E+00  0.00000000000E+00  0.47060648531E+03  0.47060648531E+03  0.00000000000E+00 0.  1.
         21   -1    0    0  504  502 -0.00000000000E+00 -0.00000000000E+00 -0.24009592988E+01  0.24009592988E+01  0.00000000000E+00 0.  1.
         21    1    1    2  503  502  0.20224326252E+02  0.15928749238E+02  0.82030923909E+02  0.85975699485E+02  0.00000000000E+00 0.  1.
         21    1    1    2  504  501 -0.20224326252E+02 -0.15928749238E+02  0.38617460211E+03  0.38703174513E+03  0.00000000000E+00 0.  1.
</event>
<event>
 4    1  0.1551744E+006  0.2622405E+02  0.7546771E-02  0.1455562E+00
         21   -1    0    0  504  501  0.00000000000E+00  0.00000000000E+00  0.23838714355E+01  0.23838714355E+01  0.00000000000E+00 0. -1.
         21   -1    0    0  501  502 -0.00000000000E+00 -0.00000000000E+00 -0.61868285034E+03  0.61868285034E+03  0.00000000000E+00 0.  1.
         21    1    1    2  503  502 -0.26216247668E+02 -0.63971909479E+00 -0.53501275460E+03  0.53565506482E+03  0.00000000000E+00 0.  1.
         21    1    1    2  504  503  0.26216247668E+02  0.63971909479E+00 -0.81286224309E+02  0.85411656961E+02  0.00000000000E+00 0. -1.
</event>
<event>
 4    1  0.1551744E+006  0.2631882E+02  0.7546771E-02  0.1454573E+00
         21   -1    0    0  503  501  0.00000000000E+00  0.00000000000E+00  0.13892793734E+02  0.13892793734E+02  0.00000000000E+00 0. -1.
         21   -1    0    0  501  502 -0.00000000000E+00 -0.00000000000E+00 -0.16055213654E+04  0.16055213654E+04  0.00000000000E+00 0. -1.
         21    1    1    2  503  504  0.26247116796E+02  0.19414707298E+01  0.12210357210E+01  0.26347132233E+02  0.00000000000E+00 0. -1.
         21    1    1    2  504  502 -0.26247116796E+02 -0.19414707298E+01 -0.15928496074E+04  0.15930670269E+04  0.00000000000E+00 0. -1.
</event>
<event>
 4    1  0.1551744E+006  0.2697149E+02  0.7546771E-02  0.1447895E+00
         21   -1    0    0  503  501  0.00000000000E+00  0.00000000000E+00  0.42013370098E+02  0.42013370098E+02  0.00000000000E+00 0.  1.
         21   -1    0    0  504  502 -0.00000000000E+00 -0.00000000000E+00 -0.12514496740E+03  0.12514496740E+03  0.00000000000E+00 0.  1.
         21    1    1    2  503  502  0.68994719721E+01  0.26074098869E+02 -0.11914782118E+03  0.12216245183E+03  0.00000000000E+00 0.  1.
         21    1    1    2  504  501 -0.68994719721E+01 -0.26074098869E+02  0.36016223873E+02  0.44995885672E+02  0.00000000000E+00 0.  1.
</event>
<event>
 4    1  0.1551744E+006  0.2025029E+02  0.7546771E-02  0.1530243E+00
         21   -1    0    0  504  501  0.00000000000E+00  0.00000000000E+00  0.24422115283E+02  0.24422115283E+02  0.00000000000E+00 0.  1.
         21   -1    0    0  503  502 -0.00000000000E+00 -0.00000000000E+00 -0.37134060900E+03  0.37134060900E+03  0.00000000000E+00 0.  1.
         21    1    1    2  503  501  0.15758845243E+02  0.12717429723E+02  0.19896512055E+02  0.28389177764E+02  0.00000000000E+00 0.  1.
         21    1    1    2  504  502 -0.15758845243E+02 -0.12717429723E+02 -0.36681500577E+03  0.36737354652E+03  0.00000000000E+00 0.  1.
</event>
<event>
 4    1  0.1551744E+006  0.2118056E+02  0.7546771E-02  0.1516702E+00
         21   -1    0    0  504  501  0.00000000000E+00  0.00000000000E+00  0.73032508620E+02  0.73032508620E+02  0.00000000000E+00 0. -1.
         21   -1    0    0  501  502 -0.00000000000E+00 -0.00000000000E+00 -0.20948103424E+02  0.20948103424E+02  0.00000000000E+00 0.  1.
         21    1    1    2  503  502 -0.21178670703E+02 -0.28316022756E+00 -0.13462258852E+02  0.25096786365E+02  0.00000000000E+00 0.  1.
         21    1    1    2  504  503  0.21178670703E+02  0.28316022756E+00  0.65546664047E+02  0.68883825679E+02  0.00000000000E+00 0. -1.
</event>
<event>
 4    1  0.1551744E+006  0.2102663E+02  0.7546771E-02  0.1518885E+00
         21   -1    0    0  503  501  0.00000000000E+00  0.00000000000E+00  0.30822816037E+02  0.30822816037E+02  0.00000000000E+00 0.  1.
         21   -1    0    0  504  502 -0.00000000000E+00 -0.00000000000E+00 -0.15634167839E+02  0.15634167839E+02  0.00000000000E+00 0. -1.
         21    1    1    2  503  502 -0.20396874540E+02  0.51074935094E+01  0.92125218998E+00  0.21046797537E+02  0.00000000000E+00 0. -1.
         21    1    1    2  504  501  0.20396874540E+02 -0.51074935094E+01  0.14267396008E+02  0.25410186339E+02  0.00000000000E+00 0.  1.
</event>
<event>
 4    1  0.1551744E+006  0.3030788E+02  0.7546771E-02  0.1416939E+00
         21   -1    0    0  503  501  0.00000000000E+00  0.00000000000E+00  0.49085967447E+02  0.49085967447E+02  0.00000000000E+00 0.  1.
         21   -1    0    0  504  502 -0.00000000000E+00 -0.00000000000E+00 -0.40987084684E+03  0.40987084684E+03  0.00000000000E+00 0.  1.
         21    1    1    2  503  502 -0.29300610817E+02  0.77486784294E+01  0.43786125698E+02  0.53252160663E+02  0.00000000000E+00 0.  1.
         21    1    1    2  504  501  0.29300610817E+02 -0.77486784294E+01 -0.40457100509E+03  0.40570465362E+03  0.00000000000E+00 0.  1.
</event>
<event>
 4    1  0.1551744E+006  0.2555747E+02  0.7546771E-02  0.1462663E+00
         21   -1    0    0  503  501  0.00000000000E+00  0.00000000000E+00  0.37283847389E+03  0.37283847389E+03  0.00000000000E+00 0.  1.
         21   -1    0    0  504  502 -0.00000000000E+00 -0.00000000000E+00 -0.47423692293E+01  0.47423692293E+01  0.00000000000E+00 0.  1.
         21    1    1    2  503  502 -0.19123938023E+02 -0.16954621143E+02  0.34131255166E+02  0.42639497685E+02  0.00000000000E+00 0.  1.
         21    1    1    2  504  501  0.19123938023E+02  0.16954621143E+02  0.33396484949E+03  0.33494134543E+03  0.00000000000E+00 0.  1.
</event>
<event>
 4    1  0.1551744E+006  0.3163982E+02  0.7546771E-02  0.1405862E+00
         21   -1    0    0  503  501  0.00000000000E+00  0.00000000000E+00  0.35216636558E+03  0.35216636558E+03  0.00000000000E+00 0. -1.
         21   -1    0    0  501  502 -0.00000000000E+00 -0.00000000000E+00 -0.49827899729E+01  0.49827899729E+01  0.00000000000E+00 0. -1.
         21    1    1    2  503  504  0.29296235740E+02  0.11950256719E+02  0.29062432918E+03  0.29234154473E+03  0.00000000000E+00 0. -1.
         21    1    1    2  504  502 -0.29296235740E+02 -0.11950256719E+02  0.56559246434E+02  0.64807610829E+02  0.00000000000E+00 0. -1.
</event>
<event>
 4    1  0.1551744E+006  0.2216416E+02  0.7546771E-02  0.1503269E+00
         21   -1    0    0  504  501  0.00000000000E+00  0.00000000000E+00  0.11663729653E+02  0.11663729653E+02  0.00000000000E+00 0.  1.
         21   -1    0    0  501  502 -0.00000000000E+00 -0.00000000000E+00 -0.85807473567E+02  0.85807473567E+02  0.00000000000E+00 0.  1.
         21    1    1    2  503  502  0.21500106374E+02 -0.53847507597E+01 -0.71847372883E+02  0.75188397410E+02  0.00000000000E+00 0.  1.
         21    1    1    2  504  503 -0.21500106374E+02  0.53847507597E+01 -0.22963710312E+01  0.22282805810E+02  0.00000000000E+00 0.  1.
</event>
<event>
 4    1  0.1551744E+006  0.2334483E+02  0.7546771E-02  0.1488213E+00
         21   -1    0    0  502  501  0.00000000000E+00  0.00000000000E+00  0.95453606102E+03  0.95453606102E+03  0.00000000000E+00 0. -1.
         21   -1    0    0  504  502 -0.00000000000E+00 -0.00000000000E+00 -0.30176440391E+01  0.30176440391E+01  0.00000000000E+00 0.  1.
         21    1    1    2  503  501 -0.58997486420E+01 -0.22587033485E+02  0.90687111617E+03  0.90717153971E+03  0.00000000000E+00 0. -1.
         21    1    1    2  504  503  0.58997486420E+01  0.22587033485E+02  0.44647300818E+02  0.50382165356E+02  0.00000000000E+00 0.  1.
</event>
<event>
 4    1  0.1551744E+006  0.2216586E+02  0.7546771E-02  0.1503247E+00
         21   -1    0    0  504  501  0.00000000000E+00  0.00000000000E+00  0.22180913954E+01  0.22180913954E+01  0.00000000000E+00 0. -1.
         21   -1    0    0  503  502 -0.00000000000E+00 -0.00000000000E+00 -0.96210439066E+03  0.96210439066E+03  0.00000000000E+00 0. -1.
         21    1    1    2  503  501 -0.18573230661E+02  0.12097951089E+02 -0.56912387162E+02  0.61076551394E+02  0.00000000000E+00 0. -1.
         21    1    1    2  504  502  0.18573230661E+02 -0.12097951089E+02 -0.90297391211E+03  0.90324593067E+03  0.00000000000E+00 0. -1.
</event>
<event>
 4    1  0.1551744E+006  0.2377255E+02  0.7546771E-02  0.1483019E+00
         21   -1    0    0  504  501  0.00000000000E+00  0.00000000000E+00  0.13751464503E+04  0.13751464503E+04  0.00000000000E+00 0.  1.
         21   -1    0    0  503  502 -0.00000000000E+00 -0.00000000000E+00 -0.44526033061E+00  0.44526033061E+00  0.00000000000E+00 0.  1.
         21    1    1    2  503  501  0.94695210279E+01 -0.21805094474E+02  0.87824107254E+03  0.87856275556E+03  0.00000000000E+00 0.  1.
         21    1    1    2  504  502 -0.94695210279E+01  0.21805094474E+02  0.49646011745E+03  0.49702895508E+03  0.00000000000E+00 0.  1.
</event>
<event>
 4    1  0.1551744E+006  0.2410957E+02  0.7546771E-02  0.1479016E+00
         21   -1    0    0  503  501  0.00000000000E+00  0.00000000000E+00  0.48433517055E+03  0.48433517055E+03  0.00000000000E+00 0. -1.
         21   -1    0    0  501  502 -0.00000000000E+00 -0.00000000000E+00 -0.94387896372E+01  0.94387896372E+01  0.00000000000E+00 0. -1.
         21    1    1    2  503  504 -0.12350066060E+02  0.20706206639E+02  0.46810590812E+03  0.46872637256E+03  0.00000000000E+00 0. -1.
         21    1    1    2  504  502  0.12350066060E+02 -0.20706206639E+02  0.67904728017E+01  0.25047587627E+02  0.00000000000E+00 0. -1.
</event>
<event>
 4    1  0.1551744E+006  0.2860622E+02  0.7546771E-02  0.1432108E+00
         21   -1    0    0  504  501  0.00000000000E+00  0.00000000000E+00  0.12485742155E+03  0.12485742155E+03  0.00000000000E+00 0.  1.
         21   -1    0    0  501  502 -0.00000000000E+00 -0.00000000000E+00 -0.10399204621E+02  0.10399204621E+02  0.00000000000E+00 0.  1.
         21    1    1    2  503  502 -0.18682405399E+02 -0.21662950869E+02  0.16105790934E+02  0.32828527434E+02  0.00000000000E+00 0.  1.
         21    1    1    2  504  503  0.18682405399E+02  0.21662950869E+02  0.98352425994E+02  0.10242809874E+03  0.00000000000E+00 0.  1.
</event>
<event>
 4    1  0.1551744E+006  0.2239650E+02  0.7546771E-02  0.1500219E+00
         21   -1    0    0  504  501  0.00000000000E+00  0.00000000000E+00  0.40714092662E+01  0.40714092662E+01  0.00000000000E+00 0.  1.
         21   -1    0    0  503  502 -0.00000000000E+00 -0.00000000000E+00 -0.28064782776E+03  0.28064782776E+03  0.00000000000E+00 0.  1.
         21    1    1    2  503  501  0.16612628989E+02  0.15020774917E+02 -0.31659918702E+02  0.38780840286E+02  0.00000000000E+00 0.  1.
         21    1    1    2  504  502 -0.16612628989E+02 -0.15020774917E+02 -0.24491649979E+03  0.24593839674E+03  0.00000000000E+00 0.  1.
</event>
<event>
 4    1  0.1551744E+006  0.2166663E+02  0.7546771E-02  0.1509956E+00
         21   -1    0    0  504  501  0.00000000000E+00  0.00000000000E+00  0.19903259481E+02  0.19903259481E+02  0.00000000000E+00 0.  1.
         21   -1    0    0  503  502 -0.00000000000E+00 -0.00000000000E+00 -0.25463134400E+02  0.25463134400E+02  0.00000000000E+00 0.  1.
         21    1    1    2  503  501 -0.13286393206E+02 -0.17114747849E+02 -0.89383603828E+01  0.23437941989E+02  0.00000000000E+00 0.  1.
         21    1    1    2  504  502  0.13286393206E+02  0.17114747849E+02  0.33784854643E+01  0.21928451892E+02  0.00000000000E+00 0.  1.
</event>
<event>
 4    1  0.1551744E+006  0.2481268E+02  0.7546771E-02  0.1470910E+00
         21   -1    0    0  504  501  0.00000000000E+00  0.00000000000E+00  0.23102287141E+02  0.23102287141E+02  0.00000000000E+00 0.  1.
         21   -1    0    0  503  502 -0.00000000000E+00 -0.00000000000E+00 -0.17921645762E+03  0.17921645762E+03  0.00000000000E+00 0.  1.
         21    1    1    2  503  501  0.60603233661E+01  0.24061199733E+02  0.15278477560E+02  0.29139333013E+02  0.00000000000E+00 0.  1.
         21    1    1    2  504  502 -0.60603233661E+01 -0.24061199733E+02 -0.17139264803E+03  0.17317941174E+03  0.00000000000E+00 0.  1.
</event>
<event>
 4    1  0.1551744E+006  0.2121414E+02  0.7546771E-02  0.1516229E+00
         21   -1    0    0  503  501  0.00000000000E+00  0.00000000000E+00  0.48962268360E+02  0.48962268360E+02  0.00000000000E+00 0. -1.
         21   -1    0    0  504  502 -0.00000000000E+00 -0.00000000000E+00 -0.31632968627E+03  0.31632968627E+03  0.00000000000E+00 0. -1.
         21    1    1    2  503  502 -0.17672978176E+01  0.21140396348E+02  0.46289143677E+02  0.50918803223E+02  0.00000000000E+00 0. -1.
         21    1    1    2  504  501  0.17672978176E+01 -0.21140396348E+02 -0.31365656158E+03  0.31437315140E+03  0.00000000000E+00 0. -1.
</event>
<event>
 4    1  0.1551744E+006  0.2026446E+02  0.7546771E-02  0.1530031E+00
         21   -1    0    0  503  501  0.00000000000E+00  0.00000000000E+00  0.11062499073E+02  0.11062499073E+02  0.00000000000E+00 0.  1.
         21   -1    0    0  504  502 -0.00000000000E+00 -0.00000000000E+00 -0.59699779828E+02  0.59699779828E+02  0.00000000000E+00 0.  1.
         21    1    1    2  503  502 -0.10086966652E+02 -0.17575593465E+02 -0.25596878144E+01  0.20425483681E+02  0.00000000000E+00 0.  1.
         21    1    1    2  504  501  0.10086966652E+02  0.17575593465E+02 -0.46077592941E+02  0.50336795221E+02  0.00000000000E+00 0.  1.
</event>
<event>
 4    1  0.1551744E+006  0.2558680E+02  0.7546771E-02  0.1462345E+00
         21   -1    0    0  504  501  0.00000000000E+00  0.00000000000E+00  0.32676502301E+02  0.32676502301E+02  0.00000000000E+00 0.  1.
         21   -1    0    0  503  502 -0.00000000000E+00 -0.00000000000E+00 -0.47464871512E+02  0.47464871512E+02  0.00000000000E+00 0.  1.
         21    1    1    2  503  501 -0.92747830454E+01  0.23846651759E+02 -0.37855589720E+02  0.45691684951E+02  0.00000000000E+00 0.  1.
         21    1    1    2  504  502  0.92747830454E+01 -0.23846651759E+02  0.23067220509E+02  0.34449688861E+02  0.00000000000E+00 0.  1.
</event>
<event>
 4    1  0.1551744E+006  0.2359840E+02  0.7546771E-02  0.1485118E+00
         21   -1    0    0  503  501  0.00000000000E+00  0.00000000000E+00  0.40236266137E+03  0.40236266137E+03  0.00000000000E+00 0.  1.
         21   -1    0    0  504  502 -0.00000000000E+00 -0.00000000000E+00 -0.56711701475E+01  0.56711701475E+01  0.00000000000E+00 0. -1.
         21    1    1    2  503  502  0.10271820268E+02  0.21245571663E+02  0.37572929908E+03  0.37646964127E+03  0.00000000000E+00 0.  1.
         21    1    1    2  504  501 -0.10271820268E+02 -0.21245571663E+02  0.20962192144E+02  0.31564190255E+02  0.00000000000E+00 0. -1.
</event>
<event>
 4    1  0.1551744E+006  0.2318189E+02  0.7546771E-02  0.1490227E+00
         21   -1    0    0  503  501  0.00000000000E+00  0.00000000000E+00  0.48654576771E+03  0.48654576771E+03  0.00000000000E+00 0. -1.
         21   -1    0    0  504  502 -0.00000000000E+00 -0.00000000000E+00 -0.13321630733E+01  0.13321630733E+01  0.00000000000E+00 0. -1.
         21    1    1    2  503  502 -0.41283939806E+01  0.22811321888E+02  0.34344584145E+03  0.34422731741E+03  0.00000000000E+00 0. -1.
         21    1    1    2  504  501  0.41283939806E+01 -0.22811321888E+02  0.14176776319E+03  0.14365061338E+03  0.00000000000E+00 0. -1.
</event>
<event>
 4    1  0.1551744E+006  0.3326206E+02  0.7546771E-02  0.1393211E+00
         21   -1    0    0  504  501  0.00000000000E+00  0.00000000000E+00  0.10839464286E+02  0.10839464286E+02  0.00000000000E+00 0.  1.
         21   -1    0    0  503  502 -0.00000000000E+00 -0.00000000000E+00 -0.47671190398E+03  0.47671190398E+03  0.00000000000E+00 0. -1.
         21    1    1    2  503  501  0.32155052132E+02 -0.85098328820E+01 -0.16827842005E+02  0.37276546243E+02  0.00000000000E+00 0.  1.
         21    1    1    2  504  502 -0.32155052132E+02  0.85098328820E+01 -0.44904459769E+03  0.45027482202E+03  0.00000000000E+00 0. -1.
</event>
<event>
 4    1  0.1551744E+006  0.2069153E+02  0.7546771E-02  0.1523715E+00
         21   -1    0    0  502  501  0.00000000000E+00  0.00000000000E+00  0.10928795229E+04  0.10928795229E+04  0.00000000000E+00 0. -1.
         21   -1    0    0  503  502 -0.00000000000E+00 -0.00000000000E+00 -0.16619428818E+02  0.16619428818E+02  0.00000000000E+00 0. -1.
         21    1    1    2  503  504 -0.14382198572E+02 -0.14875876679E+02 -0.10042155587E+02  0.22999657205E+02  0.00000000000E+00 0. -1.
         21    1    1    2  504  501  0.14382198572E+02  0.14875876679E+02  0.10863022497E+04  0.10864992945E+04  0.00000000000E+00 0. -1.
</event>
<event>
 4    1  0.1551744E+006  0.2307245E+02  0.7546771E-02  0.1491590E+00
         21   -1    0    0  504  501  0.00000000000E+00  0.00000000000E+00  0.63494340140E+01  0.63494340140E+01  0.00000000000E+00 0. -1.
         21   -1    0    0  501  502 -0.00000000000E+00 -0.00000000000E+00 -0.21943840610E+03  0.21943840610E+03  0.00000000000E+00 0. -1.
         21    1    1    2  503  502 -0.20988415546E+02 -0.95825129347E+01 -0.19528892003E+03  0.19664714701E+03  0.00000000000E+00 0. -1.
         21    1    1    2  504  503  0.20988415546E+02  0.95825129347E+01 -0.17800052056E+02  0.29140693102E+02  0.00000000000E+00 0. -1.
</event>
<event>
 4    1  0.1551744E+006  0.2717531E+02  0.7546771E-02  0.1445855E+00
         21   -1    0    0  502  501  0.00000000000E+00  0.00000000000E+00  0.12646774867E+02  0.12646774867E+02  0.00000000000E+00 0. -1.
         21   -1    0    0  504  502 -0.00000000000E+00 -0.00000000000E+00 -0.41338153789E+03  0.41338153789E+03  0.00000000000E+00 0. -1.
         21    1    1    2  503  501 -0.21954165832E+02 -0.16015991711E+02 -0.29709017157E+01  0.27337220869E+02  0.00000000000E+00 0. -1.
         21    1    1    2  504  503  0.21954165832E+02  0.16015991711E+02 -0.39776386131E+03  0.39869109189E+03  0.00000000000E+00 0. -1.
</event>
<event>
 4    1  0.1551744E+006  0.3851496E+02  0.7546771E-02  0.1357415E+00
         21   -1    0    0  503  501  0.00000000000E+00  0.00000000000E+00  0.65308314681E+01  0.65308314681E+01  0.00000000000E+00 0.  1.
         21   -1    0    0  504  502 -0.00000000000E+00 -0.00000000000E+00 -0.62008705263E+03  0.62008705263E+03  0.00000000000E+00 0.  1.
         21    1    1    2  503  502  0.34844431209E+02 -0.16409371332E+02 -0.57367787802E+02  0.69097503074E+02  0.00000000000E+00 0.  1.
         21    1    1    2  504  501 -0.34844431209E+02  0.16409371332E+02 -0.55618843336E+03  0.55752038103E+03  0.00000000000E+00 0.  1.
</event>
<event>
 4    1  0.1551744E+006  0.2454524E+02  0.7546771E-02  0.1473956E+00
         21   -1    0    0  502  501  0.00000000000E+00  0.00000000000E+00  0.36822309629E+03  0.36822309629E+03  0.00000000000E+00 0.  1.
         21   -1    0    0  504  502 -0.00000000000E+00 -0.00000000000E+00 -0.71838568622E+01  0.71838568622E+01  0.00000000000E+00 0. -1.
         21    1    1    2  503  501 -0.24272733257E+02  0.36473416239E+01  0.34546880879E+03  0.34633966929E+03  0.00000000000E+00 0.  1.
         21    1    1    2  504  503  0.24272733257E+02 -0.36473416239E+01  0.15570430641E+02  0.29067283860E+02  0.00000000000E+00 0. -1.
</event>
<event>
 4    1  0.1551744E+006  0.2862358E+02  0.7546771E-02  0.1431947E+00
         21   -1    0    0  504  501  0.00000000000E+00  0.00000000000E+00  0.15735669571E+03  0.15735669571E+03  0.00000000000E+00 0.  1.
         21   -1    0    0  501  502 -0.00000000000E+00 -0.00000000000E+00 -0.39853031229E+02  0.39853031229E+02  0.00000000000E+00 0. -1.
         21    1    1    2  503  502  0.14929513110E+01 -0.28584619764E+02 -0.33186425949E+02  0.43825201174E+02  0.00000000000E+00 0. -1.
         21    1    1    2  504  503 -0.14929513110E+01  0.28584619764E+02  0.15069009043E+03  0.15338452576E+03  0.00000000000E+00 0.  1.
</event>
<event>
 4    1  0.1551744E+006  0.2038816E+02  0.7546771E-02  0.1528182E+00
         21   -1    0    0  504  501  0.00000000000E+00  0.00000000000E+00  0.30691594628E+01  0.30691594628E+01  0.00000000000E+00 0.  1.
         21   -1    0    0  503  502 -0.00000000000E+00 -0.00000000000E+00 -0.43197409950E+03  0.43197409950E+03  0.00000000000E+00 0.  1.
         21    1    1    2  503  501  0.20063405000E+02  0.36245062835E+01 -0.34228219917E+02  0.39840284947E+02  0.00000000000E+00 0.  1.
         21    1    1    2  504  502 -0.20063405000E+02 -0.36245062835E+01 -0.39467672012E+03  0.39520297401E+03  0.00000000000E+00 0.  1.
</event>
<event>
 4    1  0.1551744E+006  0.2474310E+02  0.7546771E-02  0.1471698E+00
         21   -1    0    0  502  501  0.00000000000E+00  0.00000000000E+00  0.20003461446E+03  0.20003461446E+03  0.00000000000E+00 0.  1.
         21   -1    0    0  504  502 -0.00000000000E+00 -0.00000000000E+00 -0.94072968429E+01  0.94072968429E+01  0.00000000000E+00 0. -1.
         21    1    1    2  503  501  0.24036974584E+02  0.58689658991E+01  0.18132899887E+03  0.18300936244E+03  0.00000000000E+00 0.  1.
         21    1    1    2  504  503 -0.24036974584E+02 -0.58689658991E+01  0.92983187400E+01  0.26432548860E+02  0.00000000000E+00 0. -1.
</event>
<event>
 4    1  0.1551744E+006  0.4156042E+02  0.7546771E-02  0.1339577E+00
         21   -1    0    0  503  501  0.00000000000E+00  0.00000000000E+00  0.23652441911E+02  0.23652441911E+02  0.00000000000E+00 0.  1.
         21   -1    0    0  504  502 -0.00000000000E+00 -0.00000000000E+00 -0.76133941777E+02  0.76133941777E+02  0.00000000000E+00 0.  1.
         21    1    1    2  503  502  0.41473877879E+02 -0.26806252963E+01 -0.36319681198E+02  0.55194089725E+02  0.00000000000E+00 0.  1.
         21    1    1    2  504  501 -0.41473877879E+02  0.26806252963E+01 -0.16161818668E+02  0.44592293964E+02  0.00000000000E+00 0.  1.
</event>
<event>
 4    1  0.1551744E+006  0.2673670E+02  0.7546771E-02  0.1450271E+00
         21   -1    0    0  503  501  0.00000000000E+00  0.00000000000E+00  0.21718143321E+02  0.21718143321E+02  0.00000000000E+00 0.  1.
         21   -1    0    0  504  502 -0.00000000000E+00 -0.00000000000E+00 -0.33393404351E+03  0.33393404351E+03  0.00000000000E+00 0. -1.
         21    1    1    2  503  502 -0.26604876925E+02 -0.26517675732E+01 -0.32494282868E+03  0.32604093801E+03  0.00000000000E+00 0. -1.
         21    1    1    2  504  501  0.26604876925E+02  0.26517675732E+01  0.12726928496E+02  0.29611248816E+02  0.00000000000E+00 0.  1.
</event>
<event>
 4    1  0.1551744E+006  0.2256566E+02  0.7546771E-02  0.1498025E+00
         21   -1    0    0  502  501  0.00000000000E+00  0.00000000000E+00  0.14742793230E+02  0.14742793230E+02  0.00000000000E+00 0.  1.
         21   -1    0    0  503  502 -0.00000000000E+00 -0.00000000000E+00 -0.51480962926E+02  0.51480962926E+02  0.00000000000E+00 0.  1.
         21    1    1    2  503  504  0.19902136652E+02  0.10635505196E+02 -0.37363926224E+02  0.43649421496E+02  0.00000000000E+00 0.  1.
         21    1    1    2  504  501 -0.19902136652E+02 -0.10635505196E+02  0.62575652869E+00  0.22574334660E+02  0.00000000000E+00 0.  1.
</event>
<event>
 4    1  0.1551744E+006  0.2837280E+02  0.7546771E-02  0.1434285E+00
         21   -1    0    0  503  501  0.00000000000E+00  0.00000000000E+00  0.75196228973E+02  0.75196228973E+02  0.00000000000E+00 0. -1.
         21   -1    0    0  504  502 -0.00000000000E+00 -0.00000000000E+00 -0.21075322208E+02  0.21075322208E+02  0.00000000000E+00 0. -1.
         21    1    1    2  503  502 -0.20465201354E+02  0.19651747841E+02  0.60825382372E+02  0.67117380762E+02  0.00000000000E+00 0. -1.
         21    1    1    2  504  501  0.20465201354E+02 -0.19651747841E+02 -0.67044756062E+01  0.29154170419E+02  0.00000000000E+00 0. -1.
</event>
<event>
 4    1  0.1551744E+006  0.3280125E+02  0.7546771E-02  0.1396717E+00
         21   -1    0    0  502  501  0.00000000000E+00  0.00000000000E+00  0.28647022496E+03  0.28647022496E+03  0.00000000000E+00 0. -1.
         21   -1    0    0  503  502 -0.00000000000E+00 -0.00000000000E+00 -0.15069681211E+02  0.15069681211E+02  0.00000000000E+00 0.  1.
         21    1    1    2  503  504  0.13374285467E+02  0.29950803989E+02  0.50625028023E+01  0.33189623468E+02  0.00000000000E+00 0.  1.
         21    1    1    2  504  501 -0.13374285467E+02 -0.29950803989E+02  0.26633804095E+03  0.26835028271E+03  0.00000000000E+00 0. -1.
</event>
<event>
 4    1  0.1551744E+006  0.2241979E+02  0.7546771E-02  0.1499915E+00
         21   -1    0    0  504  501  0.00000000000E+00  0.00000000000E+00  0.52829361610E+02  0.52829361610E+02  0.00000000000E+00 0.  1.
         21   -1    0    0  503  502 -0.00000000000E+00 -0.00000000000E+00 -0.60366885350E+02  0.60366885350E+02  0.00000000000E+00 0. -1.
         21    1    1    2  503  501  0.63170732349E+01 -0.21511424825E+02  0.48177961984E+02  0.53139089503E+02  0.00000000000E+00 0.  1.
         21    1    1    2  504  502 -0.63170732349E+01  0.21511424825E+02 -0.55715485724E+02  0.60057157456E+02  0.00000000000E+00 0. -1.
</event>
<event>
 4    1  0.1551744E+006  0.2251242E+02  0.7546771E-02  0.1498713E+00
         21   -1    0    0  502  501  0.00000000000E+00  0.00000000000E+00  0.40047961873E+03  0.40047961873E+03  0.00000000000E+00 0.  1.
         21   -1    0    0  504  502 -0.00000000000E+00 -0.00000000000E+00 -0.93602730433E+02  0.93602730433E+02  0.00000000000E+00 0. -1.
         21    1    1    2  503  501  0.11911818623E+02 -0.19102819804E+02  0.39880394189E+03  0.39943884790E+03  0.00000000000E+00 0.  1.
         21    1    1    2  504  503 -0.11911818623E+02  0.19102819804E+02 -0.91927053595E+02  0.94643501256E+02  0.00000000000E+00 0. -1.
</event>
<event>
 4    1  0.1551744E+006  0.2019888E+02  0.7546771E-02  0.1531017E+00
         21   -1    0    0  504  501  0.00000000000E+00  0.00000000000E+00  0.75566958350E+01  0.75566958350E+01  0.00000000000E+00 0.  1.
         21   -1    0    0  503  502 -0.00000000000E+00 -0.00000000000E+00 -0.11622635706E+03  0.11622635706E+03  0.00000000000E+00 0. -1.
         21    1    1    2  503  501  0.53386968999E+01  0.19480580995E+02 -0.90453917003E+01  0.22131738104E+02  0.00000000000E+00 0.  1.
         21    1    1    2  504  502 -0.53386968999E+01 -0.19480580995E+02 -0.99624269525E+02  0.10165131479E+03  0.00000000000E+00 0. -1.
</event>
<event>
 4    1  0.1551744E+006  0.2126558E+02  0.7546771E-02  0.1515507E+00
         21   -1    0    0  504  501  0.00000000000E+00  0.00000000000E+00  0.61028766328E+01  0.61028766328E+01  0.00000000000E+00 0. -1.
         21   -1    0    0  501  502 -0.00000000000E+00 -0.00000000000E+00 -0.85836789100E+02  0.85836789100E+02  0.00000000000E+00 0. -1.
         21    1    1    2  503  502  0.11620260066E+02 -0.17809958382E+02 -0.56865239954E+02  0.60711453422E+02  0.00000000000E+00 0. -1.
         21    1    1    2  504  503 -0.11620260066E+02  0.17809958382E+02 -0.22868672513E+02  0.31228212310E+02  0.00000000000E+00 0. -1.
</event>
<event>
 4    1  0.1551744E+006  0.2913728E+02  0.7546771E-02  0.1427244E+00
         21   -1    0    0  503  501  0.00000000000E+00  0.00000000000E+00  0.11561655177E+02  0.11561655177E+02  0.00000000000E+00 0.  1.
         21   -1    0    0  504  502 -0.00000000000E+00 -0.00000000000E+00 -0.22379381971E+03  0.22379381971E+03  0.00000000000E+00 0.  1.
         21    1    1    2  503  502 -0.49416931295E+01 -0.28715166976E+02 -0.20257465693E+03  0.20465940676E+03  0.00000000000E+00 0.  1.
         21    1    1    2  504  501  0.49416931295E+01  0.28715166976E+02 -0.96575076057E+01  0.30696068129E+02  0.00000000000E+00 0.  1.
</event>
<event>
 4    1  0.1551744E+006  0.2082950E+02  0.7546771E-02  0.1521713E+00
         21   -1    0    0  504  501  0.00000000000E+00  0.00000000000E+00  0.27386470542E+03  0.27386470542E+03  0.00000000000E+00 0. -1.
         21   -1    0    0  503  502 -0.00000000000E+00 -0.00000000000E+00 -0.38430341927E+01  0.38430341927E+01  0.00000000000E+00 0. -1.
         21    1    1    2  503  501  0.20700172573E+02 -0.23175492405E+01  0.28557584676E+02  0.35346906818E+02  0.00000000000E+00 0. -1.
         21    1    1    2  504  502 -0.20700172573E+02  0.23175492405E+01  0.24146408655E+03  0.24236083279E+03  0.00000000000E+00 0. -1.
</event>
<event>
 4    1  0.1551744E+006  0.4351102E+02  0.7546771E-02  0.1329055E+00
         21   -1    0    0  504  501  0.00000000000E+00  0.00000000000E+00  0.17990711343E+01  0.17990711343E+01  0.00000000000E+00 0.  1.
         21   -1    0    0  503  502 -0.00000000000E+00 -0.00000000000E+00 -0.12370572684E+04  0.12370572684E+04  0.00000000000E+00 0.  1.
         21    1    1    2  503  501 -0.20745735154E+02 -0.38246874255E+02 -0.37826085935E+03  0.38075515312E+03  0.00000000000E+00 0.  1.
         21    1    1    2  504  502  0.20745735154E+02  0.38246874255E+02 -0.85699733794E+03  0.85810118643E+03  0.00000000000E+00 0.  1.
</event>
<event>
 4    1  0.1551744E+006  0.2054907E+02  0.7546771E-02  0.1525801E+00
         21   -1    0    0  503  501  0.00000000000E+00  0.00000000000E+00  0.96589806774E+01  0.96589806774E+01  0.00000000000E+00 0.  1.
         21   -1    0    0  504  502 -0.00000000000E+00 -0.00000000000E+00 -0.15923701915E+03  0.15923701915E+03  0.00000000000E+00 0.  1.
         21    1    1    2  503  502 -0.67938828192E+01 -0.19393493136E+02 -0.14671659733E+03  0.14814865626E+03  0.00000000000E+00 0.  1.
         21    1    1    2  504  501  0.67938828192E+01  0.19393493136E+02 -0.28614411464E+01  0.20747343570E+02  0.00000000000E+00 0.  1.
</event>
<event>
 4    1  0.1551744E+006  0.2012082E+02  0.7546771E-02  0.1532197E+00
         21   -1    0    0  503  501  0.00000000000E+00  0.00000000000E+00  0.15738482958E+03  0.15738482958E+03  0.00000000000E+00 0.  1.
         21   -1    0    0  504  502 -0.00000000000E+00 -0.00000000000E+00 -0.13189619733E+02  0.13189619733E+02  0.00000000000E+00 0.  1.
         21    1    1    2  503  502  0.16759213226E+02 -0.11134459538E+02 -0.44223064931E+01  0.20601073075E+02  0.00000000000E+00 0.  1.
         21    1    1    2  504  501 -0.16759213226E+02  0.11134459538E+02  0.14861751634E+03  0.14997337624E+03  0.00000000000E+00 0.  1.
</event>
<event>
 4    1  0.1551744E+006  0.2110293E+02  0.7546771E-02  0.1517800E+00
         21   -1    0    0  502  501  0.00000000000E+00  0.00000000000E+00  0.92625865713E+02  0.92625865713E+02  0.00000000000E+00 0. -1.
         21   -1    0    0  504  502 -0.00000000000E+00 -0.00000000000E+00 -0.16589033835E+02  0.16589033835E+02  0.00000000000E+00 0. -1.
         21    1    1    2  503  501 -0.19177369484E+02 -0.88069451836E+01  0.84037218559E+02  0.86646337989E+02  0.00000000000E+00 0. -1.
         21    1    1    2  504  503  0.19177369484E+02  0.88069451836E+01 -0.80003866811E+01  0.22568561559E+02  0.00000000000E+00 0. -1.
</event>
<event>
 4    1  0.1551744E+006  0.2380184E+02  0.7546771E-02  0.1482668E+00
         21   -1    0    0  504  501  0.00000000000E+00  0.00000000000E+00  0.42523460943E+01  0.42523460943E+01  0.00000000000E+00 0. -1.
         21   -1    0    0  503  502 -0.00000000000E+00 -0.00000000000E+00 -0.25380390275E+03  0.25380390275E+03  0.00000000000E+00 0. -1.
         21    1    1    2  503  501 -0.59838804190E+01 -0.23037379240E+02 -0.35841917104E+02  0.43025233164E+02  0.00000000000E+00 0. -1.
         21    1    1    2  504  502  0.59838804190E+01  0.23037379240E+02 -0.21370963955E+03  0.21503101568E+03  0.00000000000E+00 0. -1.
</event>
<event>
 4    1  0.1551744E+006  0.2738740E+02  0.7546771E-02  0.1443755E+00
         21   -1    0    0  504  501  0.00000000000E+00  0.00000000000E+00  0.91950882658E+01  0.91950882658E+01  0.00000000000E+00 0. -1.
         21   -1    0    0  503  502 -0.00000000000E+00 -0.00000000000E+00 -0.10347738501E+03  0.10347738501E+03  0.00000000000E+00 0.  1.
         21    1    1    2  503  501  0.24928021180E+02 -0.11342981787E+02 -0.21221314426E+02  0.34646986330E+02  0.00000000000E+00 0. -1.
         21    1    1    2  504  502 -0.24928021180E+02  0.11342981787E+02 -0.73060982315E+02  0.78025486942E+02  0.00000000000E+00 0.  1.
</event>
<event>
 4    1  0.1551744E+006  0.3121099E+02  0.7546771E-02  0.1409357E+00
         21   -1    0    0  503  501  0.00000000000E+00  0.00000000000E+00  0.27737957831E+02  0.27737957831E+02  0.00000000000E+00 0.  1.
         21   -1    0    0  504  502 -0.00000000000E+00 -0.00000000000E+00 -0.15450903401E+03  0.15450903401E+03  0.00000000000E+00 0.  1.
         21    1    1    2  503  502 -0.60238576291E+01  0.30624160568E+02 -0.14348649174E+03  0.14684174945E+03  0.00000000000E+00 0.  1.
         21    1    1    2  504  501  0.60238576291E+01 -0.30624160568E+02  0.16715415559E+02  0.35405242388E+02  0.00000000000E+00 0.  1.
</event>
<event>
 4    1  0.1551744E+006  0.2266934E+02  0.7546771E-02  0.1496693E+00
         21   -1    0    0  502  501  0.00000000000E+00  0.00000000000E+00  0.21341505317E+01  0.21341505317E+01  0.00000000000E+00 0.  1.
         21   -1    0    0  504  502 -0.00000000000E+00 -0.00000000000E+00 -0.47075945029E+03  0.47075945029E+03  0.00000000000E+00 0. -1.
         21    1    1    2  503  501  0.21464713865E+02 -0.72914239807E+01 -0.69054988242E+02  0.72680741645E+02  0.00000000000E+00 0.  1.
         21    1    1    2  504  503 -0.21464713865E+02  0.72914239807E+01 -0.39957031152E+03  0.40021285918E+03  0.00000000000E+00 0. -1.
</event>
<event>
 4    1  0.1551744E+006  0.3589920E+02  0.7546771E-02  0.1374349E+00
         21   -1    0    0  503  501  0.00000000000E+00  0.00000000000E+00  0.76105210002E+02  0.76105210002E+02  0.00000000000E+00 0. -1.
         21   -1    0    0  504  502 -0.00000000000E+00 -0.00000000000E+00 -0.30046251454E+02  0.30046251454E+02  0.00000000000E+00 0. -1.
         21    1    1    2  503  502  0.33088140876E+02  0.13925780684E+02  0.58091935666E+02  0.68289277517E+02  0.00000000000E+00 0. -1.
         21    1    1    2  504  501 -0.33088140876E+02 -0.13925780684E+02 -0.12032977119E+02  0.37862183939E+02  0.00000000000E+00 0. -1.
</event>
<event>
 4    1  0.1551744E+006  0.2955115E+02  0.7546771E-02  0.1423538E+00
         21   -1    0    0  503  501  0.00000000000E+00  0.00000000000E+00  0.56973372634E+02  0.56973372634E+02  0.00000000000E+00 0.  1.
         21   -1    0    0  504  502 -0.00000000000E+00 -0.00000000000E+00 -0.22622618686E+02  0.22622618686E+02  0.00000000000E+00 0.  1.
         21    1    1    2  503  502 -0.19177049952E+01  0.29488855382E+02  0.39774953070E+02  0.49551156151E+02  0.00000000000E+00 0.  1.
         21    1    1    2  504  501  0.19177049952E+01 -0.29488855382E+02 -0.54241991223E+01  0.30044835169E+02  0.00000000000E+00 0.  1.
</event>
<event>
 4    1  0.1551744E+006  0.2796429E+02  0.7546771E-02  0.1438155E+00
         21   -1    0    0  504  501  0.00000000000E+00  0.00000000000E+00  0.88170021123E+02  0.88170021123E+02  0.00000000000E+00 0.  1.
         21   -1    0    0  501  502 -0.00000000000E+00 -0.00000000000E+00 -0.32456070680E+02  0.32456070680E+02  0.00000000000E+00 0.  1.
         21    1    1    2  503  502 -0.27596867446E+02  0.45182353113E+01 -0.23558995251E+02  0.36565390746E+02  0.00000000000E+00 0.  1.
         21    1    1    2  504  503  0.27596867446E+02 -0.45182353113E+01  0.79272945694E+02  0.84060701057E+02  0.00000000000E+00 0.  1.
</event>
<event>
 4    1  0.1551744E+006  0.2726081E+02  0.7546771E-02  0.1445006E+00
         21   -1    0    0  504  501  0.00000000000E+00  0.00000000000E+00  0.45142961615E+03  0.45142961615E+03  0.00000000000E+00 0. -1.
         21   -1    0    0  503  502 -0.00000000000E+00 -0.00000000000E+00 -0.28876561586E+01  0.28876561586E+01  0.00000000000E+00 0.  1.
         21    1    1    2  503  501  0.27256390512E+02  0.49076513427E+00  0.75328351537E+02  0.80109376602E+02  0.00000000000E+00 0.  1.
         21    1    1    2  504  502 -0.27256390512E+02 -0.49076513427E+00  0.37321360845E+03  0.37420789571E+03  0.00000000000E+00 0. -1.
</event>
<event>
 4    1  0.1551744E+006  0.2171077E+02  0.7546771E-02  0.1509354E+00
         21   -1    0    0  504  501  0.00000000000E+00  0.00000000000E+00  0.18227299619E+01  0.18227299619E+01  0.00000000000E+00 0.  1.
         21   -1    0    0  503  502 -0.00000000000E+00 -0.00000000000E+00 -0.76165664487E+03  0.76165664487E+03  0.00000000000E+00 0.  1.
         21    1    1    2  503  501  0.51666682383E+01  0.21087030625E+02 -0.69015588759E+03  0.69049728927E+03  0.00000000000E+00 0.  1.
         21    1    1    2  504  502 -0.51666682383E+01 -0.21087030625E+02 -0.69678027319E+02  0.72982085558E+02  0.00000000000E+00 0.  1.
</event>
<event>
 4    1  0.1551744E+006  0.2131903E+02  0.7546771E-02  0.1514758E+00
         21   -1    0    0  503  501  0.00000000000E+00  0.00000000000E+00  0.10041368763E+02  0.10041368763E+02  0.00000000000E+00 0. -1.
         21   -1    0    0  504  502 -0.00000000000E+00 -0.00000000000E+00 -0.89562720967E+02  0.89562720967E+02  0.00000000000E+00 0. -1.
         21    1    1    2  503  502  0.12592500485E+02 -0.17202613656E+02 -0.47351426941E+01  0.21838556761E+02  0.00000000000E+00 0. -1.
         21    1    1    2  504  501 -0.12592500485E+02  0.17202613656E+02 -0.74786209510E+02  0.77765532968E+02  0.00000000000E+00 0. -1.
</event>
<event>
 4    1  0.1551744E+006  0.2604661E+02  0.7546771E-02  0.1457428E+00
         21   -1    0    0  502  501  0.00000000000E+00  0.00000000000E+00  0.95805160310E+01  0.95805160310E+01  0.00000000000E+00 0. -1.
         21   -1    0    0  504  502 -0.00000000000E+00 -0.00000000000E+00 -0.22256457572E+03  0.22256457572E+03  0.00000000000E+00 0.  1.
         21    1    1    2  503  501 -0.57159153706E+00  0.26040332910E+02 -0.10647350569E+02  0.28138794023E+02  0.00000000000E+00 0. -1.
         21    1    1    2  504  503  0.57159153706E+00 -0.26040332910E+02 -0.20233670912E+03  0.20400629773E+03  0.00000000000E+00 0.  1.
</event>
<event>
 4    1  0.1551744E+006  0.5590242E+02  0.7546771E-02  0.1274428E+00
         21   -1    0    0  503  501  0.00000000000E+00  0.00000000000E+00  0.78005273222E+02  0.78005273222E+02  0.00000000000E+00 0. -1.
         21   -1    0    0  504  502 -0.00000000000E+00 -0.00000000000E+00 -0.22971046285E+03  0.22971046285E+03  0.00000000000E+00 0.  1.
         21    1    1    2  503  502 -0.32339102805E+02 -0.45598934259E+02  0.63946223085E+02  0.84936445785E+02  0.00000000000E+00 0. -1.
         21    1    1    2  504  501  0.32339102805E+02  0.45598934259E+02 -0.21565141272E+03  0.22277929029E+03  0.00000000000E+00 0.  1.
</event>
<event>
 4    1  0.1551744E+006  0.2245527E+02  0.7546771E-02  0.1499454E+00
         21   -1    0    0  504  501  0.00000000000E+00  0.00000000000E+00  0.31535250210E+01  0.31535250210E+01  0.00000000000E+00 0.  1.
         21   -1    0    0  503  502 -0.00000000000E+00 -0.00000000000E+00 -0.16189452732E+03  0.16189452732E+03  0.00000000000E+00 0.  1.
         21    1    1    2  503  501 -0.10581471907E+02  0.19805850071E+02 -0.70203889953E+02  0.73707702510E+02  0.00000000000E+00 0.  1.
         21    1    1    2  504  502  0.10581471907E+02 -0.19805850071E+02 -0.88537112348E+02  0.91340349833E+02  0.00000000000E+00 0.  1.
</event>
<event>
 4    1  0.1551744E+006  0.2365318E+02  0.7546771E-02  0.1484455E+00
         21   -1    0    0  504  501  0.00000000000E+00  0.00000000000E+00  0.32050092682E+03  0.32050092682E+03  0.00000000000E+00 0.  1.
         21   -1    0    0  503  502 -0.00000000000E+00 -0.00000000000E+00 -0.45820419157E+01  0.45820419157E+01  0.00000000000E+00 0.  1.
         21    1    1    2  503  501 -0.20148599394E+02  0.12389779354E+02  0.30074285228E+02  0.38261407736E+02  0.00000000000E+00 0.  1.
         21    1    1    2  504  502  0.20148599394E+02 -0.12389779354E+02  0.28584459968E+03  0.28682156100E+03  0.00000000000E+00 0.  1.
</event>
<event>
 4    1  0.1551744E+006  0.3906437E+02  0.7546771E-02  0.1354057E+00
         21   -1    0    0  504  501  0.00000000000E+00  0.00000000000E+00  0.14982265378E+03  0.14982265378E+03  0.00000000000E+00 0. -1.
         21   -1    0    0  501  502 -0.00000000000E+00 -0.00000000000E+00 -0.16244780812E+03  0.16244780812E+03  0.00000000000E+00 0. -1.
         21    1    1    2  503  502  0.37583488228E+02 -0.10653942308E+02 -0.15747370559E+03  0.16224670420E+03  0.00000000000E+00 0. -1.
         21    1    1    2  504  503 -0.37583488228E+02  0.10653942308E+02  0.14484855125E+03  0.15002375770E+03  0.00000000000E+00 0. -1.
</event>
<event>
 4    1  0.1551744E+006  0.2465989E+02  0.7546771E-02  0.1472644E+00
         21   -1    0    0  503  501  0.00000000000E+00  0.00000000000E+00  0.24676557173E+02  0.24676557173E+02  0.00000000000E+00 0. -1.
         21   -1    0    0  504  502 -0.00000000000E+00 -0.00000000000E+00 -0.83468258773E+02  0.83468258773E+02  0.00000000000E+00 0. -1.
         21    1    1    2  503  502  0.24623962921E+02 -0.13306891659E+01 -0.74789602322E+02  0.78750205708E+02  0.00000000000E+00 0. -1.
         21    1    1    2  504  501 -0.24623962921E+02  0.13306891659E+01  0.15997900721E+02  0.29394610238E+02  0.00000000000E+00 0. -1.
</event>
<event>
 4    1  0.1551744E+006  0.2099482E+02  0.7546771E-02  0.1519339E+00
         21   -1    0    0  504  501  0.00000000000E+00  0.00000000000E+00  0.16721030449E+03  0.16721030449E+03  0.00000000000E+00 0.  1.
         21   -1    0    0  501  502 -0.00000000000E+00 -0.00000000000E+00 -0.15800328450E+02  0.15800328450E+02  0.00000000000E+00 0.  1.
         21    1    1    2  503  502  0.20882933288E+02 -0.21646431755E+01 -0.78189619331E+01  0.22403543213E+02  0.00000000000E+00 0.  1.
         21    1    1    2  504  503 -0.20882933288E+02  0.21646431755E+01  0.15922893797E+03  0.16060708973E+03  0.00000000000E+00 0.  1.
</event>
<event>
 4    1  0.1551744E+006  0.2017866E+02  0.7546771E-02  0.1531322E+00
         21   -1    0    0  504  501  0.00000000000E+00  0.00000000000E+00  0.28118081551E+02  0.28118081551E+02  0.00000000000E+00 0. -1.
         21   -1    0    0  501  502 -0.00000000000E+00 -0.00000000000E+00 -0.36448395809E+02  0.36448395809E+02  0.00000000000E+00 0. -1.
         21    1    1    2  503  502 -0.63141918181E+01  0.19165320186E+02 -0.29227806158E+02  0.35516801221E+02  0.00000000000E+00 0. -1.
         21    1    1    2  504  503  0.63141918181E+01 -0.19165320186E+02  0.20897491899E+02  0.29049676139E+02  0.00000000000E+00 0. -1.
</event>
<event>
 4    1  0.1551744E+006  0.2463978E+02  0.7546771E-02  0.1472874E+00
         21   -1    0    0  504  501  0.00000000000E+00  0.00000000000E+00  0.13037923444E+02  0.13037923444E+02  0.00000000000E+00 0. -1.
         21   -1    0    0  501  502 -0.00000000000E+00 -0.00000000000E+00 -0.58159929306E+02  0.58159929306E+02  0.00000000000E+00 0. -1.
         21    1    1    2  503  502 -0.15913955668E+02  0.18811293051E+02 -0.38455536069E+02  0.45672168611E+02  0.00000000000E+00 0. -1.
         21    1    1    2  504  503  0.15913955668E+02 -0.18811293051E+02 -0.66664697930E+01  0.25525684139E+02  0.00000000000E+00 0. -1.
</event>
<event>
 4    1  0.1551744E+006  0.2288878E+02  0.7546771E-02  0.1493899E+00
         21   -1    0    0  504  501  0.00000000000E+00  0.00000000000E+00  0.39444269161E+03  0.39444269161E+03  0.00000000000E+00 0.  1.
         21   -1    0    0  503  502 -0.00000000000E+00 -0.00000000000E+00 -0.14009131049E+01  0.14009131049E+01  0.00000000000E+00 0. -1.
         21    1    1    2  503  501  0.21188025867E+02 -0.86581619909E+01  0.24161438131E+03  0.24269611754E+03  0.00000000000E+00 0.  1.
         21    1    1    2  504  502 -0.21188025867E+02  0.86581619909E+01  0.15142739719E+03  0.15314748718E+03  0.00000000000E+00 0. -1.
</event>
<event>
 4    1  0.1551744E+006  0.3095809E+02  0.7546771E-02  0.1411449E+00
         21   -1    0    0  503  501  0.00000000000E+00  0.00000000000E+00  0.15003288798E+02  0.15003288798E+02  0.00000000000E+00 0.  1.
         21   -1    0    0  504  502 -0.00000000000E+00 -0.00000000000E+00 -0.13167408780E+03  0.13167408780E+03  0.00000000000E+00 0.  1.
         21    1    1    2  503  502  0.20087326084E+02 -0.23556367774E+02 -0.11095897767E+03  0.11519677885E+03  0.00000000000E+00 0.  1.
         21    1    1    2  504  501 -0.20087326084E+02  0.23556367774E+02 -0.57118213387E+01  0.31480597754E+02  0.00000000000E+00 0.  1.
</event>
<event>
 4    1  0.1551744E+006  0.2267683E+02  0.7546771E-02  0.1496597E+00
         21   -1    0    0  503  501  0.00000000000E+00  0.00000000000E+00  0.11322020565E+02  0.11322020565E+02  0.00000000000E+00 0.  1.
         21   -1    0    0  504  502 -0.00000000000E+00 -0.00000000000E+00 -0.55136860096E+02  0.55136860096E+02  0.00000000000E+00 0. -1.
         21    1    1    2  503  502 -0.20809782672E+01 -0.22581148912E+02 -0.79572457152E+01  0.24032405542E+02  0.00000000000E+00 0.  1.
         21    1    1    2  504  501  0.20809782672E+01  0.22581148912E+02 -0.35857593816E+02  0.42426475119E+02  0.00000000000E+00 0. -1.
</event>
<event>
 4    1  0.1551744E+006  0.2276409E+02  0.7546771E-02  0.1495482E+00
         21   -1    0    0  502  501  0.00000000000E+00  0.00000000000E+00  0.57918350648E+02  0.57918350648E+02  0.00000000000E+00 0.  1.
         21   -1    0    0  504  502 -0.00000000000E+00 -0.00000000000E+00 -0.43526825691E+02  0.43526825691E+02  0.00000000000E+00 0.  1.
         21    1    1    2  503  501 -0.10874789808E+02 -0.19998571838E+02  0.52405646383E+02  0.57136290585E+02  0.00000000000E+00 0.  1.
         21    1    1    2  504  503  0.10874789808E+02  0.19998571838E+02 -0.38014121426E+02  0.44308885754E+02  0.00000000000E+00 0.  1.
</event>
<event>
 4    1  0.1551744E+006  0.2115424E+02  0.7546771E-02  0.1517074E+00
         21   -1    0    0  502  501  0.00000000000E+00  0.00000000000E+00  0.10377414548E+02  0.10377414548E+02  0.00000000000E+00 0. -1.
         21   -1    0    0  504  502 -0.00000000000E+00 -0.00000000000E+00 -0.51631399797E+02  0.51631399797E+02  0.00000000000E+00 0. -1.
         21    1    1    2  503  501 -0.15231631233E+01  0.21099332730E+02 -0.80406735108E+01  0.22630826279E+02  0.00000000000E+00 0. -1.
         21    1    1    2  504  503  0.15231631233E+01 -0.21099332730E+02 -0.33213311738E+02  0.39377988066E+02  0.00000000000E+00 0. -1.
</event>
<event>
 4    1  0.1551744E+006  0.2077409E+02  0.7546771E-02  0.1522515E+00
         21   -1    0    0  504  501  0.00000000000E+00  0.00000000000E+00  0.34008870973E+03  0.34008870973E+03  0.00000000000E+00 0.  1.
         21   -1    0    0  503  502 -0.00000000000E+00 -0.00000000000E+00 -0.15871652161E+02  0.15871652161E+02  0.00000000000E+00 0. -1.
         21    1    1    2  503  501 -0.65341687471E+01 -0.19719719260E+02 -0.86085134576E+01  0.22487089471E+02  0.00000000000E+00 0. -1.
         21    1    1    2  504  502  0.65341687471E+01  0.19719719260E+02  0.33282557103E+03  0.33347327242E+03  0.00000000000E+00 0.  1.
</event>
<event>
 4    1  0.1551744E+006  0.2778496E+02  0.7546771E-02  0.1439879E+00
         21   -1    0    0  502  501  0.00000000000E+00  0.00000000000E+00  0.15603748087E+02  0.15603748087E+02  0.00000000000E+00 0.  1.
         21   -1    0    0  503  502 -0.00000000000E+00 -0.00000000000E+00 -0.13637514155E+04  0.13637514155E+04  0.00000000000E+00 0. -1.
         21    1    1    2  503  504  0.76805703703E+01  0.26702295347E+02 -0.13511254380E+04  0.13514110970E+04  0.00000000000E+00 0. -1.
         21    1    1    2  504  501 -0.76805703703E+01 -0.26702295347E+02  0.29777706648E+01  0.27944066564E+02  0.00000000000E+00 0.  1.
</event>
<event>
 4    1  0.1551744E+006  0.2215466E+02  0.7546771E-02  0.1503395E+00
         21   -1    0    0  503  501  0.00000000000E+00  0.00000000000E+00  0.14174683171E+02  0.14174683171E+02  0.00000000000E+00 0. -1.
         21   -1    0    0  504  502 -0.00000000000E+00 -0.00000000000E+00 -0.10684938586E+03  0.10684938586E+03  0.00000000000E+00 0.  1.
         21    1    1    2  503  502 -0.62179977830E+01 -0.21264178809E+02  0.34124352385E+01  0.22415920929E+02  0.00000000000E+00 0. -1.
         21    1    1    2  504  501  0.62179977830E+01  0.21264178809E+02 -0.96087137932E+02  0.98608148105E+02  0.00000000000E+00 0.  1.
</event>
<event>
 4    1  0.1551744E+006  0.2198008E+02  0.7546771E-02  0.1505718E+00
         21   -1    0    0  503  501  0.00000000000E+00  0.00000000000E+00  0.28684370855E+02  0.28684370855E+02  0.00000000000E+00 0. -1.
         21   -1    0    0  504  502 -0.00000000000E+00 -0.00000000000E+00 -0.23100171154E+02  0.23100171154E+02  0.00000000000E+00 0. -1.
         21    1    1    2  503  502 -0.31390011846E+01 -0.21754785083E+02  0.16268064305E+02  0.27345455174E+02  0.00000000000E+00 0. -1.
         21    1    1    2  504  501  0.31390011846E+01  0.21754785083E+02 -0.10683864604E+02  0.24439086835E+02  0.00000000000E+00 0. -1.
</event>
<event>
 4    1  0.1551744E+006  0.9979699E+02  0.7546771E-02  0.1164160E+00
         21   -1    0    0  503  501  0.00000000000E+00  0.00000000000E+00  0.86655916999E+02  0.86655916999E+02  0.00000000000E+00 0. -1.
         21   -1    0    0  501  502 -0.00000000000E+00 -0.00000000000E+00 -0.23755469872E+03  0.23755469872E+03  0.00000000000E+00 0. -1.
         21    1    1    2  503  504  0.54878160539E+02  0.83353622300E+02  0.41017606987E+02  0.10789755761E+03  0.00000000000E+00 0. -1.
         21    1    1    2  504  502 -0.54878160539E+02 -0.83353622300E+02 -0.19191638870E+03  0.21631305811E+03  0.00000000000E+00 0. -1.
</event>
<event>
 4    1  0.1551744E+006  0.2485333E+02  0.7546771E-02  0.1470451E+00
         21   -1    0    0  503  501  0.00000000000E+00  0.00000000000E+00  0.38965142708E+01  0.38965142708E+01  0.00000000000E+00 0.  1.
         21   -1    0    0  504  502 -0.00000000000E+00 -0.00000000000E+00 -0.15940036809E+03  0.15940036809E+03  0.00000000000E+00 0.  1.
         21    1    1    2  503  502 -0.77473128018E+01  0.23614972145E+02 -0.71694977785E+02  0.75880548263E+02  0.00000000000E+00 0.  1.
         21    1    1    2  504  501  0.77473128018E+01 -0.23614972145E+02 -0.83808876034E+02  0.87416334098E+02  0.00000000000E+00 0.  1.
</event>
<event>
 4    1  0.1551744E+006  0.2158327E+02  0.7546771E-02  0.1511098E+00
         21   -1    0    0  503  501  0.00000000000E+00  0.00000000000E+00  0.59273643029E+01  0.59273643029E+01  0.00000000000E+00 0. -1.
         21   -1    0    0  504  502 -0.00000000000E+00 -0.00000000000E+00 -0.12425219695E+03  0.12425219695E+03  0.00000000000E+00 0. -1.
         21    1    1    2  503  502  0.11061411586E+01  0.21554903999E+02 -0.98620360879E+02  0.10095450963E+03  0.00000000000E+00 0. -1.
         21    1    1    2  504  501 -0.11061411586E+01 -0.21554903999E+02 -0.19704471766E+02  0.29225051621E+02  0.00000000000E+00 0. -1.
</event>
<event>
 4    1  0.1551744E+006  0.2379573E+02  0.7546771E-02  0.1482741E+00
         21   -1    0    0  504  501  0.00000000000E+00  0.00000000000E+00  0.44741528358E+01  0.44741528358E+01  0.00000000000E+00 0. -1.
         21   -1    0    0  503  502 -0.00000000000E+00 -0.00000000000E+00 -0.12822997442E+03  0.12822997442E+03  0.00000000000E+00 0. -1.
         21    1    1    2  503  501 -0.23343327790E+02 -0.46179749067E+01 -0.54299693547E+02  0.59284849361E+02  0.00000000000E+00 0. -1.
         21    1    1    2  504  502  0.23343327790E+02  0.46179749067E+01 -0.69456128035E+02  0.73419277892E+02  0.00000000000E+00 0. -1.
</event>
<event>
 4    1  0.1551744E+006  0.2774506E+02  0.7546771E-02  0.1440264E+00
         21   -1    0    0  504  501  0.00000000000E+00  0.00000000000E+00  0.24714274679E+02  0.24714274679E+02  0.00000000000E+00 0. -1.
         21   -1    0    0  501  502 -0.00000000000E+00 -0.00000000000E+00 -0.35097754220E+03  0.35097754220E+03  0.00000000000E+00 0. -1.
         21    1    1    2  503  502  0.27485865327E+02  0.37835634101E+01 -0.34244872932E+03  0.34357083747E+03  0.00000000000E+00 0. -1.
         21    1    1    2  504  503 -0.27485865327E+02 -0.37835634101E+01  0.16185461798E+02  0.32120979413E+02  0.00000000000E+00 0. -1.
</event>
<event>
 4    1  0.1551744E+006  0.2727847E+02  0.7546771E-02  0.1444831E+00
         21   -1    0    0  503  501  0.00000000000E+00  0.00000000000E+00  0.12227293311E+02  0.12227293311E+02  0.00000000000E+00 0. -1.
         21   -1    0    0  501  502 -0.00000000000E+00 -0.00000000000E+00 -0.82829474336E+02  0.82829474336E+02  0.00000000000E+00 0. -1.
         21    1    1    2  503  504 -0.26616765525E+02  0.59718065877E+01 -0.10821651696E+02  0.29346598207E+02  0.00000000000E+00 0. -1.
         21    1    1    2  504  502  0.26616765525E+02 -0.59718065877E+01 -0.59780529329E+02  0.65710169440E+02  0.00000000000E+00 0. -1.
</event>
<event>
 4    1  0.1551744E+006  0.4737362E+02  0.7546771E-02  0.1309980E+00
         21   -1    0    0  503  501  0.00000000000E+00  0.00000000000E+00  0.24431480140E+03  0.24431480140E+03  0.00000000000E+00 0. -1.
         21   -1    0    0  504  502 -0.00000000000E+00 -0.00000000000E+00 -0.10936485399E+04  0.10936485399E+04  0.00000000000E+00 0.  1.
         21    1    1    2  503  502  0.43095976233E+02  0.19672224825E+02  0.24149937232E+03  0.24610202443E+03  0.00000000000E+00 0. -1.
         21    1    1    2  504  501 -0.43095976233E+02 -0.19672224825E+02 -0.10908331109E+04  0.10918613169E+04  0.00000000000E+00 0.  1.
</event>
<event>
 4    1  0.1551744E+006  0.2873378E+02  0.7546771E-02  0.1430928E+00
         21   -1    0    0  503  501  0.00000000000E+00  0.00000000000E+00  0.30583394893E+02  0.30583394893E+02  0.00000000000E+00 0. -1.
         21   -1    0    0  501  502 -0.00000000000E+00 -0.00000000000E+00 -0.26686143469E+03  0.26686143469E+03  0.00000000000E+00 0. -1.
         21    1    1    2  503  504 -0.41545955084E+01  0.28431835274E+02  0.22860403710E+02  0.36718224067E+02  0.00000000000E+00 0. -1.
         21    1    1    2  504  502  0.41545955084E+01 -0.28431835274E+02 -0.25913844351E+03  0.26072660552E+03  0.00000000000E+00 0. -1.
</event>
<event>
 4    1  0.1551744E+006  0.3017610E+02  0.7546771E-02  0.1418072E+00
         21   -1    0    0  504  501  0.00000000000E+00  0.00000000000E+00  0.37703584475E+03  0.37703584475E+03  0.00000000000E+00 0.  1.
         21   -1    0    0  503  502 -0.00000000000E+00 -0.00000000000E+00 -0.39160499477E+02  0.39160499477E+02  0.00000000000E+00 0. -1.
         21    1    1    2  503  501 -0.25242524338E+02 -0.16535180526E+02  0.37051670649E+03  0.37174349626E+03  0.00000000000E+00 0.  1.
         21    1    1    2  504  502  0.25242524338E+02  0.16535180526E+02 -0.32641361214E+02  0.44452847962E+02  0.00000000000E+00 0. -1.
</event>
<event>
 4    1  0.1551744E+006  0.2540515E+02  0.7546771E-02  0.1464322E+00
         21   -1    0    0  504  501  0.00000000000E+00  0.00000000000E+00  0.57670987048E+01  0.57670987048E+01  0.00000000000E+00 0. -1.
         21   -1    0    0  503  502 -0.00000000000E+00 -0.00000000000E+00 -0.11739156002E+03  0.11739156002E+03  0.00000000000E+00 0. -1.
         21    1    1    2  503  501  0.11470564558E+02  0.22668209962E+02 -0.42510968964E+02  0.49523772841E+02  0.00000000000E+00 0. -1.
         21    1    1    2  504  502 -0.11470564558E+02 -0.22668209962E+02 -0.69113492355E+02  0.73634885888E+02  0.00000000000E+00 0. -1.
</event>
<event>
 4    1  0.1551744E+006  0.3123279E+02  0.7546771E-02  0.1409178E+00
         21   -1    0    0  503  501  0.00000000000E+00  0.00000000000E+00  0.19723131414E+03  0.19723131414E+03  0.00000000000E+00 0. -1.
         21   -1    0    0  504  502 -0.00000000000E+00 -0.00000000000E+00 -0.14662814295E+02  0.14662814295E+02  0.00000000000E+00 0. -1.
         21    1    1    2  503  502 -0.28736394977E+02  0.12235461768E+02  0.50371735867E+01  0.31636372085E+02  0.00000000000E+00 0. -1.
         21    1    1    2  504  501  0.28736394977E+02 -0.12235461768E+02  0.17753132626E+03  0.18025775635E+03  0.00000000000E+00 0. -1.
</event>
<event>
 4    1  0.1551744E+006  0.5339796E+02  0.7546771E-02  0.1284076E+00
         21   -1    0    0  504  501  0.00000000000E+00  0.00000000000E+00  0.31647224620E+03  0.31647224620E+03  0.00000000000E+00 0. -1.
         21   -1    0    0  501  502 -0.00000000000E+00 -0.00000000000E+00 -0.13124928541E+03  0.13124928541E+03  0.00000000000E+00 0.  1.
         21    1    1    2  503  502  0.52916906088E+02 -0.71514353422E+01 -0.12342909340E+03  0.13448450868E+03  0.00000000000E+00 0.  1.
         21    1    1    2  504  503 -0.52916906088E+02  0.71514353422E+01  0.30865205419E+03  0.31323702293E+03  0.00000000000E+00 0. -1.
</event>
<event>
 4    1  0.1551744E+006  0.2151269E+02  0.7546771E-02  0.1512069E+00
         21   -1    0    0  502  501  0.00000000000E+00  0.00000000000E+00  0.67805328261E+02  0.67805328261E+02  0.00000000000E+00 0. -1.
         21   -1    0    0  503  502 -0.00000000000E+00 -0.00000000000E+00 -0.81559421600E+01  0.81559421600E+01  0.00000000000E+00 0.  1.
         21    1    1    2  503  504 -0.20942361967E+02 -0.49207118997E+01  0.14483977042E+02  0.25934176703E+02  0.00000000000E+00 0.  1.
         21    1    1    2  504  501  0.20942361967E+02  0.49207118997E+01  0.45165409059E+02  0.50027093718E+02  0.00000000000E+00 0. -1.
</event>
<event>
 4    1  0.1551744E+006  0.6365390E+02  0.7546771E-02  0.1247899E+00
         21   -1    0    0  502  501  0.00000000000E+00  0.00000000000E+00  0.66624074535E+02  0.66624074535E+02  0.00000000000E+00 0. -1.
         21   -1    0    0  504  502 -0.00000000000E+00 -0.00000000000E+00 -0.55663655257E+03  0.55663655257E+03  0.00000000000E+00 0. -1.
         21    1    1    2  503  501 -0.53379281659E+02 -0.34676672885E+02  0.49107989413E+02  0.80395360420E+02  0.00000000000E+00 0. -1.
         21    1    1    2  504  503  0.53379281659E+02  0.34676672885E+02 -0.53912046745E+03  0.54286526669E+03  0.00000000000E+00 0. -1.
</event>
<event>
 4    1  0.1551744E+006  0.2419725E+02  0.7546771E-02  0.1477988E+00
         21   -1    0    0  502  501  0.00000000000E+00  0.00000000000E+00  0.64108896676E+03  0.64108896676E+03  0.00000000000E+00 0. -1.
         21   -1    0    0  504  502 -0.00000000000E+00 -0.00000000000E+00 -0.37260574274E+03  0.37260574274E+03  0.00000000000E+00 0. -1.
         21    1    1    2  503  501  0.18259550447E+02  0.15877518034E+02  0.64046741453E+03  0.64092434486E+03  0.00000000000E+00 0. -1.
         21    1    1    2  504  503 -0.18259550447E+02 -0.15877518034E+02 -0.37198419051E+03  0.37277036464E+03  0.00000000000E+00 0. -1.
</event>
<event>
 4    1  0.1551744E+006  0.2076641E+02  0.7546771E-02  0.1522626E+00
         21   -1    0    0  504  501  0.00000000000E+00  0.00000000000E+00  0.68824084655E+02  0.68824084655E+02  0.00000000000E+00 0.  1.
         21   -1    0    0  503  502 -0.00000000000E+00 -0.00000000000E+00 -0.11823861345E+03  0.11823861345E+03  0.00000000000E+00 0. -1.
         21    1    1    2  503  501 -0.20605787444E+02 -0.25778289712E+01  0.66312072699E+02  0.69487658357E+02  0.00000000000E+00 0.  1.
         21    1    1    2  504  502  0.20605787444E+02  0.25778289712E+01 -0.11572660149E+03  0.11757503975E+03  0.00000000000E+00 0. -1.
</event>
<event>
 4    1  0.1551744E+006  0.3958384E+02  0.7546771E-02  0.1350942E+00
         21   -1    0    0  504  501  0.00000000000E+00  0.00000000000E+00  0.30011857923E+02  0.30011857923E+02  0.00000000000E+00 0.  1.
         21   -1    0    0  501  502 -0.00000000000E+00 -0.00000000000E+00 -0.11859287653E+03  0.11859287653E+03  0.00000000000E+00 0.  1.
         21    1    1    2  503  502  0.36668501311E+02 -0.14909772056E+02 -0.99881653457E+02  0.10743940147E+03  0.00000000000E+00 0.  1.
         21    1    1    2  504  503 -0.36668501311E+02  0.14909772056E+02  0.11300634853E+02  0.41165332978E+02  0.00000000000E+00 0.  1.
</event>
<event>
 4    1  0.1551744E+006  0.2088667E+02  0.7546771E-02  0.1520889E+00
         21   -1    0    0  503  501  0.00000000000E+00  0.00000000000E+00  0.63217635247E+01  0.63217635247E+01  0.00000000000E+00 0.  1.
         21   -1    0    0  504  502 -0.00000000000E+00 -0.00000000000E+00 -0.73687093980E+03  0.73687093980E+03  0.00000000000E+00 0. -1.
         21    1    1    2  503  502 -0.11771556013E+02 -0.17253507217E+02 -0.11505926376E+02  0.23846160782E+02  0.00000000000E+00 0.  1.
         21    1    1    2  504  501  0.11771556013E+02  0.17253507217E+02 -0.71904324990E+03  0.71934654254E+03  0.00000000000E+00 0. -1.
</event>
<event>
 4    1  0.1551744E+006  0.2084758E+02  0.7546771E-02  0.1521452E+00
         21   -1    0    0  502  501  0.00000000000E+00  0.00000000000E+00  0.43722314266E+02  0.43722314266E+02  0.00000000000E+00 0. -1.
         21   -1    0    0  503  502 -0.00000000000E+00 -0.00000000000E+00 -0.24294480217E+03  0.24294480217E+03  0.00000000000E+00 0. -1.
         21    1    1    2  503  504  0.18218725041E+02 -0.10134087593E+02 -0.23998180836E+03  0.24088563680E+03  0.00000000000E+00 0. -1.
         21    1    1    2  504  501 -0.18218725041E+02  0.10134087593E+02  0.40759320456E+02  0.45781479634E+02  0.00000000000E+00 0. -1.
</event>
<event>
 4    1  0.1551744E+006  0.3669737E+02  0.7546771E-02  0.1369007E+00
         21   -1    0    0  504  501  0.00000000000E+00  0.00000000000E+00  0.21445646056E+03  0.21445646056E+03  0.00000000000E+00 0. -1.
         21   -1    0    0  503  502 -0.00000000000E+00 -0.00000000000E+00 -0.77457968332E+01  0.77457968332E+01  0.00000000000E+00 0. -1.
         21    1    1    2  503  501 -0.32265219549E+02  0.17482918404E+02  0.55017819690E+02  0.66133632230E+02  0.00000000000E+00 0. -1.
         21    1    1    2  504  502  0.32265219549E+02 -0.17482918404E+02  0.15169284404E+03  0.15606862517E+03  0.00000000000E+00 0. -1.
</event>
<event>
 4    1  0.1551744E+006  0.3321734E+02  0.7546771E-02  0.1393548E+00
         21   -1    0    0  503  501  0.00000000000E+00  0.00000000000E+00  0.21459591219E+02  0.21459591219E+02  0.00000000000E+00 0.  1.
         21   -1    0    0  501  502 -0.00000000000E+00 -0.00000000000E+00 -0.54093389667E+02  0.54093389667E+02  0.00000000000E+00 0.  1.
         21    1    1    2  503  504  0.32949638944E+02 -0.42086628739E+01 -0.79143703973E+01  0.34147163989E+02  0.00000000000E+00 0.  1.
         21    1    1    2  504  502 -0.32949638944E+02  0.42086628739E+01 -0.24719428051E+02  0.41405816897E+02  0.00000000000E+00 0.  1.
</event>
<event>
 4    1  0.1551744E+006  0.4102918E+02  0.7546771E-02  0.1342558E+00
         21   -1    0    0  502  501  0.00000000000E+00  0.00000000000E+00  0.43214900680E+03  0.43214900680E+03  0.00000000000E+00 0. -1.
         21   -1    0    0  504  502 -0.00000000000E+00 -0.00000000000E+00 -0.24946428847E+02  0.24946428847E+02  0.00000000000E+00 0. -1.
         21    1    1    2  503  501 -0.44269280412E+01  0.40789652923E+02  0.41354813492E+03  0.41557845634E+03  0.00000000000E+00 0. -1.
         21    1    1    2  504  503  0.44269280412E+01 -0.40789652923E+02 -0.63455569699E+01  0.41516979306E+02  0.00000000000E+00 0. -1.
</event>
<event>
 4    1  0.1551744E+006  0.2528118E+02  0.7546771E-02  0.1465682E+00
         21   -1    0    0  503  501  0.00000000000E+00  0.00000000000E+00  0.78776159352E+02  0.78776159352E+02  0.00000000000E+00 0. -1.
         21   -1    0    0  504  502 -0.00000000000E+00 -0.00000000000E+00 -0.55166023146E+03  0.55166023146E+03  0.00000000000E+00 0. -1.
         21    1    1    2  503  502  0.22833224670E+02 -0.10852740132E+02  0.76449594259E+02  0.80521292709E+02  0.00000000000E+00 0. -1.
         21    1    1    2  504  501 -0.22833224670E+02  0.10852740132E+02 -0.54933366637E+03  0.54991509811E+03  0.00000000000E+00 0. -1.
</event>
<event>
 4    1  0.1551744E+006  0.2137145E+02  0.7546771E-02  0.1514027E+00
         21   -1    0    0  502  501  0.00000000000E+00  0.00000000000E+00  0.21487044155E+03  0.21487044155E+03  0.00000000000E+00 0.  1.
         21   -1    0    0  503  502 -0.00000000000E+00 -0.00000000000E+00 -0.36701476906E+01  0.36701476906E+01  0.00000000000E+00 0.  1.
         21    1    1    2  503  504  0.33473982615E+01 -0.21107671457E+02  0.34715155326E+02  0.40766173217E+02  0.00000000000E+00 0.  1.
         21    1    1    2  504  501 -0.33473982615E+01  0.21107671457E+02  0.17648513854E+03  0.17777441603E+03  0.00000000000E+00 0.  1.
</event>
<event>
 4    1  0.1551744E+006  0.4811227E+02  0.7546771E-02  0.1306571E+00
         21   -1    0    0  504  501  0.00000000000E+00  0.00000000000E+00  0.62797334775E+02  0.62797334775E+02  0.00000000000E+00 0. -1.
         21   -1    0    0  503  502 -0.00000000000E+00 -0.00000000000E+00 -0.51802952216E+02  0.51802952216E+02  0.00000000000E+00 0.  1.
         21    1    1    2  503  501 -0.22926983513E+01 -0.48057607059E+02  0.36270775006E+02  0.60252462037E+02  0.00000000000E+00 0. -1.
         21    1    1    2  504  502  0.22926983513E+01  0.48057607059E+02 -0.25276392447E+02  0.54347824953E+02  0.00000000000E+00 0.  1.
</event>
<event>
 4    1  0.1551744E+006  0.2055488E+02  0.7546771E-02  0.1525716E+00
         21   -1    0    0  503  501  0.00000000000E+00  0.00000000000E+00  0.64083556380E+02  0.64083556380E+02  0.00000000000E+00 0.  1.
         21   -1    0    0  504  502 -0.00000000000E+00 -0.00000000000E+00 -0.98049548586E+01  0.98049548586E+01  0.00000000000E+00 0.  1.
         21    1    1    2  503  502  0.18102605664E+02 -0.97364649453E+01  0.59942548318E+01  0.21411075929E+02  0.00000000000E+00 0.  1.
         21    1    1    2  504  501 -0.18102605664E+02  0.97364649453E+01  0.48284346690E+02  0.52477435310E+02  0.00000000000E+00 0.  1.
</event>
<event>
 4    1  0.1551744E+006  0.5725121E+02  0.7546771E-02  0.1269469E+00
         21   -1    0    0  502  501  0.00000000000E+00  0.00000000000E+00  0.13046848697E+03  0.13046848697E+03  0.00000000000E+00 0.  1.
         21   -1    0    0  504  502 -0.00000000000E+00 -0.00000000000E+00 -0.97253313176E+02  0.97253313176E+02  0.00000000000E+00 0.  1.
         21    1    1    2  503  501 -0.14551521047E+02 -0.55371060017E+02  0.11466550633E+03  0.12816348697E+03  0.00000000000E+00 0.  1.
         21    1    1    2  504  503  0.14551521047E+02  0.55371060017E+02 -0.81450332532E+02  0.99558313173E+02  0.00000000000E+00 0.  1.
</event>
<event>
 4    1  0.1551744E+006  0.2502644E+02  0.7546771E-02  0.1468508E+00
         21   -1    0    0  503  501  0.00000000000E+00  0.00000000000E+00  0.31012481926E+02  0.31012481926E+02  0.00000000000E+00 0.  1.
         21   -1    0    0  504  502 -0.00000000000E+00 -0.00000000000E+00 -0.59370002052E+03  0.59370002052E+03  0.00000000000E+00 0. -1.
         21    1    1    2  503  502 -0.58705144412E+01  0.24328166608E+02 -0.58834136200E+03  0.58887339970E+03  0.00000000000E+00 0. -1.
         21    1    1    2  504  501  0.58705144412E+01 -0.24328166608E+02  0.25653823407E+02  0.35839102747E+02  0.00000000000E+00 0.  1.
</event>
<event>
 4    1  0.1551744E+006  0.2623789E+02  0.7546771E-02  0.1455418E+00
         21   -1    0    0  504  501  0.00000000000E+00  0.00000000000E+00  0.34493927624E+01  0.34493927624E+01  0.00000000000E+00 0. -1.
         21   -1    0    0  503  502 -0.00000000000E+00 -0.00000000000E+00 -0.34602773506E+03  0.34602773506E+03  0.00000000000E+00 0. -1.
         21    1    1    2  503  501  0.10954838881E+02 -0.23841529199E+02 -0.28496701811E+03  0.28617237536E+03  0.00000000000E+00 0. -1.
         21    1    1    2  504  502 -0.10954838881E+02  0.23841529199E+02 -0.57611324185E+02  0.63304752458E+02  0.00000000000E+00 0. -1.
</event>
<event>
 4    1  0.1551744E+006  0.2100397E+02  0.7546771E-02  0.1519208E+00
         21   -1    0    0  504  501  0.00000000000E+00  0.00000000000E+00  0.18735958878E+03  0.18735958878E+03  0.00000000000E+00 0. -1.
         21   -1    0    0  503  502 -0.00000000000E+00 -0.00000000000E+00 -0.15322348461E+02  0.15322348461E+02  0.00000000000E+00 0. -1.
         21    1    1    2  503  501 -0.13140328103E+02  0.16385929235E+02 -0.72109705578E+01  0.22207318522E+02  0.00000000000E+00 0. -1.
         21    1    1    2  504  502  0.13140328103E+02 -0.16385929235E+02  0.17924821088E+03  0.18047461872E+03  0.00000000000E+00 0. -1.
</event>
<event>
 4    1  0.1551744E+006  0.3338168E+02  0.7546771E-02  0.1392312E+00
         21   -1    0    0  504  501  0.00000000000E+00  0.00000000000E+00  0.35938873627E+02  0.35938873627E+02  0.00000000000E+00 0. -1.
         21   -1    0    0  503  502 -0.00000000000E+00 -0.00000000000E+00 -0.41301718948E+02  0.41301718948E+02  0.00000000000E+00 0. -1.
         21    1    1    2  503  501 -0.33039616254E+02  0.47665832929E+01 -0.21963356104E+02  0.39959048660E+02  0.00000000000E+00 0. -1.
         21    1    1    2  504  502  0.33039616254E+02 -0.47665832929E+01  0.16600510782E+02  0.37281543915E+02  0.00000000000E+00 0. -1.
</event>
<event>
 4    1  0.1551744E+006  0.2903776E+02  0.7546771E-02  0.1428147E+00
         21   -1    0    0  504  501  0.00000000000E+00  0.00000000000E+00  0.67821883537E+01  0.67821883537E+01  0.00000000000E+00 0. -1.
         21   -1    0    0  503  502 -0.00000000000E+00 -0.00000000000E+00 -0.22797526869E+03  0.22797526869E+03  0.00000000000E+00 0.  1.
         21    1    1    2  503  501  0.18911650195E+02 -0.22034989557E+02 -0.31449974672E+02  0.42805282206E+02  0.00000000000E+00 0. -1.
         21    1    1    2  504  502 -0.18911650195E+02  0.22034989557E+02 -0.18974310567E+03  0.19195217484E+03  0.00000000000E+00 0.  1.
</event>
<event>
 4    1  0.1551744E+006  0.2393593E+02  0.7546771E-02  0.1481068E+00
         21   -1    0    0  504  501  0.00000000000E+00  0.00000000000E+00  0.87455013451E+02  0.87455013451E+02  0.00000000000E+00 0. -1.
         21   -1    0    0  503  502 -0.00000000000E+00 -0.00000000000E+00 -0.16403166505E+02  0.16403166505E+02  0.00000000000E+00 0.  1.
         21    1    1    2  503  501 -0.17591167216E+02 -0.16232059036E+02 -0.47188916270E+01  0.24396656384E+02  0.00000000000E+00 0.  1.
         21    1    1    2  504  502  0.17591167216E+02  0.16232059036E+02  0.75770738573E+02  0.79461523572E+02  0.00000000000E+00 0. -1.
</event>
<event>
 4    1  0.1551744E+006  0.2531754E+02  0.7546771E-02  0.1465282E+00
         21   -1    0    0  503  501  0.00000000000E+00  0.00000000000E+00  0.26581213301E+02  0.26581213301E+02  0.00000000000E+00 0.  1.
         21   -1    0    0  504  502 -0.00000000000E+00 -0.00000000000E+00 -0.88518864721E+02  0.88518864721E+02  0.00000000000E+00 0. -1.
         21    1    1    2  503  502  0.25097073953E+02 -0.33338451722E+01  0.18120521927E+02  0.31134080355E+02  0.00000000000E+00 0.  1.
         21    1    1    2  504  501 -0.25097073953E+02  0.33338451722E+01 -0.80058173347E+02  0.83965997667E+02  0.00000000000E+00 0. -1.
</event>
<event>
 4    1  0.1551744E+006  0.2147443E+02  0.7546771E-02  0.1512598E+00
         21   -1    0    0  504  501  0.00000000000E+00  0.00000000000E+00  0.29519916082E+01  0.29519916082E+01  0.00000000000E+00 0. -1.
         21   -1    0    0  503  502 -0.00000000000E+00 -0.00000000000E+00 -0.18212180240E+03  0.18212180240E+03  0.00000000000E+00 0. -1.
         21    1    1    2  503  501 -0.17148461300E+02 -0.12926005540E+02 -0.54685027899E+02  0.58750349961E+02  0.00000000000E+00 0. -1.
         21    1    1    2  504  502  0.17148461300E+02  0.12926005540E+02 -0.12448478290E+03  0.12632344405E+03  0.00000000000E+00 0. -1.
</event>
<event>
 4    1  0.1551744E+006  0.2326461E+02  0.7546771E-02  0.1489202E+00
         21   -1    0    0  504  501  0.00000000000E+00  0.00000000000E+00  0.12269237420E+03  0.12269237420E+03  0.00000000000E+00 0. -1.
         21   -1    0    0  503  502 -0.00000000000E+00 -0.00000000000E+00 -0.10334428654E+02  0.10334428654E+02  0.00000000000E+00 0. -1.
         21    1    1    2  503  501  0.20608842651E+02 -0.10794335094E+02  0.10653352721E+03  0.10904418594E+03  0.00000000000E+00 0. -1.
         21    1    1    2  504  502 -0.20608842651E+02  0.10794335094E+02  0.58244183356E+01  0.23982616923E+02  0.00000000000E+00 0. -1.
</event>
<event>
 4    1  0.1551744E+006  0.2339955E+02  0.7546771E-02  0.1487541E+00
         21   -1    0    0  503  501  0.00000000000E+00  0.00000000000E+00  0.23298295917E+03  0.23298295917E+03  0.00000000000E+00 0.  1.
         21   -1    0    0  504  502 -0.00000000000E+00 -0.00000000000E+00 -0.31657661945E+01  0.31657661945E+01  0.00000000000E+00 0. -1.
         21    1    1    2  503  502  0.23399386937E+02  0.88423426805E-01  0.54975638965E+02  0.59748305477E+02  0.00000000000E+00 0. -1.
         21    1    1    2  504  501 -0.23399386937E+02 -0.88423426805E-01  0.17484155401E+03  0.17640041989E+03  0.00000000000E+00 0.  1.
</event>
<event>
 4    1  0.1551744E+006  0.2043267E+02  0.7546771E-02  0.1527521E+00
         21   -1    0    0  502  501  0.00000000000E+00  0.00000000000E+00  0.23802789568E+01  0.23802789568E+01  0.00000000000E+00 0.  1.
         21   -1    0    0  504  502 -0.00000000000E+00 -0.00000000000E+00 -0.18283284155E+03  0.18283284155E+03  0.00000000000E+00 0.  1.
         21    1    1    2  503  501 -0.16051575407E+01  0.20369520352E+02 -0.71550513654E+02  0.74410818396E+02  0.00000000000E+00 0.  1.
         21    1    1    2  504  503  0.16051575407E+01 -0.20369520352E+02 -0.10890204894E+03  0.11080230212E+03  0.00000000000E+00 0.  1.
</event>
<event>
 4    1  0.1551744E+006  0.5637840E+02  0.7546771E-02  0.1272660E+00
         21   -1    0    0  502  501  0.00000000000E+00  0.00000000000E+00  0.22578365270E+02  0.22578365270E+02  0.00000000000E+00 0.  1.
         21   -1    0    0  504  502 -0.00000000000E+00 -0.00000000000E+00 -0.14814046881E+03  0.14814046881E+03  0.00000000000E+00 0.  1.
         21    1    1    2  503  501 -0.54017266365E+02 -0.16144940926E+02 -0.43750858568E+02  0.71362888174E+02  0.00000000000E+00 0.  1.
         21    1    1    2  504  503  0.54017266365E+02  0.16144940926E+02 -0.81811244972E+02  0.99355945906E+02  0.00000000000E+00 0.  1.
</event>
<event>
 4    1  0.1551744E+006  0.3411434E+02  0.7546771E-02  0.1386899E+00
         21   -1    0    0  502  501  0.00000000000E+00  0.00000000000E+00  0.14877630684E+02  0.14877630684E+02  0.00000000000E+00 0.  1.
         21   -1    0    0  503  502 -0.00000000000E+00 -0.00000000000E+00 -0.22823990864E+03  0.22823990864E+03  0.00000000000E+00 0. -1.
         21    1    1    2  503  504  0.25466693881E+02 -0.22698807072E+02 -0.20523170151E+03  0.20804768599E+03  0.00000000000E+00 0. -1.
         21    1    1    2  504  501 -0.25466693881E+02  0.22698807072E+02 -0.81305764447E+01  0.35069853336E+02  0.00000000000E+00 0.  1.
</event>
<event>
 4    1  0.1551744E+006  0.2103214E+02  0.7546771E-02  0.1518806E+00
         21   -1    0    0  502  501  0.00000000000E+00  0.00000000000E+00  0.46338008004E+03  0.46338008004E+03  0.00000000000E+00 0.  1.
         21   -1    0    0  504  502 -0.00000000000E+00 -0.00000000000E+00 -0.31088077279E+01  0.31088077279E+01  0.00000000000E+00 0.  1.
         21    1    1    2  503  501  0.17642521155E+02  0.11449557642E+02  0.42429411479E+03  0.42481507361E+03  0.00000000000E+00 0.  1.
         21    1    1    2  504  503 -0.17642521155E+02 -0.11449557642E+02  0.35977157521E+02  0.41673814155E+02  0.00000000000E+00 0.  1.
</event>
<event>
 4    1  0.1551744E+006  0.2071148E+02  0.7546771E-02  0.1523424E+00
         21   -1    0    0  504  501  0.00000000000E+00  0.00000000000E+00  0.11438537034E+03  0.11438537034E+03  0.00000000000E+00 0.  1.
         21   -1    0    0  501  502 -0.00000000000E+00 -0.00000000000E+00 -0.95005033182E+01  0.95005033182E+01  0.00000000000E+00 0. -1.
         21    1    1    2  503  502  0.32728818492E+01  0.20451248660E+02  0.42515654207E+01  0.21143347319E+02  0.00000000000E+00 0. -1.
         21    1    1    2  504  503 -0.32728818492E+01 -0.20451248660E+02  0.10063330160E+03  0.10274252634E+03  0.00000000000E+00 0.  1.
</event>
<event>
 4    1  0.1551744E+006  0.2341007E+02  0.7546771E-02  0.1487412E+00
         21   -1    0    0  503  501  0.00000000000E+00  0.00000000000E+00  0.20035576423E+02  0.20035576423E+02  0.00000000000E+00 0.  1.
         21   -1    0    0  504  502 -0.00000000000E+00 -0.00000000000E+00 -0.12880235337E+03  0.12880235337E+03  0.00000000000E+00 0.  1.
         21    1    1    2  503  502  0.23066926440E+02  0.39935272294E+01  0.11662617022E+02  0.26154311134E+02  0.00000000000E+00 0.  1.
         21    1    1    2  504  501 -0.23066926440E+02 -0.39935272294E+01 -0.12042939397E+03  0.12268361866E+03  0.00000000000E+00 0.  1.
</event>
<event>
 4    1  0.1551744E+006  0.5195783E+02  0.7546771E-02  0.1289900E+00
         21   -1    0    0  504  501  0.00000000000E+00  0.00000000000E+00  0.28632310642E+03  0.28632310642E+03  0.00000000000E+00 0.  1.
         21   -1    0    0  503  502 -0.00000000000E+00 -0.00000000000E+00 -0.11613333393E+04  0.11613333393E+04  0.00000000000E+00 0. -1.
         21    1    1    2  503  501 -0.18833480181E+02  0.48424329042E+02 -0.11583890646E+04  0.11595537247E+04  0.00000000000E+00 0. -1.
         21    1    1    2  504  502  0.18833480181E+02 -0.48424329042E+02  0.28337883166E+03  0.28810272101E+03  0.00000000000E+00 0.  1.
</event>
<event>
 4    1  0.1551744E+006  0.2375775E+02  0.7546771E-02  0.1483196E+00
         21   -1    0    0  504  501  0.00000000000E+00  0.00000000000E+00  0.29068222919E+02  0.29068222919E+02  0.00000000000E+00 0. -1.
         21   -1    0    0  501  502 -0.00000000000E+00 -0.00000000000E+00 -0.73553580627E+02  0.73553580627E+02  0.00000000000E+00 0. -1.
         21    1    1    2  503  502  0.13982479172E+02 -0.19207312452E+02 -0.66262813799E+02  0.70393118044E+02  0.00000000000E+00 0. -1.
         21    1    1    2  504  503 -0.13982479172E+02  0.19207312452E+02  0.21777456091E+02  0.32228685502E+02  0.00000000000E+00 0. -1.
</event>
<event>
 4    1  0.1551744E+006  0.3872783E+02  0.7546771E-02  0.1356106E+00
         21   -1    0    0  503  501  0.00000000000E+00  0.00000000000E+00  0.41357102663E+03  0.41357102663E+03  0.00000000000E+00 0.  1.
         21   -1    0    0  501  502 -0.00000000000E+00 -0.00000000000E+00 -0.12362659399E+03  0.12362659399E+03  0.00000000000E+00 0.  1.
         21    1    1    2  503  504 -0.13442482770E+02 -0.36320023556E+02  0.40960204661E+03  0.41142882864E+03  0.00000000000E+00 0.  1.
         21    1    1    2  504  502  0.13442482770E+02  0.36320023556E+02 -0.11965761397E+03  0.12576879198E+03  0.00000000000E+00 0.  1.
</event>
<event>
 4    1  0.1551744E+006  0.2045034E+02  0.7546771E-02  0.1527259E+00
         21   -1    0    0  504  501  0.00000000000E+00  0.00000000000E+00  0.11113343799E+02  0.11113343799E+02  0.00000000000E+00 0. -1.
         21   -1    0    0  503  502 -0.00000000000E+00 -0.00000000000E+00 -0.38065130335E+02  0.38065130335E+02  0.00000000000E+00 0. -1.
         21    1    1    2  503  501  0.76328208676E+01 -0.18972514220E+02 -0.10852638474E+02  0.23151587679E+02  0.00000000000E+00 0. -1.
         21    1    1    2  504  502 -0.76328208676E+01  0.18972514220E+02 -0.16099148061E+02  0.26026886455E+02  0.00000000000E+00 0. -1.
</event>
<event>
 4    1  0.1551744E+006  0.2046334E+02  0.7546771E-02  0.1527067E+00
         21   -1    0    0  503  501  0.00000000000E+00  0.00000000000E+00  0.30899148793E+03  0.30899148793E+03  0.00000000000E+00 0.  1.
         21   -1    0    0  504  502 -0.00000000000E+00 -0.00000000000E+00 -0.25907681296E+02  0.25907681296E+02  0.00000000000E+00 0.  1.
         21    1    1    2  503  502 -0.11328095361E+02 -0.17041792704E+02  0.30455308851E+03  0.30523979453E+03  0.00000000000E+00 0.  1.
         21    1    1    2  504  501  0.11328095361E+02  0.17041792704E+02 -0.21469281877E+02  0.29659374696E+02  0.00000000000E+00 0.  1.
</event>
<event>
 4    1  0.1551744E+006  0.2866585E+02  0.7546771E-02  0.1431556E+00
         21   -1    0    0  504  501  0.00000000000E+00  0.00000000000E+00  0.14980519686E+02  0.14980519686E+02  0.00000000000E+00 0.  1.
         21   -1    0    0  503  502 -0.00000000000E+00 -0.00000000000E+00 -0.54971909677E+02  0.54971909677E+02  0.00000000000E+00 0.  1.
         21    1    1    2  503  501 -0.28665837642E+02 -0.28089410558E-01 -0.18371079131E+02  0.34047431404E+02  0.00000000000E+00 0.  1.
         21    1    1    2  504  502  0.28665837642E+02  0.28089410558E-01 -0.21620310860E+02  0.35904997959E+02  0.00000000000E+00 0.  1.
</event>
<event>
 4    1  0.1551744E+006  0.4606180E+02  0.7546771E-02  0.1316214E+00
         21   -1    0    0  504  501  0.00000000000E+00  0.00000000000E+00  0.61014642417E+02  0.61014642417E+02  0.00000000000E+00 0. -1.
         21   -1    0    0  503  502 -0.00000000000E+00 -0.00000000000E+00 -0.14412385165E+03  0.14412385165E+03  0.00000000000E+00 0.  1.
         21    1    1    2  503  501  0.45593414888E+02 -0.65521241202E+01 -0.13089737647E+03  0.13876531620E+03  0.00000000000E+00 0.  1.
         21    1    1    2  504  502 -0.45593414888E+02  0.65521241202E+01  0.47788167243E+02  0.66373177867E+02  0.00000000000E+00 0. -1.
</event>
<event>
 4    1  0.1551744E+006  0.2646341E+02  0.7546771E-02  0.1453074E+00
         21   -1    0    0  504  501  0.00000000000E+00  0.00000000000E+00  0.18169618581E+02  0.18169618581E+02  0.00000000000E+00 0.  1.
         21   -1    0    0  501  502 -0.00000000000E+00 -0.00000000000E+00 -0.66462945790E+02  0.66462945790E+02  0.00000000000E+00 0.  1.
         21    1    1    2  503  502 -0.23165908127E+02 -0.12792679005E+02 -0.51573445757E+02  0.57966647676E+02  0.00000000000E+00 0.  1.
         21    1    1    2  504  503  0.23165908127E+02  0.12792679005E+02  0.32801185492E+01  0.26665916695E+02  0.00000000000E+00 0.  1.
</event>
<event>
 4    1  0.1551744E+006  0.3548587E+02  0.7546771E-02  0.1377179E+00
         21   -1    0    0  503  501  0.00000000000E+00  0.00000000000E+00  0.35740243845E+02  0.35740243845E+02  0.00000000000E+00 0. -1.
         21   -1    0    0  504  502 -0.00000000000E+00 -0.00000000000E+00 -0.26451188729E+03  0.26451188729E+03  0.00000000000E+00 0. -1.
         21    1    1    2  503  502  0.16449993646E+02  0.31442723502E+02  0.25384589633E+02  0.43630545986E+02  0.00000000000E+00 0. -1.
         21    1    1    2  504  501 -0.16449993646E+02 -0.31442723502E+02 -0.25415623308E+03  0.25662158515E+03  0.00000000000E+00 0. -1.
</event>
<event>
 4    1  0.1551744E+006  0.2855429E+02  0.7546771E-02  0.1432590E+00
         21   -1    0    0  503  501  0.00000000000E+00  0.00000000000E+00  0.54152925455E+02  0.54152925455E+02  0.00000000000E+00 0.  1.
         21   -1    0    0  504  502 -0.00000000000E+00 -0.00000000000E+00 -0.18539853605E+02  0.18539853605E+02  0.00000000000E+00 0.  1.
         21    1    1    2  503  502 -0.20615052488E+02 -0.19757706173E+02  0.33561376825E+02  0.44064876679E+02  0.00000000000E+00 0.  1.
         21    1    1    2  504  501  0.20615052488E+02  0.19757706173E+02  0.20516950253E+01  0.28627902382E+02  0.00000000000E+00 0.  1.
</event>
<event>
 4    1  0.1551744E+006  0.2212977E+02  0.7546771E-02  0.1503725E+00
         21   -1    0    0  503  501  0.00000000000E+00  0.00000000000E+00  0.48224056199E+03  0.48224056199E+03  0.00000000000E+00 0. -1.
         21   -1    0    0  504  502 -0.00000000000E+00 -0.00000000000E+00 -0.13707599569E+01  0.13707599569E+01  0.00000000000E+00 0. -1.
         21    1    1    2  503  502 -0.78755338010E+01 -0.20680970784E+02  0.36353108013E+03  0.36420402634E+03  0.00000000000E+00 0. -1.
         21    1    1    2  504  501  0.78755338010E+01  0.20680970784E+02  0.11733872191E+03  0.11940729561E+03  0.00000000000E+00 0. -1.
</event>
<event>
 4    1  0.1551744E+006  0.2337456E+02  0.7546771E-02  0.1487848E+00
         21   -1    0    0  503  501  0.00000000000E+00  0.00000000000E+00  0.52361710183E+01  0.52361710183E+01  0.00000000000E+00 0.  1.
         21   -1    0    0  504  502 -0.00000000000E+00 -0.00000000000E+00 -0.46000192570E+03  0.46000192570E+03  0.00000000000E+00 0.  1.
         21    1    1    2  503  502  0.77482671571E+01  0.22052987518E+02 -0.22841632875E+02  0.32681953656E+02  0.00000000000E+00 0.  1.
         21    1    1    2  504  501 -0.77482671571E+01 -0.22052987518E+02 -0.43192412181E+03  0.43255614307E+03  0.00000000000E+00 0.  1.
</event>
<event>
 4    1  0.1551744E+006  0.2059325E+02  0.7546771E-02  0.1525152E+00
         21   -1    0    0  503  501  0.00000000000E+00  0.00000000000E+00  0.21843530542E+02  0.21843530542E+02  0.00000000000E+00 0.  1.
         21   -1    0    0  504  502 -0.00000000000E+00 -0.00000000000E+00 -0.14583771889E+03  0.14583771889E+03  0.00000000000E+00 0. -1.
         21    1    1    2  503  502  0.13990621915E+02 -0.15111071828E+02  0.16063694664E+02  0.26117509062E+02  0.00000000000E+00 0.  1.
         21    1    1    2  504  501 -0.13990621915E+02  0.15111071828E+02 -0.14005788302E+03  0.14156374037E+03  0.00000000000E+00 0. -1.
</event>
<event>
 4    1  0.1551744E+006  0.2165864E+02  0.7546771E-02  0.1510065E+00
         21   -1    0    0  503  501  0.00000000000E+00  0.00000000000E+00  0.17486186546E+03  0.17486186546E+03  0.00000000000E+00 0.  1.
         21   -1    0    0  504  502 -0.00000000000E+00 -0.00000000000E+00 -0.37777366962E+01  0.37777366962E+01  0.00000000000E+00 0.  1.
         21    1    1    2  503  502  0.18029360539E+02 -0.12001614461E+02  0.13363178919E+03  0.13537559482E+03  0.00000000000E+00 0.  1.
         21    1    1    2  504  501 -0.18029360539E+02  0.12001614461E+02  0.37452339576E+02  0.43264007337E+02  0.00000000000E+00 0.  1.
</event>
<event>
 4    1  0.1551744E+006  0.2869638E+02  0.7546771E-02  0.1431274E+00
         21   -1    0    0  503  501  0.00000000000E+00  0.00000000000E+00  0.16404930276E+02  0.16404930276E+02  0.00000000000E+00 0.  1.
         21   -1    0    0  504  502 -0.00000000000E+00 -0.00000000000E+00 -0.19478372995E+03  0.19478372995E+03  0.00000000000E+00 0.  1.
         21    1    1    2  503  502 -0.11003665105E+02 -0.26502855334E+02 -0.18016567243E+03  0.18243670549E+03  0.00000000000E+00 0.  1.
         21    1    1    2  504  501  0.11003665105E+02  0.26502855334E+02  0.17868727634E+01  0.28751954732E+02  0.00000000000E+00 0.  1.
</event>
<event>
 4    1  0.1551744E+006  0.2013516E+02  0.7546771E-02  0.1531980E+00
         21   -1    0    0  504  501  0.00000000000E+00  0.00000000000E+00  0.49199165371E+03  0.49199165371E+03  0.00000000000E+00 0.  1.
         21   -1    0    0  503  502 -0.00000000000E+00 -0.00000000000E+00 -0.26299501227E+01  0.26299501227E+01  0.00000000000E+00 0.  1.
         21    1    1    2  503  501  0.74721204617E+01 -0.18697379998E+02  0.39745695688E+02  0.44554965253E+02  0.00000000000E+00 0.  1.
         21    1    1    2  504  502 -0.74721204617E+01  0.18697379998E+02  0.44961600789E+03  0.45006663858E+03  0.00000000000E+00 0.  1.
</event>
<event>
 4    1  0.1551744E+006  0.2365535E+02  0.7546771E-02  0.1484429E+00
         21   -1    0    0  503  501  0.00000000000E+00  0.00000000000E+00  0.31174889544E+03  0.31174889544E+03  0.00000000000E+00 0.  1.
         21   -1    0    0  504  502 -0.00000000000E+00 -0.00000000000E+00 -0.43132972686E+02  0.43132972686E+02  0.00000000000E+00 0.  1.
         21    1    1    2  503  502  0.17978648938E+01  0.23586933221E+02  0.30801760718E+03  0.30892462199E+03  0.00000000000E+00 0.  1.
         21    1    1    2  504  501 -0.17978648938E+01 -0.23586933221E+02 -0.39401684427E+02  0.45957246138E+02  0.00000000000E+00 0.  1.
</event>
<event>
 4    1  0.1551744E+006  0.2030673E+02  0.7546771E-02  0.1529397E+00
         21   -1    0    0  503  501  0.00000000000E+00  0.00000000000E+00  0.12970715241E+02  0.12970715241E+02  0.00000000000E+00 0. -1.
         21   -1    0    0  504  502 -0.00000000000E+00 -0.00000000000E+00 -0.15866061489E+03  0.15866061489E+03  0.00000000000E+00 0. -1.
         21    1    1    2  503  502  0.25099795615E+01  0.20151014036E+02 -0.14958274526E+03  0.15095483113E+03  0.00000000000E+00 0. -1.
         21    1    1    2  504  501 -0.25099795615E+01 -0.20151014036E+02  0.38928456034E+01  0.20676499001E+02  0.00000000000E+00 0. -1.
</event>
<event>
 4    1  0.1551744E+006  0.2111138E+02  0.7546771E-02  0.1517680E+00
         21   -1    0    0  503  501  0.00000000000E+00  0.00000000000E+00  0.49082121582E+02  0.49082121582E+02  0.00000000000E+00 0. -1.
         21   -1    0    0  504  502 -0.00000000000E+00 -0.00000000000E+00 -0.15636790752E+02  0.15636790752E+02  0.00000000000E+00 0.  1.
         21    1    1    2  503  502 -0.16357048957E+02  0.13346808460E+02  0.37676157333E+02  0.43187766532E+02  0.00000000000E+00 0. -1.
         21    1    1    2  504  501  0.16357048957E+02 -0.13346808460E+02 -0.42308265032E+01  0.21531145802E+02  0.00000000000E+00 0.  1.
</event>
<event>
 4    1  0.1551744E+006  0.2086832E+02  0.7546771E-02  0.1521153E+00
         21   -1    0    0  504  501  0.00000000000E+00  0.00000000000E+00  0.14323730242E+03  0.14323730242E+03  0.00000000000E+00 0.  1.
         21   -1    0    0  503  502 -0.00000000000E+00 -0.00000000000E+00 -0.96596292580E+01  0.96596292580E+01  0.00000000000E+00 0. -1.
         21    1    1    2  503  501  0.20241608171E+02 -0.50758171456E+01  0.13007299689E+03  0.13173636985E+03  0.00000000000E+00 0.  1.
         21    1    1    2  504  502 -0.20241608171E+02  0.50758171456E+01  0.35046762685E+01  0.21160561826E+02  0.00000000000E+00 0. -1.
</event>
<event>
 4    1  0.1551744E+006  0.2327783E+02  0.7546771E-02  0.1489039E+00
         21   -1    0    0  502  501  0.00000000000E+00  0.00000000000E+00  0.42291941854E+01  0.42291941854E+01  0.00000000000E+00 0. -1.
         21   -1    0    0  504  502 -0.00000000000E+00 -0.00000000000E+00 -0.20691952589E+03  0.20691952589E+03  0.00000000000E+00 0.  1.
         21    1    1    2  503  501 -0.20625948930E+02 -0.10790172788E+02 -0.36195694520E+02  0.43034705760E+02  0.00000000000E+00 0. -1.
         21    1    1    2  504  503  0.20625948930E+02  0.10790172788E+02 -0.16649463718E+03  0.16811401431E+03  0.00000000000E+00 0.  1.
</event>
<event>
 4    1  0.1551744E+006  0.2721798E+02  0.7546771E-02  0.1445431E+00
         21   -1    0    0  504  501  0.00000000000E+00  0.00000000000E+00  0.73029787366E+02  0.73029787366E+02  0.00000000000E+00 0.  1.
         21   -1    0    0  503  502 -0.00000000000E+00 -0.00000000000E+00 -0.75073854148E+02  0.75073854148E+02  0.00000000000E+00 0.  1.
         21    1    1    2  503  501  0.20265107878E+02  0.18169865298E+02  0.67845320371E+02  0.73101341291E+02  0.00000000000E+00 0.  1.
         21    1    1    2  504  502 -0.20265107878E+02 -0.18169865298E+02 -0.69889387152E+02  0.75002300223E+02  0.00000000000E+00 0.  1.
</event>
<event>
 4    1  0.1551744E+006  0.2067739E+02  0.7546771E-02  0.1523921E+00
         21   -1    0    0  504  501  0.00000000000E+00  0.00000000000E+00  0.40260356675E+02  0.40260356675E+02  0.00000000000E+00 0.  1.
         21   -1    0    0  503  502 -0.00000000000E+00 -0.00000000000E+00 -0.21815541686E+02  0.21815541686E+02  0.00000000000E+00 0. -1.
         21    1    1    2  503  501  0.50491265053E+01 -0.20051458016E+02 -0.13012614050E+02  0.24431184405E+02  0.00000000000E+00 0. -1.
         21    1    1    2  504  502 -0.50491265053E+01  0.20051458016E+02  0.31457429040E+02  0.37644713956E+02  0.00000000000E+00 0.  1.
</event>
<event>
 4    1  0.1551744E+006  0.2994708E+02  0.7546771E-02  0.1420057E+00
         21   -1    0    0  502  501  0.00000000000E+00  0.00000000000E+00  0.61259429190E+03  0.61259429190E+03  0.00000000000E+00 0. -1.
         21   -1    0    0  503  502 -0.00000000000E+00 -0.00000000000E+00 -0.25350333142E+02  0.25350333142E+02  0.00000000000E+00 0. -1.
         21    1    1    2  503  504  0.89019137864E+01 -0.28593412616E+02 -0.16003044635E+02  0.33954745643E+02  0.00000000000E+00 0. -1.
         21    1    1    2  504  501 -0.89019137864E+01  0.28593412616E+02  0.60324700340E+03  0.60398987940E+03  0.00000000000E+00 0. -1.
</event>
<event>
 4    1  0.1551744E+006  0.3702563E+02  0.7546771E-02  0.1366856E+00
         21   -1    0    0  502  501  0.00000000000E+00  0.00000000000E+00  0.28041709917E+03  0.28041709917E+03  0.00000000000E+00 0.  1.
         21   -1    0    0  503  502 -0.00000000000E+00 -0.00000000000E+00 -0.52611086030E+01  0.52611086030E+01  0.00000000000E+00 0.  1.
         21    1    1    2  503  504  0.12766978767E+01 -0.37003615513E+02  0.99579039865E+02  0.10623974162E+03  0.00000000000E+00 0.  1.
         21    1    1    2  504  501 -0.12766978767E+01  0.37003615513E+02  0.17557695070E+03  0.17943846616E+03  0.00000000000E+00 0.  1.
</event>
<event>
 4    1  0.1551744E+006  0.3599419E+02  0.7546771E-02  0.1373705E+00
         21   -1    0    0  503  501  0.00000000000E+00  0.00000000000E+00  0.12509470314E+03  0.12509470314E+03  0.00000000000E+00 0.  1.
         21   -1    0    0  504  502 -0.00000000000E+00 -0.00000000000E+00 -0.16888534315E+02  0.16888534315E+02  0.00000000000E+00 0. -1.
         21    1    1    2  503  502  0.32849827217E+02  0.14712939878E+02  0.98252515126E+02  0.10463813108E+03  0.00000000000E+00 0.  1.
         21    1    1    2  504  501 -0.32849827217E+02 -0.14712939878E+02  0.99536537022E+01  0.37345106374E+02  0.00000000000E+00 0. -1.
</event>
<event>
 4    1  0.1551744E+006  0.3115002E+02  0.7546771E-02  0.1409859E+00
         21   -1    0    0  502  501  0.00000000000E+00  0.00000000000E+00  0.87164284795E+02  0.87164284795E+02  0.00000000000E+00 0.  1.
         21   -1    0    0  503  502 -0.00000000000E+00 -0.00000000000E+00 -0.17585316761E+03  0.17585316761E+03  0.00000000000E+00 0.  1.
         21    1    1    2  503  504 -0.19176010861E+02 -0.24547995789E+02 -0.17162263944E+03  0.17442664320E+03  0.00000000000E+00 0.  1.
         21    1    1    2  504  501  0.19176010861E+02  0.24547995789E+02  0.82933756619E+02  0.88590809211E+02  0.00000000000E+00 0.  1.
</event>
<event>
 4    1  0.1551744E+006  0.2564500E+02  0.7546771E-02  0.1461715E+00
         21   -1    0    0  503  501  0.00000000000E+00  0.00000000000E+00  0.48949170861E+01  0.48949170861E+01  0.00000000000E+00 0.  1.
         21   -1    0    0  504  502 -0.00000000000E+00 -0.00000000000E+00 -0.56372797727E+03  0.56372797727E+03  0.00000000000E+00 0.  1.
         21    1    1    2  503  502  0.25235418789E+02  0.45650665324E+01 -0.31288451264E+02  0.40455325687E+02  0.00000000000E+00 0.  1.
         21    1    1    2  504  501 -0.25235418789E+02 -0.45650665324E+01 -0.52754460892E+03  0.52816756867E+03  0.00000000000E+00 0.  1.
</event>
<event>
 4    1  0.1551744E+006  0.2367911E+02  0.7546771E-02  0.1484142E+00
         21   -1    0    0  503  501  0.00000000000E+00  0.00000000000E+00  0.35474319594E+02  0.35474319594E+02  0.00000000000E+00 0.  1.
         21   -1    0    0  501  502 -0.00000000000E+00 -0.00000000000E+00 -0.16193753219E+02  0.16193753219E+02  0.00000000000E+00 0.  1.
         21    1    1    2  503  504  0.23326661963E+02 -0.40702568880E+01  0.13638863661E+02  0.27326155080E+02  0.00000000000E+00 0.  1.
         21    1    1    2  504  502 -0.23326661963E+02  0.40702568880E+01  0.56417027139E+01  0.24341917734E+02  0.00000000000E+00 0.  1.
</event>
<event>
 4    1  0.1551744E+006  0.2272665E+02  0.7546771E-02  0.1495959E+00
         21   -1    0    0  504  501  0.00000000000E+00  0.00000000000E+00  0.12528197634E+02  0.12528197634E+02  0.00000000000E+00 0. -1.
         21   -1    0    0  503  502 -0.00000000000E+00 -0.00000000000E+00 -0.11168475810E+03  0.11168475810E+03  0.00000000000E+00 0.  1.
         21    1    1    2  503  501  0.22605037662E+02 -0.23479136476E+01 -0.24905972821E+00  0.22728010405E+02  0.00000000000E+00 0. -1.
         21    1    1    2  504  502 -0.22605037662E+02  0.23479136476E+01 -0.98907500740E+02  0.10148494533E+03  0.00000000000E+00 0.  1.
</event>
<event>
 4    1  0.1551744E+006  0.3236694E+02  0.7546771E-02  0.1400084E+00
         21   -1    0    0  504  501  0.00000000000E+00  0.00000000000E+00  0.76351299174E+02  0.76351299174E+02  0.00000000000E+00 0.  1.
         21   -1    0    0  503  502 -0.00000000000E+00 -0.00000000000E+00 -0.81553289732E+02  0.81553289732E+02  0.00000000000E+00 0.  1.
         21    1    1    2  503  501 -0.66036695635E+01  0.31686120894E+02 -0.74605910910E+02  0.81324416086E+02  0.00000000000E+00 0.  1.
         21    1    1    2  504  502  0.66036695635E+01 -0.31686120894E+02  0.69403920351E+02  0.76580172820E+02  0.00000000000E+00 0.  1.
</event>
<event>
 4    1  0.1551744E+006  0.3978636E+02  0.7546771E-02  0.1349742E+00
         21   -1    0    0  503  501  0.00000000000E+00  0.00000000000E+00  0.53319282071E+02  0.53319282071E+02  0.00000000000E+00 0. -1.
         21   -1    0    0  504  502 -0.00000000000E+00 -0.00000000000E+00 -0.44428404720E+02  0.44428404720E+02  0.00000000000E+00 0. -1.
         21    1    1    2  503  502 -0.56487008891E+01 -0.39383327325E+02 -0.23705810736E+02  0.46313278394E+02  0.00000000000E+00 0. -1.
         21    1    1    2  504  501  0.56487008891E+01  0.39383327325E+02  0.32596688087E+02  0.51434408397E+02  0.00000000000E+00 0. -1.
</event>
<event>
 4    1  0.1551744E+006  0.2395976E+02  0.7546771E-02  0.1480786E+00
         21   -1    0    0  503  501  0.00000000000E+00  0.00000000000E+00  0.21528360886E+03  0.21528360886E+03  0.00000000000E+00 0. -1.
         21   -1    0    0  501  502 -0.00000000000E+00 -0.00000000000E+00 -0.30171151683E+02  0.30171151683E+02  0.00000000000E+00 0.  1.
         21    1    1    2  503  504  0.23194992445E+02 -0.60051815294E+01  0.20973474705E+03  0.21109887257E+03  0.00000000000E+00 0. -1.
         21    1    1    2  504  502 -0.23194992445E+02  0.60051815294E+01 -0.24622289875E+02  0.34355887973E+02  0.00000000000E+00 0.  1.
</event>
<event>
 4    1  0.1551744E+006  0.2229038E+02  0.7546771E-02  0.1501606E+00
         21   -1    0    0  504  501  0.00000000000E+00  0.00000000000E+00  0.91679822174E+03  0.91679822174E+03  0.00000000000E+00 0. -1.
         21   -1    0    0  503  502 -0.00000000000E+00 -0.00000000000E+00 -0.80710051279E+00  0.80710051279E+00  0.00000000000E+00 0. -1.
         21    1    1    2  503  501 -0.18845642923E+02  0.11903898377E+02  0.72096563893E+03  0.72131013688E+03  0.00000000000E+00 0. -1.
         21    1    1    2  504  502  0.18845642923E+02 -0.11903898377E+02  0.19502548230E+03  0.19629518537E+03  0.00000000000E+00 0. -1.
</event>
<event>
 4    1  0.1551744E+006  0.3045185E+02  0.7546771E-02  0.1415710E+00
         21   -1    0    0  502  501  0.00000000000E+00  0.00000000000E+00  0.38302236690E+02  0.38302236690E+02  0.00000000000E+00 0.  1.
         21   -1    0    0  503  502 -0.00000000000E+00 -0.00000000000E+00 -0.42049933983E+02  0.42049933983E+02  0.00000000000E+00 0. -1.
         21    1    1    2  503  504 -0.77302872086E+01  0.29454330760E+02 -0.28042173739E+02  0.41396599484E+02  0.00000000000E+00 0. -1.
         21    1    1    2  504  501  0.77302872086E+01 -0.29454330760E+02  0.24294476446E+02  0.38955571189E+02  0.00000000000E+00 0.  1.
</event>
<event>
 4    1  0.1551744E+006  0.3370789E+02  0.7546771E-02  0.1389882E+00
         21   -1    0    0  504  501  0.00000000000E+00  0.00000000000E+00  0.62831042619E+01  0.62831042619E+01  0.00000000000E+00 0.  1.
         21   -1    0    0  503  502 -0.00000000000E+00 -0.00000000000E+00 -0.27462959012E+03  0.27462959012E+03  0.00000000000E+00 0. -1.
         21    1    1    2  503  501  0.15142889157E+02 -0.30115028232E+02 -0.21625570760E+03  0.21886697578E+03  0.00000000000E+00 0. -1.
         21    1    1    2  504  502 -0.15142889157E+02  0.30115028232E+02 -0.52090778263E+02  0.62045718607E+02  0.00000000000E+00 0.  1.
</event>
<event>
 4    1  0.1551744E+006  0.2525446E+02  0.7546771E-02  0.1465977E+00
         21   -1    0    0  504  501  0.00000000000E+00  0.00000000000E+00  0.77433529498E+02  0.77433529498E+02  0.00000000000E+00 0.  1.
         21   -1    0    0  503  502 -0.00000000000E+00 -0.00000000000E+00 -0.86778746218E+01  0.86778746218E+01  0.00000000000E+00 0.  1.
         21    1    1    2  503  501 -0.25172586101E+02 -0.20318603416E+01  0.44087123711E+02  0.50808090149E+02  0.00000000000E+00 0.  1.
         21    1    1    2  504  502  0.25172586101E+02  0.20318603416E+01  0.24668531165E+02  0.35303313971E+02  0.00000000000E+00 0.  1.
</event>
<event>
 4    1  0.1551744E+006  0.2074573E+02  0.7546771E-02  0.1522926E+00
         21   -1    0    0  503  501  0.00000000000E+00  0.00000000000E+00  0.67291927555E+02  0.67291927555E+02  0.00000000000E+00 0. -1.
         21   -1    0    0  504  502 -0.00000000000E+00 -0.00000000000E+00 -0.16113129065E+03  0.16113129065E+03  0.00000000000E+00 0.  1.
         21    1    1    2  503  502  0.19186826478E+02  0.78899363058E+01  0.65002271986E+02  0.68232549187E+02  0.00000000000E+00 0. -1.
         21    1    1    2  504  501 -0.19186826478E+02 -0.78899363058E+01 -0.15884163509E+03  0.16019066902E+03  0.00000000000E+00 0.  1.
</event>
<event>
 4    1  0.1551744E+006  0.2327232E+02  0.7546771E-02  0.1489107E+00
         21   -1    0    0  504  501  0.00000000000E+00  0.00000000000E+00  0.23215975120E+03  0.23215975120E+03  0.00000000000E+00 0.  1.
         21   -1    0    0  503  502 -0.00000000000E+00 -0.00000000000E+00 -0.66937419211E+01  0.66937419211E+01  0.00000000000E+00 0.  1.
         21    1    1    2  503  501 -0.90476075483E+01 -0.21441590153E+02  0.16338282681E+02  0.28434846080E+02  0.00000000000E+00 0.  1.
         21    1    1    2  504  502  0.90476075483E+01  0.21441590153E+02  0.20912772660E+03  0.21041864704E+03  0.00000000000E+00 0.  1.
</event>
<event>
 4    1  0.1551744E+006  0.2533233E+02  0.7546771E-02  0.1465120E+00
         21   -1    0    0  504  501  0.00000000000E+00  0.00000000000E+00  0.27004624492E+03  0.27004624492E+03  0.00000000000E+00 0. -1.
         21   -1    0    0  503  502 -0.00000000000E+00 -0.00000000000E+00 -0.38093373022E+01  0.38093373022E+01  0.00000000000E+00 0. -1.
         21    1    1    2  503  501 -0.18165367451E+02 -0.17656343247E+02  0.49136383099E+02  0.55282105383E+02  0.00000000000E+00 0. -1.
         21    1    1    2  504  502  0.18165367451E+02  0.17656343247E+02  0.21710052452E+03  0.21857347684E+03  0.00000000000E+00 0. -1.
</event>
<event>
 4    1  0.1551744E+006  0.3221763E+02  0.7546771E-02  0.1401256E+00
         21   -1    0    0  503  501  0.00000000000E+00  0.00000000000E+00  0.48937746937E+01  0.48937746937E+01  0.00000000000E+00 0. -1.
         21   -1    0    0  501  502 -0.00000000000E+00 -0.00000000000E+00 -0.26290321153E+03  0.26290321153E+03  0.00000000000E+00 0. -1.
         21    1    1    2  503  504 -0.32149201317E+02  0.20987113623E+01 -0.70145027103E+02  0.77190028903E+02  0.00000000000E+00 0. -1.
         21    1    1    2  504  502  0.32149201317E+02 -0.20987113623E+01 -0.18786440973E+03  0.19060695732E+03  0.00000000000E+00 0. -1.
</event>
<event>
 4    1  0.1551744E+006  0.2064343E+02  0.7546771E-02  0.1524417E+00
         21   -1    0    0  504  501  0.00000000000E+00  0.00000000000E+00  0.20299700064E+04  0.20299700064E+04  0.00000000000E+00 0.  1.
         21   -1    0    0  501  502 -0.00000000000E+00 -0.00000000000E+00 -0.25963709426E+00  0.25963709426E+00  0.00000000000E+00 0. -1.
         21    1    1    2  503  502  0.20134623631E+02  0.45550013392E+01  0.57069251211E+03  0.57106575321E+03  0.00000000000E+00 0. -1.
         21    1    1    2  504  503 -0.20134623631E+02 -0.45550013392E+01  0.14590178572E+04  0.14591638903E+04  0.00000000000E+00 0.  1.
</event>
<event>
 4    1  0.1551744E+006  0.2350749E+02  0.7546771E-02  0.1486222E+00
         21   -1    0    0  503  501  0.00000000000E+00  0.00000000000E+00  0.10438230298E+03  0.10438230298E+03  0.00000000000E+00 0.  1.
         21   -1    0    0  501  502 -0.00000000000E+00 -0.00000000000E+00 -0.91871033045E+01  0.91871033045E+01  0.00000000000E+00 0.  1.
         21    1    1    2  503  504 -0.21694552304E+02  0.90525332828E+01  0.84562448304E+02  0.87769069846E+02  0.00000000000E+00 0.  1.
         21    1    1    2  504  502  0.21694552304E+02 -0.90525332828E+01  0.10632751369E+02  0.25800336436E+02  0.00000000000E+00 0.  1.
</event>
<event>
 4    1  0.1551744E+006  0.2202352E+02  0.7546771E-02  0.1505138E+00
         21   -1    0    0  503  501  0.00000000000E+00  0.00000000000E+00  0.23580494560E+01  0.23580494560E+01  0.00000000000E+00 0.  1.
         21   -1    0    0  504  502 -0.00000000000E+00 -0.00000000000E+00 -0.21378615717E+03  0.21378615717E+03  0.00000000000E+00 0.  1.
         21    1    1    2  503  502  0.17608671267E+02 -0.13227635349E+02 -0.12674056252E+03  0.12863982987E+03  0.00000000000E+00 0.  1.
         21    1    1    2  504  501 -0.17608671267E+02  0.13227635349E+02 -0.84687545191E+02  0.87504376754E+02  0.00000000000E+00 0.  1.
</event>
<event>
 4    1  0.1551744E+006  0.2135396E+02  0.7546771E-02  0.1514271E+00
         21   -1    0    0  504  501  0.00000000000E+00  0.00000000000E+00  0.18585079502E+02  0.18585079502E+02  0.00000000000E+00 0.  1.
         21   -1    0    0  503  502 -0.00000000000E+00 -0.00000000000E+00 -0.26162211907E+02  0.26162211907E+02  0.00000000000E+00 0. -1.
         21    1    1    2  503  501 -0.76714527496E+01 -0.19928384349E+02 -0.93677800418E+01  0.23318383155E+02  0.00000000000E+00 0. -1.
         21    1    1    2  504  502  0.76714527496E+01  0.19928384349E+02  0.17906476367E+01  0.21428908255E+02  0.00000000000E+00 0.  1.
</event>
<event>
 4    1  0.1551744E+006  0.2289047E+02  0.7546771E-02  0.1493878E+00
         21   -1    0    0  504  501  0.00000000000E+00  0.00000000000E+00  0.86396994414E+02  0.86396994414E+02  0.00000000000E+00 0. -1.
         21   -1    0    0  503  502 -0.00000000000E+00 -0.00000000000E+00 -0.66096386747E+01  0.66096386747E+01  0.00000000000E+00 0. -1.
         21    1    1    2  503  501 -0.18952146201E+02 -0.12837046395E+02  0.53246122774E+02  0.57957943340E+02  0.00000000000E+00 0. -1.
         21    1    1    2  504  502  0.18952146201E+02  0.12837046395E+02  0.26541232965E+02  0.35048689748E+02  0.00000000000E+00 0. -1.
</event>
<event>
 4    1  0.1551744E+006  0.2273171E+02  0.7546771E-02  0.1495895E+00
         21   -1    0    0  503  501  0.00000000000E+00  0.00000000000E+00  0.90400522491E+01  0.90400522491E+01  0.00000000000E+00 0.  1.
         21   -1    0    0  504  502 -0.00000000000E+00 -0.00000000000E+00 -0.64908573965E+02  0.64908573965E+02  0.00000000000E+00 0.  1.
         21    1    1    2  503  502  0.20285032623E+02  0.10259038668E+02 -0.40709138804E+02  0.46625791201E+02  0.00000000000E+00 0.  1.
         21    1    1    2  504  501 -0.20285032623E+02 -0.10259038668E+02 -0.15159382912E+02  0.27322835013E+02  0.00000000000E+00 0.  1.
</event>
<event>
 4    1  0.1551744E+006  0.2239763E+02  0.7546771E-02  0.1500204E+00
         21   -1    0    0  503  501  0.00000000000E+00  0.00000000000E+00  0.39030989549E+03  0.39030989549E+03  0.00000000000E+00 0. -1.
         21   -1    0    0  504  502 -0.00000000000E+00 -0.00000000000E+00 -0.14536954703E+02  0.14536954703E+02  0.00000000000E+00 0. -1.
         21    1    1    2  503  502  0.22365874589E+02  0.11922795822E+01 -0.53813664811E+01  0.23035038137E+02  0.00000000000E+00 0. -1.
         21    1    1    2  504  501 -0.22365874589E+02 -0.11922795822E+01  0.38115430727E+03  0.38181181206E+03  0.00000000000E+00 0. -1.
</event>
<event>
 4    1  0.1551744E+006  0.2075469E+02  0.7546771E-02  0.1522796E+00
         21   -1    0    0  504  501  0.00000000000E+00  0.00000000000E+00  0.26239931115E+01  0.26239931115E+01  0.00000000000E+00 0.  1.
         21   -1    0    0  503  502 -0.00000000000E+00 -0.00000000000E+00 -0.17136222471E+03  0.17136222471E+03  0.00000000000E+00 0.  1.
         21    1    1    2  503  501  0.52886070319E+00  0.20747952487E+02 -0.66535815689E+02  0.69697718725E+02  0.00000000000E+00 0.  1.
         21    1    1    2  504  502 -0.52886070319E+00 -0.20747952487E+02 -0.10220241591E+03  0.10428849909E+03  0.00000000000E+00 0.  1.
</event>
<event>
 4    1  0.1551744E+006  0.2316556E+02  0.7546771E-02  0.1490430E+00
         21   -1    0    0  504  501  0.00000000000E+00  0.00000000000E+00  0.33843990586E+01  0.33843990586E+01  0.00000000000E+00 0. -1.
         21   -1    0    0  503  502 -0.00000000000E+00 -0.00000000000E+00 -0.44139200715E+03  0.44139200715E+03  0.00000000000E+00 0. -1.
         21    1    1    2  503  501 -0.16152319918E+02  0.16605591411E+02 -0.39702056297E+03  0.39769582664E+03  0.00000000000E+00 0. -1.
         21    1    1    2  504  502  0.16152319918E+02 -0.16605591411E+02 -0.40987045120E+02  0.47080579568E+02  0.00000000000E+00 0. -1.
</event>
<event>
 4    1  0.1551744E+006  0.3785022E+02  0.7546771E-02  0.1361566E+00
         21   -1    0    0  503  501  0.00000000000E+00  0.00000000000E+00  0.19938314993E+02  0.19938314993E+02  0.00000000000E+00 0. -1.
         21   -1    0    0  501  502 -0.00000000000E+00 -0.00000000000E+00 -0.78331519619E+02  0.78331519619E+02  0.00000000000E+00 0. -1.
         21    1    1    2  503  504  0.33398513957E+02  0.17809501822E+02 -0.15066647460E+02  0.40738715681E+02  0.00000000000E+00 0. -1.
         21    1    1    2  504  502 -0.33398513957E+02 -0.17809501822E+02 -0.43326557166E+02  0.57531118931E+02  0.00000000000E+00 0. -1.
</event>
<event>
 4    1  0.1551744E+006  0.2842239E+02  0.7546771E-02  0.1433820E+00
         21   -1    0    0  503  501  0.00000000000E+00  0.00000000000E+00  0.79205978614E+02  0.79205978614E+02  0.00000000000E+00 0. -1.
         21   -1    0    0  504  502 -0.00000000000E+00 -0.00000000000E+00 -0.17073196040E+02  0.17073196040E+02  0.00000000000E+00 0. -1.
         21    1    1    2  503  502 -0.27814082085E+02  0.58488537125E+01  0.61612207052E+02  0.67852017728E+02  0.00000000000E+00 0. -1.
         21    1    1    2  504  501  0.27814082085E+02 -0.58488537125E+01  0.52057552152E+00  0.28427156925E+02  0.00000000000E+00 0. -1.
</event>
<event>
 4    1  0.1551744E+006  0.2632633E+02  0.7546771E-02  0.1454495E+00
         21   -1    0    0  504  501  0.00000000000E+00  0.00000000000E+00  0.20843634505E+02  0.20843634505E+02  0.00000000000E+00 0.  1.
         21   -1    0    0  503  502 -0.00000000000E+00 -0.00000000000E+00 -0.76336801844E+02  0.76336801844E+02  0.00000000000E+00 0.  1.
         21    1    1    2  503  501  0.23038895047E+02  0.12739116600E+02 -0.64251215315E+02  0.69435541664E+02  0.00000000000E+00 0.  1.
         21    1    1    2  504  502 -0.23038895047E+02 -0.12739116600E+02  0.87580479760E+01  0.27744894685E+02  0.00000000000E+00 0.  1.
</event>
<event>
 4    1  0.1551744E+006  0.2710459E+02  0.7546771E-02  0.1446560E+00
         21   -1    0    0  504  501  0.00000000000E+00  0.00000000000E+00  0.60832542704E+02  0.60832542704E+02  0.00000000000E+00 0.  1.
         21   -1    0    0  503  502 -0.00000000000E+00 -0.00000000000E+00 -0.24195229349E+02  0.24195229349E+02  0.00000000000E+00 0.  1.
         21    1    1    2  503  501  0.25998009784E+02 -0.76656453563E+01 -0.11769128889E+02  0.29549467445E+02  0.00000000000E+00 0.  1.
         21    1    1    2  504  502 -0.25998009784E+02  0.76656453563E+01  0.48406442243E+02  0.55478304608E+02  0.00000000000E+00 0.  1.
</event>
<event>
 4    1  0.1551744E+006  0.2133501E+02  0.7546771E-02  0.1514535E+00
         21   -1    0    0  502  501  0.00000000000E+00  0.00000000000E+00  0.24738495435E+01  0.24738495435E+01  0.00000000000E+00 0. -1.
         21   -1    0    0  503  502 -0.00000000000E+00 -0.00000000000E+00 -0.30516684921E+03  0.30516684921E+03  0.00000000000E+00 0. -1.
         21    1    1    2  503  504 -0.27747395518E+01 -0.21153806219E+02 -0.24827267929E+03  0.24918769227E+03  0.00000000000E+00 0. -1.
         21    1    1    2  504  501  0.27747395518E+01  0.21153806219E+02 -0.54420320384E+02  0.58453006491E+02  0.00000000000E+00 0. -1.
</event>
<event>
 4    1  0.1551744E+006  0.2132822E+02  0.7546771E-02  0.1514630E+00
         21   -1    0    0  503  501  0.00000000000E+00  0.00000000000E+00  0.15240937109E+01  0.15240937109E+01  0.00000000000E+00 0. -1.
         21   -1    0    0  504  502 -0.00000000000E+00 -0.00000000000E+00 -0.30468523077E+03  0.30468523077E+03  0.00000000000E+00 0. -1.
         21    1    1    2  503  502  0.11659382230E+02  0.17859219326E+02 -0.12970960494E+03  0.13145141507E+03  0.00000000000E+00 0. -1.
         21    1    1    2  504  501 -0.11659382230E+02 -0.17859219326E+02 -0.17345153211E+03  0.17475790941E+03  0.00000000000E+00 0. -1.
</event>
<event>
 4    1  0.1551744E+006  0.2059700E+02  0.7546771E-02  0.1525097E+00
         21   -1    0    0  502  501  0.00000000000E+00  0.00000000000E+00  0.13600068662E+01  0.13600068662E+01  0.00000000000E+00 0.  1.
         21   -1    0    0  504  502 -0.00000000000E+00 -0.00000000000E+00 -0.45049225283E+03  0.45049225283E+03  0.00000000000E+00 0.  1.
         21    1    1    2  503  501 -0.16791669297E+01 -0.20528438074E+02 -0.99270932324E+02  0.10138517828E+03  0.00000000000E+00 0.  1.
         21    1    1    2  504  503  0.16791669297E+01  0.20528438074E+02 -0.34986131364E+03  0.35046708142E+03  0.00000000000E+00 0.  1.
</event>
<event>
 4    1  0.1551744E+006  0.7576259E+02  0.7546771E-02  0.1214042E+00
         21   -1    0    0  504  501  0.00000000000E+00  0.00000000000E+00  0.33608252256E+03  0.33608252256E+03  0.00000000000E+00 0.  1.
         21   -1    0    0  503  502 -0.00000000000E+00 -0.00000000000E+00 -0.17242506976E+02  0.17242506976E+02  0.00000000000E+00 0.  1.
         21    1    1    2  503  501 -0.72386126004E+00  0.75759136197E+02  0.14221939128E+03  0.16114070233E+03  0.00000000000E+00 0.  1.
         21    1    1    2  504  502  0.72386126004E+00 -0.75759136197E+02  0.17662062431E+03  0.19218432720E+03  0.00000000000E+00 0.  1.
</event>
<event>
 4    1  0.1551744E+006  0.2630972E+02  0.7546771E-02  0.1454668E+00
         21   -1    0    0  503  501  0.00000000000E+00  0.00000000000E+00  0.28419737150E+02  0.28419737150E+02  0.00000000000E+00 0. -1.
         21   -1    0    0  504  502 -0.00000000000E+00 -0.00000000000E+00 -0.70192034203E+02  0.70192034203E+02  0.00000000000E+00 0. -1.
         21    1    1    2  503  502 -0.21929816162E+02 -0.14535626242E+02 -0.60729574598E+02  0.66183702661E+02  0.00000000000E+00 0. -1.
         21    1    1    2  504  501  0.21929816162E+02  0.14535626242E+02  0.18957277544E+02  0.32428068691E+02  0.00000000000E+00 0. -1.
</event>
<event>
 4    1  0.1551744E+006  0.2231671E+02  0.7546771E-02  0.1501261E+00
         21   -1    0    0  504  501  0.00000000000E+00  0.00000000000E+00  0.86800633519E+01  0.86800633519E+01  0.00000000000E+00 0. -1.
         21   -1    0    0  503  502 -0.00000000000E+00 -0.00000000000E+00 -0.33469118888E+03  0.33469118888E+03  0.00000000000E+00 0. -1.
         21    1    1    2  503  501  0.16529924298E+02 -0.14993235741E+02 -0.67275479509E+01  0.23308698306E+02  0.00000000000E+00 0. -1.
         21    1    1    2  504  502 -0.16529924298E+02  0.14993235741E+02 -0.31928357758E+03  0.32006255393E+03  0.00000000000E+00 0. -1.
</event>
<event>
 4    1  0.1551744E+006  0.2360366E+02  0.7546771E-02  0.1485054E+00
         21   -1    0    0  504  501  0.00000000000E+00  0.00000000000E+00  0.85687544708E+02  0.85687544708E+02  0.00000000000E+00 0.  1.
         21   -1    0    0  503  502 -0.00000000000E+00 -0.00000000000E+00 -0.28866395796E+02  0.28866395796E+02  0.00000000000E+00 0. -1.
         21    1    1    2  503  501 -0.12785948651E+02  0.19840678022E+02 -0.22004821541E+02  0.32269880048E+02  0.00000000000E+00 0. -1.
         21    1    1    2  504  502  0.12785948651E+02 -0.19840678022E+02  0.78825970453E+02  0.82284060456E+02  0.00000000000E+00 0.  1.
</event>
<event>
 4    1  0.1551744E+006  0.2112407E+02  0.7546771E-02  0.1517501E+00
         21   -1    0    0  504  501  0.00000000000E+00  0.00000000000E+00  0.39647548883E+02  0.39647548883E+02  0.00000000000E+00 0. -1.
         21   -1    0    0  503  502 -0.00000000000E+00 -0.00000000000E+00 -0.29779962140E+02  0.29779962140E+02  0.00000000000E+00 0.  1.
         21    1    1    2  503  501 -0.54189692042E+01 -0.20417176515E+02 -0.22445372707E+02  0.30822411976E+02  0.00000000000E+00 0.  1.
         21    1    1    2  504  502  0.54189692042E+01  0.20417176515E+02  0.32312959449E+02  0.38605099047E+02  0.00000000000E+00 0. -1.
</event>
<event>
 4    1  0.1551744E+006  0.2562923E+02  0.7546771E-02  0.1461886E+00
         21   -1    0    0  504  501  0.00000000000E+00  0.00000000000E+00  0.24543353711E+02  0.24543353711E+02  0.00000000000E+00 0. -1.
         21   -1    0    0  503  502 -0.00000000000E+00 -0.00000000000E+00 -0.20795295951E+03  0.20795295951E+03  0.00000000000E+00 0.  1.
         21    1    1    2  503  501  0.22287702862E+02 -0.12653677086E+02 -0.20021496613E+03  0.20184868071E+03  0.00000000000E+00 0.  1.
         21    1    1    2  504  502 -0.22287702862E+02  0.12653677086E+02  0.16805360329E+02  0.30647632510E+02  0.00000000000E+00 0. -1.
</event>
<event>
 4    1  0.1551744E+006  0.2043133E+02  0.7546771E-02  0.1527541E+00
         21   -1    0    0  504  501  0.00000000000E+00  0.00000000000E+00  0.64734070679E+01  0.64734070679E+01  0.00000000000E+00 0. -1.
         21   -1    0    0  503  502 -0.00000000000E+00 -0.00000000000E+00 -0.95367312763E+02  0.95367312763E+02  0.00000000000E+00 0. -1.
         21    1    1    2  503  501  0.19971087182E+02  0.43121846176E+01 -0.73423381496E+02  0.76213071121E+02  0.00000000000E+00 0. -1.
         21    1    1    2  504  502 -0.19971087182E+02 -0.43121846176E+01 -0.15470524199E+02  0.25627648710E+02  0.00000000000E+00 0. -1.
</event>
<event>
 4    1  0.1551744E+006  0.2176126E+02  0.7546771E-02  0.1508668E+00
         21   -1    0    0  502  501  0.00000000000E+00  0.00000000000E+00  0.36078992560E+02  0.36078992560E+02  0.00000000000E+00 0. -1.
         21   -1    0    0  504  502 -0.00000000000E+00 -0.00000000000E+00 -0.45151453525E+03  0.45151453525E+03  0.00000000000E+00 0.  1.
         21    1    1    2  503  501  0.20397979484E+02 -0.75812291855E+01  0.32509296681E+02  0.39120416328E+02  0.00000000000E+00 0. -1.
         21    1    1    2  504  503 -0.20397979484E+02  0.75812291855E+01 -0.44794483937E+03  0.44847311149E+03  0.00000000000E+00 0.  1.
</event>
<event>
 4    1  0.1551744E+006  0.2274694E+02  0.7546771E-02  0.1495701E+00
         21   -1    0    0  503  501  0.00000000000E+00  0.00000000000E+00  0.22791719774E+03  0.22791719774E+03  0.00000000000E+00 0.  1.
         21   -1    0    0  504  502 -0.00000000000E+00 -0.00000000000E+00 -0.92294062973E+02  0.92294062973E+02  0.00000000000E+00 0. -1.
         21    1    1    2  503  502  0.21240726499E+02 -0.81397025978E+01 -0.90312685122E+02  0.93133261054E+02  0.00000000000E+00 0. -1.
         21    1    1    2  504  501 -0.21240726499E+02  0.81397025978E+01  0.22593581989E+03  0.22707799966E+03  0.00000000000E+00 0.  1.
</event>
<event>
 4    1  0.1551744E+006  0.4027473E+02  0.7546771E-02  0.1346883E+00
         21   -1    0    0  504  501  0.00000000000E+00  0.00000000000E+00  0.16747640467E+03  0.16747640467E+03  0.00000000000E+00 0. -1.
         21   -1    0    0  503  502 -0.00000000000E+00 -0.00000000000E+00 -0.30384829257E+02  0.30384829257E+02  0.00000000000E+00 0.  1.
         21    1    1    2  503  501 -0.57863069199E+00  0.40270572601E+02  0.15020080771E+03  0.15550670875E+03  0.00000000000E+00 0. -1.
         21    1    1    2  504  502  0.57863069199E+00 -0.40270572601E+02 -0.13109232296E+02  0.42354525172E+02  0.00000000000E+00 0.  1.
</event>
<event>
 4    1  0.1551744E+006  0.2683006E+02  0.7546771E-02  0.1449323E+00
         21   -1    0    0  503  501  0.00000000000E+00  0.00000000000E+00  0.42546003604E+02  0.42546003604E+02  0.00000000000E+00 0.  1.
         21   -1    0    0  504  502 -0.00000000000E+00 -0.00000000000E+00 -0.25968069037E+02  0.25968069037E+02  0.00000000000E+00 0. -1.
         21    1    1    2  503  502  0.13385455022E+02 -0.23252560539E+02  0.28510906720E+02  0.39150016345E+02  0.00000000000E+00 0.  1.
         21    1    1    2  504  501 -0.13385455022E+02  0.23252560539E+02 -0.11932972154E+02  0.29364056297E+02  0.00000000000E+00 0. -1.
</event>
<event>
 4    1  0.1551744E+006  0.4658637E+02  0.7546771E-02  0.1313692E+00
         21   -1    0    0  504  501  0.00000000000E+00  0.00000000000E+00  0.28024501307E+03  0.28024501307E+03  0.00000000000E+00 0. -1.
         21   -1    0    0  503  502 -0.00000000000E+00 -0.00000000000E+00 -0.47099398484E+03  0.47099398484E+03  0.00000000000E+00 0. -1.
         21    1    1    2  503  501 -0.23227283334E+02 -0.40382960929E+02  0.27714417555E+03  0.28103235448E+03  0.00000000000E+00 0. -1.
         21    1    1    2  504  502  0.23227283334E+02  0.40382960929E+02 -0.46789314732E+03  0.47020664343E+03  0.00000000000E+00 0. -1.
</event>
<event>
 4    1  0.1551744E+006  0.2585504E+02  0.7546771E-02  0.1459461E+00
         21   -1    0    0  502  501  0.00000000000E+00  0.00000000000E+00  0.26096230225E+03  0.26096230225E+03  0.00000000000E+00 0. -1.
         21   -1    0    0  503  502 -0.00000000000E+00 -0.00000000000E+00 -0.54099594353E+01  0.54099594353E+01  0.00000000000E+00 0.  1.
         21    1    1    2  503  504  0.23685998897E+02 -0.10366131494E+02  0.31135763639E+02  0.40471212031E+02  0.00000000000E+00 0.  1.
         21    1    1    2  504  501 -0.23685998897E+02  0.10366131494E+02  0.22441657918E+03  0.22590104966E+03  0.00000000000E+00 0. -1.
</event>
<event>
 4    1  0.1551744E+006  0.2868208E+02  0.7546771E-02  0.1431406E+00
         21   -1    0    0  503  501  0.00000000000E+00  0.00000000000E+00  0.68304140573E+02  0.68304140573E+02  0.00000000000E+00 0. -1.
         21   -1    0    0  504  502 -0.00000000000E+00 -0.00000000000E+00 -0.14328383617E+02  0.14328383617E+02  0.00000000000E+00 0.  1.
         21    1    1    2  503  502  0.18366527424E+02  0.22030266395E+02  0.10491168398E+02  0.30540572709E+02  0.00000000000E+00 0.  1.
         21    1    1    2  504  501 -0.18366527424E+02 -0.22030266395E+02  0.43484588558E+02  0.52091951481E+02  0.00000000000E+00 0. -1.
</event>
<event>
 4    1  0.1551744E+006  0.2314233E+02  0.7546771E-02  0.1490719E+00
         21   -1    0    0  504  501  0.00000000000E+00  0.00000000000E+00  0.63948583920E+03  0.63948583920E+03  0.00000000000E+00 0.  1.
         21   -1    0    0  501  502 -0.00000000000E+00 -0.00000000000E+00 -0.14662155035E+01  0.14662155035E+01  0.00000000000E+00 0. -1.
         21    1    1    2  503  502 -0.20349450968E+02 -0.11021216562E+02  0.10915215415E+03  0.11157849311E+03  0.00000000000E+00 0. -1.
         21    1    1    2  504  503  0.20349450968E+02  0.11021216562E+02  0.52886746954E+03  0.52937356159E+03  0.00000000000E+00 0.  1.
</event>
<event>
 4    1  0.1551744E+006  0.4662904E+02  0.7546771E-02  0.1313489E+00
         21   -1    0    0  504  501  0.00000000000E+00  0.00000000000E+00  0.55536811755E+02  0.55536811755E+02  0.00000000000E+00 0. -1.
         21   -1    0    0  503  502 -0.00000000000E+00 -0.00000000000E+00 -0.76172057639E+02  0.76172057639E+02  0.00000000000E+00 0. -1.
         21    1    1    2  503  501 -0.44691656108E+02 -0.13301255063E+02 -0.56228682743E+02  0.73047465904E+02  0.00000000000E+00 0. -1.
         21    1    1    2  504  502  0.44691656108E+02  0.13301255063E+02  0.35593436859E+02  0.58661403490E+02  0.00000000000E+00 0. -1.
</event>
<event>
 4    1  0.1551744E+006  0.2244342E+02  0.7546771E-02  0.1499608E+00
         21   -1    0    0  503  501  0.00000000000E+00  0.00000000000E+00  0.15008350617E+02  0.15008350617E+02  0.00000000000E+00 0. -1.
         21   -1    0    0  504  502 -0.00000000000E+00 -0.00000000000E+00 -0.41236933073E+02  0.41236933073E+02  0.00000000000E+00 0.  1.
         21    1    1    2  503  502 -0.20067672273E+02  0.10049652158E+02 -0.98162005797E+00  0.22464873845E+02  0.00000000000E+00 0. -1.
         21    1    1    2  504  501  0.20067672273E+02 -0.10049652158E+02 -0.25246962397E+02  0.33780409844E+02  0.00000000000E+00 0.  1.
</event>
<event>
 4    1  0.1551744E+006  0.2019571E+02  0.7546771E-02  0.1531065E+00
         21   -1    0    0  504  501  0.00000000000E+00  0.00000000000E+00  0.73444743890E+03  0.73444743890E+03  0.00000000000E+00 0. -1.
         21   -1    0    0  501  502 -0.00000000000E+00 -0.00000000000E+00 -0.40067029945E+01  0.40067029945E+01  0.00000000000E+00 0. -1.
         21    1    1    2  503  502 -0.18236353652E+02 -0.86776760459E+01  0.22535129177E+02  0.30260513927E+02  0.00000000000E+00 0. -1.
         21    1    1    2  504  503  0.18236353652E+02  0.86776760459E+01  0.70790560673E+03  0.70819362797E+03  0.00000000000E+00 0. -1.
</event>
<event>
 4    1  0.1551744E+006  0.2134234E+02  0.7546771E-02  0.1514433E+00
         21   -1    0    0  504  501  0.00000000000E+00  0.00000000000E+00  0.18349206591E+02  0.18349206591E+02  0.00000000000E+00 0. -1.
         21   -1    0    0  503  502 -0.00000000000E+00 -0.00000000000E+00 -0.37045355233E+02  0.37045355233E+02  0.00000000000E+00 0. -1.
         21    1    1    2  503  501  0.19361346361E+02  0.89796334221E+01  0.65606343729E+01  0.22327952720E+02  0.00000000000E+00 0. -1.
         21    1    1    2  504  502 -0.19361346361E+02 -0.89796334221E+01 -0.25256783016E+02  0.33066609104E+02  0.00000000000E+00 0. -1.
</event>
<event>
 4    1  0.1551744E+006  0.2110225E+02  0.7546771E-02  0.1517810E+00
         21   -1    0    0  502  501  0.00000000000E+00  0.00000000000E+00  0.85039232619E+01  0.85039232619E+01  0.00000000000E+00 0.  1.
         21   -1    0    0  504  502 -0.00000000000E+00 -0.00000000000E+00 -0.35677239834E+03  0.35677239834E+03  0.00000000000E+00 0. -1.
         21    1    1    2  503  501  0.21007767312E+02 -0.19946963131E+01 -0.54308741303E+01  0.21789894324E+02  0.00000000000E+00 0.  1.
         21    1    1    2  504  503 -0.21007767312E+02  0.19946963131E+01 -0.34283760095E+03  0.34348642728E+03  0.00000000000E+00 0. -1.
</event>
<event>
 4    1  0.1551744E+006  0.2506412E+02  0.7546771E-02  0.1468087E+00
         21   -1    0    0  503  501  0.00000000000E+00  0.00000000000E+00  0.37754269382E+01  0.37754269382E+01  0.00000000000E+00 0.  1.
         21   -1    0    0  504  502 -0.00000000000E+00 -0.00000000000E+00 -0.52554263690E+03  0.52554263690E+03  0.00000000000E+00 0. -1.
         21    1    1    2  503  502  0.38694322169E+00  0.25061136653E+02 -0.42097595161E+02  0.48994058963E+02  0.00000000000E+00 0.  1.
         21    1    1    2  504  501 -0.38694322169E+00 -0.25061136653E+02 -0.47966961480E+03  0.48032400487E+03  0.00000000000E+00 0. -1.
</event>
<event>
 4    1  0.1551744E+006  0.3483695E+02  0.7546771E-02  0.1381713E+00
         21   -1    0    0  504  501  0.00000000000E+00  0.00000000000E+00  0.30615430838E+02  0.30615430838E+02  0.00000000000E+00 0.  1.
         21   -1    0    0  503  502 -0.00000000000E+00 -0.00000000000E+00 -0.57384228044E+03  0.57384228044E+03  0.00000000000E+00 0.  1.
         21    1    1    2  503  501  0.32178703346E+02 -0.13347051980E+02 -0.56321663255E+03  0.56429299830E+03  0.00000000000E+00 0.  1.
         21    1    1    2  504  502 -0.32178703346E+02  0.13347051980E+02  0.19989782956E+02  0.40164712973E+02  0.00000000000E+00 0.  1.
</event>
<event>
 4    1  0.1551744E+006  0.3729938E+02  0.7546771E-02  0.1365082E+00
         21   -1    0    0  503  501  0.00000000000E+00  0.00000000000E+00  0.39658759205E+02  0.39658759205E+02  0.00000000000E+00 0.  1.
         21   -1    0    0  504  502 -0.00000000000E+00 -0.00000000000E+00 -0.36038988360E+02  0.36038988360E+02  0.00000000000E+00 0.  1.
         21    1    1    2  503  502  0.27972706763E+02 -0.24673294480E+02  0.79828028132E+01  0.38144054909E+02  0.00000000000E+00 0.  1.
         21    1    1    2  504  501 -0.27972706763E+02  0.24673294480E+02 -0.43630319674E+01  0.37553692656E+02  0.00000000000E+00 0.  1.
</event>
<event>
 4    1  0.1551744E+006  0.2311592E+02  0.7546771E-02  0.1491048E+00
         21   -1    0    0  503  501  0.00000000000E+00  0.00000000000E+00  0.17746645816E+02  0.17746645816E+02  0.00000000000E+00 0. -1.
         21   -1    0    0  504  502 -0.00000000000E+00 -0.00000000000E+00 -0.32157435699E+02  0.32157435699E+02  0.00000000000E+00 0. -1.
         21    1    1    2  503  502 -0.37745500524E+01 -0.22805673688E+02 -0.13501957437E+02  0.26770297628E+02  0.00000000000E+00 0. -1.
         21    1    1    2  504  501  0.37745500524E+01  0.22805673688E+02 -0.90883244567E+00  0.23133783886E+02  0.00000000000E+00 0. -1.
</event>
<event>
 4    1  0.1551744E+006  0.2071081E+02  0.7546771E-02  0.1523434E+00
         21   -1    0    0  502  501  0.00000000000E+00  0.00000000000E+00  0.49748208496E+02  0.49748208496E+02  0.00000000000E+00 0.  1.
         21   -1    0    0  504  502 -0.00000000000E+00 -0.00000000000E+00 -0.18840819863E+02  0.18840819863E+02  0.00000000000E+00 0.  1.
         21    1    1    2  503  501 -0.17369637803E+02 -0.11279774998E+02  0.40710095056E+02  0.45675480083E+02  0.00000000000E+00 0.  1.
         21    1    1    2  504  503  0.17369637803E+02  0.11279774998E+02 -0.98027064221E+01  0.22913548276E+02  0.00000000000E+00 0.  1.
</event>
<event>
 4    1  0.1551744E+006  0.2992087E+02  0.7546771E-02  0.1420285E+00
         21   -1    0    0  503  501  0.00000000000E+00  0.00000000000E+00  0.41069302429E+02  0.41069302429E+02  0.00000000000E+00 0. -1.
         21   -1    0    0  501  502 -0.00000000000E+00 -0.00000000000E+00 -0.24003856357E+02  0.24003856357E+02  0.00000000000E+00 0. -1.
         21    1    1    2  503  504 -0.50367879184E+01 -0.29493885398E+02  0.18394346744E+02  0.35122791754E+02  0.00000000000E+00 0. -1.
         21    1    1    2  504  502  0.50367879184E+01  0.29493885398E+02 -0.13289006722E+01  0.29950367033E+02  0.00000000000E+00 0. -1.
</event>
<event>
 4    1  0.1551744E+006  0.2599040E+02  0.7546771E-02  0.1458022E+00
         21   -1    0    0  504  501  0.00000000000E+00  0.00000000000E+00  0.76449155809E+02  0.76449155809E+02  0.00000000000E+00 0. -1.
         21   -1    0    0  503  502 -0.00000000000E+00 -0.00000000000E+00 -0.13245675724E+02  0.13245675724E+02  0.00000000000E+00 0. -1.
         21    1    1    2  503  501 -0.25375265427E+02 -0.56211105611E+01  0.57252055458E+01  0.26613510816E+02  0.00000000000E+00 0. -1.
         21    1    1    2  504  502  0.25375265427E+02  0.56211105611E+01  0.57478274539E+02  0.63081320717E+02  0.00000000000E+00 0. -1.
</event>
<event>
 4    1  0.1551744E+006  0.5639636E+02  0.7546771E-02  0.1272594E+00
         21   -1    0    0  503  501  0.00000000000E+00  0.00000000000E+00  0.14114276597E+03  0.14114276597E+03  0.00000000000E+00 0. -1.
         21   -1    0    0  501  502 -0.00000000000E+00 -0.00000000000E+00 -0.91520781811E+02  0.91520781811E+02  0.00000000000E+00 0. -1.
         21    1    1    2  503  504  0.56180136700E+02  0.49337662179E+01  0.12581080497E+03  0.13787279810E+03  0.00000000000E+00 0. -1.
         21    1    1    2  504  502 -0.56180136700E+02 -0.49337662179E+01 -0.76188820810E+02  0.94790749681E+02  0.00000000000E+00 0. -1.
</event>
<event>
 4    1  0.1551744E+006  0.2666303E+02  0.7546771E-02  0.1451023E+00
         21   -1    0    0  503  501  0.00000000000E+00  0.00000000000E+00  0.23019409760E+02  0.23019409760E+02  0.00000000000E+00 0. -1.
         21   -1    0    0  504  502 -0.00000000000E+00 -0.00000000000E+00 -0.41066357803E+03  0.41066357803E+03  0.00000000000E+00 0. -1.
         21    1    1    2  503  502 -0.14371034409E+02 -0.22458635665E+02  0.14706436077E+02  0.30449896683E+02  0.00000000000E+00 0. -1.
         21    1    1    2  504  501  0.14371034409E+02  0.22458635665E+02 -0.40235060434E+03  0.40323309111E+03  0.00000000000E+00 0. -1.
</event>
<event>
 4    1  0.1551744E+006  0.2077009E+02  0.7546771E-02  0.1522573E+00
         21   -1    0    0  503  501  0.00000000000E+00  0.00000000000E+00  0.82436237952E+02  0.82436237952E+02  0.00000000000E+00 0. -1.
         21   -1    0    0  504  502 -0.00000000000E+00 -0.00000000000E+00 -0.52515443820E+01  0.52515443820E+01  0.00000000000E+00 0. -1.
         21    1    1    2  503  502 -0.16764066927E+02  0.12262255153E+02  0.41190897786E+02  0.46131192287E+02  0.00000000000E+00 0. -1.
         21    1    1    2  504  501  0.16764066927E+02 -0.12262255153E+02  0.35993795784E+02  0.41556590047E+02  0.00000000000E+00 0. -1.
</event>
<event>
 4    1  0.1551744E+006  0.2234751E+02  0.7546771E-02  0.1500858E+00
         21   -1    0    0  504  501  0.00000000000E+00  0.00000000000E+00  0.22430945397E+02  0.22430945397E+02  0.00000000000E+00 0.  1.
         21   -1    0    0  501  502 -0.00000000000E+00 -0.00000000000E+00 -0.79262627457E+02  0.79262627457E+02  0.00000000000E+00 0.  1.
         21    1    1    2  503  502 -0.86205146378E+01  0.20617904805E+02 -0.71533979092E+02  0.74943454924E+02  0.00000000000E+00 0.  1.
         21    1    1    2  504  503  0.86205146378E+01 -0.20617904805E+02  0.14702297033E+02  0.26750117929E+02  0.00000000000E+00 0.  1.
</event>
<event>
 4    1  0.1551744E+006  0.2432251E+02  0.7546771E-02  0.1476527E+00
         21   -1    0    0  503  501  0.00000000000E+00  0.00000000000E+00  0.46009735682E+02  0.46009735682E+02  0.00000000000E+00 0.  1.
         21   -1    0    0  501  502 -0.00000000000E+00 -0.00000000000E+00 -0.16136299883E+02  0.16136299883E+02  0.00000000000E+00 0.  1.
         21    1    1    2  503  504 -0.20056042283E+02  0.13760078736E+02  0.28942847801E+02  0.37805727578E+02  0.00000000000E+00 0.  1.
         21    1    1    2  504  502  0.20056042283E+02 -0.13760078736E+02  0.93058799778E+00  0.24340307987E+02  0.00000000000E+00 0.  1.
</event>
<event>
 4    1  0.1551744E+006  0.2776665E+02  0.7546771E-02  0.1440055E+00
         21   -1    0    0  502  501  0.00000000000E+00  0.00000000000E+00  0.59629254687E+01  0.59629254687E+01  0.00000000000E+00 0.  1.
         21   -1    0    0  504  502 -0.00000000000E+00 -0.00000000000E+00 -0.26355726013E+03  0.26355726013E+03  0.00000000000E+00 0. -1.
         21    1    1    2  503  501  0.27736203340E+02 -0.13000309066E+01 -0.32614258089E+02  0.42833128379E+02  0.00000000000E+00 0.  1.
         21    1    1    2  504  503 -0.27736203340E+02  0.13000309066E+01 -0.22498007657E+03  0.22668705722E+03  0.00000000000E+00 0. -1.
</event>
<event>
 4    1  0.1551744E+006  0.3446728E+02  0.7546771E-02  0.1384347E+00
         21   -1    0    0  503  501  0.00000000000E+00  0.00000000000E+00  0.20751615407E+02  0.20751615407E+02  0.00000000000E+00 0.  1.
         21   -1    0    0  501  502 -0.00000000000E+00 -0.00000000000E+00 -0.21601913246E+03  0.21601913246E+03  0.00000000000E+00 0.  1.
         21    1    1    2  503  504  0.33384614991E+02 -0.85709341764E+01  0.38595444487E+01  0.34682697618E+02  0.00000000000E+00 0.  1.
         21    1    1    2  504  502 -0.33384614991E+02  0.85709341764E+01 -0.19912706150E+03  0.20208805025E+03  0.00000000000E+00 0.  1.
</event>
<event>
 4    1  0.1551744E+006  0.2011562E+02  0.7546771E-02  0.1532276E+00
         21   -1    0    0  503  501  0.00000000000E+00  0.00000000000E+00  0.12549421069E+02  0.12549421069E+02  0.00000000000E+00 0.  1.
         21   -1    0    0  504  502 -0.00000000000E+00 -0.00000000000E+00 -0.67355551261E+03  0.67355551261E+03  0.00000000000E+00 0.  1.
         21    1    1    2  503  502 -0.67553149110E+00 -0.20104270523E+02 -0.66524374242E+03  0.66554780059E+03  0.00000000000E+00 0.  1.
         21    1    1    2  504  501  0.67553149110E+00  0.20104270523E+02  0.42376508780E+01  0.20557133093E+02  0.00000000000E+00 0.  1.
</event>
<event>
 4    1  0.1551744E+006  0.2010299E+02  0.7546771E-02  0.1532467E+00
         21   -1    0    0  503  501  0.00000000000E+00  0.00000000000E+00  0.76798678433E+03  0.76798678433E+03  0.00000000000E+00 0.  1.
         21   -1    0    0  501  502 -0.00000000000E+00 -0.00000000000E+00 -0.49217735899E+01  0.49217735899E+01  0.00000000000E+00 0. -1.
         21    1    1    2  503  504 -0.10183055233E+00 -0.20102734346E+02  0.74674369508E+03  0.74701424112E+03  0.00000000000E+00 0.  1.
         21    1    1    2  504  502  0.10183055233E+00  0.20102734346E+02  0.16321315665E+02  0.25894316803E+02  0.00000000000E+00 0. -1.
</event>
<event>
 4    1  0.1551744E+006  0.2148456E+02  0.7546771E-02  0.1512458E+00
         21   -1    0    0  504  501  0.00000000000E+00  0.00000000000E+00  0.51143626909E+02  0.51143626909E+02  0.00000000000E+00 0.  1.
         21   -1    0    0  503  502 -0.00000000000E+00 -0.00000000000E+00 -0.25991813243E+02  0.25991813243E+02  0.00000000000E+00 0. -1.
         21    1    1    2  503  501  0.20596158513E+02 -0.61143050964E+01 -0.18584419955E+02  0.28407167007E+02  0.00000000000E+00 0. -1.
         21    1    1    2  504  502 -0.20596158513E+02  0.61143050964E+01  0.43736233621E+02  0.48728273144E+02  0.00000000000E+00 0.  1.
</event>
<event>
 4    1  0.1551744E+006  0.2440428E+02  0.7546771E-02  0.1475579E+00
         21   -1    0    0  504  501  0.00000000000E+00  0.00000000000E+00  0.62891782677E+01  0.62891782677E+01  0.00000000000E+00 0. -1.
         21   -1    0    0  501  502 -0.00000000000E+00 -0.00000000000E+00 -0.11078925099E+03  0.11078925099E+03  0.00000000000E+00 0. -1.
         21    1    1    2  503  502  0.23966425172E+02 -0.46021288830E+01 -0.74560081299E+02  0.78452373126E+02  0.00000000000E+00 0. -1.
         21    1    1    2  504  503 -0.23966425172E+02  0.46021288830E+01 -0.29939991419E+02  0.38626056127E+02  0.00000000000E+00 0. -1.
</event>
<event>
 4    1  0.1551744E+006  0.2161816E+02  0.7546771E-02  0.1510619E+00
         21   -1    0    0  503  501  0.00000000000E+00  0.00000000000E+00  0.20417794491E+04  0.20417794491E+04  0.00000000000E+00 0.  1.
         21   -1    0    0  504  502 -0.00000000000E+00 -0.00000000000E+00 -0.30024531528E+00  0.30024531528E+00  0.00000000000E+00 0.  1.
         21    1    1    2  503  502 -0.17423946935E+02 -0.12796516339E+02  0.15184938384E+04  0.15186477149E+04  0.00000000000E+00 0.  1.
         21    1    1    2  504  501  0.17423946935E+02  0.12796516339E+02  0.52298536540E+03  0.52343197951E+03  0.00000000000E+00 0.  1.
</event>
<event>
 4    1  0.1551744E+006  0.3330317E+02  0.7546771E-02  0.1392901E+00
         21   -1    0    0  503  501  0.00000000000E+00  0.00000000000E+00  0.48997248010E+02  0.48997248010E+02  0.00000000000E+00 0. -1.
         21   -1    0    0  501  502 -0.00000000000E+00 -0.00000000000E+00 -0.54616882330E+02  0.54616882330E+02  0.00000000000E+00 0.  1.
         21    1    1    2  503  504 -0.17305607618E+01  0.33258174955E+02  0.36833578810E+02  0.49656958927E+02  0.00000000000E+00 0. -1.
         21    1    1    2  504  502  0.17305607618E+01 -0.33258174955E+02 -0.42453213130E+02  0.53957171413E+02  0.00000000000E+00 0.  1.
</event>
<event>
 4    1  0.1551744E+006  0.2145822E+02  0.7546771E-02  0.1512822E+00
         21   -1    0    0  502  501  0.00000000000E+00  0.00000000000E+00  0.12359010568E+03  0.12359010568E+03  0.00000000000E+00 0.  1.
         21   -1    0    0  504  502 -0.00000000000E+00 -0.00000000000E+00 -0.31283393046E+03  0.31283393046E+03  0.00000000000E+00 0.  1.
         21    1    1    2  503  501  0.20601735833E+02 -0.60019827998E+01  0.12228682647E+03  0.12415523849E+03  0.00000000000E+00 0.  1.
         21    1    1    2  504  503 -0.20601735833E+02  0.60019827998E+01 -0.31153065125E+03  0.31226879765E+03  0.00000000000E+00 0.  1.
</event>
<event>
 4    1  0.1551744E+006  0.2664331E+02  0.7546771E-02  0.1451224E+00
         21   -1    0    0  503  501  0.00000000000E+00  0.00000000000E+00  0.66362200345E+01  0.66362200345E+01  0.00000000000E+00 0.  1.
         21   -1    0    0  501  502 -0.00000000000E+00 -0.00000000000E+00 -0.68654721034E+03  0.68654721034E+03  0.00000000000E+00 0.  1.
         21    1    1    2  503  504  0.21381504285E+02 -0.15896451748E+02 -0.21506986197E+02  0.34240565985E+02  0.00000000000E+00 0.  1.
         21    1    1    2  504  502 -0.21381504285E+02  0.15896451748E+02 -0.65840400411E+03  0.65894286439E+03  0.00000000000E+00 0.  1.
</event>
<event>
 4    1  0.1551744E+006  0.3340406E+02  0.7546771E-02  0.1392144E+00
         21   -1    0    0  504  501  0.00000000000E+00  0.00000000000E+00  0.16965240937E+03  0.16965240937E+03  0.00000000000E+00 0. -1.
         21   -1    0    0  503  502 -0.00000000000E+00 -0.00000000000E+00 -0.63647747217E+02  0.63647747217E+02  0.00000000000E+00 0. -1.
         21    1    1    2  503  501  0.29424481329E+02  0.15812372495E+02  0.16346096879E+03  0.16683920266E+03  0.00000000000E+00 0. -1.
         21    1    1    2  504  502 -0.29424481329E+02 -0.15812372495E+02 -0.57456306635E+02  0.66460953932E+02  0.00000000000E+00 0. -1.
</event>
<event>
 4    1  0.1551744E+006  0.4589321E+02  0.7546771E-02  0.1317032E+00
         21   -1    0    0  503  501  0.00000000000E+00  0.00000000000E+00  0.31258109555E+03  0.31258109555E+03  0.00000000000E+00 0.  1.
         21   -1    0    0  504  502 -0.00000000000E+00 -0.00000000000E+00 -0.11617835545E+02  0.11617835545E+02  0.00000000000E+00 0. -1.
         21    1    1    2  503  502  0.37366434457E+02  0.26644631347E+02  0.25553727027E+03  0.25962565994E+03  0.00000000000E+00 0.  1.
         21    1    1    2  504  501 -0.37366434457E+02 -0.26644631347E+02  0.45425989730E+02  0.64573271147E+02  0.00000000000E+00 0. -1.
</event>
<event>
 4    1  0.1551744E+006  0.2002323E+02  0.7546771E-02  0.1533681E+00
         21   -1    0    0  502  501  0.00000000000E+00  0.00000000000E+00  0.10615773524E+02  0.10615773524E+02  0.00000000000E+00 0.  1.
         21   -1    0    0  504  502 -0.00000000000E+00 -0.00000000000E+00 -0.64249866188E+02  0.64249866188E+02  0.00000000000E+00 0.  1.
         21    1    1    2  503  501  0.17873844066E+02  0.90252684346E+01 -0.27847125478E+01  0.20215944103E+02  0.00000000000E+00 0.  1.
         21    1    1    2  504  503 -0.17873844066E+02 -0.90252684346E+01 -0.50849380116E+02  0.54649695609E+02  0.00000000000E+00 0.  1.
</event>
<event>
 4    1  0.1551744E+006  0.6453905E+02  0.7546771E-02  0.1245144E+00
         21   -1    0    0  503  501  0.00000000000E+00  0.00000000000E+00  0.14208159089E+04  0.14208159089E+04  0.00000000000E+00 0. -1.
         21   -1    0    0  504  502 -0.00000000000E+00 -0.00000000000E+00 -0.33047570309E+01  0.33047570309E+01  0.00000000000E+00 0.  1.
         21    1    1    2  503  502  0.19206028030E+02  0.61615070405E+02  0.94802257748E+03  0.95021686779E+03  0.00000000000E+00 0. -1.
         21    1    1    2  504  501 -0.19206028030E+02 -0.61615070405E+02  0.46948857438E+03  0.47390379813E+03  0.00000000000E+00 0.  1.
</event>
<event>
 4    1  0.1551744E+006  0.2682990E+02  0.7546771E-02  0.1449324E+00
         21   -1    0    0  503  501  0.00000000000E+00  0.00000000000E+00  0.39910960682E+03  0.39910960682E+03  0.00000000000E+00 0. -1.
         21   -1    0    0  504  502 -0.00000000000E+00 -0.00000000000E+00 -0.11907660944E+02  0.11907660944E+02  0.00000000000E+00 0.  1.
         21    1    1    2  503  502  0.12960180648E+02 -0.23492066876E+02  0.38290694481E+03  0.38384576573E+03  0.00000000000E+00 0. -1.
         21    1    1    2  504  501 -0.12960180648E+02  0.23492066876E+02  0.42950010696E+01  0.27171502033E+02  0.00000000000E+00 0.  1.
</event>
<event>
 4    1  0.1551744E+006  0.2031110E+02  0.7546771E-02  0.1529332E+00
         21   -1    0    0  504  501  0.00000000000E+00  0.00000000000E+00  0.13441125900E+01  0.13441125900E+01  0.00000000000E+00 0.  1.
         21   -1    0    0  503  502 -0.00000000000E+00 -0.00000000000E+00 -0.31003365666E+03  0.31003365666E+03  0.00000000000E+00 0.  1.
         21    1    1    2  503  501 -0.42258650873E+01  0.19866629969E+02 -0.13875345019E+03  0.14023216771E+03  0.00000000000E+00 0.  1.
         21    1    1    2  504  502  0.42258650873E+01 -0.19866629969E+02 -0.16993609389E+03  0.17114560154E+03  0.00000000000E+00 0.  1.
</event>
<event>
 4    1  0.1551744E+006  0.2677298E+02  0.7546771E-02  0.1449902E+00
         21   -1    0    0  503  501  0.00000000000E+00  0.00000000000E+00  0.49049513752E+01  0.49049513752E+01  0.00000000000E+00 0.  1.
         21   -1    0    0  504  502 -0.00000000000E+00 -0.00000000000E+00 -0.36006594416E+03  0.36006594416E+03  0.00000000000E+00 0. -1.
         21    1    1    2  503  502  0.23384855367E+02  0.13036145981E+02 -0.31824109697E+03  0.31936528985E+03  0.00000000000E+00 0. -1.
         21    1    1    2  504  501 -0.23384855367E+02 -0.13036145981E+02 -0.36919895813E+02  0.45605605680E+02  0.00000000000E+00 0.  1.
</event>
<event>
 4    1  0.1551744E+006  0.2098183E+02  0.7546771E-02  0.1519524E+00
         21   -1    0    0  503  501  0.00000000000E+00  0.00000000000E+00  0.62523857503E+02  0.62523857503E+02  0.00000000000E+00 0. -1.
         21   -1    0    0  504  502 -0.00000000000E+00 -0.00000000000E+00 -0.70427127393E+01  0.70427127393E+01  0.00000000000E+00 0. -1.
         21    1    1    2  503  502 -0.16564495206E+02 -0.12878462324E+02  0.28265467968E+02  0.35201902970E+02  0.00000000000E+00 0. -1.
         21    1    1    2  504  501  0.16564495206E+02  0.12878462324E+02  0.27215676795E+02  0.34364667271E+02  0.00000000000E+00 0. -1.
</event>
<event>
 4    1  0.1551744E+006  0.2535670E+02  0.7546771E-02  0.1464852E+00
         21   -1    0    0  504  501  0.00000000000E+00  0.00000000000E+00  0.19430085655E+03  0.19430085655E+03  0.00000000000E+00 0. -1.
         21   -1    0    0  503  502 -0.00000000000E+00 -0.00000000000E+00 -0.48648952450E+01  0.48648952450E+01  0.00000000000E+00 0. -1.
         21    1    1    2  503  501  0.26645406506E+01 -0.25216314820E+02  0.38403099607E+02  0.46019130472E+02  0.00000000000E+00 0. -1.
         21    1    1    2  504  502 -0.26645406506E+01  0.25216314820E+02  0.15103286170E+03  0.15314662132E+03  0.00000000000E+00 0. -1.
</event>
<event>
 4    1  0.1551744E+006  0.2000063E+02  0.7546771E-02  0.1534026E+00
         21   -1    0    0  502  501  0.00000000000E+00  0.00000000000E+00  0.18535245115E+02  0.18535245115E+02  0.00000000000E+00 0. -1.
         21   -1    0    0  504  502 -0.00000000000E+00 -0.00000000000E+00 -0.47183551998E+02  0.47183551998E+02  0.00000000000E+00 0.  1.
         21    1    1    2  503  501 -0.94310191534E+01  0.17637487303E+02  0.98804862062E+01  0.22308049854E+02  0.00000000000E+00 0. -1.
         21    1    1    2  504  503  0.94310191534E+01 -0.17637487303E+02 -0.38528793089E+02  0.43410747258E+02  0.00000000000E+00 0.  1.
</event>
<event>
 4    1  0.1551744E+006  0.2597691E+02  0.7546771E-02  0.1458165E+00
         21   -1    0    0  503  501  0.00000000000E+00  0.00000000000E+00  0.37138801438E+01  0.37138801438E+01  0.00000000000E+00 0. -1.
         21   -1    0    0  504  502 -0.00000000000E+00 -0.00000000000E+00 -0.19255862192E+03  0.19255862192E+03  0.00000000000E+00 0. -1.
         21    1    1    2  503  502  0.22317320491E+02  0.13294246278E+02 -0.11773016935E+03  0.12056198635E+03  0.00000000000E+00 0. -1.
         21    1    1    2  504  501 -0.22317320491E+02 -0.13294246278E+02 -0.71114572432E+02  0.75710515717E+02  0.00000000000E+00 0. -1.
</event>
<event>
 4    1  0.1551744E+006  0.2224916E+02  0.7546771E-02  0.1502148E+00
         21   -1    0    0  504  501  0.00000000000E+00  0.00000000000E+00  0.74375635060E+02  0.74375635060E+02  0.00000000000E+00 0. -1.
         21   -1    0    0  503  502 -0.00000000000E+00 -0.00000000000E+00 -0.17138884705E+02  0.17138884705E+02  0.00000000000E+00 0.  1.
         21    1    1    2  503  501 -0.76663932335E+01 -0.20886636806E+02  0.64404480805E+02  0.68139286246E+02  0.00000000000E+00 0. -1.
         21    1    1    2  504  502  0.76663932335E+01  0.20886636806E+02 -0.71677304506E+01  0.23375233520E+02  0.00000000000E+00 0.  1.
</event>
<event>
 4    1  0.1551744E+006  0.3305724E+02  0.7546771E-02  0.1394761E+00
         21   -1    0    0  503  501  0.00000000000E+00  0.00000000000E+00  0.16602116728E+02  0.16602116728E+02  0.00000000000E+00 0. -1.
         21   -1    0    0  501  502 -0.00000000000E+00 -0.00000000000E+00 -0.68837817011E+02  0.68837817011E+02  0.00000000000E+00 0.  1.
         21    1    1    2  503  504  0.24899541918E+02  0.21743819411E+02 -0.17175828530E+02  0.37253052975E+02  0.00000000000E+00 0. -1.
         21    1    1    2  504  502 -0.24899541918E+02 -0.21743819411E+02 -0.35059871754E+02  0.48186880763E+02  0.00000000000E+00 0.  1.
</event>
<event>
 4    1  0.1551744E+006  0.5369799E+02  0.7546771E-02  0.1282889E+00
         21   -1    0    0  504  501  0.00000000000E+00  0.00000000000E+00  0.34600306783E+03  0.34600306783E+03  0.00000000000E+00 0. -1.
         21   -1    0    0  503  502 -0.00000000000E+00 -0.00000000000E+00 -0.98644823644E+01  0.98644823644E+01  0.00000000000E+00 0. -1.
         21    1    1    2  503  501  0.52892952723E+02 -0.92633518120E+01  0.23816359813E+03  0.24414211765E+03  0.00000000000E+00 0. -1.
         21    1    1    2  504  502 -0.52892952723E+02  0.92633518120E+01  0.97974987333E+02  0.11172543255E+03  0.00000000000E+00 0. -1.
</event>
<event>
 4    1  0.1551744E+006  0.2161216E+02  0.7546771E-02  0.1510702E+00
         21   -1    0    0  503  501  0.00000000000E+00  0.00000000000E+00  0.17166569282E+01  0.17166569282E+01  0.00000000000E+00 0.  1.
         21   -1    0    0  504  502 -0.00000000000E+00 -0.00000000000E+00 -0.37655399421E+03  0.37655399421E+03  0.00000000000E+00 0. -1.
         21    1    1    2  503  502  0.19949249160E+02  0.83134082907E+01 -0.87799664634E+02  0.90420497728E+02  0.00000000000E+00 0.  1.
         21    1    1    2  504  501 -0.19949249160E+02 -0.83134082907E+01 -0.28703767265E+03  0.28785015341E+03  0.00000000000E+00 0. -1.
</event>
<event>
 4    1  0.1551744E+006  0.2029146E+02  0.7546771E-02  0.1529626E+00
         21   -1    0    0  503  501  0.00000000000E+00  0.00000000000E+00  0.13799649012E+01  0.13799649012E+01  0.00000000000E+00 0.  1.
         21   -1    0    0  501  502 -0.00000000000E+00 -0.00000000000E+00 -0.36675512612E+03  0.36675512612E+03  0.00000000000E+00 0.  1.
         21    1    1    2  503  504  0.24833626616E+01  0.20138922356E+02 -0.10320669670E+03  0.10518253433E+03  0.00000000000E+00 0.  1.
         21    1    1    2  504  502 -0.24833626616E+01 -0.20138922356E+02 -0.26216846451E+03  0.26295255669E+03  0.00000000000E+00 0.  1.
</event>
<event>
 4    1  0.1551744E+006  0.3627958E+02  0.7546771E-02  0.1371784E+00
         21   -1    0    0  504  501  0.00000000000E+00  0.00000000000E+00  0.10281364024E+02  0.10281364024E+02  0.00000000000E+00 0. -1.
         21   -1    0    0  503  502 -0.00000000000E+00 -0.00000000000E+00 -0.13223276898E+03  0.13223276898E+03  0.00000000000E+00 0. -1.
         21    1    1    2  503  501 -0.14938587593E+02  0.33061249934E+02 -0.48255171076E+02  0.60371923790E+02  0.00000000000E+00 0. -1.
         21    1    1    2  504  502  0.14938587593E+02 -0.33061249934E+02 -0.73696233879E+02  0.82142209213E+02  0.00000000000E+00 0. -1.
</event>
<event>
 4    1  0.1551744E+006  0.2513290E+02  0.7546771E-02  0.1467322E+00
         21   -1    0    0  504  501  0.00000000000E+00  0.00000000000E+00  0.10386694520E+03  0.10386694520E+03  0.00000000000E+00 0.  1.
         21   -1    0    0  503  502 -0.00000000000E+00 -0.00000000000E+00 -0.82108259885E+01  0.82108259885E+01  0.00000000000E+00 0.  1.
         21    1    1    2  503  501  0.19354629787E+02  0.16033117969E+02  0.76365914619E+02  0.80395369778E+02  0.00000000000E+00 0.  1.
         21    1    1    2  504  502 -0.19354629787E+02 -0.16033117969E+02  0.19290204594E+02  0.31682401413E+02  0.00000000000E+00 0.  1.
</event>
<event>
 4    1  0.1551744E+006  0.2250035E+02  0.7546771E-02  0.1498869E+00
         21   -1    0    0  503  501  0.00000000000E+00  0.00000000000E+00  0.13454434832E+02  0.13454434832E+02  0.00000000000E+00 0.  1.
         21   -1    0    0  504  502 -0.00000000000E+00 -0.00000000000E+00 -0.38237090876E+02  0.38237090876E+02  0.00000000000E+00 0.  1.
         21    1    1    2  503  502 -0.23302099286E+01 -0.22379363285E+02 -0.91297566804E+01  0.24282055852E+02  0.00000000000E+00 0.  1.
         21    1    1    2  504  501  0.23302099286E+01  0.22379363285E+02 -0.15652899363E+02  0.27409469856E+02  0.00000000000E+00 0.  1.
</event>
<event>
 4    1  0.1551744E+006  0.2110038E+02  0.7546771E-02  0.1517836E+00
         21   -1    0    0  503  501  0.00000000000E+00  0.00000000000E+00  0.26314576493E+02  0.26314576493E+02  0.00000000000E+00 0.  1.
         21   -1    0    0  504  502 -0.00000000000E+00 -0.00000000000E+00 -0.17287511254E+02  0.17287511254E+02  0.00000000000E+00 0.  1.
         21    1    1    2  503  502 -0.18971060085E+02 -0.92371422853E+01  0.13321098709E+01  0.21142384800E+02  0.00000000000E+00 0.  1.
         21    1    1    2  504  501  0.18971060085E+02  0.92371422853E+01  0.76949553676E+01  0.22459702946E+02  0.00000000000E+00 0.  1.
</event>
<event>
 4    1  0.1551744E+006  0.2161819E+02  0.7546771E-02  0.1510619E+00
         21   -1    0    0  502  501  0.00000000000E+00  0.00000000000E+00  0.10407937918E+02  0.10407937918E+02  0.00000000000E+00 0. -1.
         21   -1    0    0  503  502 -0.00000000000E+00 -0.00000000000E+00 -0.61503816560E+02  0.61503816560E+02  0.00000000000E+00 0. -1.
         21    1    1    2  503  504  0.21146464881E+02  0.44914708893E+01 -0.44228300806E+02  0.49228943518E+02  0.00000000000E+00 0. -1.
         21    1    1    2  504  501 -0.21146464881E+02 -0.44914708893E+01 -0.68675778362E+01  0.22682810960E+02  0.00000000000E+00 0. -1.
</event>
<event>
 4    1  0.1551744E+006  0.2244119E+02  0.7546771E-02  0.1499637E+00
         21   -1    0    0  504  501  0.00000000000E+00  0.00000000000E+00  0.51072551490E+02  0.51072551490E+02  0.00000000000E+00 0.  1.
         21   -1    0    0  503  502 -0.00000000000E+00 -0.00000000000E+00 -0.45462157429E+02  0.45462157429E+02  0.00000000000E+00 0. -1.
         21    1    1    2  503  501  0.18883357931E+02  0.12125421191E+02  0.45518469761E+02  0.50749759952E+02  0.00000000000E+00 0.  1.
         21    1    1    2  504  502 -0.18883357931E+02 -0.12125421191E+02 -0.39908075700E+02  0.45784948967E+02  0.00000000000E+00 0. -1.
</event>
<event>
 4    1  0.1551744E+006  0.2138655E+02  0.7546771E-02  0.1513817E+00
         21   -1    0    0  503  501  0.00000000000E+00  0.00000000000E+00  0.19328983172E+01  0.19328983172E+01  0.00000000000E+00 0. -1.
         21   -1    0    0  504  502 -0.00000000000E+00 -0.00000000000E+00 -0.39499830228E+03  0.39499830228E+03  0.00000000000E+00 0.  1.
         21    1    1    2  503  502 -0.21379109929E+02 -0.56396007824E+00 -0.32219930302E+03  0.32290830782E+03  0.00000000000E+00 0.  1.
         21    1    1    2  504  501  0.21379109929E+02  0.56396007824E+00 -0.70866100942E+02  0.74022892776E+02  0.00000000000E+00 0. -1.
</event>
<event>
 4    1  0.1551744E+006  0.3499916E+02  0.7546771E-02  0.1380569E+00
         21   -1    0    0  504  501  0.00000000000E+00  0.00000000000E+00  0.77042949393E+03  0.77042949393E+03  0.00000000000E+00 0. -1.
         21   -1    0    0  503  502 -0.00000000000E+00 -0.00000000000E+00 -0.16504659754E+01  0.16504659754E+01  0.00000000000E+00 0. -1.
         21    1    1    2  503  501  0.27938397357E+02 -0.21080490856E+02  0.45831242641E+03  0.45964684416E+03  0.00000000000E+00 0. -1.
         21    1    1    2  504  502 -0.27938397357E+02  0.21080490856E+02  0.31046660154E+03  0.31243311574E+03  0.00000000000E+00 0. -1.
</event>
<event>
 4    1  0.1551744E+006  0.4076989E+02  0.7546771E-02  0.1344032E+00
         21   -1    0    0  503  501  0.00000000000E+00  0.00000000000E+00  0.21812117038E+02  0.21812117038E+02  0.00000000000E+00 0.  1.
         21   -1    0    0  504  502 -0.00000000000E+00 -0.00000000000E+00 -0.43211393598E+03  0.43211393598E+03  0.00000000000E+00 0.  1.
         21    1    1    2  503  502  0.21486232914E+02 -0.34648608680E+02  0.82937331205E+00  0.40778329397E+02  0.00000000000E+00 0.  1.
         21    1    1    2  504  501 -0.21486232914E+02  0.34648608680E+02 -0.41113119226E+03  0.41314772362E+03  0.00000000000E+00 0.  1.
</event>
<event>
 4    1  0.1551744E+006  0.2056279E+02  0.7546771E-02  0.1525599E+00
         21   -1    0    0  503  501  0.00000000000E+00  0.00000000000E+00  0.29737501795E+02  0.29737501795E+02  0.00000000000E+00 0.  1.
         21   -1    0    0  504  502 -0.00000000000E+00 -0.00000000000E+00 -0.79935833587E+02  0.79935833587E+02  0.00000000000E+00 0. -1.
         21    1    1    2  503  502 -0.20411221896E+02 -0.24920788601E+01  0.24621808137E+02  0.32078994253E+02  0.00000000000E+00 0.  1.
         21    1    1    2  504  501  0.20411221896E+02  0.24920788601E+01 -0.74820139929E+02  0.77594341130E+02  0.00000000000E+00 0. -1.
</event>
<event>
 4    1  0.1551744E+006  0.6385469E+02  0.7546771E-02  0.1247270E+00
         21   -1    0    0  502  501  0.00000000000E+00  0.00000000000E+00  0.13356418979E+03  0.13356418979E+03  0.00000000000E+00 0. -1.
         21   -1    0    0  503  502 -0.00000000000E+00 -0.00000000000E+00 -0.21558524281E+03  0.21558524281E+03  0.00000000000E+00 0. -1.
         21    1    1    2  503  504  0.62279933095E+02 -0.14093656258E+02 -0.20275338182E+03  0.21257082362E+03  0.00000000000E+00 0. -1.
         21    1    1    2  504  501 -0.62279933095E+02  0.14093656258E+02  0.12073232880E+03  0.13657860898E+03  0.00000000000E+00 0. -1.
</event>
<event>
 4    1  0.1551744E+006  0.3746619E+02  0.7546771E-02  0.1364010E+00
         21   -1    0    0  503  501  0.00000000000E+00  0.00000000000E+00  0.23849807558E+02  0.23849807558E+02  0.00000000000E+00 0. -1.
         21   -1    0    0  504  502 -0.00000000000E+00 -0.00000000000E+00 -0.99161711731E+02  0.99161711731E+02  0.00000000000E+00 0.  1.
         21    1    1    2  503  502  0.14060291768E+02  0.34727851083E+02 -0.76868453996E+02  0.85513008748E+02  0.00000000000E+00 0.  1.
         21    1    1    2  504  501 -0.14060291768E+02 -0.34727851083E+02  0.15565498228E+01  0.37498510541E+02  0.00000000000E+00 0. -1.
</event>
<event>
 4    1  0.1551744E+006  0.2260903E+02  0.7546771E-02  0.1497467E+00
         21   -1    0    0  502  501  0.00000000000E+00  0.00000000000E+00  0.80350220819E+02  0.80350220819E+02  0.00000000000E+00 0.  1.
         21   -1    0    0  504  502 -0.00000000000E+00 -0.00000000000E+00 -0.48210720360E+02  0.48210720360E+02  0.00000000000E+00 0.  1.
         21    1    1    2  503  501 -0.22151640568E+02  0.45247403087E+01  0.75959099947E+02  0.79252465700E+02  0.00000000000E+00 0.  1.
         21    1    1    2  504  503  0.22151640568E+02 -0.45247403087E+01 -0.43819599488E+02  0.49308475479E+02  0.00000000000E+00 0.  1.
</event>
<event>
 4    1  0.1551744E+006  0.2145932E+02  0.7546771E-02  0.1512807E+00
         21   -1    0    0  504  501  0.00000000000E+00  0.00000000000E+00  0.98853847780E+02  0.98853847780E+02  0.00000000000E+00 0. -1.
         21   -1    0    0  503  502 -0.00000000000E+00 -0.00000000000E+00 -0.10726757383E+02  0.10726757383E+02  0.00000000000E+00 0.  1.
         21    1    1    2  503  501 -0.90878370842E+01  0.19439997196E+02  0.28533664385E+01  0.21648186388E+02  0.00000000000E+00 0.  1.
         21    1    1    2  504  502  0.90878370842E+01 -0.19439997196E+02  0.85273723958E+02  0.87932418774E+02  0.00000000000E+00 0. -1.
</event>
<event>
 4    1  0.1551744E+006  0.2000316E+02  0.7546771E-02  0.1533987E+00
         21   -1    0    0  503  501  0.00000000000E+00  0.00000000000E+00  0.75554366716E+01  0.75554366716E+01  0.00000000000E+00 0.  1.
         21   -1    0    0  504  502 -0.00000000000E+00 -0.00000000000E+00 -0.53367043417E+02  0.53367043417E+02  0.00000000000E+00 0. -1.
         21    1    1    2  503  502  0.62234344242E+01  0.19010394581E+02 -0.20241311813E+02  0.28457634161E+02  0.00000000000E+00 0.  1.
         21    1    1    2  504  501 -0.62234344242E+01 -0.19010394581E+02 -0.25570294932E+02  0.32464845927E+02  0.00000000000E+00 0. -1.
</event>
<event>
 4    1  0.1551744E+006  0.2265414E+02  0.7546771E-02  0.1496887E+00
         21   -1    0    0  502  501  0.00000000000E+00  0.00000000000E+00  0.10797147814E+03  0.10797147814E+03  0.00000000000E+00 0.  1.
         21   -1    0    0  504  502 -0.00000000000E+00 -0.00000000000E+00 -0.93265075737E+01  0.93265075737E+01  0.00000000000E+00 0.  1.
         21    1    1    2  503  501  0.17822941567E+02 -0.13984018005E+02  0.90391686012E+02  0.93187267938E+02  0.00000000000E+00 0.  1.
         21    1    1    2  504  503 -0.17822941567E+02  0.13984018005E+02  0.82532845529E+01  0.24110717774E+02  0.00000000000E+00 0.  1.
</event>
<event>
 4    1  0.1551744E+006  0.2648302E+02  0.7546771E-02  0.1452871E+00
         21   -1    0    0  504  501  0.00000000000E+00  0.00000000000E+00  0.12465090181E+02  0.12465090181E+02  0.00000000000E+00 0.  1.
         21   -1    0    0  503  502 -0.00000000000E+00 -0.00000000000E+00 -0.76655757561E+03  0.76655757561E+03  0.00000000000E+00 0. -1.
         21    1    1    2  503  501 -0.17392242292E+02  0.19971492534E+02 -0.21023455808E+01  0.26566340789E+02  0.00000000000E+00 0.  1.
         21    1    1    2  504  502  0.17392242292E+02 -0.19971492534E+02 -0.75199013985E+03  0.75245632501E+03  0.00000000000E+00 0. -1.
</event>
<event>
 4    1  0.1551744E+006  0.2787344E+02  0.7546771E-02  0.1439026E+00
         21   -1    0    0  504  501  0.00000000000E+00  0.00000000000E+00  0.15571491509E+02  0.15571491509E+02  0.00000000000E+00 0.  1.
         21   -1    0    0  503  502 -0.00000000000E+00 -0.00000000000E+00 -0.66116972937E+02  0.66116972937E+02  0.00000000000E+00 0. -1.
         21    1    1    2  503  501 -0.26599875645E+02 -0.83291805828E+01 -0.45504585866E+02  0.53362870691E+02  0.00000000000E+00 0. -1.
         21    1    1    2  504  502  0.26599875645E+02  0.83291805828E+01 -0.50408955613E+01  0.28325593755E+02  0.00000000000E+00 0.  1.
</event>
<event>
 4    1  0.1551744E+006  0.2494914E+02  0.7546771E-02  0.1469373E+00
         21   -1    0    0  503  501  0.00000000000E+00  0.00000000000E+00  0.28849697486E+02  0.28849697486E+02  0.00000000000E+00 0. -1.
         21   -1    0    0  504  502 -0.00000000000E+00 -0.00000000000E+00 -0.32596732285E+02  0.32596732285E+02  0.00000000000E+00 0. -1.
         21    1    1    2  503  502  0.61042968144E+01 -0.24190850321E+02 -0.19737809201E+02  0.31812588561E+02  0.00000000000E+00 0. -1.
         21    1    1    2  504  501 -0.61042968144E+01  0.24190850321E+02  0.15990774403E+02  0.29633841210E+02  0.00000000000E+00 0. -1.
</event>
<event>
 4    1  0.1551744E+006  0.2283798E+02  0.7546771E-02  0.1494543E+00
         21   -1    0    0  504  501  0.00000000000E+00  0.00000000000E+00  0.12271109200E+02  0.12271109200E+02  0.00000000000E+00 0.  1.
         21   -1    0    0  503  502 -0.00000000000E+00 -0.00000000000E+00 -0.43302492557E+02  0.43302492557E+02  0.00000000000E+00 0.  1.
         21    1    1    2  503  501  0.19576673326E+02  0.11761249946E+02 -0.11742793114E+02  0.25680076498E+02  0.00000000000E+00 0.  1.
         21    1    1    2  504  502 -0.19576673326E+02 -0.11761249946E+02 -0.19288590243E+02  0.29893525259E+02  0.00000000000E+00 0.  1.
</event>
<event>
 4    1  0.1551744E+006  0.2142615E+02  0.7546771E-02  0.1513267E+00
         21   -1    0    0  503  501  0.00000000000E+00  0.00000000000E+00  0.13121835081E+02  0.13121835081E+02  0.00000000000E+00 0.  1.
         21   -1    0    0  504  502 -0.00000000000E+00 -0.00000000000E+00 -0.34995805256E+02  0.34995805256E+02  0.00000000000E+00 0.  1.
         21    1    1    2  503  502 -0.21361980450E+02  0.16569957552E+01 -0.10533211529E+02  0.23875267303E+02  0.00000000000E+00 0.  1.
         21    1    1    2  504  501  0.21361980450E+02 -0.16569957552E+01 -0.11340758647E+02  0.24242373034E+02  0.00000000000E+00 0.  1.
</event>
<event>
 4    1  0.1551744E+006  0.2387177E+02  0.7546771E-02  0.1481832E+00
         21   -1    0    0  503  501  0.00000000000E+00  0.00000000000E+00  0.27590935745E+01  0.27590935745E+01  0.00000000000E+00 0.  1.
         21   -1    0    0  504  502 -0.00000000000E+00 -0.00000000000E+00 -0.23034488116E+03  0.23034488116E+03  0.00000000000E+00 0.  1.
         21    1    1    2  503  502 -0.11061777793E+00 -0.23871517410E+02 -0.15126160220E+03  0.15313371242E+03  0.00000000000E+00 0.  1.
         21    1    1    2  504  501  0.11061777793E+00  0.23871517410E+02 -0.76324185387E+02  0.79970262315E+02  0.00000000000E+00 0.  1.
</event>
<event>
 4    1  0.1551744E+006  0.2631303E+02  0.7546771E-02  0.1454634E+00
         21   -1    0    0  504  501  0.00000000000E+00  0.00000000000E+00  0.13517630100E+03  0.13517630100E+03  0.00000000000E+00 0. -1.
         21   -1    0    0  503  502 -0.00000000000E+00 -0.00000000000E+00 -0.58287965516E+01  0.58287965516E+01  0.00000000000E+00 0. -1.
         21    1    1    2  503  501  0.75674822659E+01  0.25201368144E+02  0.89224027968E+02  0.93023131054E+02  0.00000000000E+00 0. -1.
         21    1    1    2  504  502 -0.75674822659E+01 -0.25201368144E+02  0.40123476483E+02  0.47981966500E+02  0.00000000000E+00 0. -1.
</event>
<event>
 4    1  0.1551744E+006  0.2134358E+02  0.7546771E-02  0.1514416E+00
         21   -1    0    0  504  501  0.00000000000E+00  0.00000000000E+00  0.13131436666E+03  0.13131436666E+03  0.00000000000E+00 0.  1.
         21   -1    0    0  501  502 -0.00000000000E+00 -0.00000000000E+00 -0.34576938990E+02  0.34576938990E+02  0.00000000000E+00 0. -1.
         21    1    1    2  503  502  0.61024696517E+01  0.20452581942E+02 -0.30305965718E+02  0.37067503316E+02  0.00000000000E+00 0. -1.
         21    1    1    2  504  503 -0.61024696517E+01 -0.20452581942E+02  0.12704339338E+03  0.12882380233E+03  0.00000000000E+00 0.  1.
</event>
<event>
 4    1  0.1551744E+006  0.3487539E+02  0.7546771E-02  0.1381441E+00
         21   -1    0    0  504  501  0.00000000000E+00  0.00000000000E+00  0.12589354157E+03  0.12589354157E+03  0.00000000000E+00 0. -1.
         21   -1    0    0  503  502 -0.00000000000E+00 -0.00000000000E+00 -0.11444648214E+02  0.11444648214E+02  0.00000000000E+00 0. -1.
         21    1    1    2  503  501  0.34473618687E+02  0.52785197364E+01  0.30117523652E+02  0.46079913053E+02  0.00000000000E+00 0. -1.
         21    1    1    2  504  502 -0.34473618687E+02 -0.52785197364E+01  0.84331369705E+02  0.91258276734E+02  0.00000000000E+00 0. -1.
</event>
<event>
 4    1  0.1551744E+006  0.3794916E+02  0.7546771E-02  0.1360942E+00
         21   -1    0    0  503  501  0.00000000000E+00  0.00000000000E+00  0.23183008902E+02  0.23183008902E+02  0.00000000000E+00 0. -1.
         21   -1    0    0  504  502 -0.00000000000E+00 -0.00000000000E+00 -0.93105773067E+02  0.93105773067E+02  0.00000000000E+00 0. -1.
         21    1    1    2  503  502  0.46798050672E+00 -0.37946275306E+02 -0.68504047824E+02  0.78313111186E+02  0.00000000000E+00 0. -1.
         21    1    1    2  504  501 -0.46798050672E+00  0.37946275306E+02 -0.14187163406E+01  0.37975670783E+02  0.00000000000E+00 0. -1.
</event>
<event>
 4    1  0.1551744E+006  0.2294690E+02  0.7546771E-02  0.1493166E+00
         21   -1    0    0  503  501  0.00000000000E+00  0.00000000000E+00  0.62805969602E+03  0.62805969602E+03  0.00000000000E+00 0. -1.
         21   -1    0    0  504  502 -0.00000000000E+00 -0.00000000000E+00 -0.20051360929E+02  0.20051360929E+02  0.00000000000E+00 0. -1.
         21    1    1    2  503  502  0.22939472847E+02 -0.58392101672E+00 -0.13204280584E+02  0.26474769196E+02  0.00000000000E+00 0. -1.
         21    1    1    2  504  501 -0.22939472847E+02  0.58392101672E+00  0.62121261567E+03  0.62163628775E+03  0.00000000000E+00 0. -1.
</event>
<event>
 4    1  0.1551744E+006  0.2895560E+02  0.7546771E-02  0.1428895E+00
         21   -1    0    0  502  501  0.00000000000E+00  0.00000000000E+00  0.20134680613E+02  0.20134680613E+02  0.00000000000E+00 0.  1.
         21   -1    0    0  503  502 -0.00000000000E+00 -0.00000000000E+00 -0.25205376720E+03  0.25205376720E+03  0.00000000000E+00 0.  1.
         21    1    1    2  503  504  0.28347227482E+02  0.59043552217E+01 -0.24030479871E+03  0.24204301890E+03  0.00000000000E+00 0.  1.
         21    1    1    2  504  501 -0.28347227482E+02 -0.59043552217E+01  0.83857121208E+01  0.30145428912E+02  0.00000000000E+00 0.  1.
</event>
<event>
 4    1  0.1551744E+006  0.4523475E+02  0.7546771E-02  0.1320270E+00
         21   -1    0    0  502  501  0.00000000000E+00  0.00000000000E+00  0.17435633374E+02  0.17435633374E+02  0.00000000000E+00 0. -1.
         21   -1    0    0  504  502 -0.00000000000E+00 -0.00000000000E+00 -0.45208725605E+03  0.45208725605E+03  0.00000000000E+00 0. -1.
         21    1    1    2  503  501 -0.28781562663E+02 -0.34897047758E+02 -0.15320146907E+02  0.47758655685E+02  0.00000000000E+00 0. -1.
         21    1    1    2  504  503  0.28781562663E+02  0.34897047758E+02 -0.41933147577E+03  0.42176423374E+03  0.00000000000E+00 0. -1.
</event>
<event>
 4    1  0.1551744E+006  0.2127224E+02  0.7546771E-02  0.1515413E+00
         21   -1    0    0  504  501  0.00000000000E+00  0.00000000000E+00  0.89206027353E+02  0.89206027353E+02  0.00000000000E+00 0.  1.
         21   -1    0    0  503  502 -0.00000000000E+00 -0.00000000000E+00 -0.11394402597E+02  0.11394402597E+02  0.00000000000E+00 0. -1.
         21    1    1    2  503  501 -0.72970283402E+01  0.19981529340E+02  0.76372378725E+02  0.79279558333E+02  0.00000000000E+00 0.  1.
         21    1    1    2  504  502  0.72970283402E+01 -0.19981529340E+02  0.14392460313E+01  0.21320871617E+02  0.00000000000E+00 0. -1.
</event>
<event>
 4    1  0.1551744E+006  0.2076941E+02  0.7546771E-02  0.1522583E+00
         21   -1    0    0  503  501  0.00000000000E+00  0.00000000000E+00  0.67005960641E+02  0.67005960641E+02  0.00000000000E+00 0.  1.
         21   -1    0    0  501  502 -0.00000000000E+00 -0.00000000000E+00 -0.12892922409E+03  0.12892922409E+03  0.00000000000E+00 0. -1.
         21    1    1    2  503  504 -0.15669604498E+02 -0.13632009478E+02  0.64528758063E+02  0.67788854576E+02  0.00000000000E+00 0.  1.
         21    1    1    2  504  502  0.15669604498E+02  0.13632009478E+02 -0.12645202152E+03  0.12814633016E+03  0.00000000000E+00 0. -1.
</event>
<event>
 4    1  0.1551744E+006  0.2105151E+02  0.7546771E-02  0.1518531E+00
         21   -1    0    0  503  501  0.00000000000E+00  0.00000000000E+00  0.77294476569E+01  0.77294476569E+01  0.00000000000E+00 0. -1.
         21   -1    0    0  504  502 -0.00000000000E+00 -0.00000000000E+00 -0.80847107109E+02  0.80847107109E+02  0.00000000000E+00 0. -1.
         21    1    1    2  503  502 -0.20536854443E+02  0.46263934050E+01 -0.12674960650E+02  0.24572759996E+02  0.00000000000E+00 0. -1.
         21    1    1    2  504  501  0.20536854443E+02 -0.46263934050E+01 -0.60442698803E+02  0.64003794770E+02  0.00000000000E+00 0. -1.
</event>
<event>
 4    1  0.1551744E+006  0.2132024E+02  0.7546771E-02  0.1514742E+00
         21   -1    0    0  504  501  0.00000000000E+00  0.00000000000E+00  0.28632999045E+03  0.28632999045E+03  0.00000000000E+00 0.  1.
         21   -1    0    0  503  502 -0.00000000000E+00 -0.00000000000E+00 -0.39952008051E+01  0.39952008051E+01  0.00000000000E+00 0. -1.
         21    1    1    2  503  501 -0.98579503550E+01 -0.18904319559E+02  0.25385743574E+03  0.25475115341E+03  0.00000000000E+00 0.  1.
         21    1    1    2  504  502  0.98579503550E+01  0.18904319559E+02  0.28477353904E+02  0.35574037845E+02  0.00000000000E+00 0. -1.
</event>
<event>
 4    1  0.1551744E+006  0.3469942E+02  0.7546771E-02  0.1382689E+00
         21   -1    0    0  503  501  0.00000000000E+00  0.00000000000E+00  0.15462277740E+03  0.15462277740E+03  0.00000000000E+00 0. -1.
         21   -1    0    0  504  502 -0.00000000000E+00 -0.00000000000E+00 -0.17147973089E+02  0.17147973089E+02  0.00000000000E+00 0. -1.
         21    1    1    2  503  502  0.34647119278E+02  0.19044476303E+01  0.13219344490E+03  0.13667171129E+03  0.00000000000E+00 0. -1.
         21    1    1    2  504  501 -0.34647119278E+02 -0.19044476303E+01  0.52813594147E+01  0.35099039193E+02  0.00000000000E+00 0. -1.
</event>
<event>
 4    1  0.1551744E+006  0.2427280E+02  0.7546771E-02  0.1477105E+00
         21   -1    0    0  504  501  0.00000000000E+00  0.00000000000E+00  0.97801437472E+03  0.97801437472E+03  0.00000000000E+00 0.  1.
         21   -1    0    0  503  502 -0.00000000000E+00 -0.00000000000E+00 -0.92786390731E+00  0.92786390731E+00  0.00000000000E+00 0. -1.
         21    1    1    2  503  501  0.16026162687E+02 -0.18229947520E+02  0.19865710481E+03  0.20013449020E+03  0.00000000000E+00 0. -1.
         21    1    1    2  504  502 -0.16026162687E+02  0.18229947520E+02  0.77842940600E+03  0.77880774842E+03  0.00000000000E+00 0.  1.
</event>
<event>
 4    1  0.1551744E+006  0.3631484E+02  0.7546771E-02  0.1371548E+00
         21   -1    0    0  502  501  0.00000000000E+00  0.00000000000E+00  0.14085865008E+03  0.14085865008E+03  0.00000000000E+00 0.  1.
         21   -1    0    0  504  502 -0.00000000000E+00 -0.00000000000E+00 -0.11330042441E+02  0.11330042441E+02  0.00000000000E+00 0. -1.
         21    1    1    2  503  501  0.34735753982E+02 -0.10592200897E+02  0.96475727941E+02  0.10308410841E+03  0.00000000000E+00 0.  1.
         21    1    1    2  504  503 -0.34735753982E+02  0.10592200897E+02  0.33052879695E+02  0.49104584111E+02  0.00000000000E+00 0. -1.
</event>
<event>
 4    1  0.1551744E+006  0.3550410E+02  0.7546771E-02  0.1377053E+00
         21   -1    0    0  503  501  0.00000000000E+00  0.00000000000E+00  0.65040476373E+02  0.65040476373E+02  0.00000000000E+00 0. -1.
         21   -1    0    0  501  502 -0.00000000000E+00 -0.00000000000E+00 -0.21431120252E+02  0.21431120252E+02  0.00000000000E+00 0. -1.
         21    1    1    2  503  504  0.13606012809E+02  0.32793559257E+02  0.35177538931E+02  0.49979999585E+02  0.00000000000E+00 0. -1.
         21    1    1    2  504  502 -0.13606012809E+02 -0.32793559257E+02  0.84318171905E+01  0.36491597039E+02  0.00000000000E+00 0. -1.
</event>
<event>
 4    1  0.1551744E+006  0.2052279E+02  0.7546771E-02  0.1526188E+00
         21   -1    0    0  504  501  0.00000000000E+00  0.00000000000E+00  0.64168908642E+02  0.64168908642E+02  0.00000000000E+00 0. -1.
         21   -1    0    0  503  502 -0.00000000000E+00 -0.00000000000E+00 -0.16708795176E+02  0.16708795176E+02  0.00000000000E+00 0.  1.
         21    1    1    2  503  501 -0.12883353276E+02  0.15975105500E+02 -0.77803884226E+01  0.21948103139E+02  0.00000000000E+00 0.  1.
         21    1    1    2  504  502  0.12883353276E+02 -0.15975105500E+02  0.55240501888E+02  0.58929600680E+02  0.00000000000E+00 0. -1.
</event>
<event>
 4    1  0.1551744E+006  0.2568531E+02  0.7546771E-02  0.1461281E+00
         21   -1    0    0  504  501  0.00000000000E+00  0.00000000000E+00  0.13997530142E+02  0.13997530142E+02  0.00000000000E+00 0. -1.
         21   -1    0    0  501  502 -0.00000000000E+00 -0.00000000000E+00 -0.50014937652E+02  0.50014937652E+02  0.00000000000E+00 0. -1.
         21    1    1    2  503  502 -0.24451533926E+02  0.78649603146E+01 -0.25692633475E+02  0.36329692085E+02  0.00000000000E+00 0. -1.
         21    1    1    2  504  503  0.24451533926E+02 -0.78649603146E+01 -0.10324774036E+02  0.27682775710E+02  0.00000000000E+00 0. -1.
</event>
<event>
 4    1  0.1551744E+006  0.3143386E+02  0.7546771E-02  0.1407532E+00
         21   -1    0    0  504  501  0.00000000000E+00  0.00000000000E+00  0.16437571016E+02  0.16437571016E+02  0.00000000000E+00 0.  1.
         21   -1    0    0  503  502 -0.00000000000E+00 -0.00000000000E+00 -0.60185378103E+02  0.60185378103E+02  0.00000000000E+00 0.  1.
         21    1    1    2  503  501  0.28975786989E+02 -0.12185701352E+02 -0.23215901952E+02  0.39077687400E+02  0.00000000000E+00 0.  1.
         21    1    1    2  504  502 -0.28975786989E+02  0.12185701352E+02 -0.20531905135E+02  0.37545261719E+02  0.00000000000E+00 0.  1.
</event>
<event>
 4    1  0.1551744E+006  0.3554453E+02  0.7546771E-02  0.1376775E+00
         21   -1    0    0  503  501  0.00000000000E+00  0.00000000000E+00  0.17007959989E+03  0.17007959989E+03  0.00000000000E+00 0.  1.
         21   -1    0    0  504  502 -0.00000000000E+00 -0.00000000000E+00 -0.37439501127E+02  0.37439501127E+02  0.00000000000E+00 0.  1.
         21    1    1    2  503  502 -0.35436416694E+02 -0.27701873097E+01 -0.26577501413E+02  0.44382171502E+02  0.00000000000E+00 0.  1.
         21    1    1    2  504  501  0.35436416694E+02  0.27701873097E+01  0.15921760018E+03  0.16313692951E+03  0.00000000000E+00 0.  1.
</event>
<event>
 4    1  0.1551744E+006  0.6194464E+02  0.7546771E-02  0.1253365E+00
         21   -1    0    0  504  501  0.00000000000E+00  0.00000000000E+00  0.34794007028E+02  0.34794007028E+02  0.00000000000E+00 0.  1.
         21   -1    0    0  503  502 -0.00000000000E+00 -0.00000000000E+00 -0.20572178403E+03  0.20572178403E+03  0.00000000000E+00 0. -1.
         21    1    1    2  503  501 -0.32645587326E+02  0.52644125846E+02 -0.35534748174E+01  0.62046478879E+02  0.00000000000E+00 0.  1.
         21    1    1    2  504  502  0.32645587326E+02 -0.52644125846E+02 -0.16737430218E+03  0.17846931218E+03  0.00000000000E+00 0. -1.
</event>
<event>
 4    1  0.1551744E+006  0.2179406E+02  0.7546771E-02  0.1508223E+00
         21   -1    0    0  502  501  0.00000000000E+00  0.00000000000E+00  0.85321349093E+01  0.85321349093E+01  0.00000000000E+00 0. -1.
         21   -1    0    0  504  502 -0.00000000000E+00 -0.00000000000E+00 -0.23136477072E+03  0.23136477072E+03  0.00000000000E+00 0. -1.
         21    1    1    2  503  501  0.15738800416E+01 -0.21737153320E+02 -0.68899427215E+01  0.22857214256E+02  0.00000000000E+00 0. -1.
         21    1    1    2  504  503 -0.15738800416E+01  0.21737153320E+02 -0.21594269309E+03  0.21703969137E+03  0.00000000000E+00 0. -1.
</event>
<event>
 4    1  0.1551744E+006  0.2319309E+02  0.7546771E-02  0.1490088E+00
         21   -1    0    0  503  501  0.00000000000E+00  0.00000000000E+00  0.12400192951E+03  0.12400192951E+03  0.00000000000E+00 0. -1.
         21   -1    0    0  504  502 -0.00000000000E+00 -0.00000000000E+00 -0.57377210325E+01  0.57377210325E+01  0.00000000000E+00 0. -1.
         21    1    1    2  503  502  0.43261076830E+01  0.22786051344E+02  0.27091917229E+02  0.35663585388E+02  0.00000000000E+00 0. -1.
         21    1    1    2  504  501 -0.43261076830E+01 -0.22786051344E+02  0.91172291252E+02  0.94076065159E+02  0.00000000000E+00 0. -1.
</event>
<event>
 4    1  0.1551744E+006  0.2047079E+02  0.7546771E-02  0.1526956E+00
         21   -1    0    0  503  501  0.00000000000E+00  0.00000000000E+00  0.21607250962E+02  0.21607250962E+02  0.00000000000E+00 0.  1.
         21   -1    0    0  504  502 -0.00000000000E+00 -0.00000000000E+00 -0.21852647071E+02  0.21852647071E+02  0.00000000000E+00 0.  1.
         21    1    1    2  503  502  0.17702813654E+02  0.10279289531E+02 -0.74113137436E+01  0.21771104151E+02  0.00000000000E+00 0.  1.
         21    1    1    2  504  501 -0.17702813654E+02 -0.10279289531E+02  0.71659176337E+01  0.21688793882E+02  0.00000000000E+00 0.  1.
</event>
<event>
 4    1  0.1551744E+006  0.2690254E+02  0.7546771E-02  0.1448590E+00
         21   -1    0    0  503  501  0.00000000000E+00  0.00000000000E+00  0.37776976095E+03  0.37776976095E+03  0.00000000000E+00 0. -1.
         21   -1    0    0  504  502 -0.00000000000E+00 -0.00000000000E+00 -0.16015720829E+02  0.16015720829E+02  0.00000000000E+00 0. -1.
         21    1    1    2  503  502 -0.68762984556E+00  0.26893746564E+02  0.36561839857E+03  0.36660681910E+03  0.00000000000E+00 0. -1.
         21    1    1    2  504  501  0.68762984556E+00 -0.26893746564E+02 -0.38643584435E+01  0.27178662683E+02  0.00000000000E+00 0. -1.
</event>
<event>
 4    1  0.1551744E+006  0.2299264E+02  0.7546771E-02  0.1492591E+00
         21   -1    0    0  504  501  0.00000000000E+00  0.00000000000E+00  0.11046377134E+03  0.11046377134E+03  0.00000000000E+00 0. -1.
         21   -1    0    0  503  502 -0.00000000000E+00 -0.00000000000E+00 -0.57927077078E+01  0.57927077078E+01  0.00000000000E+00 0.  1.
         21    1    1    2  503  501 -0.22397163048E+02  0.51989070581E+01  0.28101072956E+02  0.36308839811E+02  0.00000000000E+00 0.  1.
         21    1    1    2  504  502  0.22397163048E+02 -0.51989070581E+01  0.76569990672E+02  0.79947639231E+02  0.00000000000E+00 0. -1.
</event>
<event>
 4    1  0.1551744E+006  0.2294453E+02  0.7546771E-02  0.1493196E+00
         21   -1    0    0  504  501  0.00000000000E+00  0.00000000000E+00  0.25204369607E+02  0.25204369607E+02  0.00000000000E+00 0.  1.
         21   -1    0    0  503  502 -0.00000000000E+00 -0.00000000000E+00 -0.10644023748E+03  0.10644023748E+03  0.00000000000E+00 0. -1.
         21    1    1    2  503  501 -0.22777425094E+02  0.27641218174E+01 -0.99629562323E+02  0.10223747430E+03  0.00000000000E+00 0. -1.
         21    1    1    2  504  502  0.22777425094E+02 -0.27641218174E+01  0.18393694446E+02  0.29407132787E+02  0.00000000000E+00 0.  1.
</event>
<event>
 4    1  0.1551744E+006  0.2583778E+02  0.7546771E-02  0.1459646E+00
         21   -1    0    0  502  501  0.00000000000E+00  0.00000000000E+00  0.88120159414E+01  0.88120159414E+01  0.00000000000E+00 0. -1.
         21   -1    0    0  504  502 -0.00000000000E+00 -0.00000000000E+00 -0.27706049856E+03  0.27706049856E+03  0.00000000000E+00 0. -1.
         21    1    1    2  503  501  0.25837730227E+02 -0.50911760033E-01 -0.12287454905E+02  0.28610705047E+02  0.00000000000E+00 0. -1.
         21    1    1    2  504  503 -0.25837730227E+02  0.50911760033E-01 -0.25596102772E+03  0.25726180946E+03  0.00000000000E+00 0. -1.
</event>
<event>
 4    1  0.1551744E+006  0.2239500E+02  0.7546771E-02  0.1500238E+00
         21   -1    0    0  504  501  0.00000000000E+00  0.00000000000E+00  0.17191506334E+03  0.17191506334E+03  0.00000000000E+00 0.  1.
         21   -1    0    0  503  502 -0.00000000000E+00 -0.00000000000E+00 -0.22945036033E+03  0.22945036033E+03  0.00000000000E+00 0. -1.
         21    1    1    2  503  501 -0.18968018726E+02  0.11905894138E+02  0.17063519135E+03  0.17209853160E+03  0.00000000000E+00 0.  1.
         21    1    1    2  504  502  0.18968018726E+02 -0.11905894138E+02 -0.22817048834E+03  0.22926689207E+03  0.00000000000E+00 0. -1.
</event>
<event>
 4    1  0.1551744E+006  0.2750993E+02  0.7546771E-02  0.1442552E+00
         21   -1    0    0  504  501  0.00000000000E+00  0.00000000000E+00  0.52467714081E+02  0.52467714081E+02  0.00000000000E+00 0. -1.
         21   -1    0    0  503  502 -0.00000000000E+00 -0.00000000000E+00 -0.30473197766E+03  0.30473197766E+03  0.00000000000E+00 0. -1.
         21    1    1    2  503  501 -0.15312894813E+02  0.22854129906E+02  0.48189597592E+02  0.55489037813E+02  0.00000000000E+00 0. -1.
         21    1    1    2  504  502  0.15312894813E+02 -0.22854129906E+02 -0.30045386117E+03  0.30171065393E+03  0.00000000000E+00 0. -1.
</event>
<event>
 4    1  0.1551744E+006  0.2813303E+02  0.7546771E-02  0.1436547E+00
         21   -1    0    0  503  501  0.00000000000E+00  0.00000000000E+00  0.11219914181E+03  0.11219914181E+03  0.00000000000E+00 0. -1.
         21   -1    0    0  504  502 -0.00000000000E+00 -0.00000000000E+00 -0.97634303823E+01  0.97634303823E+01  0.00000000000E+00 0.  1.
         21    1    1    2  503  502 -0.12713731180E+02 -0.25096377674E+02  0.19094264995E+02  0.34000854233E+02  0.00000000000E+00 0.  1.
         21    1    1    2  504  501  0.12713731180E+02  0.25096377674E+02  0.83341446431E+02  0.87961717958E+02  0.00000000000E+00 0. -1.
</event>
<event>
 4    1  0.1551744E+006  0.2223748E+02  0.7546771E-02  0.1502302E+00
         21   -1    0    0  504  501  0.00000000000E+00  0.00000000000E+00  0.26379533571E+02  0.26379533571E+02  0.00000000000E+00 0.  1.
         21   -1    0    0  503  502 -0.00000000000E+00 -0.00000000000E+00 -0.19172823277E+02  0.19172823277E+02  0.00000000000E+00 0. -1.
         21    1    1    2  503  501  0.21944629472E+02 -0.35970383116E+01  0.20425587099E+00  0.22238416485E+02  0.00000000000E+00 0. -1.
         21    1    1    2  504  502 -0.21944629472E+02  0.35970383116E+01  0.70024544238E+01  0.23313940363E+02  0.00000000000E+00 0.  1.
</event>
<event>
 4    1  0.1551744E+006  0.2337685E+02  0.7546771E-02  0.1487819E+00
         21   -1    0    0  502  501  0.00000000000E+00  0.00000000000E+00  0.12521117206E+02  0.12521117206E+02  0.00000000000E+00 0.  1.
         21   -1    0    0  504  502 -0.00000000000E+00 -0.00000000000E+00 -0.43865389374E+02  0.43865389374E+02  0.00000000000E+00 0.  1.
         21    1    1    2  503  501  0.59978125719E+00  0.23369152674E+02 -0.17673101415E+02  0.29305554898E+02  0.00000000000E+00 0.  1.
         21    1    1    2  504  503 -0.59978125719E+00 -0.23369152674E+02 -0.13671170753E+02  0.27080951682E+02  0.00000000000E+00 0.  1.
</event>
<event>
 4    1  0.1551744E+006  0.5678406E+02  0.7546771E-02  0.1271169E+00
         21   -1    0    0  503  501  0.00000000000E+00  0.00000000000E+00  0.43763522583E+02  0.43763522583E+02  0.00000000000E+00 0.  1.
         21   -1    0    0  504  502 -0.00000000000E+00 -0.00000000000E+00 -0.74583499930E+02  0.74583499930E+02  0.00000000000E+00 0.  1.
         21    1    1    2  503  502  0.53141017945E+02  0.20011525249E+02 -0.88916049242E+01  0.57475991241E+02  0.00000000000E+00 0.  1.
         21    1    1    2  504  501 -0.53141017945E+02 -0.20011525249E+02 -0.21928372422E+02  0.60871031272E+02  0.00000000000E+00 0.  1.
</event>
<event>
 4    1  0.1551744E+006  0.2135105E+02  0.7546771E-02  0.1514311E+00
         21   -1    0    0  504  501  0.00000000000E+00  0.00000000000E+00  0.15355896445E+01  0.15355896445E+01  0.00000000000E+00 0.  1.
         21   -1    0    0  503  502 -0.00000000000E+00 -0.00000000000E+00 -0.34658653177E+03  0.34658653177E+03  0.00000000000E+00 0.  1.
         21    1    1    2  503  501 -0.54458385012E+01 -0.20644861698E+02 -0.10659976279E+03  0.10871695773E+03  0.00000000000E+00 0.  1.
         21    1    1    2  504  502  0.54458385012E+01  0.20644861698E+02 -0.23845117934E+03  0.23940516368E+03  0.00000000000E+00 0.  1.
</event>
<event>
 4    1  0.1551744E+006  0.2488420E+02  0.7546771E-02  0.1470103E+00
         21   -1    0    0  502  501  0.00000000000E+00  0.00000000000E+00  0.44335786043E+02  0.44335786043E+02  0.00000000000E+00 0.  1.
         21   -1    0    0  503  502 -0.00000000000E+00 -0.00000000000E+00 -0.32902650031E+02  0.32902650031E+02  0.00000000000E+00 0.  1.
         21    1    1    2  503  504  0.24028292420E+02 -0.64702914661E+01 -0.23581020480E+02  0.34282474169E+02  0.00000000000E+00 0.  1.
         21    1    1    2  504  501 -0.24028292420E+02  0.64702914661E+01  0.35014156492E+02  0.42955961904E+02  0.00000000000E+00 0.  1.
</event>
<event>
 4    1  0.1551744E+006  0.2081006E+02  0.7546771E-02  0.1521994E+00
         21   -1    0    0  504  501  0.00000000000E+00  0.00000000000E+00  0.63219678976E+01  0.63219678976E+01  0.00000000000E+00 0. -1.
         21   -1    0    0  503  502 -0.00000000000E+00 -0.00000000000E+00 -0.68546471391E+02  0.68546471391E+02  0.00000000000E+00 0. -1.
         21    1    1    2  503  501 -0.12422532723E+02 -0.16695491673E+02 -0.30144148041E+02  0.36629611281E+02  0.00000000000E+00 0. -1.
         21    1    1    2  504  502  0.12422532723E+02  0.16695491673E+02 -0.32080355452E+02  0.38238828008E+02  0.00000000000E+00 0. -1.
</event>
<event>
 4    1  0.1551744E+006  0.3129375E+02  0.7546771E-02  0.1408677E+00
         21   -1    0    0  502  501  0.00000000000E+00  0.00000000000E+00  0.68163789300E+02  0.68163789300E+02  0.00000000000E+00 0. -1.
         21   -1    0    0  504  502 -0.00000000000E+00 -0.00000000000E+00 -0.17968660106E+02  0.17968660106E+02  0.00000000000E+00 0.  1.
         21    1    1    2  503  501 -0.24661254606E+02 -0.19264508333E+02  0.44379006904E+02  0.54302808526E+02  0.00000000000E+00 0. -1.
         21    1    1    2  504  503  0.24661254606E+02  0.19264508333E+02  0.58161222904E+01  0.31829640880E+02  0.00000000000E+00 0.  1.
</event>
<event>
 4    1  0.1551744E+006  0.5185436E+02  0.7546771E-02  0.1290327E+00
         21   -1    0    0  503  501  0.00000000000E+00  0.00000000000E+00  0.59730136206E+01  0.59730136206E+01  0.00000000000E+00 0.  1.
         21   -1    0    0  501  502 -0.00000000000E+00 -0.00000000000E+00 -0.51406268915E+03  0.51406268915E+03  0.00000000000E+00 0.  1.
         21    1    1    2  503  504  0.48246346476E+00  0.51852117345E+02 -0.16237661154E+03  0.17045538659E+03  0.00000000000E+00 0.  1.
         21    1    1    2  504  502 -0.48246346476E+00 -0.51852117345E+02 -0.34571306399E+03  0.34958031617E+03  0.00000000000E+00 0.  1.
</event>
<event>
 4    1  0.1551744E+006  0.2572678E+02  0.7546771E-02  0.1460835E+00
         21   -1    0    0  504  501  0.00000000000E+00  0.00000000000E+00  0.15141309584E+01  0.15141309584E+01  0.00000000000E+00 0.  1.
         21   -1    0    0  501  502 -0.00000000000E+00 -0.00000000000E+00 -0.11937862184E+04  0.11937862184E+04  0.00000000000E+00 0.  1.
         21    1    1    2  503  502 -0.21739150603E+02 -0.13757788616E+02 -0.10719464699E+04  0.10722551477E+04  0.00000000000E+00 0.  1.
         21    1    1    2  504  503  0.21739150603E+02  0.13757788616E+02 -0.12032561749E+03  0.12304520162E+03  0.00000000000E+00 0.  1.
</event>
<event>
 4    1  0.1551744E+006  0.2153111E+02  0.7546771E-02  0.1511815E+00
         21   -1    0    0  503  501  0.00000000000E+00  0.00000000000E+00  0.18373561401E+03  0.18373561401E+03  0.00000000000E+00 0. -1.
         21   -1    0    0  504  502 -0.00000000000E+00 -0.00000000000E+00 -0.28952678874E+01  0.28952678874E+01  0.00000000000E+00 0. -1.
         21    1    1    2  503  502 -0.20113881675E+02 -0.76824665150E+01  0.12387525290E+03  0.12573252089E+03  0.00000000000E+00 0. -1.
         21    1    1    2  504  501  0.20113881675E+02  0.76824665150E+01  0.56965093221E+02  0.60898361008E+02  0.00000000000E+00 0. -1.
</event>
<event>
 4    1  0.1551744E+006  0.2127347E+02  0.7546771E-02  0.1515396E+00
         21   -1    0    0  504  501  0.00000000000E+00  0.00000000000E+00  0.17938575663E+03  0.17938575663E+03  0.00000000000E+00 0.  1.
         21   -1    0    0  503  502 -0.00000000000E+00 -0.00000000000E+00 -0.72276115245E+01  0.72276115245E+01  0.00000000000E+00 0. -1.
         21    1    1    2  503  501 -0.62983080430E+01  0.20319744434E+02  0.16135998012E+03  0.16275627141E+03  0.00000000000E+00 0.  1.
         21    1    1    2  504  502  0.62983080430E+01 -0.20319744434E+02  0.10798164983E+02  0.23857096744E+02  0.00000000000E+00 0. -1.
</event>
<event>
 4    1  0.1551744E+006  0.2091309E+02  0.7546771E-02  0.1520509E+00
         21   -1    0    0  503  501  0.00000000000E+00  0.00000000000E+00  0.21476833566E+02  0.21476833566E+02  0.00000000000E+00 0. -1.
         21   -1    0    0  501  502 -0.00000000000E+00 -0.00000000000E+00 -0.10147565544E+03  0.10147565544E+03  0.00000000000E+00 0. -1.
         21    1    1    2  503  504 -0.15990281865E+02  0.13478440932E+02  0.14963234102E+02  0.25714895662E+02  0.00000000000E+00 0. -1.
         21    1    1    2  504  502  0.15990281865E+02 -0.13478440932E+02 -0.94962055978E+02  0.97237593346E+02  0.00000000000E+00 0. -1.
</event>
<event>
 4    1  0.1551744E+006  0.2329841E+02  0.7546771E-02  0.1488785E+00
         21   -1    0    0  503  501  0.00000000000E+00  0.00000000000E+00  0.45431871920E+01  0.45431871920E+01  0.00000000000E+00 0.  1.
         21   -1    0    0  504  502 -0.00000000000E+00 -0.00000000000E+00 -0.12508707006E+03  0.12508707006E+03  0.00000000000E+00 0.  1.
         21    1    1    2  503  502  0.21599623506E+02 -0.87333994571E+01 -0.73995675603E+02  0.77576903841E+02  0.00000000000E+00 0.  1.
         21    1    1    2  504  501 -0.21599623506E+02  0.87333994571E+01 -0.46548207261E+02  0.52053353406E+02  0.00000000000E+00 0.  1.
</event>
<event>
 4    1  0.1551744E+006  0.2100400E+02  0.7546771E-02  0.1519208E+00
         21   -1    0    0  503  501  0.00000000000E+00  0.00000000000E+00  0.64585677907E+02  0.64585677907E+02  0.00000000000E+00 0.  1.
         21   -1    0    0  504  502 -0.00000000000E+00 -0.00000000000E+00 -0.84997408543E+01  0.84997408543E+01  0.00000000000E+00 0.  1.
         21    1    1    2  503  502  0.60444175779E+01  0.20115493379E+02  0.11850017163E+02  0.24116197140E+02  0.00000000000E+00 0.  1.
         21    1    1    2  504  501 -0.60444175779E+01 -0.20115493379E+02  0.44235919889E+02  0.48969221621E+02  0.00000000000E+00 0.  1.
</event>
<event>
 4    1  0.1551744E+006  0.2696285E+02  0.7546771E-02  0.1447982E+00
         21   -1    0    0  503  501  0.00000000000E+00  0.00000000000E+00  0.31242256212E+03  0.31242256212E+03  0.00000000000E+00 0.  1.
         21   -1    0    0  501  502 -0.00000000000E+00 -0.00000000000E+00 -0.87006094225E+01  0.87006094225E+01  0.00000000000E+00 0.  1.
         21    1    1    2  503  504 -0.26910419484E+02 -0.16805853746E+01  0.28928443417E+03  0.29053825720E+03  0.00000000000E+00 0.  1.
         21    1    1    2  504  502  0.26910419484E+02  0.16805853746E+01  0.14437518524E+02  0.30584914339E+02  0.00000000000E+00 0.  1.
</event>
<event>
 4    1  0.1551744E+006  0.2519323E+02  0.7546771E-02  0.1466653E+00
         21   -1    0    0  504  501  0.00000000000E+00  0.00000000000E+00  0.32383669910E+03  0.32383669910E+03  0.00000000000E+00 0. -1.
         21   -1    0    0  503  502 -0.00000000000E+00 -0.00000000000E+00 -0.98996867538E+01  0.98996867538E+01  0.00000000000E+00 0.  1.
         21    1    1    2  503  501 -0.24749149687E+02 -0.47094245432E+01  0.30640830723E+03  0.30744227072E+03  0.00000000000E+00 0. -1.
         21    1    1    2  504  502  0.24749149687E+02  0.47094245432E+01  0.75287051198E+01  0.26294115131E+02  0.00000000000E+00 0.  1.
</event>
<event>
 4    1  0.1551744E+006  0.2922395E+02  0.7546771E-02  0.1426462E+00
         21   -1    0    0  503  501  0.00000000000E+00  0.00000000000E+00  0.74379378939E+02  0.74379378939E+02  0.00000000000E+00 0.  1.
         21   -1    0    0  504  502 -0.00000000000E+00 -0.00000000000E+00 -0.19840786878E+02  0.19840786878E+02  0.00000000000E+00 0. -1.
         21    1    1    2  503  502  0.58795735703E+01 -0.28626379493E+02 -0.33081229255E+01  0.29410587644E+02  0.00000000000E+00 0. -1.
         21    1    1    2  504  501 -0.58795735703E+01  0.28626379493E+02  0.57846714987E+02  0.64809578174E+02  0.00000000000E+00 0.  1.
</event>
<event>
 4    1  0.1551744E+006  0.6366974E+02  0.7546771E-02  0.1247849E+00
         21   -1    0    0  502  501  0.00000000000E+00  0.00000000000E+00  0.15788418822E+03  0.15788418822E+03  0.00000000000E+00 0.  1.
         21   -1    0    0  503  502 -0.00000000000E+00 -0.00000000000E+00 -0.96024580828E+02  0.96024580828E+02  0.00000000000E+00 0. -1.
         21    1    1    2  503  504  0.37028641129E+02  0.51794942188E+02 -0.77733806019E+02  0.10048074889E+03  0.00000000000E+00 0. -1.
         21    1    1    2  504  501 -0.37028641129E+02 -0.51794942188E+02  0.13959341341E+03  0.15342802015E+03  0.00000000000E+00 0.  1.
</event>
<event>
 4    1  0.1551744E+006  0.2756162E+02  0.7546771E-02  0.1442047E+00
         21   -1    0    0  504  501  0.00000000000E+00  0.00000000000E+00  0.20845861345E+02  0.20845861345E+02  0.00000000000E+00 0.  1.
         21   -1    0    0  503  502 -0.00000000000E+00 -0.00000000000E+00 -0.37684412588E+02  0.37684412588E+02  0.00000000000E+00 0.  1.
         21    1    1    2  503  501  0.25266295515E+02  0.11011684932E+02 -0.13735298719E+02  0.30794501538E+02  0.00000000000E+00 0.  1.
         21    1    1    2  504  502 -0.25266295515E+02 -0.11011684932E+02 -0.31032525241E+01  0.27735772395E+02  0.00000000000E+00 0.  1.
</event>
<event>
 4    1  0.1551744E+006  0.3620065E+02  0.7546771E-02  0.1372313E+00
         21   -1    0    0  502  501  0.00000000000E+00  0.00000000000E+00  0.32357128597E+03  0.32357128597E+03  0.00000000000E+00 0.  1.
         21   -1    0    0  503  502 -0.00000000000E+00 -0.00000000000E+00 -0.38587553401E+03  0.38587553401E+03  0.00000000000E+00 0.  1.
         21    1    1    2  503  504 -0.13952797161E+02 -0.33403692132E+02 -0.38400907053E+03  0.38571161953E+03  0.00000000000E+00 0.  1.
         21    1    1    2  504  501  0.13952797161E+02  0.33403692132E+02  0.32170482249E+03  0.32373520045E+03  0.00000000000E+00 0.  1.
</event>
<event>
 4    1  0.1551744E+006  0.2955520E+02  0.7546771E-02  0.1423502E+00
         21   -1    0    0  503  501  0.00000000000E+00  0.00000000000E+00  0.36808561668E+02  0.36808561668E+02  0.00000000000E+00 0.  1.
         21   -1    0    0  504  502 -0.00000000000E+00 -0.00000000000E+00 -0.41796929621E+02  0.41796929621E+02  0.00000000000E+00 0. -1.
         21    1    1    2  503  502  0.15662871823E+02 -0.25063602599E+02 -0.28333378981E+02  0.40942521825E+02  0.00000000000E+00 0. -1.
         21    1    1    2  504  501 -0.15662871823E+02  0.25063602599E+02  0.23345011027E+02  0.37662969463E+02  0.00000000000E+00 0.  1.
</event>
<event>
 4    1  0.1551744E+006  0.2028154E+02  0.7546771E-02  0.1529774E+00
         21   -1    0    0  504  501  0.00000000000E+00  0.00000000000E+00  0.56677680685E+02  0.56677680685E+02  0.00000000000E+00 0.  1.
         21   -1    0    0  501  502 -0.00000000000E+00 -0.00000000000E+00 -0.73019462851E+01  0.73019462851E+01  0.00000000000E+00 0. -1.
         21    1    1    2  503  502  0.19097853137E+02  0.68273653206E+01  0.22193375376E+02  0.30064710580E+02  0.00000000000E+00 0. -1.
         21    1    1    2  504  503 -0.19097853137E+02 -0.68273653206E+01  0.27182359024E+02  0.33914916390E+02  0.00000000000E+00 0.  1.
</event>
<event>
 4    1  0.1551744E+006  0.3057122E+02  0.7546771E-02  0.1414696E+00
         21   -1    0    0  502  501  0.00000000000E+00  0.00000000000E+00  0.26310934237E+02  0.26310934237E+02  0.00000000000E+00 0. -1.
         21   -1    0    0  504  502 -0.00000000000E+00 -0.00000000000E+00 -0.36907086409E+02  0.36907086409E+02  0.00000000000E+00 0. -1.
         21    1    1    2  503  501  0.30152238932E+02  0.50440171982E+01  0.82680991158E+00  0.30582400768E+02  0.00000000000E+00 0. -1.
         21    1    1    2  504  503 -0.30152238932E+02 -0.50440171982E+01 -0.11422962084E+02  0.32635619878E+02  0.00000000000E+00 0. -1.
</event>
<event>
 4    1  0.1551744E+006  0.2204426E+02  0.7546771E-02  0.1504861E+00
         21   -1    0    0  503  501  0.00000000000E+00  0.00000000000E+00  0.79625583874E+01  0.79625583874E+01  0.00000000000E+00 0.  1.
         21   -1    0    0  504  502 -0.00000000000E+00 -0.00000000000E+00 -0.61403635053E+02  0.61403635053E+02  0.00000000000E+00 0.  1.
         21    1    1    2  503  502 -0.15503389102E+01 -0.21989676328E+02 -0.24012546522E+02  0.32596806688E+02  0.00000000000E+00 0.  1.
         21    1    1    2  504  501  0.15503389102E+01  0.21989676328E+02 -0.29428530143E+02  0.36769386752E+02  0.00000000000E+00 0.  1.
</event>
<event>
 4    1  0.1551744E+006  0.2223788E+02  0.7546771E-02  0.1502296E+00
         21   -1    0    0  502  501  0.00000000000E+00  0.00000000000E+00  0.16440780219E+03  0.16440780219E+03  0.00000000000E+00 0. -1.
         21   -1    0    0  504  502 -0.00000000000E+00 -0.00000000000E+00 -0.30357764096E+02  0.30357764096E+02  0.00000000000E+00 0.  1.
         21    1    1    2  503  501  0.22008832561E+02  0.31834749824E+01  0.15945754674E+03  0.16100072185E+03  0.00000000000E+00 0. -1.
         21    1    1    2  504  503 -0.22008832561E+02 -0.31834749824E+01 -0.25407508651E+02  0.33764844432E+02  0.00000000000E+00 0.  1.
</event>
<event>
 4    1  0.1551744E+006  0.2451941E+02  0.7546771E-02  0.1474252E+00
         21   -1    0    0  504  501  0.00000000000E+00  0.00000000000E+00  0.34513402880E+03  0.34513402880E+03  0.00000000000E+00 0.  1.
         21   -1    0    0  503  502 -0.00000000000E+00 -0.00000000000E+00 -0.34738153707E+01  0.34738153707E+01  0.00000000000E+00 0. -1.
         21    1    1    2  503  501  0.18473108362E+02 -0.16122831522E+02  0.29390305331E+03  0.29492406849E+03  0.00000000000E+00 0.  1.
         21    1    1    2  504  502 -0.18473108362E+02  0.16122831522E+02  0.47757160117E+02  0.53683775680E+02  0.00000000000E+00 0. -1.
</event>
<event>
 4    1  0.1551744E+006  0.2267881E+02  0.7546771E-02  0.1496571E+00
         21   -1    0    0  503  501  0.00000000000E+00  0.00000000000E+00  0.18441611760E+01  0.18441611760E+01  0.00000000000E+00 0.  1.
         21   -1    0    0  504  502 -0.00000000000E+00 -0.00000000000E+00 -0.82079389084E+03  0.82079389084E+03  0.00000000000E+00 0.  1.
         21    1    1    2  503  502 -0.15977756888E+02 -0.16094712616E+02 -0.75263956729E+02  0.78606562525E+02  0.00000000000E+00 0.  1.
         21    1    1    2  504  501  0.15977756888E+02  0.16094712616E+02 -0.74368577293E+03  0.74403148949E+03  0.00000000000E+00 0.  1.
</event>
<event>
 4    1  0.1551744E+006  0.2109441E+02  0.7546771E-02  0.1517921E+00
         21   -1    0    0  503  501  0.00000000000E+00  0.00000000000E+00  0.43231268605E+03  0.43231268605E+03  0.00000000000E+00 0.  1.
         21   -1    0    0  504  502 -0.00000000000E+00 -0.00000000000E+00 -0.15041126374E+01  0.15041126374E+01  0.00000000000E+00 0.  1.
         21    1    1    2  503  502  0.12150965380E+02 -0.17243207008E+02  0.93532569366E+02  0.95881779708E+02  0.00000000000E+00 0.  1.
         21    1    1    2  504  501 -0.12150965380E+02  0.17243207008E+02  0.33727600405E+03  0.33793501898E+03  0.00000000000E+00 0.  1.
</event>
<event>
 4    1  0.1551744E+006  0.2345894E+02  0.7546771E-02  0.1486814E+00
         21   -1    0    0  504  501  0.00000000000E+00  0.00000000000E+00  0.15887587938E+01  0.15887587938E+01  0.00000000000E+00 0.  1.
         21   -1    0    0  503  502 -0.00000000000E+00 -0.00000000000E+00 -0.34785027209E+03  0.34785027209E+03  0.00000000000E+00 0.  1.
         21    1    1    2  503  501 -0.20881097539E+02 -0.10691202145E+02 -0.16179055195E+03  0.16348242945E+03  0.00000000000E+00 0.  1.
         21    1    1    2  504  502  0.20881097539E+02  0.10691202145E+02 -0.18447096134E+03  0.18595660143E+03  0.00000000000E+00 0.  1.
</event>
<event>
 4    1  0.1551744E+006  0.2468684E+02  0.7546771E-02  0.1472337E+00
         21   -1    0    0  504  501  0.00000000000E+00  0.00000000000E+00  0.30545049756E+02  0.30545049756E+02  0.00000000000E+00 0.  1.
         21   -1    0    0  503  502 -0.00000000000E+00 -0.00000000000E+00 -0.37782944309E+02  0.37782944309E+02  0.00000000000E+00 0. -1.
         21    1    1    2  503  501 -0.20896178859E+02  0.13144960132E+02  0.19850657773E+02  0.31677892635E+02  0.00000000000E+00 0.  1.
         21    1    1    2  504  502  0.20896178859E+02 -0.13144960132E+02 -0.27088552326E+02  0.36650101431E+02  0.00000000000E+00 0. -1.
</event>
<event>
 4    1  0.1551744E+006  0.2159609E+02  0.7546771E-02  0.1510922E+00
         21   -1    0    0  503  501  0.00000000000E+00  0.00000000000E+00  0.10565715704E+02  0.10565715704E+02  0.00000000000E+00 0.  1.
         21   -1    0    0  501  502 -0.00000000000E+00 -0.00000000000E+00 -0.65059852098E+02  0.65059852098E+02  0.00000000000E+00 0. -1.
         21    1    1    2  503  504  0.16558937970E+02 -0.13863355479E+02 -0.58062468484E+01  0.22362995199E+02  0.00000000000E+00 0.  1.
         21    1    1    2  504  502 -0.16558937970E+02  0.13863355479E+02 -0.48687889545E+02  0.53262572602E+02  0.00000000000E+00 0. -1.
</event>
<event>
 4    1  0.1551744E+006  0.2461275E+02  0.7546771E-02  0.1473182E+00
         21   -1    0    0  502  501  0.00000000000E+00  0.00000000000E+00  0.28001450057E+03  0.28001450057E+03  0.00000000000E+00 0. -1.
         21   -1    0    0  503  502 -0.00000000000E+00 -0.00000000000E+00 -0.38522917201E+02  0.38522917201E+02  0.00000000000E+00 0. -1.
         21    1    1    2  503  504 -0.32870971859E+01 -0.24392261590E+02 -0.33986102861E+02  0.41962395320E+02  0.00000000000E+00 0. -1.
         21    1    1    2  504  501  0.32870971859E+01  0.24392261590E+02  0.27547768623E+03  0.27657502245E+03  0.00000000000E+00 0. -1.
</event>
<event>
 4    1  0.1551744E+006  0.3248213E+02  0.7546771E-02  0.1399185E+00
         21   -1    0    0  504  501  0.00000000000E+00  0.00000000000E+00  0.22969504395E+02  0.22969504395E+02  0.00000000000E+00 0.  1.
         21   -1    0    0  503  502 -0.00000000000E+00 -0.00000000000E+00 -0.48376593682E+02  0.48376593682E+02  0.00000000000E+00 0.  1.
         21    1    1    2  503  501 -0.83016235256E+00 -0.32471522134E+02 -0.46882704769E+01  0.32818726351E+02  0.00000000000E+00 0.  1.
         21    1    1    2  504  502  0.83016235256E+00  0.32471522134E+02 -0.20718818811E+02  0.38527371726E+02  0.00000000000E+00 0.  1.
</event>
<event>
 4    1  0.1551744E+006  0.3347681E+02  0.7546771E-02  0.1391600E+00
         21   -1    0    0  504  501  0.00000000000E+00  0.00000000000E+00  0.44274559648E+01  0.44274559648E+01  0.00000000000E+00 0. -1.
         21   -1    0    0  503  502 -0.00000000000E+00 -0.00000000000E+00 -0.33580637991E+03  0.33580637991E+03  0.00000000000E+00 0.  1.
         21    1    1    2  503  501  0.31986001605E+02 -0.98789024617E+01 -0.25010230755E+03  0.25233283824E+03  0.00000000000E+00 0.  1.
         21    1    1    2  504  502 -0.31986001605E+02  0.98789024617E+01 -0.81276616400E+02  0.87900997640E+02  0.00000000000E+00 0. -1.
</event>
<event>
 4    1  0.1551744E+006  0.2254689E+02  0.7546771E-02  0.1498268E+00
         21   -1    0    0  504  501  0.00000000000E+00  0.00000000000E+00  0.75023037916E+01  0.75023037916E+01  0.00000000000E+00 0. -1.
         21   -1    0    0  501  502 -0.00000000000E+00 -0.00000000000E+00 -0.10226611843E+03  0.10226611843E+03  0.00000000000E+00 0. -1.
         21    1    1    2  503  502  0.10726217686E+02  0.19832061809E+02 -0.79262346517E+02  0.82406807952E+02  0.00000000000E+00 0. -1.
         21    1    1    2  504  503 -0.10726217686E+02 -0.19832061809E+02 -0.15501468117E+02  0.27361614266E+02  0.00000000000E+00 0. -1.
</event>
<event>
 4    1  0.1551744E+006  0.2213609E+02  0.7546771E-02  0.1503641E+00
         21   -1    0    0  504  501  0.00000000000E+00  0.00000000000E+00  0.14270744115E+02  0.14270744115E+02  0.00000000000E+00 0. -1.
         21   -1    0    0  503  502 -0.00000000000E+00 -0.00000000000E+00 -0.88579083855E+02  0.88579083855E+02  0.00000000000E+00 0. -1.
         21    1    1    2  503  501  0.21404814452E+02  0.56427178938E+01  0.30877288097E+01  0.22350400806E+02  0.00000000000E+00 0. -1.
         21    1    1    2  504  502 -0.21404814452E+02 -0.56427178938E+01 -0.77396068549E+02  0.80499427165E+02  0.00000000000E+00 0. -1.
</event>
<event>
 4    1  0.1551744E+006  0.2745777E+02  0.7546771E-02  0.1443063E+00
         21   -1    0    0  504  501  0.00000000000E+00  0.00000000000E+00  0.20422173888E+03  0.20422173888E+03  0.00000000000E+00 0.  1.
         21   -1    0    0  501  502 -0.00000000000E+00 -0.00000000000E+00 -0.19160599128E+02  0.19160599128E+02  0.00000000000E+00 0.  1.
         21    1    1    2  503  502  0.17888437644E+02  0.20831052001E+02 -0.78255253146E+01  0.28551143152E+02  0.00000000000E+00 0.  1.
         21    1    1    2  504  503 -0.17888437644E+02 -0.20831052001E+02  0.19288666506E+03  0.19483119485E+03  0.00000000000E+00 0.  1.
</event>
<event>
 4    1  0.1551744E+006  0.2161646E+02  0.7546771E-02  0.1510642E+00
         21   -1    0    0  503  501  0.00000000000E+00  0.00000000000E+00  0.98918601130E+01  0.98918601130E+01  0.00000000000E+00 0.  1.
         21   -1    0    0  504  502 -0.00000000000E+00 -0.00000000000E+00 -0.15299402481E+03  0.15299402481E+03  0.00000000000E+00 0. -1.
         21    1    1    2  503  502  0.91160888391E+01 -0.19600215562E+02 -0.13926357692E+03  0.14093124346E+03  0.00000000000E+00 0. -1.
         21    1    1    2  504  501 -0.91160888391E+01  0.19600215562E+02 -0.38385877778E+01  0.21954641467E+02  0.00000000000E+00 0.  1.
</event>
<event>
 4    1  0.1551744E+006  0.3680010E+02  0.7546771E-02  0.1368331E+00
         21   -1    0    0  502  501  0.00000000000E+00  0.00000000000E+00  0.23493781825E+01  0.23493781825E+01  0.00000000000E+00 0.  1.
         21   -1    0    0  504  502 -0.00000000000E+00 -0.00000000000E+00 -0.91157190207E+03  0.91157190207E+03  0.00000000000E+00 0.  1.
         21    1    1    2  503  501  0.34190293255E+02  0.13611445590E+02 -0.17753525220E+03  0.18130916518E+03  0.00000000000E+00 0.  1.
         21    1    1    2  504  503 -0.34190293255E+02 -0.13611445590E+02 -0.73168727169E+03  0.73261211508E+03  0.00000000000E+00 0.  1.
</event>
<event>
 4    1  0.1551744E+006  0.2388666E+02  0.7546771E-02  0.1481655E+00
         21   -1    0    0  503  501  0.00000000000E+00  0.00000000000E+00  0.69347247938E+02  0.69347247938E+02  0.00000000000E+00 0. -1.
         21   -1    0    0  504  502 -0.00000000000E+00 -0.00000000000E+00 -0.15286555538E+03  0.15286555538E+03  0.00000000000E+00 0.  1.
         21    1    1    2  503  502  0.22080676416E+02 -0.91113157405E+01  0.66315826244E+02  0.70486602670E+02  0.00000000000E+00 0. -1.
         21    1    1    2  504  501 -0.22080676416E+02  0.91113157405E+01 -0.14983413369E+03  0.15172620065E+03  0.00000000000E+00 0.  1.
</event>
<event>
 4    1  0.1551744E+006  0.2133546E+02  0.7546771E-02  0.1514529E+00
         21   -1    0    0  502  501  0.00000000000E+00  0.00000000000E+00  0.10343535075E+03  0.10343535075E+03  0.00000000000E+00 0. -1.
         21   -1    0    0  503  502 -0.00000000000E+00 -0.00000000000E+00 -0.95558445589E+01  0.95558445589E+01  0.00000000000E+00 0. -1.
         21    1    1    2  503  504  0.19618643841E+02 -0.83851538149E+01  0.54448481239E+01  0.22019272508E+02  0.00000000000E+00 0. -1.
         21    1    1    2  504  501 -0.19618643841E+02  0.83851538149E+01  0.88434658062E+02  0.90971922796E+02  0.00000000000E+00 0. -1.
</event>
<event>
 4    1  0.1551744E+006  0.2595827E+02  0.7546771E-02  0.1458363E+00
         21   -1    0    0  504  501  0.00000000000E+00  0.00000000000E+00  0.11570300306E+02  0.11570300306E+02  0.00000000000E+00 0.  1.
         21   -1    0    0  503  502 -0.00000000000E+00 -0.00000000000E+00 -0.11700433756E+03  0.11700433756E+03  0.00000000000E+00 0.  1.
         21    1    1    2  503  501 -0.16106777987E+02 -0.20356896848E+02 -0.71565147075E+01  0.26926701416E+02  0.00000000000E+00 0.  1.
         21    1    1    2  504  502  0.16106777987E+02  0.20356896848E+02 -0.98277522543E+02  0.10164793645E+03  0.00000000000E+00 0.  1.
</event>
<event>
 4    1  0.1551744E+006  0.2334732E+02  0.7546771E-02  0.1488182E+00
         21   -1    0    0  504  501  0.00000000000E+00  0.00000000000E+00  0.61278474881E+03  0.61278474881E+03  0.00000000000E+00 0. -1.
         21   -1    0    0  503  502 -0.00000000000E+00 -0.00000000000E+00 -0.11391901072E+02  0.11391901072E+02  0.00000000000E+00 0.  1.
         21    1    1    2  503  501 -0.22931424402E+02 -0.43871781248E+01  0.10405064323E+01  0.23370498724E+02  0.00000000000E+00 0.  1.
         21    1    1    2  504  502  0.22931424402E+02  0.43871781248E+01  0.60035234131E+03  0.60080615116E+03  0.00000000000E+00 0. -1.
</event>
<event>
 4    1  0.1551744E+006  0.2259798E+02  0.7546771E-02  0.1497609E+00
         21   -1    0    0  504  501  0.00000000000E+00  0.00000000000E+00  0.65839185104E+02  0.65839185104E+02  0.00000000000E+00 0.  1.
         21   -1    0    0  503  502 -0.00000000000E+00 -0.00000000000E+00 -0.85151870797E+01  0.85151870797E+01  0.00000000000E+00 0.  1.
         21    1    1    2  503  501  0.84515496552E+01 -0.20958048895E+02  0.39760590121E+02  0.45733718763E+02  0.00000000000E+00 0.  1.
         21    1    1    2  504  502 -0.84515496552E+01  0.20958048895E+02  0.17563407904E+02  0.28620653421E+02  0.00000000000E+00 0.  1.
</event>
<event>
 4    1  0.1551744E+006  0.2061232E+02  0.7546771E-02  0.1524873E+00
         21   -1    0    0  504  501  0.00000000000E+00  0.00000000000E+00  0.56279509245E+01  0.56279509245E+01  0.00000000000E+00 0.  1.
         21   -1    0    0  503  502 -0.00000000000E+00 -0.00000000000E+00 -0.91888941311E+02  0.91888941311E+02  0.00000000000E+00 0.  1.
         21    1    1    2  503  501  0.11468742726E+02 -0.17127041587E+02 -0.63727029172E+02  0.66977622086E+02  0.00000000000E+00 0.  1.
         21    1    1    2  504  502 -0.11468742726E+02  0.17127041587E+02 -0.22533961215E+02  0.30539270149E+02  0.00000000000E+00 0.  1.
</event>
<event>
 4    1  0.1551744E+006  0.2698546E+02  0.7546771E-02  0.1447754E+00
         21   -1    0    0  504  501  0.00000000000E+00  0.00000000000E+00  0.25459690454E+03  0.25459690454E+03  0.00000000000E+00 0.  1.
         21   -1    0    0  503  502 -0.00000000000E+00 -0.00000000000E+00 -0.95235856513E+03  0.95235856513E+03  0.00000000000E+00 0. -1.
         21    1    1    2  503  501 -0.18963842115E+02 -0.19198640987E+02  0.25368999537E+03  0.25512120429E+03  0.00000000000E+00 0.  1.
         21    1    1    2  504  502  0.18963842115E+02  0.19198640987E+02 -0.95145165597E+03  0.95183426539E+03  0.00000000000E+00 0. -1.
</event>
<event>
 4    1  0.1551744E+006  0.6262659E+02  0.7546771E-02  0.1251160E+00
         21   -1    0    0  504  501  0.00000000000E+00  0.00000000000E+00  0.37246444231E+02  0.37246444231E+02  0.00000000000E+00 0. -1.
         21   -1    0    0  501  502 -0.00000000000E+00 -0.00000000000E+00 -0.14030331526E+03  0.14030331526E+03  0.00000000000E+00 0. -1.
         21    1    1    2  503  502 -0.40302081612E+02 -0.47935711753E+02 -0.95869295217E+02  0.11451206054E+03  0.00000000000E+00 0. -1.
         21    1    1    2  504  503  0.40302081612E+02  0.47935711753E+02 -0.71875758175E+01  0.63037698956E+02  0.00000000000E+00 0. -1.
</event>
<event>
 4    1  0.1551744E+006  0.2140898E+02  0.7546771E-02  0.1513505E+00
         21   -1    0    0  504  501  0.00000000000E+00  0.00000000000E+00  0.69958133197E+02  0.69958133197E+02  0.00000000000E+00 0. -1.
         21   -1    0    0  501  502 -0.00000000000E+00 -0.00000000000E+00 -0.66517667026E+03  0.66517667026E+03  0.00000000000E+00 0. -1.
         21    1    1    2  503  502 -0.11431171165E+02  0.18101730728E+02 -0.66336200298E+03  0.66370738381E+03  0.00000000000E+00 0. -1.
         21    1    1    2  504  503  0.11431171165E+02 -0.18101730728E+02  0.68143465918E+02  0.71427419643E+02  0.00000000000E+00 0. -1.
</event>
<event>
 4    1  0.1551744E+006  0.2290642E+02  0.7546771E-02  0.1493677E+00
         21   -1    0    0  503  501  0.00000000000E+00  0.00000000000E+00  0.90790792253E+02  0.90790792253E+02  0.00000000000E+00 0. -1.
         21   -1    0    0  504  502 -0.00000000000E+00 -0.00000000000E+00 -0.68011522697E+01  0.68011522697E+01  0.00000000000E+00 0.  1.
         21    1    1    2  503  502  0.13470591091E+02  0.18526927541E+02  0.23080329749E+02  0.32517771906E+02  0.00000000000E+00 0.  1.
         21    1    1    2  504  501 -0.13470591091E+02 -0.18526927541E+02  0.60909310235E+02  0.65074172616E+02  0.00000000000E+00 0. -1.
</event>
<event>
 4    1  0.1551744E+006  0.4050169E+02  0.7546771E-02  0.1345571E+00
         21   -1    0    0  504  501  0.00000000000E+00  0.00000000000E+00  0.23435388659E+03  0.23435388659E+03  0.00000000000E+00 0.  1.
         21   -1    0    0  501  502 -0.00000000000E+00 -0.00000000000E+00 -0.31951710048E+02  0.31951710048E+02  0.00000000000E+00 0.  1.
         21    1    1    2  503  502 -0.64007989605E+01 -0.39992712558E+02 -0.16466469986E+02  0.43721069508E+02  0.00000000000E+00 0.  1.
         21    1    1    2  504  503  0.64007989605E+01  0.39992712558E+02  0.21886864652E+03  0.22258452713E+03  0.00000000000E+00 0.  1.
</event>
<event>
 4    1  0.1551744E+006  0.2397035E+02  0.7546771E-02  0.1480660E+00
         21   -1    0    0  504  501  0.00000000000E+00  0.00000000000E+00  0.28367658032E+02  0.28367658032E+02  0.00000000000E+00 0. -1.
         21   -1    0    0  501  502 -0.00000000000E+00 -0.00000000000E+00 -0.83108435316E+02  0.83108435316E+02  0.00000000000E+00 0.  1.
         21    1    1    2  503  502  0.19217962627E+02 -0.14326465754E+02 -0.75842822053E+02  0.79540627138E+02  0.00000000000E+00 0.  1.
         21    1    1    2  504  503 -0.19217962627E+02  0.14326465754E+02  0.21102044769E+02  0.31935466209E+02  0.00000000000E+00 0. -1.
</event>
<event>
 4    1  0.1551744E+006  0.2162874E+02  0.7546771E-02  0.1510474E+00
         21   -1    0    0  504  501  0.00000000000E+00  0.00000000000E+00  0.14570332802E+02  0.14570332802E+02  0.00000000000E+00 0. -1.
         21   -1    0    0  501  502 -0.00000000000E+00 -0.00000000000E+00 -0.62897840902E+03  0.62897840902E+03  0.00000000000E+00 0.  1.
         21    1    1    2  503  502 -0.17565774389E+02 -0.12619265098E+02 -0.62065828168E+03  0.62103502712E+03  0.00000000000E+00 0.  1.
         21    1    1    2  504  503  0.17565774389E+02  0.12619265098E+02  0.62502054670E+01  0.22513714706E+02  0.00000000000E+00 0. -1.
</event>
<event>
 4    1  0.1551744E+006  0.2865782E+02  0.7546771E-02  0.1431630E+00
         21   -1    0    0  504  501  0.00000000000E+00  0.00000000000E+00  0.19720548760E+02  0.19720548760E+02  0.00000000000E+00 0.  1.
         21   -1    0    0  503  502 -0.00000000000E+00 -0.00000000000E+00 -0.42848788557E+02  0.42848788557E+02  0.00000000000E+00 0. -1.
         21    1    1    2  503  501  0.13188364836E+02  0.25442830923E+02 -0.16806891204E+02  0.33222615857E+02  0.00000000000E+00 0.  1.
         21    1    1    2  504  502 -0.13188364836E+02 -0.25442830923E+02 -0.63213485931E+01  0.29346721461E+02  0.00000000000E+00 0. -1.
</event>
<event>
 4    1  0.1551744E+006  0.4649600E+02  0.7546771E-02  0.1314124E+00
         21   -1    0    0  503  501  0.00000000000E+00  0.00000000000E+00  0.63884953592E+03  0.63884953592E+03  0.00000000000E+00 0. -1.
         21   -1    0    0  504  502 -0.00000000000E+00 -0.00000000000E+00 -0.92374457388E+01  0.92374457388E+01  0.00000000000E+00 0.  1.
         21    1    1    2  503  502  0.23746169682E+00 -0.46495396727E+02  0.56857855611E+02  0.73448580990E+02  0.00000000000E+00 0.  1.
         21    1    1    2  504  501 -0.23746169682E+00  0.46495396727E+02  0.57275423457E+03  0.57463840067E+03  0.00000000000E+00 0. -1.
</event>
<event>
 4    1  0.1551744E+006  0.2994729E+02  0.7546771E-02  0.1420055E+00
         21   -1    0    0  504  501  0.00000000000E+00  0.00000000000E+00  0.11642956063E+02  0.11642956063E+02  0.00000000000E+00 0.  1.
         21   -1    0    0  503  502 -0.00000000000E+00 -0.00000000000E+00 -0.78251960335E+02  0.78251960335E+02  0.00000000000E+00 0.  1.
         21    1    1    2  503  501 -0.29504884061E+02  0.51285402798E+01 -0.27684424794E+02  0.40783176494E+02  0.00000000000E+00 0.  1.
         21    1    1    2  504  502  0.29504884061E+02 -0.51285402798E+01 -0.38924579479E+02  0.49111739904E+02  0.00000000000E+00 0.  1.
</event>
<event>
 4    1  0.1551744E+006  0.2841968E+02  0.7546771E-02  0.1433846E+00
         21   -1    0    0  503  501  0.00000000000E+00  0.00000000000E+00  0.22419616704E+03  0.22419616704E+03  0.00000000000E+00 0.  1.
         21   -1    0    0  504  502 -0.00000000000E+00 -0.00000000000E+00 -0.14708231657E+02  0.14708231657E+02  0.00000000000E+00 0.  1.
         21    1    1    2  503  502 -0.27483410494E+02 -0.72346470319E+01  0.94655604459E+00  0.28435434557E+02  0.00000000000E+00 0.  1.
         21    1    1    2  504  501  0.27483410494E+02  0.72346470319E+01  0.20854137934E+03  0.21046896414E+03  0.00000000000E+00 0.  1.
</event>
<event>
 4    1  0.1551744E+006  0.3576129E+02  0.7546771E-02  0.1375289E+00
         21   -1    0    0  504  501  0.00000000000E+00  0.00000000000E+00  0.90123547401E+02  0.90123547401E+02  0.00000000000E+00 0. -1.
         21   -1    0    0  503  502 -0.00000000000E+00 -0.00000000000E+00 -0.12828731380E+03  0.12828731380E+03  0.00000000000E+00 0. -1.
         21    1    1    2  503  501 -0.14053731273E+02 -0.32884072727E+02 -0.12207062255E+03  0.12720104753E+03  0.00000000000E+00 0. -1.
         21    1    1    2  504  502  0.14053731273E+02  0.32884072727E+02  0.83906856151E+02  0.91209813677E+02  0.00000000000E+00 0. -1.
</event>
<event>
 4    1  0.1551744E+006  0.2379291E+02  0.7546771E-02  0.1482774E+00
         21   -1    0    0  504  501  0.00000000000E+00  0.00000000000E+00  0.16802194162E+02  0.16802194162E+02  0.00000000000E+00 0. -1.
         21   -1    0    0  503  502 -0.00000000000E+00 -0.00000000000E+00 -0.36628387747E+02  0.36628387747E+02  0.00000000000E+00 0. -1.
         21    1    1    2  503  501 -0.23744854630E+02  0.15114845773E+01 -0.23492328838E+01  0.23908609374E+02  0.00000000000E+00 0. -1.
         21    1    1    2  504  502  0.23744854630E+02 -0.15114845773E+01 -0.17476960701E+02  0.29521972535E+02  0.00000000000E+00 0. -1.
</event>
<event>
 4    1  0.1551744E+006  0.2846514E+02  0.7546771E-02  0.1433421E+00
         21   -1    0    0  504  501  0.00000000000E+00  0.00000000000E+00  0.11402485505E+03  0.11402485505E+03  0.00000000000E+00 0.  1.
         21   -1    0    0  503  502 -0.00000000000E+00 -0.00000000000E+00 -0.91373019931E+01  0.91373019931E+01  0.00000000000E+00 0.  1.
         21    1    1    2  503  501 -0.21188181587E+02  0.19008558632E+02  0.81478791933E+02  0.86307924753E+02  0.00000000000E+00 0.  1.
         21    1    1    2  504  502  0.21188181587E+02 -0.19008558632E+02  0.23408761120E+02  0.36854232287E+02  0.00000000000E+00 0.  1.
</event>
<event>
 4    1  0.1551744E+006  0.3847174E+02  0.7546771E-02  0.1357682E+00
         21   -1    0    0  504  501  0.00000000000E+00  0.00000000000E+00  0.67504076891E+01  0.67504076891E+01  0.00000000000E+00 0.  1.
         21   -1    0    0  503  502 -0.00000000000E+00 -0.00000000000E+00 -0.23523891189E+03  0.23523891189E+03  0.00000000000E+00 0.  1.
         21    1    1    2  503  501  0.37987177655E+02  0.60868069067E+01 -0.14578155044E+03  0.15077246212E+03  0.00000000000E+00 0.  1.
         21    1    1    2  504  502 -0.37987177655E+02 -0.60868069067E+01 -0.82706953754E+02  0.91216857454E+02  0.00000000000E+00 0.  1.
</event>
<event>
 4    1  0.1551744E+006  0.2572893E+02  0.7546771E-02  0.1460812E+00
         21   -1    0    0  502  501  0.00000000000E+00  0.00000000000E+00  0.62719115455E+03  0.62719115455E+03  0.00000000000E+00 0.  1.
         21   -1    0    0  504  502 -0.00000000000E+00 -0.00000000000E+00 -0.16064062093E+02  0.16064062093E+02  0.00000000000E+00 0.  1.
         21    1    1    2  503  501 -0.25539327024E+02  0.31178144700E+01  0.61644562775E+03  0.61698232549E+03  0.00000000000E+00 0.  1.
         21    1    1    2  504  503  0.25539327024E+02 -0.31178144700E+01 -0.53185352945E+01  0.26272891154E+02  0.00000000000E+00 0.  1.
</event>
<event>
 4    1  0.1551744E+006  0.2329570E+02  0.7546771E-02  0.1488818E+00
         21   -1    0    0  502  501  0.00000000000E+00  0.00000000000E+00  0.19082084746E+03  0.19082084746E+03  0.00000000000E+00 0. -1.
         21   -1    0    0  503  502 -0.00000000000E+00 -0.00000000000E+00 -0.62465198123E+02  0.62465198123E+02  0.00000000000E+00 0. -1.
         21    1    1    2  503  504  0.10452324682E+02  0.20819191321E+02 -0.59548652015E+02  0.63943191783E+02  0.00000000000E+00 0. -1.
         21    1    1    2  504  501 -0.10452324682E+02 -0.20819191321E+02  0.18790430135E+03  0.18934285380E+03  0.00000000000E+00 0. -1.
</event>
<event>
 4    1  0.1551744E+006  0.2025341E+02  0.7546771E-02  0.1530197E+00
         21   -1    0    0  502  501  0.00000000000E+00  0.00000000000E+00  0.40858497998E+01  0.40858497998E+01  0.00000000000E+00 0.  1.
         21   -1    0    0  503  502 -0.00000000000E+00 -0.00000000000E+00 -0.14013459149E+03  0.14013459149E+03  0.00000000000E+00 0. -1.
         21    1    1    2  503  504 -0.13531330245E+02  0.15069958740E+02 -0.10642458288E+03  0.10833463156E+03  0.00000000000E+00 0. -1.
         21    1    1    2  504  501  0.13531330245E+02 -0.15069958740E+02 -0.29624158815E+02  0.35885809732E+02  0.00000000000E+00 0.  1.
</event>
<event>
 4    1  0.1551744E+006  0.2149113E+02  0.7546771E-02  0.1512367E+00
         21   -1    0    0  504  501  0.00000000000E+00  0.00000000000E+00  0.26867876883E+03  0.26867876883E+03  0.00000000000E+00 0.  1.
         21   -1    0    0  503  502 -0.00000000000E+00 -0.00000000000E+00 -0.57251037344E+02  0.57251037344E+02  0.00000000000E+00 0.  1.
         21    1    1    2  503  501 -0.51984550373E+01  0.20852934040E+02 -0.54785773571E+02  0.58850231763E+02  0.00000000000E+00 0.  1.
         21    1    1    2  504  502  0.51984550373E+01 -0.20852934040E+02  0.26621350505E+03  0.26707957441E+03  0.00000000000E+00 0.  1.
</event>
<event>
 4    1  0.1551744E+006  0.3685555E+02  0.7546771E-02  0.1367967E+00
         21   -1    0    0  502  501  0.00000000000E+00  0.00000000000E+00  0.19491010012E+02  0.19491010012E+02  0.00000000000E+00 0. -1.
         21   -1    0    0  503  502 -0.00000000000E+00 -0.00000000000E+00 -0.18508772282E+03  0.18508772282E+03  0.00000000000E+00 0.  1.
         21    1    1    2  503  504 -0.68993865115E+01 -0.36204005727E+02 -0.16356648211E+03  0.16766730640E+03  0.00000000000E+00 0.  1.
         21    1    1    2  504  501  0.68993865115E+01  0.36204005727E+02 -0.20302306999E+01  0.36911426437E+02  0.00000000000E+00 0. -1.
</event>
<event>
 4    1  0.1551744E+006  0.3608864E+02  0.7546771E-02  0.1373067E+00
         21   -1    0    0  504  501  0.00000000000E+00  0.00000000000E+00  0.72530844060E+02  0.72530844060E+02  0.00000000000E+00 0. -1.
         21   -1    0    0  503  502 -0.00000000000E+00 -0.00000000000E+00 -0.14312188983E+03  0.14312188983E+03  0.00000000000E+00 0.  1.
         21    1    1    2  503  501 -0.16914313148E+02  0.31879391896E+02  0.65540177782E+02  0.74819145416E+02  0.00000000000E+00 0. -1.
         21    1    1    2  504  502  0.16914313148E+02 -0.31879391896E+02 -0.13613122355E+03  0.14083358847E+03  0.00000000000E+00 0.  1.
</event>
<event>
 4    1  0.1551744E+006  0.2618561E+02  0.7546771E-02  0.1455965E+00
         21   -1    0    0  503  501  0.00000000000E+00  0.00000000000E+00  0.19977491970E+03  0.19977491970E+03  0.00000000000E+00 0.  1.
         21   -1    0    0  501  502 -0.00000000000E+00 -0.00000000000E+00 -0.19590409327E+03  0.19590409327E+03  0.00000000000E+00 0.  1.
         21    1    1    2  503  504 -0.26049343384E+02  0.26678927192E+01  0.19803416068E+03  0.19975789030E+03  0.00000000000E+00 0.  1.
         21    1    1    2  504  502  0.26049343384E+02 -0.26678927192E+01 -0.19416333425E+03  0.19592112267E+03  0.00000000000E+00 0.  1.
</event>
<event>
 4    1  0.1551744E+006  0.2285594E+02  0.7546771E-02  0.1494315E+00
         21   -1    0    0  504  501  0.00000000000E+00  0.00000000000E+00  0.13402194058E+03  0.13402194058E+03  0.00000000000E+00 0. -1.
         21   -1    0    0  501  502 -0.00000000000E+00 -0.00000000000E+00 -0.31486991733E+02  0.31486991733E+02  0.00000000000E+00 0.  1.
         21    1    1    2  503  502 -0.21205430994E+02 -0.85278094034E+01 -0.26195677113E+02  0.34765030365E+02  0.00000000000E+00 0.  1.
         21    1    1    2  504  503  0.21205430994E+02  0.85278094034E+01  0.12873062596E+03  0.13074390195E+03  0.00000000000E+00 0. -1.
</event>
<event>
 4    1  0.1551744E+006  0.2038231E+02  0.7546771E-02  0.1528269E+00
         21   -1    0    0  503  501  0.00000000000E+00  0.00000000000E+00  0.73992701268E+03  0.73992701268E+03  0.00000000000E+00 0. -1.
         21   -1    0    0  504  502 -0.00000000000E+00 -0.00000000000E+00 -0.11257105052E+02  0.11257105052E+02  0.00000000000E+00 0. -1.
         21    1    1    2  503  502 -0.69731737958E+01 -0.19152377323E+02  0.73044070590E+03  0.73072502595E+03  0.00000000000E+00 0. -1.
         21    1    1    2  504  501  0.69731737958E+01  0.19152377323E+02 -0.17707982771E+01  0.20459091779E+02  0.00000000000E+00 0. -1.
</event>
<event>
 4    1  0.1551744E+006  0.2313721E+02  0.7546771E-02  0.1490782E+00
         21   -1    0    0  503  501  0.00000000000E+00  0.00000000000E+00  0.26465858084E+03  0.26465858084E+03  0.00000000000E+00 0. -1.
         21   -1    0    0  504  502 -0.00000000000E+00 -0.00000000000E+00 -0.82066302096E+01  0.82066302096E+01  0.00000000000E+00 0. -1.
         21    1    1    2  503  502 -0.18270858907E+02 -0.14195292485E+02  0.97944632693E+01  0.25124930342E+02  0.00000000000E+00 0. -1.
         21    1    1    2  504  501  0.18270858907E+02  0.14195292485E+02  0.24665748736E+03  0.24774028071E+03  0.00000000000E+00 0. -1.
</event>
<event>
 4    1  0.1551744E+006  0.3842467E+02  0.7546771E-02  0.1357973E+00
         21   -1    0    0  503  501  0.00000000000E+00  0.00000000000E+00  0.78948415384E+03  0.78948415384E+03  0.00000000000E+00 0.  1.
         21   -1    0    0  504  502 -0.00000000000E+00 -0.00000000000E+00 -0.27961839722E+02  0.27961839722E+02  0.00000000000E+00 0.  1.
         21    1    1    2  503  502 -0.31806670284E+02  0.21559018499E+02 -0.14057154611E+02  0.40915267919E+02  0.00000000000E+00 0.  1.
         21    1    1    2  504  501  0.31806670284E+02 -0.21559018499E+02  0.77557946873E+03  0.77653072564E+03  0.00000000000E+00 0.  1.
</event>
<event>
 4    1  0.1551744E+006  0.2153901E+02  0.7546771E-02  0.1511706E+00
         21   -1    0    0  503  501  0.00000000000E+00  0.00000000000E+00  0.10265844642E+03  0.10265844642E+03  0.00000000000E+00 0. -1.
         21   -1    0    0  504  502 -0.00000000000E+00 -0.00000000000E+00 -0.60593483395E+01  0.60593483395E+01  0.00000000000E+00 0. -1.
         21    1    1    2  503  502  0.14286199824E+01 -0.21491583814E+02  0.75705552839E+02  0.78709973069E+02  0.00000000000E+00 0. -1.
         21    1    1    2  504  501 -0.14286199824E+01  0.21491583814E+02  0.20893545245E+02  0.30007821693E+02  0.00000000000E+00 0. -1.
</event>
<event>
 4    1  0.1551744E+006  0.2392820E+02  0.7546771E-02  0.1481160E+00
         21   -1    0    0  503  501  0.00000000000E+00  0.00000000000E+00  0.25111851689E+02  0.25111851689E+02  0.00000000000E+00 0. -1.
         21   -1    0    0  501  502 -0.00000000000E+00 -0.00000000000E+00 -0.13100393860E+03  0.13100393860E+03  0.00000000000E+00 0. -1.
         21    1    1    2  503  504  0.32941672656E+01 -0.23700366923E+02  0.17994661239E+02  0.29939384819E+02  0.00000000000E+00 0. -1.
         21    1    1    2  504  502 -0.32941672656E+01  0.23700366923E+02 -0.12388674815E+03  0.12617640547E+03  0.00000000000E+00 0. -1.
</event>
<event>
 4    1  0.1551744E+006  0.2798569E+02  0.7546771E-02  0.1437950E+00
         21   -1    0    0  504  501  0.00000000000E+00  0.00000000000E+00  0.23351027448E+02  0.23351027448E+02  0.00000000000E+00 0.  1.
         21   -1    0    0  501  502 -0.00000000000E+00 -0.00000000000E+00 -0.25615751519E+03  0.25615751519E+03  0.00000000000E+00 0. -1.
         21    1    1    2  503  502  0.23920685842E+02 -0.14525825793E+02 -0.24668721288E+03  0.24826957088E+03  0.00000000000E+00 0. -1.
         21    1    1    2  504  503 -0.23920685842E+02  0.14525825793E+02  0.13880725139E+02  0.31238971758E+02  0.00000000000E+00 0.  1.
</event>
<event>
 4    1  0.1551744E+006  0.2016794E+02  0.7546771E-02  0.1531484E+00
         21   -1    0    0  503  501  0.00000000000E+00  0.00000000000E+00  0.29058905246E+02  0.29058905246E+02  0.00000000000E+00 0.  1.
         21   -1    0    0  504  502 -0.00000000000E+00 -0.00000000000E+00 -0.36854319467E+02  0.36854319467E+02  0.00000000000E+00 0. -1.
         21    1    1    2  503  502 -0.20304923638E+01 -0.20065467578E+02 -0.29851944426E+02  0.36026163748E+02  0.00000000000E+00 0. -1.
         21    1    1    2  504  501  0.20304923638E+01  0.20065467578E+02  0.22056530205E+02  0.29887060964E+02  0.00000000000E+00 0.  1.
</event>
<event>
 4    1  0.1551744E+006  0.2233669E+02  0.7546771E-02  0.1501000E+00
         21   -1    0    0  504  501  0.00000000000E+00  0.00000000000E+00  0.22945667487E+01  0.22945667487E+01  0.00000000000E+00 0. -1.
         21   -1    0    0  503  502 -0.00000000000E+00 -0.00000000000E+00 -0.32043515788E+03  0.32043515788E+03  0.00000000000E+00 0. -1.
         21    1    1    2  503  501  0.12486822532E+02 -0.18520451559E+02 -0.25055527708E+03  0.25154895097E+03  0.00000000000E+00 0. -1.
         21    1    1    2  504  502 -0.12486822532E+02  0.18520451559E+02 -0.67585314059E+02  0.71180773664E+02  0.00000000000E+00 0. -1.
</event>
<event>
 4    1  0.1551744E+006  0.2257723E+02  0.7546771E-02  0.1497876E+00
         21   -1    0    0  504  501  0.00000000000E+00  0.00000000000E+00  0.62200102156E+03  0.62200102156E+03  0.00000000000E+00 0.  1.
         21   -1    0    0  501  502 -0.00000000000E+00 -0.00000000000E+00 -0.52422692228E+01  0.52422692228E+01  0.00000000000E+00 0.  1.
         21    1    1    2  503  502 -0.20901640377E+02 -0.85353773380E+01  0.20312450689E+02  0.30369835195E+02  0.00000000000E+00 0.  1.
         21    1    1    2  504  503  0.20901640377E+02  0.85353773380E+01  0.59644630165E+03  0.59687345559E+03  0.00000000000E+00 0.  1.
</event>
<event>
 4    1  0.1551744E+006  0.2629213E+02  0.7546771E-02  0.1454851E+00
         21   -1    0    0  502  501  0.00000000000E+00  0.00000000000E+00  0.41338753428E+03  0.41338753428E+03  0.00000000000E+00 0. -1.
         21   -1    0    0  503  502 -0.00000000000E+00 -0.00000000000E+00 -0.22866499717E+01  0.22866499717E+01  0.00000000000E+00 0.  1.
         21    1    1    2  503  504  0.27662337175E+01  0.26146204784E+02  0.97815047366E+02  0.10128701578E+03  0.00000000000E+00 0.  1.
         21    1    1    2  504  501 -0.27662337175E+01 -0.26146204784E+02  0.31328583694E+03  0.31438716847E+03  0.00000000000E+00 0. -1.
</event>
<event>
 4    1  0.1551744E+006  0.2106098E+02  0.7546771E-02  0.1518396E+00
         21   -1    0    0  504  501  0.00000000000E+00  0.00000000000E+00  0.19644279172E+02  0.19644279172E+02  0.00000000000E+00 0. -1.
         21   -1    0    0  503  502 -0.00000000000E+00 -0.00000000000E+00 -0.37747930681E+02  0.37747930681E+02  0.00000000000E+00 0. -1.
         21    1    1    2  503  501  0.75933674688E+01 -0.19644478329E+02 -0.27242206054E+02  0.34434031844E+02  0.00000000000E+00 0. -1.
         21    1    1    2  504  502 -0.75933674688E+01  0.19644478329E+02  0.91385545457E+01  0.22958178009E+02  0.00000000000E+00 0. -1.
</event>
<event>
 4    1  0.1551744E+006  0.2785396E+02  0.7546771E-02  0.1439213E+00
         21   -1    0    0  504  501  0.00000000000E+00  0.00000000000E+00  0.40388466615E+02  0.40388466615E+02  0.00000000000E+00 0. -1.
         21   -1    0    0  501  502 -0.00000000000E+00 -0.00000000000E+00 -0.18359043262E+03  0.18359043262E+03  0.00000000000E+00 0.  1.
         21    1    1    2  503  502  0.48329177408E+01 -0.27431479998E+02 -0.17756972460E+03  0.17974106454E+03  0.00000000000E+00 0.  1.
         21    1    1    2  504  503 -0.48329177408E+01  0.27431479998E+02  0.34367758586E+02  0.44237834701E+02  0.00000000000E+00 0. -1.
</event>
<event>
 4    1  0.1551744E+006  0.2912736E+02  0.7546771E-02  0.1427334E+00
         21   -1    0    0  504  501  0.00000000000E+00  0.00000000000E+00  0.20224947805E+01  0.20224947805E+01  0.00000000000E+00 0. -1.
         21   -1    0    0  503  502 -0.00000000000E+00 -0.00000000000E+00 -0.58329238845E+03  0.58329238845E+03  0.00000000000E+00 0. -1.
         21    1    1    2  503  501  0.29028125088E+02  0.24023514526E+01 -0.44572539497E+03  0.44667609188E+03  0.00000000000E+00 0. -1.
         21    1    1    2  504  502 -0.29028125088E+02 -0.24023514526E+01 -0.13554449870E+03  0.13863879135E+03  0.00000000000E+00 0. -1.
</event>
<event>
 4    1  0.1551744E+006  0.2470074E+02  0.7546771E-02  0.1472179E+00
         21   -1    0    0  504  501  0.00000000000E+00  0.00000000000E+00  0.75853880347E+02  0.75853880347E+02  0.00000000000E+00 0. -1.
         21   -1    0    0  503  502 -0.00000000000E+00 -0.00000000000E+00 -0.26467517379E+02  0.26467517379E+02  0.00000000000E+00 0.  1.
         21    1    1    2  503  501  0.24079526918E+02  0.55048020640E+01  0.67377926218E+02  0.71762883191E+02  0.00000000000E+00 0. -1.
         21    1    1    2  504  502 -0.24079526918E+02 -0.55048020640E+01 -0.17991563250E+02  0.30558514534E+02  0.00000000000E+00 0.  1.
</event>
<event>
 4    1  0.1551744E+006  0.2434026E+02  0.7546771E-02  0.1476321E+00
         21   -1    0    0  503  501  0.00000000000E+00  0.00000000000E+00  0.61851697267E+02  0.61851697267E+02  0.00000000000E+00 0. -1.
         21   -1    0    0  504  502 -0.00000000000E+00 -0.00000000000E+00 -0.13475884081E+02  0.13475884081E+02  0.00000000000E+00 0. -1.
         21    1    1    2  503  502  0.13415791805E+02 -0.20309230000E+02  0.39329943166E+01  0.24655967579E+02  0.00000000000E+00 0. -1.
         21    1    1    2  504  501 -0.13415791805E+02  0.20309230000E+02  0.44442818869E+02  0.50671613770E+02  0.00000000000E+00 0. -1.
</event>
<event>
 4    1  0.1551744E+006  0.3410199E+02  0.7546771E-02  0.1386989E+00
         21   -1    0    0  504  501  0.00000000000E+00  0.00000000000E+00  0.34202780846E+01  0.34202780846E+01  0.00000000000E+00 0. -1.
         21   -1    0    0  503  502 -0.00000000000E+00 -0.00000000000E+00 -0.34682383961E+03  0.34682383961E+03  0.00000000000E+00 0. -1.
         21    1    1    2  503  501  0.25359042527E+02  0.22800547901E+02 -0.14716478685E+03  0.15106429264E+03  0.00000000000E+00 0. -1.
         21    1    1    2  504  502 -0.25359042527E+02 -0.22800547901E+02 -0.19623877468E+03  0.19917982505E+03  0.00000000000E+00 0. -1.
</event>
<event>
 4    1  0.1551744E+006  0.2352797E+02  0.7546771E-02  0.1485973E+00
         21   -1    0    0  504  501  0.00000000000E+00  0.00000000000E+00  0.11528885636E+02  0.11528885636E+02  0.00000000000E+00 0. -1.
         21   -1    0    0  503  502 -0.00000000000E+00 -0.00000000000E+00 -0.83326369902E+02  0.83326369902E+02  0.00000000000E+00 0. -1.
         21    1    1    2  503  501  0.22030004875E+02  0.82609941539E+01 -0.50246342917E+01  0.24058513856E+02  0.00000000000E+00 0. -1.
         21    1    1    2  504  502 -0.22030004875E+02 -0.82609941539E+01 -0.66772849975E+02  0.70796741683E+02  0.00000000000E+00 0. -1.
</event>
<event>
 4    1  0.1551744E+006  0.2437252E+02  0.7546771E-02  0.1475947E+00
         21   -1    0    0  504  501  0.00000000000E+00  0.00000000000E+00  0.31529380811E+01  0.31529380811E+01  0.00000000000E+00 0.  1.
         21   -1    0    0  503  502 -0.00000000000E+00 -0.00000000000E+00 -0.17350748486E+04  0.17350748486E+04  0.00000000000E+00 0. -1.
         21    1    1    2  503  501 -0.18819074182E+02  0.15487488371E+02 -0.16865331859E+04  0.16867092835E+04  0.00000000000E+00 0. -1.
         21    1    1    2  504  502  0.18819074182E+02 -0.15487488371E+02 -0.45388724617E+02  0.51518503195E+02  0.00000000000E+00 0.  1.
</event>
<event>
 4    1  0.1551744E+006  0.5965859E+02  0.7546771E-02  0.1260997E+00
         21   -1    0    0  504  501  0.00000000000E+00  0.00000000000E+00  0.17125348459E+03  0.17125348459E+03  0.00000000000E+00 0.  1.
         21   -1    0    0  503  502 -0.00000000000E+00 -0.00000000000E+00 -0.22698316588E+02  0.22698316588E+02  0.00000000000E+00 0.  1.
         21    1    1    2  503  501  0.50952415556E+02  0.31032225860E+02  0.10244819095E+03  0.11855285539E+03  0.00000000000E+00 0.  1.
         21    1    1    2  504  502 -0.50952415556E+02 -0.31032225860E+02  0.46106977055E+02  0.75398945788E+02  0.00000000000E+00 0.  1.
</event>
<event>
 4    1  0.1551744E+006  0.2865022E+02  0.7546771E-02  0.1431700E+00
         21   -1    0    0  503  501  0.00000000000E+00  0.00000000000E+00  0.92203422504E+01  0.92203422504E+01  0.00000000000E+00 0.  1.
         21   -1    0    0  504  502 -0.00000000000E+00 -0.00000000000E+00 -0.90194777158E+02  0.90194777158E+02  0.00000000000E+00 0.  1.
         21    1    1    2  503  502 -0.28643077361E+02 -0.63967312941E+00 -0.46149638986E+02  0.54319648755E+02  0.00000000000E+00 0.  1.
         21    1    1    2  504  501  0.28643077361E+02  0.63967312941E+00 -0.34824795922E+02  0.45095470653E+02  0.00000000000E+00 0.  1.
</event>
<event>
 4    1  0.1551744E+006  0.3945661E+02  0.7546771E-02  0.1351700E+00
         21   -1    0    0  503  501  0.00000000000E+00  0.00000000000E+00  0.22476278517E+02  0.22476278517E+02  0.00000000000E+00 0.  1.
         21   -1    0    0  501  502 -0.00000000000E+00 -0.00000000000E+00 -0.74732171885E+02  0.74732171885E+02  0.00000000000E+00 0.  1.
         21    1    1    2  503  504  0.38562300501E+02  0.83530171466E+01 -0.12981945631E+02  0.41537390719E+02  0.00000000000E+00 0.  1.
         21    1    1    2  504  502 -0.38562300501E+02 -0.83530171466E+01 -0.39273947737E+02  0.55671059683E+02  0.00000000000E+00 0.  1.
</event>
<event>
 4    1  0.1551744E+006  0.2371321E+02  0.7546771E-02  0.1483731E+00
         21   -1    0    0  504  501  0.00000000000E+00  0.00000000000E+00  0.26535376943E+03  0.26535376943E+03  0.00000000000E+00 0.  1.
         21   -1    0    0  501  502 -0.00000000000E+00 -0.00000000000E+00 -0.55718506480E+01  0.55718506480E+01  0.00000000000E+00 0.  1.
         21    1    1    2  503  502 -0.14855613297E+02 -0.18483162646E+02  0.23255491033E+02  0.33213467314E+02  0.00000000000E+00 0.  1.
         21    1    1    2  504  503  0.14855613297E+02  0.18483162646E+02  0.23652642775E+03  0.23771215277E+03  0.00000000000E+00 0.  1.
</event>
<event>
 4    1  0.1551744E+006  0.2134403E+02  0.7546771E-02  0.1514409E+00
         21   -1    0    0  504  501  0.00000000000E+00  0.00000000000E+00  0.36975820923E+02  0.36975820923E+02  0.00000000000E+00 0. -1.
         21   -1    0    0  503  502 -0.00000000000E+00 -0.00000000000E+00 -0.23115397248E+02  0.23115397248E+02  0.00000000000E+00 0.  1.
         21    1    1    2  503  501 -0.21072746690E+02  0.33922226385E+01 -0.13601996254E+02  0.25309724013E+02  0.00000000000E+00 0.  1.
         21    1    1    2  504  502  0.21072746690E+02 -0.33922226385E+01  0.27462419929E+02  0.34781494158E+02  0.00000000000E+00 0. -1.
</event>
<event>
 4    1  0.1551744E+006  0.2025995E+02  0.7546771E-02  0.1530098E+00
         21   -1    0    0  503  501  0.00000000000E+00  0.00000000000E+00  0.32068569961E+03  0.32068569961E+03  0.00000000000E+00 0.  1.
         21   -1    0    0  504  502 -0.00000000000E+00 -0.00000000000E+00 -0.19154058313E+01  0.19154058313E+01  0.00000000000E+00 0.  1.
         21    1    1    2  503  502  0.11146130293E+02  0.16918309976E+02  0.25229122309E+03  0.25310339129E+03  0.00000000000E+00 0.  1.
         21    1    1    2  504  501 -0.11146130293E+02 -0.16918309976E+02  0.66479070684E+02  0.69497714149E+02  0.00000000000E+00 0.  1.
</event>
<event>
 4    1  0.1551744E+006  0.2018663E+02  0.7546771E-02  0.1531202E+00
         21   -1    0    0  504  501  0.00000000000E+00  0.00000000000E+00  0.39113160333E+01  0.39113160333E+01  0.00000000000E+00 0.  1.
         21   -1    0    0  501  502 -0.00000000000E+00 -0.00000000000E+00 -0.11135454956E+03  0.11135454956E+03  0.00000000000E+00 0.  1.
         21    1    1    2  503  502 -0.59194393673E+01  0.19299232408E+02 -0.68345583989E+02  0.71264430011E+02  0.00000000000E+00 0.  1.
         21    1    1    2  504  503  0.59194393673E+01 -0.19299232408E+02 -0.39097649541E+02  0.44001435585E+02  0.00000000000E+00 0.  1.
</event>
<event>
 4    1  0.1551744E+006  0.2101382E+02  0.7546771E-02  0.1519067E+00
         21   -1    0    0  503  501  0.00000000000E+00  0.00000000000E+00  0.49520491051E+02  0.49520491051E+02  0.00000000000E+00 0. -1.
         21   -1    0    0  504  502 -0.00000000000E+00 -0.00000000000E+00 -0.28049222803E+02  0.28049222803E+02  0.00000000000E+00 0. -1.
         21    1    1    2  503  502  0.21567002541E+01 -0.20902857289E+02  0.42767555101E+02  0.47651280865E+02  0.00000000000E+00 0. -1.
         21    1    1    2  504  501 -0.21567002541E+01  0.20902857289E+02 -0.21296286852E+02  0.29918432989E+02  0.00000000000E+00 0. -1.
</event>
<event>
 4    1  0.1551744E+006  0.3285818E+02  0.7546771E-02  0.1396280E+00
         21   -1    0    0  504  501  0.00000000000E+00  0.00000000000E+00  0.14766966278E+03  0.14766966278E+03  0.00000000000E+00 0. -1.
         21   -1    0    0  503  502 -0.00000000000E+00 -0.00000000000E+00 -0.77370596057E+01  0.77370596057E+01  0.00000000000E+00 0. -1.
         21    1    1    2  503  501  0.30039178129E+02  0.13315696305E+02  0.88193689715E+02  0.94115816398E+02  0.00000000000E+00 0. -1.
         21    1    1    2  504  502 -0.30039178129E+02 -0.13315696305E+02  0.51738913458E+02  0.61290905986E+02  0.00000000000E+00 0. -1.
</event>
<event>
 4    1  0.1551744E+006  0.2048038E+02  0.7546771E-02  0.1526815E+00
         21   -1    0    0  502  501  0.00000000000E+00  0.00000000000E+00  0.89999874153E+02  0.89999874153E+02  0.00000000000E+00 0. -1.
         21   -1    0    0  504  502 -0.00000000000E+00 -0.00000000000E+00 -0.47302987555E+01  0.47302987555E+01  0.00000000000E+00 0. -1.
         21    1    1    2  503  501 -0.15179270445E+02  0.13749021881E+02  0.36881870928E+02  0.42186707114E+02  0.00000000000E+00 0. -1.
         21    1    1    2  504  503  0.15179270445E+02 -0.13749021881E+02  0.48387704469E+02  0.52543465794E+02  0.00000000000E+00 0. -1.
</event>
<event>
 4    1  0.1551744E+006  0.3371062E+02  0.7546771E-02  0.1389862E+00
         21   -1    0    0  503  501  0.00000000000E+00  0.00000000000E+00  0.31876537408E+03  0.31876537408E+03  0.00000000000E+00 0. -1.
         21   -1    0    0  504  502 -0.00000000000E+00 -0.00000000000E+00 -0.43753268056E+01  0.43753268056E+01  0.00000000000E+00 0. -1.
         21    1    1    2  503  502 -0.27944713677E+01  0.33594599808E+02  0.22672628240E+03  0.22921870198E+03  0.00000000000E+00 0. -1.
         21    1    1    2  504  501  0.27944713677E+01 -0.33594599808E+02  0.87663764875E+02  0.93921998906E+02  0.00000000000E+00 0. -1.
</event>
<event>
 4    1  0.1551744E+006  0.3152741E+02  0.7546771E-02  0.1406772E+00
         21   -1    0    0  504  501  0.00000000000E+00  0.00000000000E+00  0.10293282246E+02  0.10293282246E+02  0.00000000000E+00 0. -1.
         21   -1    0    0  503  502 -0.00000000000E+00 -0.00000000000E+00 -0.71066872542E+03  0.71066872542E+03  0.00000000000E+00 0. -1.
         21    1    1    2  503  501 -0.23393373163E+02 -0.21135934856E+02 -0.15091591324E+02  0.34953308554E+02  0.00000000000E+00 0. -1.
         21    1    1    2  504  502  0.23393373163E+02  0.21135934856E+02 -0.68528385185E+03  0.68600869912E+03  0.00000000000E+00 0. -1.
</event>
<event>
 4    1  0.1551744E+006  0.2314386E+02  0.7546771E-02  0.1490700E+00
         21   -1    0    0  503  501  0.00000000000E+00  0.00000000000E+00  0.94070186968E+02  0.94070186968E+02  0.00000000000E+00 0. -1.
         21   -1    0    0  504  502 -0.00000000000E+00 -0.00000000000E+00 -0.45379420688E+02  0.45379420688E+02  0.00000000000E+00 0. -1.
         21    1    1    2  503  502 -0.21256200535E+02 -0.91548925783E+01  0.89549223824E+02  0.92491629929E+02  0.00000000000E+00 0. -1.
         21    1    1    2  504  501  0.21256200535E+02  0.91548925783E+01 -0.40858457545E+02  0.46957977728E+02  0.00000000000E+00 0. -1.
</event>
<event>
 4    1  0.1551744E+006  0.3700174E+02  0.7546771E-02  0.1367012E+00
         21   -1    0    0  502  501  0.00000000000E+00  0.00000000000E+00  0.20916875837E+03  0.20916875837E+03  0.00000000000E+00 0.  1.
         21   -1    0    0  503  502 -0.00000000000E+00 -0.00000000000E+00 -0.66223667952E+01  0.66223667952E+01  0.00000000000E+00 0.  1.
         21    1    1    2  503  504  0.22455079661E+02  0.29409152470E+02  0.11289215264E+03  0.11880137617E+03  0.00000000000E+00 0.  1.
         21    1    1    2  504  501 -0.22455079661E+02 -0.29409152470E+02  0.89654238932E+02  0.96989748995E+02  0.00000000000E+00 0.  1.
</event>
<event>
 4    1  0.1551744E+006  0.2095407E+02  0.7546771E-02  0.1519922E+00
         21   -1    0    0  503  501  0.00000000000E+00  0.00000000000E+00  0.89410268252E+00  0.89410268252E+00  0.00000000000E+00 0. -1.
         21   -1    0    0  504  502 -0.00000000000E+00 -0.00000000000E+00 -0.95918656495E+03  0.95918656495E+03  0.00000000000E+00 0. -1.
         21    1    1    2  503  502  0.15122311986E+02 -0.14504782505E+02 -0.81449758290E+03  0.81476707444E+03  0.00000000000E+00 0. -1.
         21    1    1    2  504  501 -0.15122311986E+02  0.14504782505E+02 -0.14379487937E+03  0.14531359319E+03  0.00000000000E+00 0. -1.
</event>
<event>
 4    1  0.1551744E+006  0.2143410E+02  0.7546771E-02  0.1513156E+00
         21   -1    0    0  504  501  0.00000000000E+00  0.00000000000E+00  0.10236605088E+03  0.10236605088E+03  0.00000000000E+00 0.  1.
         21   -1    0    0  503  502 -0.00000000000E+00 -0.00000000000E+00 -0.56358229781E+01  0.56358229781E+01  0.00000000000E+00 0. -1.
         21    1    1    2  503  501  0.16211307885E+02  0.14021912024E+02  0.23995033170E+02  0.32174246487E+02  0.00000000000E+00 0. -1.
         21    1    1    2  504  502 -0.16211307885E+02 -0.14021912024E+02  0.72735194727E+02  0.75827627367E+02  0.00000000000E+00 0.  1.
</event>
<event>
 4    1  0.1551744E+006  0.2714528E+02  0.7546771E-02  0.1446154E+00
         21   -1    0    0  504  501  0.00000000000E+00  0.00000000000E+00  0.48279088674E+02  0.48279088674E+02  0.00000000000E+00 0.  1.
         21   -1    0    0  503  502 -0.00000000000E+00 -0.00000000000E+00 -0.94310744503E+02  0.94310744503E+02  0.00000000000E+00 0. -1.
         21    1    1    2  503  501  0.25380542493E+02 -0.96277864124E+01  0.42255690660E+02  0.50223596064E+02  0.00000000000E+00 0.  1.
         21    1    1    2  504  502 -0.25380542493E+02  0.96277864124E+01 -0.88287346488E+02  0.92366237113E+02  0.00000000000E+00 0. -1.
</event>
<event>
 4    1  0.1551744E+006  0.2181567E+02  0.7546771E-02  0.1507930E+00
         21   -1    0    0  503  501  0.00000000000E+00  0.00000000000E+00  0.26429068093E+02  0.26429068093E+02  0.00000000000E+00 0.  1.
         21   -1    0    0  504  502 -0.00000000000E+00 -0.00000000000E+00 -0.26359868499E+02  0.26359868499E+02  0.00000000000E+00 0.  1.
         21    1    1    2  503  502 -0.17460272946E+02 -0.13079076691E+02 -0.14822848179E+02  0.26374992068E+02  0.00000000000E+00 0.  1.
         21    1    1    2  504  501  0.17460272946E+02  0.13079076691E+02  0.14892047773E+02  0.26413944524E+02  0.00000000000E+00 0.  1.
</event>
<event>
 4    1  0.1551744E+006  0.2312175E+02  0.7546771E-02  0.1490975E+00
         21   -1    0    0  503  501  0.00000000000E+00  0.00000000000E+00  0.44410127677E+02  0.44410127677E+02  0.00000000000E+00 0.  1.
         21   -1    0    0  501  502 -0.00000000000E+00 -0.00000000000E+00 -0.22873882383E+02  0.22873882383E+02  0.00000000000E+00 0. -1.
         21    1    1    2  503  504 -0.11307712315E+02 -0.20168071434E+02  0.33922931870E+02  0.41053389261E+02  0.00000000000E+00 0.  1.
         21    1    1    2  504  502  0.11307712315E+02  0.20168071434E+02 -0.12386686576E+02  0.26230620798E+02  0.00000000000E+00 0. -1.
</event>
<event>
 4    1  0.1551744E+006  0.2043336E+02  0.7546771E-02  0.1527511E+00
         21   -1    0    0  504  501  0.00000000000E+00  0.00000000000E+00  0.65791991099E+01  0.65791991099E+01  0.00000000000E+00 0.  1.
         21   -1    0    0  503  502 -0.00000000000E+00 -0.00000000000E+00 -0.15460205499E+03  0.15460205499E+03  0.00000000000E+00 0.  1.
         21    1    1    2  503  501 -0.20105568402E+02 -0.36453248673E+01 -0.13588910920E+03  0.13741678309E+03  0.00000000000E+00 0.  1.
         21    1    1    2  504  502  0.20105568402E+02  0.36453248673E+01 -0.12133746680E+02  0.23764471015E+02  0.00000000000E+00 0.  1.
</event>
<event>
 4    1  0.1551744E+006  0.2253313E+02  0.7546771E-02  0.1498445E+00
         21   -1    0    0  504  501  0.00000000000E+00  0.00000000000E+00  0.27308851041E+02  0.27308851041E+02  0.00000000000E+00 0.  1.
         21   -1    0    0  503  502 -0.00000000000E+00 -0.00000000000E+00 -0.31246363475E+02  0.31246363475E+02  0.00000000000E+00 0.  1.
         21    1    1    2  503  501  0.21627362734E+02  0.63244954741E+01  0.16662665650E+02  0.28024747784E+02  0.00000000000E+00 0.  1.
         21    1    1    2  504  502 -0.21627362734E+02 -0.63244954741E+01 -0.20600178083E+02  0.30530466732E+02  0.00000000000E+00 0.  1.
</event>
<event>
 4    1  0.1551744E+006  0.3269493E+02  0.7546771E-02  0.1397535E+00
         21   -1    0    0  503  501  0.00000000000E+00  0.00000000000E+00  0.37921815755E+01  0.37921815755E+01  0.00000000000E+00 0.  1.
         21   -1    0    0  504  502 -0.00000000000E+00 -0.00000000000E+00 -0.54746145975E+03  0.54746145975E+03  0.00000000000E+00 0.  1.
         21    1    1    2  503  502  0.58335604080E+01 -0.32170298455E+02 -0.46380740066E+03  0.46495834592E+03  0.00000000000E+00 0.  1.
         21    1    1    2  504  501 -0.58335604080E+01  0.32170298455E+02 -0.79861877516E+02  0.86295295411E+02  0.00000000000E+00 0.  1.
</event>
<event>
 4    1  0.1551744E+006  0.2579856E+02  0.7546771E-02  0.1460065E+00
         21   -1    0    0  504  501  0.00000000000E+00  0.00000000000E+00  0.28420336222E+02  0.28420336222E+02  0.00000000000E+00 0.  1.
         21   -1    0    0  503  502 -0.00000000000E+00 -0.00000000000E+00 -0.31239019303E+02  0.31239019303E+02  0.00000000000E+00 0. -1.
         21    1    1    2  503  501  0.25297654881E+02  0.50590696887E+01  0.13515642207E+02  0.29124527685E+02  0.00000000000E+00 0.  1.
         21    1    1    2  504  502 -0.25297654881E+02 -0.50590696887E+01 -0.16334325288E+02  0.30534827840E+02  0.00000000000E+00 0. -1.
</event>
<event>
 4    1  0.1551744E+006  0.2132763E+02  0.7546771E-02  0.1514638E+00
         21   -1    0    0  503  501  0.00000000000E+00  0.00000000000E+00  0.58256402504E+02  0.58256402504E+02  0.00000000000E+00 0.  1.
         21   -1    0    0  504  502 -0.00000000000E+00 -0.00000000000E+00 -0.11523308328E+02  0.11523308328E+02  0.00000000000E+00 0. -1.
         21    1    1    2  503  502  0.73241181646E+01 -0.20030601777E+02  0.35555524812E+01  0.21621971877E+02  0.00000000000E+00 0. -1.
         21    1    1    2  504  501 -0.73241181646E+01  0.20030601777E+02  0.43177541695E+02  0.48157738955E+02  0.00000000000E+00 0.  1.
</event>
<event>
 4    1  0.1551744E+006  0.2629772E+02  0.7546771E-02  0.1454793E+00
         21   -1    0    0  503  501  0.00000000000E+00  0.00000000000E+00  0.44210973498E+02  0.44210973498E+02  0.00000000000E+00 0.  1.
         21   -1    0    0  504  502 -0.00000000000E+00 -0.00000000000E+00 -0.16915621932E+02  0.16915621932E+02  0.00000000000E+00 0.  1.
         21    1    1    2  503  502  0.24049563284E+02  0.10639003197E+02  0.22032467276E+02  0.34307426273E+02  0.00000000000E+00 0.  1.
         21    1    1    2  504  501 -0.24049563284E+02 -0.10639003197E+02  0.52628842903E+01  0.26819169157E+02  0.00000000000E+00 0.  1.
</event>
<event>
 4    1  0.1551744E+006  0.2098044E+02  0.7546771E-02  0.1519544E+00
         21   -1    0    0  504  501  0.00000000000E+00  0.00000000000E+00  0.85431341423E+02  0.85431341423E+02  0.00000000000E+00 0. -1.
         21   -1    0    0  503  502 -0.00000000000E+00 -0.00000000000E+00 -0.16339327662E+02  0.16339327662E+02  0.00000000000E+00 0. -1.
         21    1    1    2  503  501 -0.15100767945E+02 -0.14565215239E+02  0.76650694359E+02  0.79470168196E+02  0.00000000000E+00 0. -1.
         21    1    1    2  504  502  0.15100767945E+02  0.14565215239E+02 -0.75586805980E+01  0.22300500888E+02  0.00000000000E+00 0. -1.
</event>
<event>
 4    1  0.1551744E+006  0.2087343E+02  0.7546771E-02  0.1521080E+00
         21   -1    0    0  503  501  0.00000000000E+00  0.00000000000E+00  0.20387335062E+02  0.20387335062E+02  0.00000000000E+00 0. -1.
         21   -1    0    0  504  502 -0.00000000000E+00 -0.00000000000E+00 -0.38918329007E+03  0.38918329007E+03  0.00000000000E+00 0. -1.
         21    1    1    2  503  502  0.18250429036E+02  0.10130243020E+02  0.14685292717E+02  0.25521712439E+02  0.00000000000E+00 0. -1.
         21    1    1    2  504  501 -0.18250429036E+02 -0.10130243020E+02 -0.38348124772E+03  0.38404891269E+03  0.00000000000E+00 0. -1.
</event>
<event>
 4    1  0.1551744E+006  0.3831282E+02  0.7546771E-02  0.1358667E+00
         21   -1    0    0  504  501  0.00000000000E+00  0.00000000000E+00  0.11269742033E+02  0.11269742033E+02  0.00000000000E+00 0. -1.
         21   -1    0    0  501  502 -0.00000000000E+00 -0.00000000000E+00 -0.28715478571E+03  0.28715478571E+03  0.00000000000E+00 0.  1.
         21    1    1    2  503  502 -0.10916710195E+02 -0.36724614906E+02 -0.24824012086E+03  0.25117927763E+03  0.00000000000E+00 0.  1.
         21    1    1    2  504  503  0.10916710195E+02  0.36724614906E+02 -0.27644922816E+02  0.47245250121E+02  0.00000000000E+00 0. -1.
</event>
<event>
 4    1  0.1551744E+006  0.2763084E+02  0.7546771E-02  0.1441372E+00
         21   -1    0    0  503  501  0.00000000000E+00  0.00000000000E+00  0.42480142858E+02  0.42480142858E+02  0.00000000000E+00 0.  1.
         21   -1    0    0  504  502 -0.00000000000E+00 -0.00000000000E+00 -0.15603010862E+03  0.15603010862E+03  0.00000000000E+00 0. -1.
         21    1    1    2  503  502  0.88058070359E+01 -0.26190093783E+02 -0.15013895566E+03  0.15266030675E+03  0.00000000000E+00 0. -1.
         21    1    1    2  504  501 -0.88058070359E+01  0.26190093783E+02  0.36588989898E+02  0.45849944730E+02  0.00000000000E+00 0.  1.
</event>
<event>
 4    1  0.1551744E+006  0.2332231E+02  0.7546771E-02  0.1488490E+00
         21   -1    0    0  503  501  0.00000000000E+00  0.00000000000E+00  0.11459083481E+02  0.11459083481E+02  0.00000000000E+00 0. -1.
         21   -1    0    0  504  502 -0.00000000000E+00 -0.00000000000E+00 -0.43372814574E+03  0.43372814574E+03  0.00000000000E+00 0.  1.
         21    1    1    2  503  502  0.11755092432E+02 -0.20143189088E+02 -0.42119499281E+03  0.42184019751E+03  0.00000000000E+00 0.  1.
         21    1    1    2  504  501 -0.11755092432E+02  0.20143189088E+02 -0.10740694504E+01  0.23347031715E+02  0.00000000000E+00 0. -1.
</event>
<event>
 4    1  0.1551744E+006  0.2576624E+02  0.7546771E-02  0.1460411E+00
         21   -1    0    0  504  501  0.00000000000E+00  0.00000000000E+00  0.84860095012E+00  0.84860095012E+00  0.00000000000E+00 0.  1.
         21   -1    0    0  503  502 -0.00000000000E+00 -0.00000000000E+00 -0.10972188851E+04  0.10972188851E+04  0.00000000000E+00 0. -1.
         21    1    1    2  503  501 -0.25565889042E+02 -0.32069685910E+01 -0.84230220291E+03  0.84269620881E+03  0.00000000000E+00 0. -1.
         21    1    1    2  504  502  0.25565889042E+02  0.32069685910E+01 -0.25406808127E+03  0.25537127726E+03  0.00000000000E+00 0.  1.
</event>
<event>
 4    1  0.1551744E+006  0.2239985E+02  0.7546771E-02  0.1500175E+00
         21   -1    0    0  503  501  0.00000000000E+00  0.00000000000E+00  0.11048726264E+03  0.11048726264E+03  0.00000000000E+00 0. -1.
         21   -1    0    0  504  502 -0.00000000000E+00 -0.00000000000E+00 -0.45412797323E+01  0.45412797323E+01  0.00000000000E+00 0. -1.
         21    1    1    2  503  502  0.22023878252E+02 -0.40868219462E+01  0.52933244937E+02  0.57477663022E+02  0.00000000000E+00 0. -1.
         21    1    1    2  504  501 -0.22023878252E+02  0.40868219462E+01  0.53012737975E+02  0.57550879355E+02  0.00000000000E+00 0. -1.
</event>
<event>
 4    1  0.1551744E+006  0.4110428E+02  0.7546771E-02  0.1342134E+00
         21   -1    0    0  504  501  0.00000000000E+00  0.00000000000E+00  0.41984193029E+02  0.41984193029E+02  0.00000000000E+00 0. -1.
         21   -1    0    0  503  502 -0.00000000000E+00 -0.00000000000E+00 -0.54021269269E+02  0.54021269269E+02  0.00000000000E+00 0.  1.
         21    1    1    2  503  501  0.40304364566E+02  0.80696856483E+01  0.18224329311E+02  0.44963182810E+02  0.00000000000E+00 0. -1.
         21    1    1    2  504  502 -0.40304364566E+02 -0.80696856483E+01 -0.30261405551E+02  0.51042279489E+02  0.00000000000E+00 0.  1.
</event>
<event>
 4    1  0.1551744E+006  0.2108477E+02  0.7546771E-02  0.1518058E+00
         21   -1    0    0  503  501  0.00000000000E+00  0.00000000000E+00  0.75515469587E+02  0.75515469587E+02  0.00000000000E+00 0.  1.
         21   -1    0    0  504  502 -0.00000000000E+00 -0.00000000000E+00 -0.79505367427E+02  0.79505367427E+02  0.00000000000E+00 0. -1.
         21    1    1    2  503  502 -0.18268935722E+02  0.10526793899E+02 -0.76580489627E+02  0.79430087459E+02  0.00000000000E+00 0. -1.
         21    1    1    2  504  501  0.18268935722E+02 -0.10526793899E+02  0.72590591787E+02  0.75590749554E+02  0.00000000000E+00 0.  1.
</event>
<event>
 4    1  0.1551744E+006  0.3086362E+02  0.7546771E-02  0.1412237E+00
         21   -1    0    0  503  501  0.00000000000E+00  0.00000000000E+00  0.23796014690E+03  0.23796014690E+03  0.00000000000E+00 0.  1.
         21   -1    0    0  501  502 -0.00000000000E+00 -0.00000000000E+00 -0.41171875171E+01  0.41171875171E+01  0.00000000000E+00 0.  1.
         21    1    1    2  503  504 -0.23192007591E+02  0.20364028641E+02  0.13707569529E+03  0.14050732763E+03  0.00000000000E+00 0.  1.
         21    1    1    2  504  502  0.23192007591E+02 -0.20364028641E+02  0.96767264093E+02  0.10157000679E+03  0.00000000000E+00 0.  1.
</event>
<event>
 4    1  0.1551744E+006  0.2327736E+02  0.7546771E-02  0.1489044E+00
         21   -1    0    0  504  501  0.00000000000E+00  0.00000000000E+00  0.14244829945E+02  0.14244829945E+02  0.00000000000E+00 0.  1.
         21   -1    0    0  501  502 -0.00000000000E+00 -0.00000000000E+00 -0.38953679512E+02  0.38953679512E+02  0.00000000000E+00 0.  1.
         21    1    1    2  503  502 -0.43133575315E+01  0.22874234222E+02 -0.82748018122E+01  0.24704412348E+02  0.00000000000E+00 0.  1.
         21    1    1    2  504  503  0.43133575315E+01 -0.22874234222E+02 -0.16434047755E+02  0.28494097109E+02  0.00000000000E+00 0.  1.
</event>
<event>
 4    1  0.1551744E+006  0.2070507E+02  0.7546771E-02  0.1523518E+00
         21   -1    0    0  504  501  0.00000000000E+00  0.00000000000E+00  0.32868811257E+02  0.32868811257E+02  0.00000000000E+00 0.  1.
         21   -1    0    0  503  502 -0.00000000000E+00 -0.00000000000E+00 -0.66224748810E+02  0.66224748810E+02  0.00000000000E+00 0.  1.
         21    1    1    2  503  501 -0.17075547975E+02  0.11710069891E+02  0.27722500025E+02  0.34601113900E+02  0.00000000000E+00 0.  1.
         21    1    1    2  504  502  0.17075547975E+02 -0.11710069891E+02 -0.61078437578E+02  0.64492446166E+02  0.00000000000E+00 0.  1.
</event>
<event>
 4    1  0.1551744E+006  0.2292980E+02  0.7546771E-02  0.1493382E+00
         21   -1    0    0  503  501  0.00000000000E+00  0.00000000000E+00  0.67272822992E+03  0.67272822992E+03  0.00000000000E+00 0. -1.
         21   -1    0    0  504  502 -0.00000000000E+00 -0.00000000000E+00 -0.33231932941E+01  0.33231932941E+01  0.00000000000E+00 0. -1.
         21    1    1    2  503  502  0.22535493363E+02  0.42340521501E+01  0.63031897726E+03  0.63073591047E+03  0.00000000000E+00 0. -1.
         21    1    1    2  504  501 -0.22535493363E+02 -0.42340521501E+01  0.39086059364E+02  0.45315512745E+02  0.00000000000E+00 0. -1.
</event>
<event>
 4    1  0.1551744E+006  0.2275387E+02  0.7546771E-02  0.1495612E+00
         21   -1    0    0  504  501  0.00000000000E+00  0.00000000000E+00  0.23749844084E+03  0.23749844084E+03  0.00000000000E+00 0. -1.
         21   -1    0    0  503  502 -0.00000000000E+00 -0.00000000000E+00 -0.33447014567E+01  0.33447014567E+01  0.00000000000E+00 0. -1.
         21    1    1    2  503  501 -0.19892512177E+02 -0.11046570534E+02  0.46014600233E+02  0.51333051691E+02  0.00000000000E+00 0. -1.
         21    1    1    2  504  502  0.19892512177E+02  0.11046570534E+02  0.18813913915E+03  0.18951009061E+03  0.00000000000E+00 0. -1.
</event>
<event>
 4    1  0.1551744E+006  0.2329898E+02  0.7546771E-02  0.1488778E+00
         21   -1    0    0  503  501  0.00000000000E+00  0.00000000000E+00  0.11210844286E+02  0.11210844286E+02  0.00000000000E+00 0.  1.
         21   -1    0    0  504  502 -0.00000000000E+00 -0.00000000000E+00 -0.53446572495E+02  0.53446572495E+02  0.00000000000E+00 0.  1.
         21    1    1    2  503  502  0.15479693084E+02  0.17413254854E+02 -0.31031050874E+02  0.38804232513E+02  0.00000000000E+00 0.  1.
         21    1    1    2  504  501 -0.15479693084E+02 -0.17413254854E+02 -0.11204677335E+02  0.25853184268E+02  0.00000000000E+00 0.  1.
</event>
<event>
 4    1  0.1551744E+006  0.5872463E+02  0.7546771E-02  0.1264229E+00
         21   -1    0    0  503  501  0.00000000000E+00  0.00000000000E+00  0.62698042581E+02  0.62698042581E+02  0.00000000000E+00 0.  1.
         21   -1    0    0  504  502 -0.00000000000E+00 -0.00000000000E+00 -0.86340944381E+02  0.86340944381E+02  0.00000000000E+00 0.  1.
         21    1    1    2  503  502 -0.14532593712E+02  0.56898035314E+02 -0.56716298250E+02  0.81641418347E+02  0.00000000000E+00 0.  1.
         21    1    1    2  504  501  0.14532593712E+02 -0.56898035314E+02  0.33073396449E+02  0.67397568615E+02  0.00000000000E+00 0.  1.
</event>
<event>
 4    1  0.1551744E+006  0.2821931E+02  0.7546771E-02  0.1435730E+00
         21   -1    0    0  503  501  0.00000000000E+00  0.00000000000E+00  0.13204820748E+04  0.13204820748E+04  0.00000000000E+00 0. -1.
         21   -1    0    0  504  502 -0.00000000000E+00 -0.00000000000E+00 -0.11365540552E+01  0.11365540552E+01  0.00000000000E+00 0. -1.
         21    1    1    2  503  502 -0.28218999469E+02 -0.13257547630E+00  0.11124098007E+04  0.11127676731E+04  0.00000000000E+00 0. -1.
         21    1    1    2  504  501  0.28218999469E+02  0.13257547630E+00  0.20693572002E+03  0.20885095577E+03  0.00000000000E+00 0. -1.
</event>
<event>
 4    1  0.1551744E+006  0.3366154E+02  0.7546771E-02  0.1390225E+00
         21   -1    0    0  504  501  0.00000000000E+00  0.00000000000E+00  0.11489526373E+03  0.11489526373E+03  0.00000000000E+00 0.  1.
         21   -1    0    0  503  502 -0.00000000000E+00 -0.00000000000E+00 -0.12855655951E+03  0.12855655951E+03  0.00000000000E+00 0.  1.
         21    1    1    2  503  501  0.27329021536E+02 -0.19652585698E+02 -0.12379439757E+03  0.12828933086E+03  0.00000000000E+00 0.  1.
         21    1    1    2  504  502 -0.27329021536E+02  0.19652585698E+02  0.11013310179E+03  0.11516249239E+03  0.00000000000E+00 0.  1.
</event>
<event>
 4    1  0.1551744E+006  0.2494559E+02  0.7546771E-02  0.1469413E+00
         21   -1    0    0  502  501  0.00000000000E+00  0.00000000000E+00  0.14362150109E+03  0.14362150109E+03  0.00000000000E+00 0.  1.
         21   -1    0    0  503  502 -0.00000000000E+00 -0.00000000000E+00 -0.90685108990E+01  0.90685108990E+01  0.00000000000E+00 0. -1.
         21    1    1    2  503  504  0.24426382041E+02  0.50630154540E+01  0.12106169606E+02  0.27727993213E+02  0.00000000000E+00 0. -1.
         21    1    1    2  504  501 -0.24426382041E+02 -0.50630154540E+01  0.12244682058E+03  0.12496201877E+03  0.00000000000E+00 0.  1.
</event>
<event>
 4    1  0.1551744E+006  0.2013133E+02  0.7546771E-02  0.1532038E+00
         21   -1    0    0  502  501  0.00000000000E+00  0.00000000000E+00  0.65648028940E+03  0.65648028940E+03  0.00000000000E+00 0. -1.
         21   -1    0    0  504  502 -0.00000000000E+00 -0.00000000000E+00 -0.86290775435E+00  0.86290775435E+00  0.00000000000E+00 0.  1.
         21    1    1    2  503  501  0.14909532059E+02 -0.13526868002E+02  0.50314317006E+03  0.50354574755E+03  0.00000000000E+00 0. -1.
         21    1    1    2  504  503 -0.14909532059E+02  0.13526868002E+02  0.15247421159E+03  0.15379744960E+03  0.00000000000E+00 0.  1.
</event>
<event>
 4    1  0.1551744E+006  0.2401707E+02  0.7546771E-02  0.1480107E+00
         21   -1    0    0  503  501  0.00000000000E+00  0.00000000000E+00  0.33868080724E+01  0.33868080724E+01  0.00000000000E+00 0. -1.
         21   -1    0    0  504  502 -0.00000000000E+00 -0.00000000000E+00 -0.17774179801E+03  0.17774179801E+03  0.00000000000E+00 0. -1.
         21    1    1    2  503  502  0.51902630258E+01  0.23449539324E+02 -0.10569156267E+03  0.10838600530E+03  0.00000000000E+00 0. -1.
         21    1    1    2  504  501 -0.51902630258E+01 -0.23449539324E+02 -0.68663427264E+02  0.72742600781E+02  0.00000000000E+00 0. -1.
</event>
<event>
 4    1  0.1551744E+006  0.2105922E+02  0.7546771E-02  0.1518421E+00
         21   -1    0    0  503  501  0.00000000000E+00  0.00000000000E+00  0.58094045124E+02  0.58094045124E+02  0.00000000000E+00 0.  1.
         21   -1    0    0  504  502 -0.00000000000E+00 -0.00000000000E+00 -0.21218976742E+03  0.21218976742E+03  0.00000000000E+00 0. -1.
         21    1    1    2  503  502 -0.19337037534E+02 -0.83408506470E+01  0.55640756865E+02  0.59492727578E+02  0.00000000000E+00 0.  1.
         21    1    1    2  504  501  0.19337037534E+02  0.83408506470E+01 -0.20973647917E+03  0.21079108497E+03  0.00000000000E+00 0. -1.
</event>
<event>
 4    1  0.1551744E+006  0.2119689E+02  0.7546771E-02  0.1516472E+00
         21   -1    0    0  503  501  0.00000000000E+00  0.00000000000E+00  0.17012981238E+03  0.17012981238E+03  0.00000000000E+00 0. -1.
         21   -1    0    0  504  502 -0.00000000000E+00 -0.00000000000E+00 -0.39327027405E+01  0.39327027405E+01  0.00000000000E+00 0. -1.
         21    1    1    2  503  502  0.20839166945E+02  0.38777709262E+01  0.33219779740E+02  0.39406366901E+02  0.00000000000E+00 0. -1.
         21    1    1    2  504  501 -0.20839166945E+02 -0.38777709262E+01  0.13297732990E+03  0.13465614822E+03  0.00000000000E+00 0. -1.
</event>
<event>
 4    1  0.1551744E+006  0.4585322E+02  0.7546771E-02  0.1317227E+00
         21   -1    0    0  504  501  0.00000000000E+00  0.00000000000E+00  0.76188780917E+02  0.76188780917E+02  0.00000000000E+00 0.  1.
         21   -1    0    0  501  502 -0.00000000000E+00 -0.00000000000E+00 -0.11381577480E+03  0.11381577480E+03  0.00000000000E+00 0.  1.
         21    1    1    2  503  502  0.47359584987E+01 -0.45607990452E+02 -0.10150022704E+03  0.11137690149E+03  0.00000000000E+00 0.  1.
         21    1    1    2  504  503 -0.47359584987E+01  0.45607990452E+02  0.63873233156E+02  0.78627654230E+02  0.00000000000E+00 0.  1.
</event>
<event>
 4    1  0.1551744E+006  0.3003457E+02  0.7546771E-02  0.1419296E+00
         21   -1    0    0  503  501  0.00000000000E+00  0.00000000000E+00  0.17492836662E+02  0.17492836662E+02  0.00000000000E+00 0. -1.
         21   -1    0    0  501  502 -0.00000000000E+00 -0.00000000000E+00 -0.55862432764E+02  0.55862432764E+02  0.00000000000E+00 0. -1.
         21    1    1    2  503  504  0.20608179072E+02  0.21848995797E+02 -0.90157646852E+01  0.31358566212E+02  0.00000000000E+00 0. -1.
         21    1    1    2  504  502 -0.20608179072E+02 -0.21848995797E+02 -0.29353831416E+02  0.41996703214E+02  0.00000000000E+00 0. -1.
</event>
<event>
 4    1  0.1551744E+006  0.3584392E+02  0.7546771E-02  0.1374725E+00
         21   -1    0    0  503  501  0.00000000000E+00  0.00000000000E+00  0.34104901495E+03  0.34104901495E+03  0.00000000000E+00 0. -1.
         21   -1    0    0  504  502 -0.00000000000E+00 -0.00000000000E+00 -0.25713265820E+02  0.25713265820E+02  0.00000000000E+00 0. -1.
         21    1    1    2  503  502  0.28186644437E+02 -0.22142705627E+02 -0.11748264493E+02  0.37720127992E+02  0.00000000000E+00 0. -1.
         21    1    1    2  504  501 -0.28186644437E+02  0.22142705627E+02  0.32708401362E+03  0.32904215277E+03  0.00000000000E+00 0. -1.
</event>
<event>
 4    1  0.1551744E+006  0.2979387E+02  0.7546771E-02  0.1421396E+00
         21   -1    0    0  502  501  0.00000000000E+00  0.00000000000E+00  0.40770271038E+02  0.40770271038E+02  0.00000000000E+00 0. -1.
         21   -1    0    0  503  502 -0.00000000000E+00 -0.00000000000E+00 -0.54299041637E+02  0.54299041637E+02  0.00000000000E+00 0. -1.
         21    1    1    2  503  504  0.27253399471E+01  0.29668961059E+02 -0.43554620621E+02  0.52770064483E+02  0.00000000000E+00 0. -1.
         21    1    1    2  504  501 -0.27253399471E+01 -0.29668961059E+02  0.30025850021E+02  0.42299248192E+02  0.00000000000E+00 0. -1.
</event>
<event>
 4    1  0.1551744E+006  0.2027103E+02  0.7546771E-02  0.1529932E+00
         21   -1    0    0  503  501  0.00000000000E+00  0.00000000000E+00  0.54255371364E+01  0.54255371364E+01  0.00000000000E+00 0.  1.
         21   -1    0    0  504  502 -0.00000000000E+00 -0.00000000000E+00 -0.63569854369E+03  0.63569854369E+03  0.00000000000E+00 0. -1.
         21    1    1    2  503  502 -0.36897419586E+01 -0.19932396253E+02 -0.14275751878E+02  0.24793380322E+02  0.00000000000E+00 0.  1.
         21    1    1    2  504  501  0.36897419586E+01  0.19932396253E+02 -0.61599725468E+03  0.61633070051E+03  0.00000000000E+00 0. -1.
</event>
<event>
 4    1  0.1551744E+006  0.2823558E+02  0.7546771E-02  0.1435576E+00
         21   -1    0    0  503  501  0.00000000000E+00  0.00000000000E+00  0.34427684676E+02  0.34427684676E+02  0.00000000000E+00 0. -1.
         21   -1    0    0  504  502 -0.00000000000E+00 -0.00000000000E+00 -0.50939613134E+02  0.50939613134E+02  0.00000000000E+00 0.  1.
         21    1    1    2  503  502 -0.10957694258E+02  0.26022620359E+02 -0.39778338055E+02  0.48780775027E+02  0.00000000000E+00 0.  1.
         21    1    1    2  504  501  0.10957694258E+02 -0.26022620359E+02  0.23266409597E+02  0.36586522783E+02  0.00000000000E+00 0. -1.
</event>
<event>
 4    1  0.1551744E+006  0.2219808E+02  0.7546771E-02  0.1502821E+00
         21   -1    0    0  502  501  0.00000000000E+00  0.00000000000E+00  0.35372036420E+03  0.35372036420E+03  0.00000000000E+00 0.  1.
         21   -1    0    0  503  502 -0.00000000000E+00 -0.00000000000E+00 -0.27172776494E+03  0.27172776494E+03  0.00000000000E+00 0.  1.
         21    1    1    2  503  504  0.18388314193E+02 -0.12434808877E+02 -0.27092511609E+03  0.27183298751E+03  0.00000000000E+00 0.  1.
         21    1    1    2  504  501 -0.18388314193E+02  0.12434808877E+02  0.35291771535E+03  0.35361514162E+03  0.00000000000E+00 0.  1.
</event>
<event>
 4    1  0.1551744E+006  0.4336858E+02  0.7546771E-02  0.1329802E+00
         21   -1    0    0  502  501  0.00000000000E+00  0.00000000000E+00  0.85787474572E+03  0.85787474572E+03  0.00000000000E+00 0. -1.
         21   -1    0    0  503  502 -0.00000000000E+00 -0.00000000000E+00 -0.41630448510E+02  0.41630448510E+02  0.00000000000E+00 0.  1.
         21    1    1    2  503  504 -0.19438130710E+02 -0.38768447087E+02 -0.29627351093E+02  0.52522503252E+02  0.00000000000E+00 0.  1.
         21    1    1    2  504  501  0.19438130710E+02  0.38768447087E+02  0.84587164830E+03  0.84698269097E+03  0.00000000000E+00 0. -1.
</event>
<event>
 4    1  0.1551744E+006  0.2298952E+02  0.7546771E-02  0.1492630E+00
         21   -1    0    0  503  501  0.00000000000E+00  0.00000000000E+00  0.11788234227E+03  0.11788234227E+03  0.00000000000E+00 0.  1.
         21   -1    0    0  504  502 -0.00000000000E+00 -0.00000000000E+00 -0.91081567809E+01  0.91081567809E+01  0.00000000000E+00 0.  1.
         21    1    1    2  503  502 -0.20427725817E+02 -0.10546386349E+02  0.91422981872E+01  0.24740652037E+02  0.00000000000E+00 0.  1.
         21    1    1    2  504  501  0.20427725817E+02  0.10546386349E+02  0.99631887303E+02  0.10224984702E+03  0.00000000000E+00 0.  1.
</event>
<event>
 4    1  0.1551744E+006  0.2730997E+02  0.7546771E-02  0.1444519E+00
         21   -1    0    0  504  501  0.00000000000E+00  0.00000000000E+00  0.11979369784E+03  0.11979369784E+03  0.00000000000E+00 0.  1.
         21   -1    0    0  503  502 -0.00000000000E+00 -0.00000000000E+00 -0.12588067363E+02  0.12588067363E+02  0.00000000000E+00 0.  1.
         21    1    1    2  503  501  0.30805313176E+01  0.27135677407E+02  0.65464875696E+01  0.28083645793E+02  0.00000000000E+00 0.  1.
         21    1    1    2  504  502 -0.30805313176E+01 -0.27135677407E+02  0.10065914291E+03  0.10429811941E+03  0.00000000000E+00 0.  1.
</event>
<event>
 4    1  0.1551744E+006  0.2760195E+02  0.7546771E-02  0.1441653E+00
         21   -1    0    0  502  501  0.00000000000E+00  0.00000000000E+00  0.93411278604E+02  0.93411278604E+02  0.00000000000E+00 0. -1.
         21   -1    0    0  504  502 -0.00000000000E+00 -0.00000000000E+00 -0.91162661702E+01  0.91162661702E+01  0.00000000000E+00 0. -1.
         21    1    1    2  503  501  0.54007037536E+01  0.27068434466E+02  0.58784885168E+02  0.64942516656E+02  0.00000000000E+00 0. -1.
         21    1    1    2  504  503 -0.54007037536E+01 -0.27068434466E+02  0.25510127266E+02  0.37585028117E+02  0.00000000000E+00 0. -1.
</event>
<event>
 4    1  0.1551744E+006  0.2166265E+02  0.7546771E-02  0.1510011E+00
         21   -1    0    0  503  501  0.00000000000E+00  0.00000000000E+00  0.19267878730E+03  0.19267878730E+03  0.00000000000E+00 0. -1.
         21   -1    0    0  504  502 -0.00000000000E+00 -0.00000000000E+00 -0.53327565251E+01  0.53327565251E+01  0.00000000000E+00 0. -1.
         21    1    1    2  503  502  0.18942997883E+02  0.10508712792E+02  0.20697409130E+02  0.29960857098E+02  0.00000000000E+00 0. -1.
         21    1    1    2  504  501 -0.18942997883E+02 -0.10508712792E+02  0.16664862165E+03  0.16805068673E+03  0.00000000000E+00 0. -1.
</event>
<event>
 4    1  0.1551744E+006  0.2156425E+02  0.7546771E-02  0.1511359E+00
         21   -1    0    0  504  501  0.00000000000E+00  0.00000000000E+00  0.53241803249E+01  0.53241803249E+01  0.00000000000E+00 0. -1.
         21   -1    0    0  501  502 -0.00000000000E+00 -0.00000000000E+00 -0.11140158027E+03  0.11140158027E+03  0.00000000000E+00 0. -1.
         21    1    1    2  503  502  0.17614326399E+02 -0.12439959614E+02 -0.80162324517E+02  0.83012139845E+02  0.00000000000E+00 0. -1.
         21    1    1    2  504  503 -0.17614326399E+02  0.12439959614E+02 -0.25915075432E+02  0.33713620754E+02  0.00000000000E+00 0. -1.
</event>
<event>
 4    1  0.1551744E+006  0.4490108E+02  0.7546771E-02  0.1321935E+00
         21   -1    0    0  503  501  0.00000000000E+00  0.00000000000E+00  0.12698047820E+03  0.12698047820E+03  0.00000000000E+00 0.  1.
         21   -1    0    0  501  502 -0.00000000000E+00 -0.00000000000E+00 -0.11277039930E+03  0.11277039930E+03  0.00000000000E+00 0.  1.
         21    1    1    2  503  504  0.27329005017E+02 -0.35626291144E+02  0.11822167285E+03  0.12646134219E+03  0.00000000000E+00 0.  1.
         21    1    1    2  504  502 -0.27329005017E+02  0.35626291144E+02 -0.10401159395E+03  0.11328953532E+03  0.00000000000E+00 0.  1.
</event>
<event>
 4    1  0.1551744E+006  0.2113241E+02  0.7546771E-02  0.1517383E+00
         21   -1    0    0  503  501  0.00000000000E+00  0.00000000000E+00  0.22613578528E+01  0.22613578528E+01  0.00000000000E+00 0. -1.
         21   -1    0    0  504  502 -0.00000000000E+00 -0.00000000000E+00 -0.30127671304E+03  0.30127671304E+03  0.00000000000E+00 0.  1.
         21    1    1    2  503  502  0.42847705841E+00  0.21128069958E+02 -0.23858900014E+03  0.23952304674E+03  0.00000000000E+00 0.  1.
         21    1    1    2  504  501 -0.42847705841E+00 -0.21128069958E+02 -0.60426355050E+02  0.64015024153E+02  0.00000000000E+00 0. -1.
</event>
<event>
 4    1  0.1551744E+006  0.2627226E+02  0.7546771E-02  0.1455059E+00
         21   -1    0    0  503  501  0.00000000000E+00  0.00000000000E+00  0.11514495106E+01  0.11514495106E+01  0.00000000000E+00 0.  1.
         21   -1    0    0  504  502 -0.00000000000E+00 -0.00000000000E+00 -0.61339450069E+03  0.61339450069E+03  0.00000000000E+00 0.  1.
         21    1    1    2  503  502 -0.23679375708E+02  0.11380627814E+02 -0.25978515903E+03  0.26111024564E+03  0.00000000000E+00 0.  1.
         21    1    1    2  504  501  0.23679375708E+02 -0.11380627814E+02 -0.35245789215E+03  0.35343570456E+03  0.00000000000E+00 0.  1.
</event>
<event>
 4    1  0.1551744E+006  0.3412076E+02  0.7546771E-02  0.1386852E+00
         21   -1    0    0  504  501  0.00000000000E+00  0.00000000000E+00  0.60184859631E+03  0.60184859631E+03  0.00000000000E+00 0.  1.
         21   -1    0    0  501  502 -0.00000000000E+00 -0.00000000000E+00 -0.27471648581E+01  0.27471648581E+01  0.00000000000E+00 0. -1.
         21    1    1    2  503  502 -0.22469114840E+02  0.25678103548E+02  0.13512464733E+03  0.13936605196E+03  0.00000000000E+00 0. -1.
         21    1    1    2  504  503  0.22469114840E+02 -0.25678103548E+02  0.46397678413E+03  0.46522970921E+03  0.00000000000E+00 0.  1.
</event>
<event>
 4    1  0.1551744E+006  0.4423860E+02  0.7546771E-02  0.1325291E+00
         21   -1    0    0  504  501  0.00000000000E+00  0.00000000000E+00  0.11584308449E+04  0.11584308449E+04  0.00000000000E+00 0.  1.
         21   -1    0    0  501  502 -0.00000000000E+00 -0.00000000000E+00 -0.34938468907E+01  0.34938468907E+01  0.00000000000E+00 0.  1.
         21    1    1    2  503  502  0.16517703557E+02  0.41039238929E+02  0.15995738464E+03  0.16596209978E+03  0.00000000000E+00 0.  1.
         21    1    1    2  504  503 -0.16517703557E+02 -0.41039238929E+02  0.99497961341E+03  0.99596259205E+03  0.00000000000E+00 0.  1.
</event>
<event>
 4    1  0.1551744E+006  0.2543587E+02  0.7546771E-02  0.1463986E+00
         21   -1    0    0  503  501  0.00000000000E+00  0.00000000000E+00  0.17025900373E+01  0.17025900373E+01  0.00000000000E+00 0. -1.
         21   -1    0    0  504  502 -0.00000000000E+00 -0.00000000000E+00 -0.38989790106E+03  0.38989790106E+03  0.00000000000E+00 0. -1.
         21    1    1    2  503  502 -0.16216307669E+02 -0.19596297282E+02 -0.22529506405E+03  0.22672637558E+03  0.00000000000E+00 0. -1.
         21    1    1    2  504  501  0.16216307669E+02  0.19596297282E+02 -0.16290024697E+03  0.16487411551E+03  0.00000000000E+00 0. -1.
</event>
<event>
 4    1  0.1551744E+006  0.2157218E+02  0.7546771E-02  0.1511250E+00
         21   -1    0    0  504  501  0.00000000000E+00  0.00000000000E+00  0.57888269053E+01  0.57888269053E+01  0.00000000000E+00 0. -1.
         21   -1    0    0  503  502 -0.00000000000E+00 -0.00000000000E+00 -0.90357913827E+02  0.90357913827E+02  0.00000000000E+00 0. -1.
         21    1    1    2  503  501  0.44394772469E+01 -0.21110426749E+02 -0.58252206871E+02  0.62118263667E+02  0.00000000000E+00 0. -1.
         21    1    1    2  504  502 -0.44394772469E+01  0.21110426749E+02 -0.26316880051E+02  0.34028477065E+02  0.00000000000E+00 0. -1.
</event>
<event>
 4    1  0.1551744E+006  0.2519415E+02  0.7546771E-02  0.1466643E+00
         21   -1    0    0  503  501  0.00000000000E+00  0.00000000000E+00  0.50178095021E+01  0.50178095021E+01  0.00000000000E+00 0.  1.
         21   -1    0    0  501  502 -0.00000000000E+00 -0.00000000000E+00 -0.33767392917E+03  0.33767392917E+03  0.00000000000E+00 0.  1.
         21    1    1    2  503  504 -0.25187769508E+02 -0.56714593043E+00 -0.30825791980E+02  0.39811742470E+02  0.00000000000E+00 0.  1.
         21    1    1    2  504  502  0.25187769508E+02  0.56714593043E+00 -0.30183032769E+03  0.30287999620E+03  0.00000000000E+00 0.  1.
</event>
<event>
 4    1  0.1551744E+006  0.2241277E+02  0.7546771E-02  0.1500007E+00
         21   -1    0    0  503  501  0.00000000000E+00  0.00000000000E+00  0.54185526831E+01  0.54185526831E+01  0.00000000000E+00 0.  1.
         21   -1    0    0  504  502 -0.00000000000E+00 -0.00000000000E+00 -0.26577029596E+03  0.26577029596E+03  0.00000000000E+00 0.  1.
         21    1    1    2  503  502  0.19327146232E+02  0.11348730574E+02 -0.23959477797E+03  0.24064079018E+03  0.00000000000E+00 0.  1.
         21    1    1    2  504  501 -0.19327146232E+02 -0.11348730574E+02 -0.20756965301E+02  0.30548058459E+02  0.00000000000E+00 0.  1.
</event>
<event>
 4    1  0.1551744E+006  0.2152290E+02  0.7546771E-02  0.1511928E+00
         21   -1    0    0  504  501  0.00000000000E+00  0.00000000000E+00  0.34580577210E+03  0.34580577210E+03  0.00000000000E+00 0. -1.
         21   -1    0    0  503  502 -0.00000000000E+00 -0.00000000000E+00 -0.17223200448E+01  0.17223200448E+01  0.00000000000E+00 0.  1.
         21    1    1    2  503  501 -0.21259670547E+02 -0.33558668868E+01  0.90128617943E+02  0.92662846960E+02  0.00000000000E+00 0.  1.
         21    1    1    2  504  502  0.21259670547E+02  0.33558668868E+01  0.25395483412E+03  0.25486524519E+03  0.00000000000E+00 0. -1.
</event>
<event>
 4    1  0.1551744E+006  0.2098269E+02  0.7546771E-02  0.1519512E+00
         21   -1    0    0  504  501  0.00000000000E+00  0.00000000000E+00  0.10960258041E+02  0.10960258041E+02  0.00000000000E+00 0. -1.
         21   -1    0    0  501  502 -0.00000000000E+00 -0.00000000000E+00 -0.74241548851E+02  0.74241548851E+02  0.00000000000E+00 0. -1.
         21    1    1    2  503  502  0.19868960919E+02  0.67451818021E+01 -0.60500325645E+02  0.64035634522E+02  0.00000000000E+00 0. -1.
         21    1    1    2  504  503 -0.19868960919E+02 -0.67451818021E+01 -0.27809651649E+01  0.21166172370E+02  0.00000000000E+00 0. -1.
</event>
<event>
 4    1  0.1551744E+006  0.2021867E+02  0.7546771E-02  0.1530719E+00
         21   -1    0    0  504  501  0.00000000000E+00  0.00000000000E+00  0.10521248051E+04  0.10521248051E+04  0.00000000000E+00 0. -1.
         21   -1    0    0  501  502 -0.00000000000E+00 -0.00000000000E+00 -0.16193010838E+01  0.16193010838E+01  0.00000000000E+00 0. -1.
         21    1    1    2  503  502  0.62552413954E+01  0.19226719687E+02  0.65919522606E+02  0.68950549349E+02  0.00000000000E+00 0. -1.
         21    1    1    2  504  503 -0.62552413954E+01 -0.19226719687E+02  0.98458598138E+03  0.98479355680E+03  0.00000000000E+00 0. -1.
</event>
<event>
 4    1  0.1551744E+006  0.2138057E+02  0.7546771E-02  0.1513900E+00
         21   -1    0    0  503  501  0.00000000000E+00  0.00000000000E+00  0.17749040397E+03  0.17749040397E+03  0.00000000000E+00 0. -1.
         21   -1    0    0  501  502 -0.00000000000E+00 -0.00000000000E+00 -0.55475310586E+01  0.55475310586E+01  0.00000000000E+00 0. -1.
         21    1    1    2  503  504  0.19750105147E+02 -0.81891379712E+01  0.15295789972E+03  0.15444496664E+03  0.00000000000E+00 0. -1.
         21    1    1    2  504  502 -0.19750105147E+02  0.81891379712E+01  0.18984973187E+02  0.28592968383E+02  0.00000000000E+00 0. -1.
</event>
<event>
 4    1  0.1551744E+006  0.2533149E+02  0.7546771E-02  0.1465129E+00
         21   -1    0    0  504  501  0.00000000000E+00  0.00000000000E+00  0.24007483910E+02  0.24007483910E+02  0.00000000000E+00 0.  1.
         21   -1    0    0  501  502 -0.00000000000E+00 -0.00000000000E+00 -0.11537029566E+03  0.11537029566E+03  0.00000000000E+00 0.  1.
         21    1    1    2  503  502 -0.12156266680E+02 -0.22224081207E+02 -0.10676657172E+03  0.10973051281E+03  0.00000000000E+00 0.  1.
         21    1    1    2  504  503  0.12156266680E+02  0.22224081207E+02  0.15403759970E+02  0.29647266759E+02  0.00000000000E+00 0.  1.
</event>
<event>
 4    1  0.1551744E+006  0.2193391E+02  0.7546771E-02  0.1506337E+00
         21   -1    0    0  503  501  0.00000000000E+00  0.00000000000E+00  0.19744908139E+03  0.19744908139E+03  0.00000000000E+00 0. -1.
         21   -1    0    0  504  502 -0.00000000000E+00 -0.00000000000E+00 -0.10846935165E+02  0.10846935165E+02  0.00000000000E+00 0.  1.
         21    1    1    2  503  502 -0.11745965922E+02  0.18523735314E+02  0.18500863290E+03  0.18630429607E+03  0.00000000000E+00 0. -1.
         21    1    1    2  504  501  0.11745965922E+02 -0.18523735314E+02  0.15935133273E+01  0.21991720491E+02  0.00000000000E+00 0.  1.
</event>
<event>
 4    1  0.1551744E+006  0.2396661E+02  0.7546771E-02  0.1480704E+00
         21   -1    0    0  502  501  0.00000000000E+00  0.00000000000E+00  0.21829824717E+01  0.21829824717E+01  0.00000000000E+00 0. -1.
         21   -1    0    0  504  502 -0.00000000000E+00 -0.00000000000E+00 -0.26365789408E+03  0.26365789408E+03  0.00000000000E+00 0. -1.
         21    1    1    2  503  501 -0.14949932649E+02  0.18732267397E+02 -0.13671046108E+03  0.13879534753E+03  0.00000000000E+00 0. -1.
         21    1    1    2  504  503  0.14949932649E+02 -0.18732267397E+02 -0.12476445053E+03  0.12704552902E+03  0.00000000000E+00 0. -1.
</event>
<event>
 4    1  0.1551744E+006  0.2161462E+02  0.7546771E-02  0.1510668E+00
         21   -1    0    0  503  501  0.00000000000E+00  0.00000000000E+00  0.11435724111E+03  0.11435724111E+03  0.00000000000E+00 0.  1.
         21   -1    0    0  501  502 -0.00000000000E+00 -0.00000000000E+00 -0.94370470730E+01  0.94370470730E+01  0.00000000000E+00 0. -1.
         21    1    1    2  503  504 -0.34271132318E+01  0.21341199921E+02  0.99072060993E+02  0.10140249104E+03  0.00000000000E+00 0.  1.
         21    1    1    2  504  502  0.34271132318E+01 -0.21341199921E+02  0.58481330403E+01  0.22391797142E+02  0.00000000000E+00 0. -1.
</event>
<event>
 4    1  0.1551744E+006  0.2121101E+02  0.7546771E-02  0.1516273E+00
         21   -1    0    0  503  501  0.00000000000E+00  0.00000000000E+00  0.30346149462E+02  0.30346149462E+02  0.00000000000E+00 0. -1.
         21   -1    0    0  504  502 -0.00000000000E+00 -0.00000000000E+00 -0.18351707173E+02  0.18351707173E+02  0.00000000000E+00 0. -1.
         21    1    1    2  503  502  0.21086752941E+02  0.22925970098E+01  0.16669928502E+02  0.26977651249E+02  0.00000000000E+00 0. -1.
         21    1    1    2  504  501 -0.21086752941E+02 -0.22925970098E+01 -0.46754862139E+01  0.21720205386E+02  0.00000000000E+00 0. -1.
</event>
<event>
 4    1  0.1551744E+006  0.2983164E+02  0.7546771E-02  0.1421065E+00
         21   -1    0    0  504  501  0.00000000000E+00  0.00000000000E+00  0.49711988986E+02  0.49711988986E+02  0.00000000000E+00 0.  1.
         21   -1    0    0  503  502 -0.00000000000E+00 -0.00000000000E+00 -0.43182147602E+03  0.43182147602E+03  0.00000000000E+00 0.  1.
         21    1    1    2  503  501 -0.17097341976E+02  0.24446016736E+02  0.44668534757E+02  0.53714102750E+02  0.00000000000E+00 0.  1.
         21    1    1    2  504  502  0.17097341976E+02 -0.24446016736E+02 -0.42677802179E+03  0.42781936225E+03  0.00000000000E+00 0.  1.
</event>
<event>
 4    1  0.1551744E+006  0.2524560E+02  0.7546771E-02  0.1466074E+00
         21   -1    0    0  503  501  0.00000000000E+00  0.00000000000E+00  0.18809587094E+03  0.18809587094E+03  0.00000000000E+00 0.  1.
         21   -1    0    0  504  502 -0.00000000000E+00 -0.00000000000E+00 -0.35430504035E+02  0.35430504035E+02  0.00000000000E+00 0. -1.
         21    1    1    2  503  502  0.18477346291E+02 -0.17202563737E+02 -0.29952017294E+02  0.39172233343E+02  0.00000000000E+00 0. -1.
         21    1    1    2  504  501 -0.18477346291E+02  0.17202563737E+02  0.18261738420E+03  0.18435414163E+03  0.00000000000E+00 0.  1.
</event>
<event>
 4    1  0.1551744E+006  0.3483738E+02  0.7546771E-02  0.1381710E+00
         21   -1    0    0  503  501  0.00000000000E+00  0.00000000000E+00  0.58480360015E+02  0.58480360015E+02  0.00000000000E+00 0.  1.
         21   -1    0    0  504  502 -0.00000000000E+00 -0.00000000000E+00 -0.32107653194E+02  0.32107653194E+02  0.00000000000E+00 0. -1.
         21    1    1    2  503  502 -0.32403309166E+02 -0.12793293853E+02 -0.13749046429E+02  0.37452357606E+02  0.00000000000E+00 0. -1.
         21    1    1    2  504  501  0.32403309166E+02  0.12793293853E+02  0.40121753250E+02  0.53135655603E+02  0.00000000000E+00 0.  1.
</event>
<event>
 4    1  0.1551744E+006  0.2000198E+02  0.7546771E-02  0.1534005E+00
         21   -1    0    0  504  501  0.00000000000E+00  0.00000000000E+00  0.34434775348E+03  0.34434775348E+03  0.00000000000E+00 0. -1.
         21   -1    0    0  503  502 -0.00000000000E+00 -0.00000000000E+00 -0.16587444754E+02  0.16587444754E+02  0.00000000000E+00 0. -1.
         21    1    1    2  503  501  0.67736471948E+01  0.18820119138E+02  0.33791271339E+03  0.33850418174E+03  0.00000000000E+00 0. -1.
         21    1    1    2  504  502 -0.67736471948E+01 -0.18820119138E+02 -0.10152404666E+02  0.22431016499E+02  0.00000000000E+00 0. -1.
</event>
<event>
 4    1  0.1551744E+006  0.3188492E+02  0.7546771E-02  0.1403894E+00
         21   -1    0    0  503  501  0.00000000000E+00  0.00000000000E+00  0.28282475360E+02  0.28282475360E+02  0.00000000000E+00 0. -1.
         21   -1    0    0  504  502 -0.00000000000E+00 -0.00000000000E+00 -0.42360826614E+02  0.42360826614E+02  0.00000000000E+00 0. -1.
         21    1    1    2  503  502 -0.30687981735E+02 -0.86542598407E+01 -0.20784132166E+02  0.38060853724E+02  0.00000000000E+00 0. -1.
         21    1    1    2  504  501  0.30687981735E+02  0.86542598407E+01  0.67057809118E+01  0.32582448250E+02  0.00000000000E+00 0. -1.
</event>
<event>
 4    1  0.1551744E+006  0.2115025E+02  0.7546771E-02  0.1517130E+00
         21   -1    0    0  502  501  0.00000000000E+00  0.00000000000E+00  0.10357472675E+02  0.10357472675E+02  0.00000000000E+00 0.  1.
         21   -1    0    0  503  502 -0.00000000000E+00 -0.00000000000E+00 -0.43242752953E+02  0.43242752953E+02  0.00000000000E+00 0.  1.
         21    1    1    2  503  504  0.13149082807E+02  0.16566064667E+02 -0.17384138010E+02  0.27377748841E+02  0.00000000000E+00 0.  1.
         21    1    1    2  504  501 -0.13149082807E+02 -0.16566064667E+02 -0.15501142268E+02  0.26222476787E+02  0.00000000000E+00 0.  1.
</event>
<event>
 4    1  0.1551744E+006  0.2458145E+02  0.7546771E-02  0.1473541E+00
         21   -1    0    0  502  501  0.00000000000E+00  0.00000000000E+00  0.53191716145E+02  0.53191716145E+02  0.00000000000E+00 0.  1.
         21   -1    0    0  503  502 -0.00000000000E+00 -0.00000000000E+00 -0.38918569545E+02  0.38918569545E+02  0.00000000000E+00 0.  1.
         21    1    1    2  503  504 -0.20037318035E+02  0.14239148427E+02 -0.31618590803E+02  0.40049753386E+02  0.00000000000E+00 0.  1.
         21    1    1    2  504  501  0.20037318035E+02 -0.14239148427E+02  0.45891737403E+02  0.52060532304E+02  0.00000000000E+00 0.  1.
</event>
<event>
 4    1  0.1551744E+006  0.2440311E+02  0.7546771E-02  0.1475593E+00
         21   -1    0    0  504  501  0.00000000000E+00  0.00000000000E+00  0.17466679777E+03  0.17466679777E+03  0.00000000000E+00 0.  1.
         21   -1    0    0  501  502 -0.00000000000E+00 -0.00000000000E+00 -0.75762736814E+01  0.75762736814E+01  0.00000000000E+00 0.  1.
         21    1    1    2  503  502  0.24190169361E+02  0.32167818485E+01  0.15968484833E+02  0.29163410072E+02  0.00000000000E+00 0.  1.
         21    1    1    2  504  503 -0.24190169361E+02 -0.32167818485E+01  0.15112203925E+03  0.15307966138E+03  0.00000000000E+00 0.  1.
</event>
<event>
 4    1  0.1551744E+006  0.2582524E+02  0.7546771E-02  0.1459780E+00
         21   -1    0    0  504  501  0.00000000000E+00  0.00000000000E+00  0.92628021450E+03  0.92628021450E+03  0.00000000000E+00 0. -1.
         21   -1    0    0  501  502 -0.00000000000E+00 -0.00000000000E+00 -0.28027039780E+01  0.28027039780E+01  0.00000000000E+00 0. -1.
         21    1    1    2  503  502  0.25289279223E+02  0.52340403370E+01  0.61289706132E+02  0.66508427282E+02  0.00000000000E+00 0. -1.
         21    1    1    2  504  503 -0.25289279223E+02 -0.52340403370E+01  0.86218780439E+03  0.86257449119E+03  0.00000000000E+00 0. -1.
</event>
<event>
 4    1  0.1551744E+006  0.2614273E+02  0.7546771E-02  0.1456415E+00
         21   -1    0    0  504  501  0.00000000000E+00  0.00000000000E+00  0.24739615516E+01  0.24739615516E+01  0.00000000000E+00 0.  1.
         21   -1    0    0  503  502 -0.00000000000E+00 -0.00000000000E+00 -0.12223064106E+04  0.12223064106E+04  0.00000000000E+00 0.  1.
         21    1    1    2  503  501 -0.23033113511E+02 -0.12366004992E+02 -0.71155760831E+02  0.75806231254E+02  0.00000000000E+00 0.  1.
         21    1    1    2  504  502  0.23033113511E+02  0.12366004992E+02 -0.11486766882E+04  0.11489741409E+04  0.00000000000E+00 0.  1.
</event>
<event>
 4    1  0.1551744E+006  0.3645387E+02  0.7546771E-02  0.1370620E+00
         21   -1    0    0  503  501  0.00000000000E+00  0.00000000000E+00  0.57672043470E+02  0.57672043470E+02  0.00000000000E+00 0.  1.
         21   -1    0    0  504  502 -0.00000000000E+00 -0.00000000000E+00 -0.48738065839E+02  0.48738065839E+02  0.00000000000E+00 0.  1.
         21    1    1    2  503  502  0.32034144556E+02  0.17398223637E+02 -0.34165374679E+02  0.49961559525E+02  0.00000000000E+00 0.  1.
         21    1    1    2  504  501 -0.32034144556E+02 -0.17398223637E+02  0.43099352310E+02  0.56448549784E+02  0.00000000000E+00 0.  1.
</event>
<event>
 4    1  0.1551744E+006  0.2094028E+02  0.7546771E-02  0.1520119E+00
         21   -1    0    0  504  501  0.00000000000E+00  0.00000000000E+00  0.29901275332E+02  0.29901275332E+02  0.00000000000E+00 0. -1.
         21   -1    0    0  503  502 -0.00000000000E+00 -0.00000000000E+00 -0.52841109434E+03  0.52841109434E+03  0.00000000000E+00 0. -1.
         21    1    1    2  503  501  0.11289546784E+02 -0.17636362921E+02  0.26000369422E+02  0.33384343243E+02  0.00000000000E+00 0. -1.
         21    1    1    2  504  502 -0.11289546784E+02  0.17636362921E+02 -0.52451018843E+03  0.52492802643E+03  0.00000000000E+00 0. -1.
</event>
<event>
 4    1  0.1551744E+006  0.3745986E+02  0.7546771E-02  0.1364050E+00
         21   -1    0    0  503  501  0.00000000000E+00  0.00000000000E+00  0.48854482484E+02  0.48854482484E+02  0.00000000000E+00 0.  1.
         21   -1    0    0  501  502 -0.00000000000E+00 -0.00000000000E+00 -0.11629079896E+04  0.11629079896E+04  0.00000000000E+00 0. -1.
         21    1    1    2  503  504 -0.31449046213E+02 -0.20351861349E+02  0.41325317867E+02  0.55776542245E+02  0.00000000000E+00 0.  1.
         21    1    1    2  504  502  0.31449046213E+02  0.20351861349E+02 -0.11553788250E+04  0.11559859299E+04  0.00000000000E+00 0. -1.
</event>
<event>
 4    1  0.1551744E+006  0.2107821E+02  0.7546771E-02  0.1518151E+00
         21   -1    0    0  504  501  0.00000000000E+00  0.00000000000E+00  0.32672121087E+02  0.32672121087E+02  0.00000000000E+00 0. -1.
         21   -1    0    0  503  502 -0.00000000000E+00 -0.00000000000E+00 -0.13633380750E+02  0.13633380750E+02  0.00000000000E+00 0. -1.
         21    1    1    2  503  501 -0.57625360287E+01  0.20275213337E+02  0.10690850280E+02  0.23634410867E+02  0.00000000000E+00 0. -1.
         21    1    1    2  504  502  0.57625360287E+01 -0.20275213337E+02  0.83478900569E+01  0.22671090969E+02  0.00000000000E+00 0. -1.
</event>
<event>
 4    1  0.1551744E+006  0.3583009E+02  0.7546771E-02  0.1374820E+00
         21   -1    0    0  504  501  0.00000000000E+00  0.00000000000E+00  0.97512509578E+01  0.97512509578E+01  0.00000000000E+00 0.  1.
         21   -1    0    0  503  502 -0.00000000000E+00 -0.00000000000E+00 -0.15561475020E+03  0.15561475020E+03  0.00000000000E+00 0.  1.
         21    1    1    2  503  501  0.33405964426E+02  0.12955181575E+02 -0.10537596990E+03  0.11130089947E+03  0.00000000000E+00 0.  1.
         21    1    1    2  504  502 -0.33405964426E+02 -0.12955181575E+02 -0.40487529336E+02  0.54065101689E+02  0.00000000000E+00 0.  1.
</event>
<event>
 4    1  0.1551744E+006  0.2574031E+02  0.7546771E-02  0.1460689E+00
         21   -1    0    0  503  501  0.00000000000E+00  0.00000000000E+00  0.15970953316E+02  0.15970953316E+02  0.00000000000E+00 0.  1.
         21   -1    0    0  504  502 -0.00000000000E+00 -0.00000000000E+00 -0.44792911831E+02  0.44792911831E+02  0.00000000000E+00 0.  1.
         21    1    1    2  503  502  0.17097167253E+02 -0.19241898133E+02 -0.22666636357E+02  0.34297815901E+02  0.00000000000E+00 0.  1.
         21    1    1    2  504  501 -0.17097167253E+02  0.19241898133E+02 -0.61553221575E+01  0.26466049246E+02  0.00000000000E+00 0.  1.
</event>
<event>
 4    1  0.1551744E+006  0.2251262E+02  0.7546771E-02  0.1498711E+00
         21   -1    0    0  502  501  0.00000000000E+00  0.00000000000E+00  0.56738992765E+01  0.56738992765E+01  0.00000000000E+00 0. -1.
         21   -1    0    0  504  502 -0.00000000000E+00 -0.00000000000E+00 -0.33288535873E+03  0.33288535873E+03  0.00000000000E+00 0. -1.
         21    1    1    2  503  501  0.10194822000E+02 -0.20071964439E+02 -0.18808214310E+02  0.29335423597E+02  0.00000000000E+00 0. -1.
         21    1    1    2  504  503 -0.10194822000E+02  0.20071964439E+02 -0.30840324514E+03  0.30922383441E+03  0.00000000000E+00 0. -1.
</event>
<event>
 4    1  0.1551744E+006  0.2392384E+02  0.7546771E-02  0.1481212E+00
         21   -1    0    0  504  501  0.00000000000E+00  0.00000000000E+00  0.23650404500E+02  0.23650404500E+02  0.00000000000E+00 0.  1.
         21   -1    0    0  503  502 -0.00000000000E+00 -0.00000000000E+00 -0.43625667804E+02  0.43625667804E+02  0.00000000000E+00 0.  1.
         21    1    1    2  503  501 -0.20129068985E+02 -0.12929457401E+02  0.12458556855E+02  0.26973429997E+02  0.00000000000E+00 0.  1.
         21    1    1    2  504  502  0.20129068985E+02  0.12929457401E+02 -0.32433820158E+02  0.40302642307E+02  0.00000000000E+00 0.  1.
</event>
<event>
 4    1  0.1551744E+006  0.2299322E+02  0.7546771E-02  0.1492583E+00
         21   -1    0    0  502  501  0.00000000000E+00  0.00000000000E+00  0.11147087602E+04  0.11147087602E+04  0.00000000000E+00 0. -1.
         21   -1    0    0  504  502 -0.00000000000E+00 -0.00000000000E+00 -0.23661036005E+01  0.23661036005E+01  0.00000000000E+00 0.  1.
         21    1    1    2  503  501 -0.18896115954E+02  0.13100567282E+02  0.10556021195E+04  0.10558525099E+04  0.00000000000E+00 0. -1.
         21    1    1    2  504  503  0.18896115954E+02 -0.13100567282E+02  0.56740537076E+02  0.61222353833E+02  0.00000000000E+00 0.  1.
</event>
<event>
 4    1  0.1551744E+006  0.2232187E+02  0.7546771E-02  0.1501194E+00
         21   -1    0    0  504  501  0.00000000000E+00  0.00000000000E+00  0.27040391486E+01  0.27040391486E+01  0.00000000000E+00 0. -1.
         21   -1    0    0  503  502 -0.00000000000E+00 -0.00000000000E+00 -0.40100333178E+03  0.40100333178E+03  0.00000000000E+00 0.  1.
         21    1    1    2  503  501  0.78842588063E+01  0.20883110225E+02 -0.50751556047E+02  0.55443541290E+02  0.00000000000E+00 0. -1.
         21    1    1    2  504  502 -0.78842588063E+01 -0.20883110225E+02 -0.34754773658E+03  0.34826382964E+03  0.00000000000E+00 0.  1.
</event>
<event>
 4    1  0.1551744E+006  0.2153568E+02  0.7546771E-02  0.1511752E+00
         21   -1    0    0  503  501  0.00000000000E+00  0.00000000000E+00  0.15519214640E+02  0.15519214640E+02  0.00000000000E+00 0.  1.
         21   -1    0    0  504  502 -0.00000000000E+00 -0.00000000000E+00 -0.24056922411E+03  0.24056922411E+03  0.00000000000E+00 0.  1.
         21    1    1    2  503  502 -0.20784571888E+02 -0.56379846819E+01  0.73024621670E+01  0.22740080333E+02  0.00000000000E+00 0.  1.
         21    1    1    2  504  501  0.20784571888E+02  0.56379846819E+01 -0.23235247164E+03  0.23334835842E+03  0.00000000000E+00 0.  1.
</event>
<event>
 4    1  0.1551744E+006  0.2068286E+02  0.7546771E-02  0.1523841E+00
         21   -1    0    0  504  501  0.00000000000E+00  0.00000000000E+00  0.35563852542E+02  0.35563852542E+02  0.00000000000E+00 0. -1.
         21   -1    0    0  503  502 -0.00000000000E+00 -0.00000000000E+00 -0.86176838031E+02  0.86176838031E+02  0.00000000000E+00 0. -1.
         21    1    1    2  503  501  0.18901272405E+02  0.83977837853E+01  0.31156138122E+02  0.37396334229E+02  0.00000000000E+00 0. -1.
         21    1    1    2  504  502 -0.18901272405E+02 -0.83977837853E+01 -0.81769123611E+02  0.84344356345E+02  0.00000000000E+00 0. -1.
</event>
<event>
 4    1  0.1551744E+006  0.2086216E+02  0.7546771E-02  0.1521242E+00
         21   -1    0    0  504  501  0.00000000000E+00  0.00000000000E+00  0.80174215240E+00  0.80174215240E+00  0.00000000000E+00 0.  1.
         21   -1    0    0  503  502 -0.00000000000E+00 -0.00000000000E+00 -0.85252210722E+03  0.85252210722E+03  0.00000000000E+00 0. -1.
         21    1    1    2  503  501 -0.15332886807E+02  0.14146818889E+02 -0.16871496220E+03  0.16999990698E+03  0.00000000000E+00 0.  1.
         21    1    1    2  504  502  0.15332886807E+02 -0.14146818889E+02 -0.68300540286E+03  0.68332394239E+03  0.00000000000E+00 0. -1.
</event>
<event>
 4    1  0.1551744E+006  0.2117574E+02  0.7546771E-02  0.1516770E+00
         21   -1    0    0  503  501  0.00000000000E+00  0.00000000000E+00  0.22073361738E+03  0.22073361738E+03  0.00000000000E+00 0.  1.
         21   -1    0    0  504  502 -0.00000000000E+00 -0.00000000000E+00 -0.43133168082E+01  0.43133168082E+01  0.00000000000E+00 0.  1.
         21    1    1    2  503  502 -0.16550088080E+02 -0.13210090379E+02  0.19005313378E+03  0.19122919642E+03  0.00000000000E+00 0.  1.
         21    1    1    2  504  501  0.16550088080E+02  0.13210090379E+02  0.26367166794E+02  0.33817737771E+02  0.00000000000E+00 0.  1.
</event>
<event>
 4    1  0.1551744E+006  0.2099926E+02  0.7546771E-02  0.1519275E+00
         21   -1    0    0  504  501  0.00000000000E+00  0.00000000000E+00  0.55979408373E+02  0.55979408373E+02  0.00000000000E+00 0.  1.
         21   -1    0    0  503  502 -0.00000000000E+00 -0.00000000000E+00 -0.82734012544E+01  0.82734012544E+01  0.00000000000E+00 0.  1.
         21    1    1    2  503  501  0.13257687187E+01  0.20957368690E+02  0.16823899597E+02  0.26907481538E+02  0.00000000000E+00 0.  1.
         21    1    1    2  504  502 -0.13257687187E+01 -0.20957368690E+02  0.30882107522E+02  0.37345328089E+02  0.00000000000E+00 0.  1.
</event>
<event>
 4    1  0.1551744E+006  0.3210390E+02  0.7546771E-02  0.1402153E+00
         21   -1    0    0  502  501  0.00000000000E+00  0.00000000000E+00  0.61175657839E+02  0.61175657839E+02  0.00000000000E+00 0.  1.
         21   -1    0    0  503  502 -0.00000000000E+00 -0.00000000000E+00 -0.11096487634E+03  0.11096487634E+03  0.00000000000E+00 0. -1.
         21    1    1    2  503  504  0.32101183170E+02 -0.41749232167E+00 -0.10416210956E+03  0.10899727212E+03  0.00000000000E+00 0. -1.
         21    1    1    2  504  501 -0.32101183170E+02  0.41749232167E+00  0.54372891063E+02  0.63143262058E+02  0.00000000000E+00 0.  1.
</event>
<event>
 4    1  0.1551744E+006  0.2424947E+02  0.7546771E-02  0.1477377E+00
         21   -1    0    0  502  501  0.00000000000E+00  0.00000000000E+00  0.88049029263E+02  0.88049029263E+02  0.00000000000E+00 0.  1.
         21   -1    0    0  503  502 -0.00000000000E+00 -0.00000000000E+00 -0.18088334681E+02  0.18088334681E+02  0.00000000000E+00 0.  1.
         21    1    1    2  503  504 -0.24166441393E+02  0.20050118347E+01 -0.71677871238E+01  0.25286639443E+02  0.00000000000E+00 0.  1.
         21    1    1    2  504  501  0.24166441393E+02 -0.20050118347E+01  0.77128481705E+02  0.80850724501E+02  0.00000000000E+00 0.  1.
</event>
<event>
 4    1  0.1551744E+006  0.2840913E+02  0.7546771E-02  0.1433944E+00
         21   -1    0    0  503  501  0.00000000000E+00  0.00000000000E+00  0.10712615011E+02  0.10712615011E+02  0.00000000000E+00 0.  1.
         21   -1    0    0  501  502 -0.00000000000E+00 -0.00000000000E+00 -0.82625669080E+02  0.82625669080E+02  0.00000000000E+00 0. -1.
         21    1    1    2  503  504  0.22401532608E+02 -0.17471402715E+02 -0.22097446603E+02  0.35991328434E+02  0.00000000000E+00 0.  1.
         21    1    1    2  504  502 -0.22401532608E+02  0.17471402715E+02 -0.49815607465E+02  0.57346955657E+02  0.00000000000E+00 0. -1.
</event>
<event>
 4    1  0.1551744E+006  0.2450271E+02  0.7546771E-02  0.1474444E+00
         21   -1    0    0  502  501  0.00000000000E+00  0.00000000000E+00  0.41233376426E+02  0.41233376426E+02  0.00000000000E+00 0.  1.
         21   -1    0    0  504  502 -0.00000000000E+00 -0.00000000000E+00 -0.14656281220E+02  0.14656281220E+02  0.00000000000E+00 0. -1.
         21    1    1    2  503  501  0.16619687899E+02  0.18004691553E+02  0.11030726453E+02  0.26871171725E+02  0.00000000000E+00 0. -1.
         21    1    1    2  504  503 -0.16619687899E+02 -0.18004691553E+02  0.15546368753E+02  0.29018485922E+02  0.00000000000E+00 0.  1.
</event>
<event>
 4    1  0.1551744E+006  0.3113828E+02  0.7546771E-02  0.1409956E+00
         21   -1    0    0  504  501  0.00000000000E+00  0.00000000000E+00  0.10733506058E+03  0.10733506058E+03  0.00000000000E+00 0. -1.
         21   -1    0    0  503  502 -0.00000000000E+00 -0.00000000000E+00 -0.15406036178E+03  0.15406036178E+03  0.00000000000E+00 0.  1.
         21    1    1    2  503  501 -0.29988216888E+02  0.83844732517E+01 -0.15017075525E+03  0.15336508167E+03  0.00000000000E+00 0.  1.
         21    1    1    2  504  502  0.29988216888E+02 -0.83844732517E+01  0.10344545406E+03  0.10803034069E+03  0.00000000000E+00 0. -1.
</event>
<event>
 4    1  0.1551744E+006  0.3406610E+02  0.7546771E-02  0.1387250E+00
         21   -1    0    0  502  501  0.00000000000E+00  0.00000000000E+00  0.46168273433E+02  0.46168273433E+02  0.00000000000E+00 0. -1.
         21   -1    0    0  504  502 -0.00000000000E+00 -0.00000000000E+00 -0.25463229102E+03  0.25463229102E+03  0.00000000000E+00 0. -1.
         21    1    1    2  503  501  0.16489395173E+02  0.29809374825E+02  0.38551968842E+02  0.51446606129E+02  0.00000000000E+00 0. -1.
         21    1    1    2  504  503 -0.16489395173E+02 -0.29809374825E+02 -0.24701598643E+03  0.24935395832E+03  0.00000000000E+00 0. -1.
</event>
<event>
 4    1  0.1551744E+006  0.2456448E+02  0.7546771E-02  0.1473735E+00
         21   -1    0    0  502  501  0.00000000000E+00  0.00000000000E+00  0.18922389775E+03  0.18922389775E+03  0.00000000000E+00 0.  1.
         21   -1    0    0  503  502 -0.00000000000E+00 -0.00000000000E+00 -0.43923489773E+02  0.43923489773E+02  0.00000000000E+00 0.  1.
         21    1    1    2  503  504 -0.24254098189E+02 -0.38926119709E+01 -0.39612081444E+02  0.46610414107E+02  0.00000000000E+00 0.  1.
         21    1    1    2  504  501  0.24254098189E+02  0.38926119709E+01  0.18491248942E+03  0.18653697342E+03  0.00000000000E+00 0.  1.
</event>
<event>
 4    1  0.1551744E+006  0.2424759E+02  0.7546771E-02  0.1477399E+00
         21   -1    0    0  502  501  0.00000000000E+00  0.00000000000E+00  0.34309668459E+02  0.34309668459E+02  0.00000000000E+00 0.  1.
         21   -1    0    0  504  502 -0.00000000000E+00 -0.00000000000E+00 -0.51266977611E+02  0.51266977611E+02  0.00000000000E+00 0. -1.
         21    1    1    2  503  501  0.17630878111E+02 -0.16646250548E+02  0.26433607031E+02  0.35870337341E+02  0.00000000000E+00 0.  1.
         21    1    1    2  504  503 -0.17630878111E+02  0.16646250548E+02 -0.43390916184E+02  0.49706308730E+02  0.00000000000E+00 0. -1.
</event>
<event>
 4    1  0.1551744E+006  0.2047969E+02  0.7546771E-02  0.1526825E+00
         21   -1    0    0  503  501  0.00000000000E+00  0.00000000000E+00  0.30101611457E+03  0.30101611457E+03  0.00000000000E+00 0. -1.
         21   -1    0    0  504  502 -0.00000000000E+00 -0.00000000000E+00 -0.15475010732E+02  0.15475010732E+02  0.00000000000E+00 0. -1.
         21    1    1    2  503  502 -0.36162820071E+01 -0.20157878940E+02  0.29372404425E+03  0.29443714397E+03  0.00000000000E+00 0. -1.
         21    1    1    2  504  501  0.36162820071E+01  0.20157878940E+02 -0.81829404096E+01  0.22053981334E+02  0.00000000000E+00 0. -1.
</event>
<event>
 4    1  0.1551744E+006  0.2072508E+02  0.7546771E-02  0.1523226E+00
         21   -1    0    0  503  501  0.00000000000E+00  0.00000000000E+00  0.62515490358E+02  0.62515490358E+02  0.00000000000E+00 0.  1.
         21   -1    0    0  504  502 -0.00000000000E+00 -0.00000000000E+00 -0.19545537747E+02  0.19545537747E+02  0.00000000000E+00 0. -1.
         21    1    1    2  503  502  0.15376625071E+02  0.13895629622E+02  0.54525982962E+02  0.58331911842E+02  0.00000000000E+00 0.  1.
         21    1    1    2  504  501 -0.15376625071E+02 -0.13895629622E+02 -0.11556030351E+02  0.23729116263E+02  0.00000000000E+00 0. -1.
</event>
<event>
 4    1  0.1551744E+006  0.2187378E+02  0.7546771E-02  0.1507146E+00
         21   -1    0    0  504  501  0.00000000000E+00  0.00000000000E+00  0.19339914260E+03  0.19339914260E+03  0.00000000000E+00 0. -1.
         21   -1    0    0  501  502 -0.00000000000E+00 -0.00000000000E+00 -0.41523181773E+02  0.41523181773E+02  0.00000000000E+00 0. -1.
         21    1    1    2  503  502  0.14680007350E+01  0.21824462405E+02 -0.37970264428E+02  0.43820122845E+02  0.00000000000E+00 0. -1.
         21    1    1    2  504  503 -0.14680007350E+01 -0.21824462405E+02  0.18984622525E+03  0.19110220153E+03  0.00000000000E+00 0. -1.
</event>
<event>
 4    1  0.1551744E+006  0.3886878E+02  0.7546771E-02  0.1355245E+00
         21   -1    0    0  502  501  0.00000000000E+00  0.00000000000E+00  0.29775920354E+02  0.29775920354E+02  0.00000000000E+00 0.  1.
         21   -1    0    0  503  502 -0.00000000000E+00 -0.00000000000E+00 -0.53169343621E+02  0.53169343621E+02  0.00000000000E+00 0.  1.
         21    1    1    2  503  504 -0.23705231643E+02  0.30803312228E+02 -0.28288295576E+01  0.38971583598E+02  0.00000000000E+00 0.  1.
         21    1    1    2  504  501  0.23705231643E+02 -0.30803312228E+02 -0.20564593709E+02  0.43973680377E+02  0.00000000000E+00 0.  1.
</event>
<event>
 4    1  0.1551744E+006  0.4284606E+02  0.7546771E-02  0.1332569E+00
         21   -1    0    0  504  501  0.00000000000E+00  0.00000000000E+00  0.37386271505E+01  0.37386271505E+01  0.00000000000E+00 0.  1.
         21   -1    0    0  503  502 -0.00000000000E+00 -0.00000000000E+00 -0.69013763342E+03  0.69013763342E+03  0.00000000000E+00 0.  1.
         21    1    1    2  503  501 -0.49571562977E+01  0.42558334089E+02 -0.15685093509E+03  0.16259766615E+03  0.00000000000E+00 0.  1.
         21    1    1    2  504  502  0.49571562977E+01 -0.42558334089E+02 -0.52954807118E+03  0.53127859442E+03  0.00000000000E+00 0.  1.
</event>
<event>
 4    1  0.1551744E+006  0.2656343E+02  0.7546771E-02  0.1452043E+00
         21   -1    0    0  504  501  0.00000000000E+00  0.00000000000E+00  0.19444143689E+01  0.19444143689E+01  0.00000000000E+00 0.  1.
         21   -1    0    0  503  502 -0.00000000000E+00 -0.00000000000E+00 -0.37026283425E+03  0.37026283425E+03  0.00000000000E+00 0.  1.
         21    1    1    2  503  501 -0.55352623041E+01 -0.25980315473E+02 -0.15790463259E+03  0.16012335531E+03  0.00000000000E+00 0.  1.
         21    1    1    2  504  502  0.55352623041E+01  0.25980315473E+02 -0.21041378729E+03  0.21208389331E+03  0.00000000000E+00 0.  1.
</event>
<event>
 4    1  0.1551744E+006  0.2401599E+02  0.7546771E-02  0.1480120E+00
         21   -1    0    0  503  501  0.00000000000E+00  0.00000000000E+00  0.23871780869E+02  0.23871780869E+02  0.00000000000E+00 0. -1.
         21   -1    0    0  501  502 -0.00000000000E+00 -0.00000000000E+00 -0.38069237497E+02  0.38069237497E+02  0.00000000000E+00 0. -1.
         21    1    1    2  503  504 -0.98837604860E+01  0.21887880059E+02  0.11620849578E+02  0.26679808090E+02  0.00000000000E+00 0. -1.
         21    1    1    2  504  502  0.98837604860E+01 -0.21887880059E+02 -0.25818306205E+02  0.35261210276E+02  0.00000000000E+00 0. -1.
</event>
<event>
 4    1  0.1551744E+006  0.2607344E+02  0.7546771E-02  0.1457144E+00
         21   -1    0    0  502  501  0.00000000000E+00  0.00000000000E+00  0.12298352931E+03  0.12298352931E+03  0.00000000000E+00 0.  1.
         21   -1    0    0  503  502 -0.00000000000E+00 -0.00000000000E+00 -0.12784578217E+02  0.12784578217E+02  0.00000000000E+00 0.  1.
         21    1    1    2  503  504  0.25826655207E+02  0.35788819372E+01  0.39551535714E+01  0.26371722637E+02  0.00000000000E+00 0.  1.
         21    1    1    2  504  501 -0.25826655207E+02 -0.35788819372E+01  0.10624379753E+03  0.10939638489E+03  0.00000000000E+00 0.  1.
</event>
<event>
 4    1  0.1551744E+006  0.2211210E+02  0.7546771E-02  0.1503959E+00
         21   -1    0    0  503  501  0.00000000000E+00  0.00000000000E+00  0.22482260451E+02  0.22482260451E+02  0.00000000000E+00 0. -1.
         21   -1    0    0  504  502 -0.00000000000E+00 -0.00000000000E+00 -0.25179063834E+03  0.25179063834E+03  0.00000000000E+00 0. -1.
         21    1    1    2  503  502  0.45791536308E+00 -0.22107360115E+02 -0.24573443424E+03  0.24672729324E+03  0.00000000000E+00 0. -1.
         21    1    1    2  504  501 -0.45791536308E+00  0.22107360115E+02  0.16426056354E+02  0.27545605549E+02  0.00000000000E+00 0. -1.
</event>
<event>
 4    1  0.1551744E+006  0.2134957E+02  0.7546771E-02  0.1514332E+00
         21   -1    0    0  503  501  0.00000000000E+00  0.00000000000E+00  0.41805729780E+03  0.41805729780E+03  0.00000000000E+00 0.  1.
         21   -1    0    0  504  502 -0.00000000000E+00 -0.00000000000E+00 -0.34784889881E+02  0.34784889881E+02  0.00000000000E+00 0.  1.
         21    1    1    2  503  502 -0.16297811892E+02  0.13790780026E+02  0.41448059648E+03  0.41503008222E+03  0.00000000000E+00 0.  1.
         21    1    1    2  504  501  0.16297811892E+02 -0.13790780026E+02 -0.31208188562E+02  0.37812105463E+02  0.00000000000E+00 0.  1.
</event>
<event>
 4    1  0.1551744E+006  0.2509651E+02  0.7546771E-02  0.1467727E+00
         21   -1    0    0  503  501  0.00000000000E+00  0.00000000000E+00  0.51516344776E+03  0.51516344776E+03  0.00000000000E+00 0. -1.
         21   -1    0    0  504  502 -0.00000000000E+00 -0.00000000000E+00 -0.13845428925E+01  0.13845428925E+01  0.00000000000E+00 0. -1.
         21    1    1    2  503  502 -0.87994305976E+01 -0.23503292594E+02  0.16855724901E+03  0.17041531896E+03  0.00000000000E+00 0. -1.
         21    1    1    2  504  501  0.87994305976E+01  0.23503292594E+02  0.34522165586E+03  0.34613267170E+03  0.00000000000E+00 0. -1.
</event>
<event>
 4    1  0.1551744E+006  0.3032131E+02  0.7546771E-02  0.1416824E+00
         21   -1    0    0  503  501  0.00000000000E+00  0.00000000000E+00  0.10444921971E+03  0.10444921971E+03  0.00000000000E+00 0.  1.
         21   -1    0    0  504  502 -0.00000000000E+00 -0.00000000000E+00 -0.48327256524E+02  0.48327256524E+02  0.00000000000E+00 0.  1.
         21    1    1    2  503  502  0.28176062748E+02  0.11202300010E+02 -0.41021307341E+02  0.51011074224E+02  0.00000000000E+00 0.  1.
         21    1    1    2  504  501 -0.28176062748E+02 -0.11202300010E+02  0.97143270529E+02  0.10176540201E+03  0.00000000000E+00 0.  1.
</event>
<event>
 4    1  0.1551744E+006  0.2956964E+02  0.7546771E-02  0.1423374E+00
         21   -1    0    0  504  501  0.00000000000E+00  0.00000000000E+00  0.22987841821E+02  0.22987841821E+02  0.00000000000E+00 0. -1.
         21   -1    0    0  501  502 -0.00000000000E+00 -0.00000000000E+00 -0.71437338411E+02  0.71437338411E+02  0.00000000000E+00 0. -1.
         21    1    1    2  503  502  0.29363253332E+02 -0.34875698570E+01 -0.56508026383E+02  0.63777118432E+02  0.00000000000E+00 0. -1.
         21    1    1    2  504  503 -0.29363253332E+02  0.34875698570E+01  0.80585297926E+01  0.30648061801E+02  0.00000000000E+00 0. -1.
</event>
<event>
 4    1  0.1551744E+006  0.3102118E+02  0.7546771E-02  0.1410925E+00
         21   -1    0    0  503  501  0.00000000000E+00  0.00000000000E+00  0.95049161018E+01  0.95049161018E+01  0.00000000000E+00 0.  1.
         21   -1    0    0  504  502 -0.00000000000E+00 -0.00000000000E+00 -0.28607990798E+03  0.28607990798E+03  0.00000000000E+00 0.  1.
         21    1    1    2  503  502  0.71339460358E+01 -0.30189739337E+02 -0.19491473352E+02  0.36636472001E+02  0.00000000000E+00 0.  1.
         21    1    1    2  504  501 -0.71339460358E+01  0.30189739337E+02 -0.25708351853E+03  0.25894835208E+03  0.00000000000E+00 0.  1.
</event>
<event>
 4    1  0.1551744E+006  0.2736074E+02  0.7546771E-02  0.1444018E+00
         21   -1    0    0  503  501  0.00000000000E+00  0.00000000000E+00  0.56516514080E+02  0.56516514080E+02  0.00000000000E+00 0. -1.
         21   -1    0    0  501  502 -0.00000000000E+00 -0.00000000000E+00 -0.12627950438E+03  0.12627950438E+03  0.00000000000E+00 0. -1.
         21    1    1    2  503  504  0.56642311027E+01  0.26768017691E+02  0.51590235626E+02  0.58396598334E+02  0.00000000000E+00 0. -1.
         21    1    1    2  504  502 -0.56642311027E+01 -0.26768017691E+02 -0.12135322592E+03  0.12439942012E+03  0.00000000000E+00 0. -1.
</event>
<event>
 4    1  0.1551744E+006  0.2001784E+02  0.7546771E-02  0.1533763E+00
         21   -1    0    0  502  501  0.00000000000E+00  0.00000000000E+00  0.21894761434E+03  0.21894761434E+03  0.00000000000E+00 0.  1.
         21   -1    0    0  503  502 -0.00000000000E+00 -0.00000000000E+00 -0.15337849443E+02  0.15337849443E+02  0.00000000000E+00 0.  1.
         21    1    1    2  503  504  0.95634985658E+01 -0.17585607738E+02 -0.81269035590E+01  0.21604644542E+02  0.00000000000E+00 0.  1.
         21    1    1    2  504  501 -0.95634985658E+01  0.17585607738E+02  0.21173666845E+03  0.21268081924E+03  0.00000000000E+00 0.  1.
</event>
<event>
 4    1  0.1551744E+006  0.2313049E+02  0.7546771E-02  0.1490866E+00
         21   -1    0    0  503  501  0.00000000000E+00  0.00000000000E+00  0.42664289302E+01  0.42664289302E+01  0.00000000000E+00 0.  1.
         21   -1    0    0  504  502 -0.00000000000E+00 -0.00000000000E+00 -0.26144403405E+03  0.26144403405E+03  0.00000000000E+00 0.  1.
         21    1    1    2  503  502 -0.22215221026E+02 -0.64423282832E+01 -0.32753502431E+02  0.40097525615E+02  0.00000000000E+00 0.  1.
         21    1    1    2  504  501  0.22215221026E+02  0.64423282832E+01 -0.22442410269E+03  0.22561293736E+03  0.00000000000E+00 0.  1.
</event>
<event>
 4    1  0.1551744E+006  0.3174008E+02  0.7546771E-02  0.1405055E+00
         21   -1    0    0  502  501  0.00000000000E+00  0.00000000000E+00  0.13987040667E+02  0.13987040667E+02  0.00000000000E+00 0.  1.
         21   -1    0    0  503  502 -0.00000000000E+00 -0.00000000000E+00 -0.10531968852E+03  0.10531968852E+03  0.00000000000E+00 0. -1.
         21    1    1    2  503  504  0.20265830667E+02 -0.24428034655E+02 -0.79206095549E+02  0.85329000591E+02  0.00000000000E+00 0. -1.
         21    1    1    2  504  501 -0.20265830667E+02  0.24428034655E+02 -0.12126552302E+02  0.33977728595E+02  0.00000000000E+00 0.  1.
</event>
<event>
 4    1  0.1551744E+006  0.2477245E+02  0.7546771E-02  0.1471365E+00
         21   -1    0    0  504  501  0.00000000000E+00  0.00000000000E+00  0.27044848994E+02  0.27044848994E+02  0.00000000000E+00 0.  1.
         21   -1    0    0  503  502 -0.00000000000E+00 -0.00000000000E+00 -0.44407427302E+02  0.44407427302E+02  0.00000000000E+00 0. -1.
         21    1    1    2  503  501  0.74122076007E+01 -0.23637538717E+02  0.16302176429E+02  0.29655269590E+02  0.00000000000E+00 0.  1.
         21    1    1    2  504  502 -0.74122076007E+01  0.23637538717E+02 -0.33664754737E+02  0.41797006707E+02  0.00000000000E+00 0. -1.
</event>
<event>
 4    1  0.1551744E+006  0.2035461E+02  0.7546771E-02  0.1528682E+00
         21   -1    0    0  504  501  0.00000000000E+00  0.00000000000E+00  0.14453858508E+04  0.14453858508E+04  0.00000000000E+00 0. -1.
         21   -1    0    0  503  502 -0.00000000000E+00 -0.00000000000E+00 -0.30378047573E+00  0.30378047573E+00  0.00000000000E+00 0. -1.
         21    1    1    2  503  501  0.19870959666E+02 -0.44108123008E+01  0.89422652788E+03  0.89445815635E+03  0.00000000000E+00 0. -1.
         21    1    1    2  504  502 -0.19870959666E+02  0.44108123008E+01  0.55085554241E+03  0.55123147489E+03  0.00000000000E+00 0. -1.
</event>
<event>
 4    1  0.1551744E+006  0.2727624E+02  0.7546771E-02  0.1444853E+00
         21   -1    0    0  503  501  0.00000000000E+00  0.00000000000E+00  0.23343427410E+03  0.23343427410E+03  0.00000000000E+00 0. -1.
         21   -1    0    0  504  502 -0.00000000000E+00 -0.00000000000E+00 -0.37690493136E+03  0.37690493136E+03  0.00000000000E+00 0.  1.
         21    1    1    2  503  502  0.25379207317E+02  0.99944600968E+01  0.23214125495E+03  0.23373822034E+03  0.00000000000E+00 0. -1.
         21    1    1    2  504  501 -0.25379207317E+02 -0.99944600968E+01 -0.37561191221E+03  0.37660098512E+03  0.00000000000E+00 0.  1.
</event>
<event>
 4    1  0.1551744E+006  0.2163295E+02  0.7546771E-02  0.1510417E+00
         21   -1    0    0  504  501  0.00000000000E+00  0.00000000000E+00  0.20839506814E+01  0.20839506814E+01  0.00000000000E+00 0. -1.
         21   -1    0    0  503  502 -0.00000000000E+00 -0.00000000000E+00 -0.24152283755E+03  0.24152283755E+03  0.00000000000E+00 0.  1.
         21    1    1    2  503  501  0.10504758048E+02 -0.18911231098E+02 -0.87445510521E+02  0.90081640269E+02  0.00000000000E+00 0. -1.
         21    1    1    2  504  502 -0.10504758048E+02  0.18911231098E+02 -0.15199337635E+03  0.15352514796E+03  0.00000000000E+00 0.  1.
</event>
<event>
 4    1  0.1551744E+006  0.2315722E+02  0.7546771E-02  0.1490533E+00
         21   -1    0    0  502  501  0.00000000000E+00  0.00000000000E+00  0.76939782492E+03  0.76939782492E+03  0.00000000000E+00 0.  1.
         21   -1    0    0  504  502 -0.00000000000E+00 -0.00000000000E+00 -0.79254422548E+00  0.79254422548E+00  0.00000000000E+00 0. -1.
         21    1    1    2  503  501 -0.20821428054E+02  0.10135344133E+02  0.51802301841E+03  0.51854035973E+03  0.00000000000E+00 0.  1.
         21    1    1    2  504  503  0.20821428054E+02 -0.10135344133E+02  0.25058226229E+03  0.25165000942E+03  0.00000000000E+00 0. -1.
</event>
<event>
 4    1  0.1551744E+006  0.2222396E+02  0.7546771E-02  0.1502480E+00
         21   -1    0    0  504  501  0.00000000000E+00  0.00000000000E+00  0.59469796275E+03  0.59469796275E+03  0.00000000000E+00 0.  1.
         21   -1    0    0  501  502 -0.00000000000E+00 -0.00000000000E+00 -0.25773736152E+02  0.25773736152E+02  0.00000000000E+00 0. -1.
         21    1    1    2  503  502 -0.13697206789E+02  0.17501167401E+02 -0.20734408050E+02  0.30394407567E+02  0.00000000000E+00 0. -1.
         21    1    1    2  504  503  0.13697206789E+02 -0.17501167401E+02  0.58965863465E+03  0.59007729134E+03  0.00000000000E+00 0.  1.
</event>
<event>
 4    1  0.1551744E+006  0.2122636E+02  0.7546771E-02  0.1516057E+00
         21   -1    0    0  502  501  0.00000000000E+00  0.00000000000E+00  0.33092745386E+03  0.33092745386E+03  0.00000000000E+00 0. -1.
         21   -1    0    0  503  502 -0.00000000000E+00 -0.00000000000E+00 -0.65468208461E+01  0.65468208461E+01  0.00000000000E+00 0.  1.
         21    1    1    2  503  504 -0.15918456690E+02  0.14041400924E+02  0.12020307947E+02  0.24393564857E+02  0.00000000000E+00 0.  1.
         21    1    1    2  504  501  0.15918456690E+02 -0.14041400924E+02  0.31236032507E+03  0.31308070985E+03  0.00000000000E+00 0. -1.
</event>
<event>
 4    1  0.1551744E+006  0.2503346E+02  0.7546771E-02  0.1468429E+00
         21   -1    0    0  503  501  0.00000000000E+00  0.00000000000E+00  0.33169968523E+02  0.33169968523E+02  0.00000000000E+00 0.  1.
         21   -1    0    0  501  502 -0.00000000000E+00 -0.00000000000E+00 -0.36197661392E+03  0.36197661392E+03  0.00000000000E+00 0. -1.
         21    1    1    2  503  504  0.14367557496E+02  0.20499935049E+02  0.27944858340E+02  0.37517851125E+02  0.00000000000E+00 0.  1.
         21    1    1    2  504  502 -0.14367557496E+02 -0.20499935049E+02 -0.35675150373E+03  0.35762873132E+03  0.00000000000E+00 0. -1.
</event>
<event>
 4    1  0.1551744E+006  0.2332354E+02  0.7546771E-02  0.1488475E+00
         21   -1    0    0  502  501  0.00000000000E+00  0.00000000000E+00  0.24281916139E+02  0.24281916139E+02  0.00000000000E+00 0.  1.
         21   -1    0    0  503  502 -0.00000000000E+00 -0.00000000000E+00 -0.33267143556E+02  0.33267143556E+02  0.00000000000E+00 0.  1.
         21    1    1    2  503  504 -0.84268615246E+01 -0.21747995527E+02 -0.20936278267E+02  0.31341905690E+02  0.00000000000E+00 0.  1.
         21    1    1    2  504  501  0.84268615246E+01  0.21747995527E+02  0.11951050850E+02  0.26207154005E+02  0.00000000000E+00 0.  1.
</event>
<event>
 4    1  0.1551744E+006  0.3538333E+02  0.7546771E-02  0.1377888E+00
         21   -1    0    0  503  501  0.00000000000E+00  0.00000000000E+00  0.14712988530E+03  0.14712988530E+03  0.00000000000E+00 0. -1.
         21   -1    0    0  501  502 -0.00000000000E+00 -0.00000000000E+00 -0.14572202796E+02  0.14572202796E+02  0.00000000000E+00 0.  1.
         21    1    1    2  503  504 -0.25995149852E+02  0.24004830660E+02  0.11842970861E+03  0.12360249024E+03  0.00000000000E+00 0. -1.
         21    1    1    2  504  502  0.25995149852E+02 -0.24004830660E+02  0.14127973894E+02  0.38099597861E+02  0.00000000000E+00 0.  1.
</event>
<event>
 4    1  0.1551744E+006  0.2461005E+02  0.7546771E-02  0.1473213E+00
         21   -1    0    0  504  501  0.00000000000E+00  0.00000000000E+00  0.63946314985E+01  0.63946314985E+01  0.00000000000E+00 0.  1.
         21   -1    0    0  503  502 -0.00000000000E+00 -0.00000000000E+00 -0.18226816443E+03  0.18226816443E+03  0.00000000000E+00 0. -1.
         21    1    1    2  503  501 -0.57533681180E+01  0.23928090675E+02 -0.22557245969E+02  0.33383890033E+02  0.00000000000E+00 0.  1.
         21    1    1    2  504  502  0.57533681180E+01 -0.23928090675E+02 -0.15331628697E+03  0.15527890590E+03  0.00000000000E+00 0. -1.
</event>
<event>
 4    1  0.1551744E+006  0.2110488E+02  0.7546771E-02  0.1517773E+00
         21   -1    0    0  503  501  0.00000000000E+00  0.00000000000E+00  0.13155828957E+01  0.13155828957E+01  0.00000000000E+00 0. -1.
         21   -1    0    0  504  502 -0.00000000000E+00 -0.00000000000E+00 -0.36598035138E+03  0.36598035138E+03  0.00000000000E+00 0. -1.
         21    1    1    2  503  502  0.55159414105E+01  0.20371313323E+02 -0.23259208170E+03  0.23354762359E+03  0.00000000000E+00 0. -1.
         21    1    1    2  504  501 -0.55159414105E+01 -0.20371313323E+02 -0.13207268678E+03  0.13374831068E+03  0.00000000000E+00 0. -1.
</event>
<event>
 4    1  0.1551744E+006  0.2119405E+02  0.7546771E-02  0.1516512E+00
         21   -1    0    0  503  501  0.00000000000E+00  0.00000000000E+00  0.11631981881E+02  0.11631981881E+02  0.00000000000E+00 0. -1.
         21   -1    0    0  501  502 -0.00000000000E+00 -0.00000000000E+00 -0.32293647858E+03  0.32293647858E+03  0.00000000000E+00 0. -1.
         21    1    1    2  503  504 -0.20057210498E+02  0.68480683940E+01  0.13117499296E+01  0.21234604342E+02  0.00000000000E+00 0. -1.
         21    1    1    2  504  502  0.20057210498E+02 -0.68480683940E+01 -0.31261624662E+03  0.31333385611E+03  0.00000000000E+00 0. -1.
</event>
<event>
 4    1  0.1551744E+006  0.2322696E+02  0.7546771E-02  0.1489668E+00
         21   -1    0    0  503  501  0.00000000000E+00  0.00000000000E+00  0.58623946277E+02  0.58623946277E+02  0.00000000000E+00 0. -1.
         21   -1    0    0  504  502 -0.00000000000E+00 -0.00000000000E+00 -0.13355688308E+02  0.13355688308E+02  0.00000000000E+00 0.  1.
         21    1    1    2  503  502  0.14811779195E+02  0.17891420341E+02  0.25647939983E+01  0.23368138416E+02  0.00000000000E+00 0.  1.
         21    1    1    2  504  501 -0.14811779195E+02 -0.17891420341E+02  0.42703463970E+02  0.48611496169E+02  0.00000000000E+00 0. -1.
</event>
<event>
 4    1  0.1551744E+006  0.2387765E+02  0.7546771E-02  0.1481762E+00
         21   -1    0    0  502  501  0.00000000000E+00  0.00000000000E+00  0.10755912186E+03  0.10755912186E+03  0.00000000000E+00 0. -1.
         21   -1    0    0  503  502 -0.00000000000E+00 -0.00000000000E+00 -0.93857521243E+01  0.93857521243E+01  0.00000000000E+00 0. -1.
         21    1    1    2  503  504  0.10268450234E+02  0.21556929579E+02  0.10510999241E+02  0.26088759804E+02  0.00000000000E+00 0. -1.
         21    1    1    2  504  501 -0.10268450234E+02 -0.21556929579E+02  0.87662370497E+02  0.90856114182E+02  0.00000000000E+00 0. -1.
</event>
<event>
 4    1  0.1551744E+006  0.3096381E+02  0.7546771E-02  0.1411402E+00
         21   -1    0    0  503  501  0.00000000000E+00  0.00000000000E+00  0.10240704090E+03  0.10240704090E+03  0.00000000000E+00 0. -1.
         21   -1    0    0  504  502 -0.00000000000E+00 -0.00000000000E+00 -0.20193892569E+02  0.20193892569E+02  0.00000000000E+00 0. -1.
         21    1    1    2  503  502 -0.69120778655E+00 -0.30956098668E+02 -0.37887809559E+01  0.31194753951E+02  0.00000000000E+00 0. -1.
         21    1    1    2  504  501  0.69120778655E+00  0.30956098668E+02  0.86001929283E+02  0.91406179514E+02  0.00000000000E+00 0. -1.
</event>
<event>
 4    1  0.1551744E+006  0.2681407E+02  0.7546771E-02  0.1449485E+00
         21   -1    0    0  504  501  0.00000000000E+00  0.00000000000E+00  0.37651914827E+02  0.37651914827E+02  0.00000000000E+00 0.  1.
         21   -1    0    0  501  502 -0.00000000000E+00 -0.00000000000E+00 -0.28422796174E+03  0.28422796174E+03  0.00000000000E+00 0. -1.
         21    1    1    2  503  502 -0.15569483674E+02  0.21830836539E+02 -0.27872760516E+03  0.28001441414E+03  0.00000000000E+00 0. -1.
         21    1    1    2  504  503  0.15569483674E+02 -0.21830836539E+02  0.32151558253E+02  0.41865462424E+02  0.00000000000E+00 0.  1.
</event>
<event>
 4    1  0.1551744E+006  0.2348979E+02  0.7546771E-02  0.1486438E+00
         21   -1    0    0  503  501  0.00000000000E+00  0.00000000000E+00  0.87461731312E+01  0.87461731312E+01  0.00000000000E+00 0.  1.
         21   -1    0    0  504  502 -0.00000000000E+00 -0.00000000000E+00 -0.46875756277E+03  0.46875756277E+03  0.00000000000E+00 0. -1.
         21    1    1    2  503  502  0.22997934114E+02  0.47817768841E+01 -0.79001766753E+01  0.24782718882E+02  0.00000000000E+00 0.  1.
         21    1    1    2  504  501 -0.22997934114E+02 -0.47817768841E+01 -0.45211121296E+03  0.45272101702E+03  0.00000000000E+00 0. -1.
</event>
<event>
 4    1  0.1551744E+006  0.2107780E+02  0.7546771E-02  0.1518157E+00
         21   -1    0    0  502  501  0.00000000000E+00  0.00000000000E+00  0.66253277479E+01  0.66253277479E+01  0.00000000000E+00 0.  1.
         21   -1    0    0  503  502 -0.00000000000E+00 -0.00000000000E+00 -0.13639504371E+03  0.13639504371E+03  0.00000000000E+00 0.  1.
         21    1    1    2  503  504  0.17919044434E+02 -0.11098724234E+02 -0.11587130713E+03  0.11777280522E+03  0.00000000000E+00 0.  1.
         21    1    1    2  504  501 -0.17919044434E+02  0.11098724234E+02 -0.13898408836E+02  0.25247566243E+02  0.00000000000E+00 0.  1.
</event>
<event>
 4    1  0.1551744E+006  0.2032295E+02  0.7546771E-02  0.1529155E+00
         21   -1    0    0  502  501  0.00000000000E+00  0.00000000000E+00  0.16157304945E+03  0.16157304945E+03  0.00000000000E+00 0. -1.
         21   -1    0    0  504  502 -0.00000000000E+00 -0.00000000000E+00 -0.17620719771E+02  0.17620719771E+02  0.00000000000E+00 0.  1.
         21    1    1    2  503  501 -0.17322342875E+02  0.10628201739E+02  0.15481956421E+03  0.15614774958E+03  0.00000000000E+00 0. -1.
         21    1    1    2  504  503  0.17322342875E+02 -0.10628201739E+02 -0.10867234536E+02  0.23046019642E+02  0.00000000000E+00 0.  1.
</event>
<event>
 4    1  0.1551744E+006  0.2463123E+02  0.7546771E-02  0.1472971E+00
         21   -1    0    0  502  501  0.00000000000E+00  0.00000000000E+00  0.24215163703E+03  0.24215163703E+03  0.00000000000E+00 0. -1.
         21   -1    0    0  503  502 -0.00000000000E+00 -0.00000000000E+00 -0.25191380485E+03  0.25191380485E+03  0.00000000000E+00 0. -1.
         21    1    1    2  503  504  0.32767171673E+01  0.24412307543E+02 -0.25068228534E+03  0.25188947143E+03  0.00000000000E+00 0. -1.
         21    1    1    2  504  501 -0.32767171673E+01 -0.24412307543E+02  0.24092011752E+03  0.24217597045E+03  0.00000000000E+00 0. -1.
</event>
<event>
 4    1  0.1551744E+006  0.2322690E+02  0.7546771E-02  0.1489668E+00
         21   -1    0    0  503  501  0.00000000000E+00  0.00000000000E+00  0.29152853895E+02  0.29152853895E+02  0.00000000000E+00 0. -1.
         21   -1    0    0  501  502 -0.00000000000E+00 -0.00000000000E+00 -0.28107196251E+02  0.28107196251E+02  0.00000000000E+00 0.  1.
         21    1    1    2  503  504  0.11889727464E+02 -0.19953025501E+02  0.17256313776E+02  0.28935604555E+02  0.00000000000E+00 0. -1.
         21    1    1    2  504  502 -0.11889727464E+02  0.19953025501E+02 -0.16210656132E+02  0.28324445591E+02  0.00000000000E+00 0.  1.
</event>
<event>
 4    1  0.1551744E+006  0.2916746E+02  0.7546771E-02  0.1426972E+00
         21   -1    0    0  503  501  0.00000000000E+00  0.00000000000E+00  0.38165842102E+03  0.38165842102E+03  0.00000000000E+00 0.  1.
         21   -1    0    0  504  502 -0.00000000000E+00 -0.00000000000E+00 -0.35900790618E+01  0.35900790618E+01  0.00000000000E+00 0.  1.
         21    1    1    2  503  502  0.28812243134E+02 -0.45381942362E+01  0.30763579148E+03  0.30901540537E+03  0.00000000000E+00 0.  1.
         21    1    1    2  504  501 -0.28812243134E+02  0.45381942362E+01  0.70432550483E+02  0.76233094709E+02  0.00000000000E+00 0.  1.
</event>
<event>
 4    1  0.1551744E+006  0.2081658E+02  0.7546771E-02  0.1521900E+00
         21   -1    0    0  504  501  0.00000000000E+00  0.00000000000E+00  0.27971740766E+02  0.27971740766E+02  0.00000000000E+00 0.  1.
         21   -1    0    0  503  502 -0.00000000000E+00 -0.00000000000E+00 -0.43592485795E+02  0.43592485795E+02  0.00000000000E+00 0. -1.
         21    1    1    2  503  501  0.26187159844E+01 -0.20651209765E+02 -0.36539293329E+02  0.42052943953E+02  0.00000000000E+00 0. -1.
         21    1    1    2  504  502 -0.26187159844E+01  0.20651209765E+02  0.20918548300E+02  0.29511282607E+02  0.00000000000E+00 0.  1.
</event>
<event>
 4    1  0.1551744E+006  0.2827570E+02  0.7546771E-02  0.1435198E+00
         21   -1    0    0  503  501  0.00000000000E+00  0.00000000000E+00  0.56854334004E+02  0.56854334004E+02  0.00000000000E+00 0.  1.
         21   -1    0    0  504  502 -0.00000000000E+00 -0.00000000000E+00 -0.11453083121E+03  0.11453083121E+03  0.00000000000E+00 0.  1.
         21    1    1    2  503  502  0.28173551177E+02 -0.24012876403E+01 -0.10909777231E+03  0.11270243605E+03  0.00000000000E+00 0.  1.
         21    1    1    2  504  501 -0.28173551177E+02  0.24012876403E+01  0.51421275107E+02  0.58682729162E+02  0.00000000000E+00 0.  1.
</event>
<event>
 4    1  0.1551744E+006  0.2160516E+02  0.7546771E-02  0.1510797E+00
         21   -1    0    0  502  501  0.00000000000E+00  0.00000000000E+00  0.18708924009E+02  0.18708924009E+02  0.00000000000E+00 0. -1.
         21   -1    0    0  503  502 -0.00000000000E+00 -0.00000000000E+00 -0.25828347156E+02  0.25828347156E+02  0.00000000000E+00 0. -1.
         21    1    1    2  503  504  0.15882429811E+02 -0.14646890428E+02 -0.76668582110E+01  0.22925175915E+02  0.00000000000E+00 0. -1.
         21    1    1    2  504  501 -0.15882429811E+02  0.14646890428E+02  0.54743506405E+00  0.21612095249E+02  0.00000000000E+00 0. -1.
</event>
<event>
 4    1  0.1551744E+006  0.2608214E+02  0.7546771E-02  0.1457053E+00
         21   -1    0    0  502  501  0.00000000000E+00  0.00000000000E+00  0.29116646091E+02  0.29116646091E+02  0.00000000000E+00 0.  1.
         21   -1    0    0  504  502 -0.00000000000E+00 -0.00000000000E+00 -0.24930318337E+02  0.24930318337E+02  0.00000000000E+00 0.  1.
         21    1    1    2  503  501  0.31070085988E+01 -0.25896421054E+02  0.88669677743E+01  0.27548162250E+02  0.00000000000E+00 0.  1.
         21    1    1    2  504  503 -0.31070085988E+01  0.25896421054E+02 -0.46806400203E+01  0.26498802177E+02  0.00000000000E+00 0.  1.
</event>
<event>
 4    1  0.1551744E+006  0.2012110E+02  0.7546771E-02  0.1532192E+00
         21   -1    0    0  504  501  0.00000000000E+00  0.00000000000E+00  0.11258206263E+03  0.11258206263E+03  0.00000000000E+00 0. -1.
         21   -1    0    0  501  502 -0.00000000000E+00 -0.00000000000E+00 -0.75940416267E+01  0.75940416267E+01  0.00000000000E+00 0. -1.
         21    1    1    2  503  502  0.61664250238E+01  0.19152909079E+02  0.88957942881E+01  0.21999860904E+02  0.00000000000E+00 0. -1.
         21    1    1    2  504  503 -0.61664250238E+01 -0.19152909079E+02  0.96092226714E+02  0.98176243352E+02  0.00000000000E+00 0. -1.
</event>
<event>
 4    1  0.1551744E+006  0.2591857E+02  0.7546771E-02  0.1458785E+00
         21   -1    0    0  504  501  0.00000000000E+00  0.00000000000E+00  0.70144651257E+02  0.70144651257E+02  0.00000000000E+00 0. -1.
         21   -1    0    0  503  502 -0.00000000000E+00 -0.00000000000E+00 -0.95914207030E+01  0.95914207030E+01  0.00000000000E+00 0.  1.
         21    1    1    2  503  501 -0.20558454654E+02 -0.15783597717E+02  0.28728204875E+02  0.38692140933E+02  0.00000000000E+00 0.  1.
         21    1    1    2  504  502  0.20558454654E+02  0.15783597717E+02  0.31825025678E+02  0.41043931026E+02  0.00000000000E+00 0. -1.
</event>
<event>
 4    1  0.1551744E+006  0.2731964E+02  0.7546771E-02  0.1444423E+00
         21   -1    0    0  502  501  0.00000000000E+00  0.00000000000E+00  0.62077151723E+02  0.62077151723E+02  0.00000000000E+00 0. -1.
         21   -1    0    0  504  502 -0.00000000000E+00 -0.00000000000E+00 -0.13036231442E+02  0.13036231442E+02  0.00000000000E+00 0. -1.
         21    1    1    2  503  501 -0.26709670101E+02  0.57407638558E+01  0.34990146806E+02  0.44392265318E+02  0.00000000000E+00 0. -1.
         21    1    1    2  504  503  0.26709670101E+02 -0.57407638558E+01  0.14050773475E+02  0.30721117847E+02  0.00000000000E+00 0. -1.
</event>
<event>
 4    1  0.1551744E+006  0.2760182E+02  0.7546771E-02  0.1441655E+00
         21   -1    0    0  504  501  0.00000000000E+00  0.00000000000E+00  0.72318005885E+01  0.72318005885E+01  0.00000000000E+00 0. -1.
         21   -1    0    0  503  502 -0.00000000000E+00 -0.00000000000E+00 -0.11201098734E+03  0.11201098734E+03  0.00000000000E+00 0. -1.
         21    1    1    2  503  501  0.14737661645E+02 -0.23337987921E+02 -0.37848888012E+02  0.46844409215E+02  0.00000000000E+00 0. -1.
         21    1    1    2  504  502 -0.14737661645E+02  0.23337987921E+02 -0.66930298743E+02  0.72398378716E+02  0.00000000000E+00 0. -1.
</event>
<event>
 4    1  0.1551744E+006  0.2272376E+02  0.7546771E-02  0.1495996E+00
         21   -1    0    0  503  501  0.00000000000E+00  0.00000000000E+00  0.93258100708E+03  0.93258100708E+03  0.00000000000E+00 0. -1.
         21   -1    0    0  501  502 -0.00000000000E+00 -0.00000000000E+00 -0.92219734439E+01  0.92219734439E+01  0.00000000000E+00 0. -1.
         21    1    1    2  503  504 -0.15337818646E+02 -0.16766653703E+02  0.91822542284E+03  0.91850655769E+03  0.00000000000E+00 0. -1.
         21    1    1    2  504  502  0.15337818646E+02  0.16766653703E+02  0.51336107920E+01  0.23296422837E+02  0.00000000000E+00 0. -1.
</event>
<event>
 4    1  0.1551744E+006  0.2492683E+02  0.7546771E-02  0.1469624E+00
         21   -1    0    0  503  501  0.00000000000E+00  0.00000000000E+00  0.11379901923E+03  0.11379901923E+03  0.00000000000E+00 0. -1.
         21   -1    0    0  504  502 -0.00000000000E+00 -0.00000000000E+00 -0.69269849155E+02  0.69269849155E+02  0.00000000000E+00 0. -1.
         21    1    1    2  503  502 -0.22550103023E+02 -0.10622595637E+02  0.11011748839E+03  0.11290353375E+03  0.00000000000E+00 0. -1.
         21    1    1    2  504  501  0.22550103023E+02  0.10622595637E+02 -0.65588318316E+02  0.70165334632E+02  0.00000000000E+00 0. -1.
</event>
<event>
 4    1  0.1551744E+006  0.2353978E+02  0.7546771E-02  0.1485829E+00
         21   -1    0    0  504  501  0.00000000000E+00  0.00000000000E+00  0.21388746645E+02  0.21388746645E+02  0.00000000000E+00 0.  1.
         21   -1    0    0  501  502 -0.00000000000E+00 -0.00000000000E+00 -0.23589575547E+03  0.23589575547E+03  0.00000000000E+00 0.  1.
         21    1    1    2  503  502  0.23261132739E+02  0.36112015124E+01 -0.22862632692E+03  0.22983498088E+03  0.00000000000E+00 0.  1.
         21    1    1    2  504  503 -0.23261132739E+02 -0.36112015124E+01  0.14119318098E+02  0.27449521238E+02  0.00000000000E+00 0.  1.
</event>
<event>
 4    1  0.1551744E+006  0.2085980E+02  0.7546771E-02  0.1521276E+00
         21   -1    0    0  503  501  0.00000000000E+00  0.00000000000E+00  0.46787561958E+02  0.46787561958E+02  0.00000000000E+00 0.  1.
         21   -1    0    0  504  502 -0.00000000000E+00 -0.00000000000E+00 -0.15953879301E+02  0.15953879301E+02  0.00000000000E+00 0.  1.
         21    1    1    2  503  502 -0.14119177777E+02  0.15355127185E+02  0.35676124291E+02  0.41326951937E+02  0.00000000000E+00 0.  1.
         21    1    1    2  504  501  0.14119177777E+02 -0.15355127185E+02 -0.48424416338E+01  0.21414489323E+02  0.00000000000E+00 0.  1.
</event>
<event>
 4    1  0.1551744E+006  0.2845041E+02  0.7546771E-02  0.1433558E+00
         21   -1    0    0  502  501  0.00000000000E+00  0.00000000000E+00  0.14073718086E+02  0.14073718086E+02  0.00000000000E+00 0.  1.
         21   -1    0    0  503  502 -0.00000000000E+00 -0.00000000000E+00 -0.57821920618E+03  0.57821920618E+03  0.00000000000E+00 0.  1.
         21    1    1    2  503  504  0.41956550357E+01 -0.28139339564E+02 -0.56310524264E+03  0.56382350097E+03  0.00000000000E+00 0.  1.
         21    1    1    2  504  501 -0.41956550357E+01  0.28139339564E+02 -0.10402454507E+01  0.28469423297E+02  0.00000000000E+00 0.  1.
</event>
<event>
 4    1  0.1551744E+006  0.3452574E+02  0.7546771E-02  0.1383928E+00
         21   -1    0    0  504  501  0.00000000000E+00  0.00000000000E+00  0.76036478838E+02  0.76036478838E+02  0.00000000000E+00 0.  1.
         21   -1    0    0  503  502 -0.00000000000E+00 -0.00000000000E+00 -0.60047914266E+02  0.60047914266E+02  0.00000000000E+00 0.  1.
         21    1    1    2  503  501  0.30978776618E+02  0.15242783396E+02 -0.50495276664E+02  0.61170254305E+02  0.00000000000E+00 0.  1.
         21    1    1    2  504  502 -0.30978776618E+02 -0.15242783396E+02  0.66483841236E+02  0.74914138799E+02  0.00000000000E+00 0.  1.
</event>
<event>
 4    1  0.1551744E+006  0.4348381E+02  0.7546771E-02  0.1329197E+00
         21   -1    0    0  504  501  0.00000000000E+00  0.00000000000E+00  0.19589066409E+03  0.19589066409E+03  0.00000000000E+00 0. -1.
         21   -1    0    0  501  502 -0.00000000000E+00 -0.00000000000E+00 -0.40561867972E+02  0.40561867972E+02  0.00000000000E+00 0. -1.
         21    1    1    2  503  502  0.41142135449E+02  0.14077170363E+02 -0.25540378245E+02  0.50429683279E+02  0.00000000000E+00 0. -1.
         21    1    1    2  504  503 -0.41142135449E+02 -0.14077170363E+02  0.18086917437E+03  0.18602284879E+03  0.00000000000E+00 0. -1.
</event>
<event>
 4    1  0.1551744E+006  0.3700712E+02  0.7546771E-02  0.1366977E+00
         21   -1    0    0  504  501  0.00000000000E+00  0.00000000000E+00  0.70490788819E+03  0.70490788819E+03  0.00000000000E+00 0. -1.
         21   -1    0    0  503  502 -0.00000000000E+00 -0.00000000000E+00 -0.36351097543E+01  0.36351097543E+01  0.00000000000E+00 0.  1.
         21    1    1    2  503  501  0.71003213106E+01 -0.36319581842E+02  0.10891691664E+03  0.11503226208E+03  0.00000000000E+00 0.  1.
         21    1    1    2  504  502 -0.71003213106E+01  0.36319581842E+02  0.59235586180E+03  0.59351073587E+03  0.00000000000E+00 0. -1.
</event>
<event>
 4    1  0.1551744E+006  0.2291660E+02  0.7546771E-02  0.1493548E+00
         21   -1    0    0  502  501  0.00000000000E+00  0.00000000000E+00  0.35243113976E+02  0.35243113976E+02  0.00000000000E+00 0. -1.
         21   -1    0    0  503  502 -0.00000000000E+00 -0.00000000000E+00 -0.24042798100E+02  0.24042798100E+02  0.00000000000E+00 0. -1.
         21    1    1    2  503  504  0.11001051809E+02 -0.20103423180E+02 -0.12678149299E+02  0.26189811647E+02  0.00000000000E+00 0. -1.
         21    1    1    2  504  501 -0.11001051809E+02  0.20103423180E+02  0.23878465175E+02  0.33096100428E+02  0.00000000000E+00 0. -1.
</event>
<event>
 4    1  0.1551744E+006  0.3590353E+02  0.7546771E-02  0.1374320E+00
         21   -1    0    0  504  501  0.00000000000E+00  0.00000000000E+00  0.37476197114E+03  0.37476197114E+03  0.00000000000E+00 0. -1.
         21   -1    0    0  503  502 -0.00000000000E+00 -0.00000000000E+00 -0.59895142616E+01  0.59895142616E+01  0.00000000000E+00 0. -1.
         21    1    1    2  503  501 -0.30022880411E+02 -0.19689854977E+02  0.60172035627E+02  0.70069519826E+02  0.00000000000E+00 0. -1.
         21    1    1    2  504  502  0.30022880411E+02  0.19689854977E+02  0.30860042125E+03  0.31068196558E+03  0.00000000000E+00 0. -1.
</event>
<event>
 4    1  0.1551744E+006  0.4540167E+02  0.7546771E-02  0.1319443E+00
         21   -1    0    0  504  501  0.00000000000E+00  0.00000000000E+00  0.57987978665E+02  0.57987978665E+02  0.00000000000E+00 0.  1.
         21   -1    0    0  503  502 -0.00000000000E+00 -0.00000000000E+00 -0.47367429042E+02  0.47367429042E+02  0.00000000000E+00 0. -1.
         21    1    1    2  503  501  0.41103708142E+02  0.19282043604E+02 -0.21004479548E+02  0.50024995649E+02  0.00000000000E+00 0. -1.
         21    1    1    2  504  502 -0.41103708142E+02 -0.19282043604E+02  0.31625029171E+02  0.55330412059E+02  0.00000000000E+00 0.  1.
</event>
<event>
 4    1  0.1551744E+006  0.2181956E+02  0.7546771E-02  0.1507878E+00
         21   -1    0    0  503  501  0.00000000000E+00  0.00000000000E+00  0.54249723274E+02  0.54249723274E+02  0.00000000000E+00 0. -1.
         21   -1    0    0  504  502 -0.00000000000E+00 -0.00000000000E+00 -0.24715568905E+03  0.24715568905E+03  0.00000000000E+00 0. -1.
         21    1    1    2  503  502 -0.36288119718E+00  0.21816545546E+02 -0.24445594491E+03  0.24542779456E+03  0.00000000000E+00 0. -1.
         21    1    1    2  504  501  0.36288119718E+00 -0.21816545546E+02  0.51549979129E+02  0.55977617765E+02  0.00000000000E+00 0. -1.
</event>
<event>
 4    1  0.1551744E+006  0.2309184E+02  0.7546771E-02  0.1491348E+00
         21   -1    0    0  504  501  0.00000000000E+00  0.00000000000E+00  0.30000623413E+01  0.30000623413E+01  0.00000000000E+00 0. -1.
         21   -1    0    0  503  502 -0.00000000000E+00 -0.00000000000E+00 -0.20412784888E+03  0.20412784888E+03  0.00000000000E+00 0. -1.
         21    1    1    2  503  501  0.14784513271E+02 -0.17738411468E+02 -0.13779912203E+03  0.13972054647E+03  0.00000000000E+00 0. -1.
         21    1    1    2  504  502 -0.14784513271E+02  0.17738411468E+02 -0.63328664509E+02  0.67407364750E+02  0.00000000000E+00 0. -1.
</event>
<event>
 4    1  0.1551744E+006  0.2842565E+02  0.7546771E-02  0.1433790E+00
         21   -1    0    0  502  501  0.00000000000E+00  0.00000000000E+00  0.44624276744E+01  0.44624276744E+01  0.00000000000E+00 0.  1.
         21   -1    0    0  504  502 -0.00000000000E+00 -0.00000000000E+00 -0.39608525947E+03  0.39608525947E+03  0.00000000000E+00 0.  1.
         21    1    1    2  503  501 -0.82063037096E+01  0.27215333747E+02 -0.48253277118E+02  0.56003540639E+02  0.00000000000E+00 0.  1.
         21    1    1    2  504  503  0.82063037096E+01 -0.27215333747E+02 -0.34336955468E+03  0.34454414650E+03  0.00000000000E+00 0.  1.
</event>
<event>
 4    1  0.1551744E+006  0.2007275E+02  0.7546771E-02  0.1532926E+00
         21   -1    0    0  504  501  0.00000000000E+00  0.00000000000E+00  0.70198892832E+02  0.70198892832E+02  0.00000000000E+00 0.  1.
         21   -1    0    0  503  502 -0.00000000000E+00 -0.00000000000E+00 -0.33442051993E+02  0.33442051993E+02  0.00000000000E+00 0.  1.
         21    1    1    2  503  501  0.33064906354E+01  0.19798545157E+02  0.65542767212E+02  0.68547571835E+02  0.00000000000E+00 0.  1.
         21    1    1    2  504  502 -0.33064906354E+01 -0.19798545157E+02 -0.28785926373E+02  0.35093372990E+02  0.00000000000E+00 0.  1.
</event>
<event>
 4    1  0.1551744E+006  0.2463739E+02  0.7546771E-02  0.1472901E+00
         21   -1    0    0  504  501  0.00000000000E+00  0.00000000000E+00  0.54544167839E+01  0.54544167839E+01  0.00000000000E+00 0. -1.
         21   -1    0    0  503  502 -0.00000000000E+00 -0.00000000000E+00 -0.17597283962E+03  0.17597283962E+03  0.00000000000E+00 0. -1.
         21    1    1    2  503  501 -0.20792116077E+02 -0.13216999165E+02 -0.14025850479E+03  0.14240593149E+03  0.00000000000E+00 0. -1.
         21    1    1    2  504  502  0.20792116077E+02  0.13216999165E+02 -0.30259918049E+02  0.39021324916E+02  0.00000000000E+00 0. -1.
</event>
<event>
 4    1  0.1551744E+006  0.2759073E+02  0.7546771E-02  0.1441763E+00
         21   -1    0    0  503  501  0.00000000000E+00  0.00000000000E+00  0.47953630083E+00  0.47953630083E+00  0.00000000000E+00 0. -1.
         21   -1    0    0  504  502 -0.00000000000E+00 -0.00000000000E+00 -0.16697797057E+04  0.16697797057E+04  0.00000000000E+00 0. -1.
         21    1    1    2  503  502 -0.11327674439E+02 -0.25158142702E+02 -0.64923029264E+03  0.64981629807E+03  0.00000000000E+00 0. -1.
         21    1    1    2  504  501  0.11327674439E+02  0.25158142702E+02 -0.10200698768E+04  0.10204429440E+04  0.00000000000E+00 0. -1.
</event>
<event>
 4    1  0.1551744E+006  0.2060543E+02  0.7546771E-02  0.1524973E+00
         21   -1    0    0  503  501  0.00000000000E+00  0.00000000000E+00  0.15450053172E+01  0.15450053172E+01  0.00000000000E+00 0. -1.
         21   -1    0    0  504  502 -0.00000000000E+00 -0.00000000000E+00 -0.28600010979E+03  0.28600010979E+03  0.00000000000E+00 0.  1.
         21    1    1    2  503  502  0.12540104779E+02  0.16350218413E+02 -0.17066548542E+03  0.17190489168E+03  0.00000000000E+00 0.  1.
         21    1    1    2  504  501 -0.12540104779E+02 -0.16350218413E+02 -0.11378961905E+03  0.11564022342E+03  0.00000000000E+00 0. -1.
</event>
<event>
 4    1  0.1551744E+006  0.2515249E+02  0.7546771E-02  0.1467105E+00
         21   -1    0    0  504  501  0.00000000000E+00  0.00000000000E+00  0.17459314220E+01  0.17459314220E+01  0.00000000000E+00 0. -1.
         21   -1    0    0  503  502 -0.00000000000E+00 -0.00000000000E+00 -0.41199264868E+03  0.41199264868E+03  0.00000000000E+00 0. -1.
         21    1    1    2  503  501  0.24350446372E+02  0.63010550192E+01 -0.13331822300E+03  0.13567017402E+03  0.00000000000E+00 0. -1.
         21    1    1    2  504  502 -0.24350446372E+02 -0.63010550192E+01 -0.27692849426E+03  0.27806840609E+03  0.00000000000E+00 0. -1.
</event>
<event>
 4    1  0.1551744E+006  0.3261462E+02  0.7546771E-02  0.1398156E+00
         21   -1    0    0  504  501  0.00000000000E+00  0.00000000000E+00  0.12441949266E+03  0.12441949266E+03  0.00000000000E+00 0.  1.
         21   -1    0    0  503  502 -0.00000000000E+00 -0.00000000000E+00 -0.25110243937E+02  0.25110243937E+02  0.00000000000E+00 0.  1.
         21    1    1    2  503  501  0.64763392115E+01  0.31965147232E+02  0.11037202500E+03  0.11508995399E+03  0.00000000000E+00 0.  1.
         21    1    1    2  504  502 -0.64763392115E+01 -0.31965147232E+02 -0.11062776275E+02  0.34439782608E+02  0.00000000000E+00 0.  1.
</event>
<event>
 4    1  0.1551744E+006  0.2386747E+02  0.7546771E-02  0.1481883E+00
         21   -1    0    0  503  501  0.00000000000E+00  0.00000000000E+00  0.31446483170E+01  0.31446483170E+01  0.00000000000E+00 0. -1.
         21   -1    0    0  504  502 -0.00000000000E+00 -0.00000000000E+00 -0.19103854839E+03  0.19103854839E+03  0.00000000000E+00 0.  1.
         21    1    1    2  503  502 -0.71194320898E+01 -0.22780909635E+02 -0.71858478357E+02  0.75718538475E+02  0.00000000000E+00 0. -1.
         21    1    1    2  504  501  0.71194320898E+01  0.22780909635E+02 -0.11603542172E+03  0.11846465823E+03  0.00000000000E+00 0.  1.
</event>
<event>
 4    1  0.1551744E+006  0.5559540E+02  0.7546771E-02  0.1275580E+00
         21   -1    0    0  504  501  0.00000000000E+00  0.00000000000E+00  0.22866534303E+03  0.22866534303E+03  0.00000000000E+00 0. -1.
         21   -1    0    0  503  502 -0.00000000000E+00 -0.00000000000E+00 -0.18109767436E+02  0.18109767436E+02  0.00000000000E+00 0.  1.
         21    1    1    2  503  501  0.69875763046E+01  0.55154526179E+02  0.43139885566E+02  0.70369721523E+02  0.00000000000E+00 0.  1.
         21    1    1    2  504  502 -0.69875763046E+01 -0.55154526179E+02  0.16741569003E+03  0.17640538894E+03  0.00000000000E+00 0. -1.
</event>
<event>
 4    1  0.1551744E+006  0.5114613E+02  0.7546771E-02  0.1293278E+00
         21   -1    0    0  503  501  0.00000000000E+00  0.00000000000E+00  0.30715096581E+02  0.30715096581E+02  0.00000000000E+00 0. -1.
         21   -1    0    0  504  502 -0.00000000000E+00 -0.00000000000E+00 -0.88678104636E+02  0.88678104636E+02  0.00000000000E+00 0. -1.
         21    1    1    2  503  502  0.47887773123E+02 -0.17963512479E+02 -0.40859280989E+02  0.65463023442E+02  0.00000000000E+00 0. -1.
         21    1    1    2  504  501 -0.47887773123E+02  0.17963512479E+02 -0.17103727066E+02  0.53930177775E+02  0.00000000000E+00 0. -1.
</event>
<event>
 4    1  0.1551744E+006  0.2110382E+02  0.7546771E-02  0.1517788E+00
         21   -1    0    0  504  501  0.00000000000E+00  0.00000000000E+00  0.19923228413E+03  0.19923228413E+03  0.00000000000E+00 0.  1.
         21   -1    0    0  503  502 -0.00000000000E+00 -0.00000000000E+00 -0.27386400332E+01  0.27386400332E+01  0.00000000000E+00 0. -1.
         21    1    1    2  503  501  0.12417580160E+02  0.17063846293E+02  0.54959256481E+02  0.58871818558E+02  0.00000000000E+00 0. -1.
         21    1    1    2  504  502 -0.12417580160E+02 -0.17063846293E+02  0.14153438762E+03  0.14309910561E+03  0.00000000000E+00 0.  1.
</event>
<event>
 4    1  0.1551744E+006  0.2178612E+02  0.7546771E-02  0.1508331E+00
         21   -1    0    0  503  501  0.00000000000E+00  0.00000000000E+00  0.38169588265E+01  0.38169588265E+01  0.00000000000E+00 0. -1.
         21   -1    0    0  504  502 -0.00000000000E+00 -0.00000000000E+00 -0.34978004293E+03  0.34978004293E+03  0.00000000000E+00 0.  1.
         21    1    1    2  503  502  0.10357823515E+02  0.19166387041E+02 -0.31047048174E+02  0.37928275739E+02  0.00000000000E+00 0. -1.
         21    1    1    2  504  501 -0.10357823515E+02 -0.19166387041E+02 -0.31491603593E+03  0.31566872602E+03  0.00000000000E+00 0.  1.
</event>
<event>
 4    1  0.1551744E+006  0.2019876E+02  0.7546771E-02  0.1531019E+00
         21   -1    0    0  503  501  0.00000000000E+00  0.00000000000E+00  0.77798254337E+01  0.77798254337E+01  0.00000000000E+00 0.  1.
         21   -1    0    0  501  502 -0.00000000000E+00 -0.00000000000E+00 -0.90095221825E+02  0.90095221825E+02  0.00000000000E+00 0.  1.
         21    1    1    2  503  504 -0.48663733256E+01  0.19603784998E+02 -0.95209449893E+01  0.22330212025E+02  0.00000000000E+00 0.  1.
         21    1    1    2  504  502  0.48663733256E+01 -0.19603784998E+02 -0.72794451402E+02  0.75544835234E+02  0.00000000000E+00 0.  1.
</event>
<event>
 4    1  0.1551744E+006  0.3485311E+02  0.7546771E-02  0.1381599E+00
         21   -1    0    0  503  501  0.00000000000E+00  0.00000000000E+00  0.97363234192E+02  0.97363234192E+02  0.00000000000E+00 0. -1.
         21   -1    0    0  504  502 -0.00000000000E+00 -0.00000000000E+00 -0.29602221996E+03  0.29602221996E+03  0.00000000000E+00 0. -1.
         21    1    1    2  503  502  0.11794654478E+02 -0.32796724652E+02  0.93173638901E+02  0.99478972694E+02  0.00000000000E+00 0. -1.
         21    1    1    2  504  501 -0.11794654478E+02  0.32796724652E+02 -0.29183262467E+03  0.29390648146E+03  0.00000000000E+00 0. -1.
</event>
<event>
 4    1  0.1551744E+006  0.2385913E+02  0.7546771E-02  0.1481983E+00
         21   -1    0    0  504  501  0.00000000000E+00  0.00000000000E+00  0.48750887039E+02  0.48750887039E+02  0.00000000000E+00 0.  1.
         21   -1    0    0  503  502 -0.00000000000E+00 -0.00000000000E+00 -0.16933964847E+02  0.16933964847E+02  0.00000000000E+00 0.  1.
         21    1    1    2  503  501  0.50976765222E+01 -0.23308195876E+02 -0.23905811201E+01  0.23978598354E+02  0.00000000000E+00 0.  1.
         21    1    1    2  504  502 -0.50976765222E+01  0.23308195876E+02  0.34207503311E+02  0.41706253532E+02  0.00000000000E+00 0.  1.
</event>
<event>
 4    1  0.1551744E+006  0.3880212E+02  0.7546771E-02  0.1355652E+00
         21   -1    0    0  503  501  0.00000000000E+00  0.00000000000E+00  0.76951422758E+02  0.76951422758E+02  0.00000000000E+00 0.  1.
         21   -1    0    0  504  502 -0.00000000000E+00 -0.00000000000E+00 -0.38674456271E+02  0.38674456271E+02  0.00000000000E+00 0.  1.
         21    1    1    2  503  502 -0.25166135228E+02  0.29534215234E+02  0.59776244753E+02  0.71265725763E+02  0.00000000000E+00 0.  1.
         21    1    1    2  504  501  0.25166135228E+02 -0.29534215234E+02 -0.21499278265E+02  0.44360153265E+02  0.00000000000E+00 0.  1.
</event>
<event>
 4    1  0.1551744E+006  0.2093585E+02  0.7546771E-02  0.1520183E+00
         21   -1    0    0  504  501  0.00000000000E+00  0.00000000000E+00  0.33574807711E+01  0.33574807711E+01  0.00000000000E+00 0. -1.
         21   -1    0    0  503  502 -0.00000000000E+00 -0.00000000000E+00 -0.16358228819E+03  0.16358228819E+03  0.00000000000E+00 0.  1.
         21    1    1    2  503  501 -0.20826426257E+02  0.21377157787E+01 -0.11762258154E+03  0.11947125825E+03  0.00000000000E+00 0.  1.
         21    1    1    2  504  502  0.20826426257E+02 -0.21377157787E+01 -0.42602225877E+02  0.47468510711E+02  0.00000000000E+00 0. -1.
</event>
<event>
 4    1  0.1551744E+006  0.2335790E+02  0.7546771E-02  0.1488052E+00
         21   -1    0    0  504  501  0.00000000000E+00  0.00000000000E+00  0.11513955942E+03  0.11513955942E+03  0.00000000000E+00 0.  1.
         21   -1    0    0  501  502 -0.00000000000E+00 -0.00000000000E+00 -0.62792012930E+01  0.62792012930E+01  0.00000000000E+00 0.  1.
         21    1    1    2  503  502 -0.19023736876E+02  0.13553196542E+02  0.24358389583E+02  0.33747930963E+02  0.00000000000E+00 0.  1.
         21    1    1    2  504  503  0.19023736876E+02 -0.13553196542E+02  0.84501968547E+02  0.87670829753E+02  0.00000000000E+00 0.  1.
</event>
<event>
 4    1  0.1551744E+006  0.2606112E+02  0.7546771E-02  0.1457274E+00
         21   -1    0    0  503  501  0.00000000000E+00  0.00000000000E+00  0.12247893380E+03  0.12247893380E+03  0.00000000000E+00 0. -1.
         21   -1    0    0  501  502 -0.00000000000E+00 -0.00000000000E+00 -0.30589647132E+02  0.30589647132E+02  0.00000000000E+00 0.  1.
         21    1    1    2  503  504  0.57126793610E+01 -0.25427289510E+02  0.11519527384E+03  0.11810644720E+03  0.00000000000E+00 0. -1.
         21    1    1    2  504  502 -0.57126793610E+01  0.25427289510E+02 -0.23305987164E+02  0.34962133730E+02  0.00000000000E+00 0.  1.
</event>
<event>
 4    1  0.1551744E+006  0.2945175E+02  0.7546771E-02  0.1424421E+00
         21   -1    0    0  502  501  0.00000000000E+00  0.00000000000E+00  0.27669809462E+02  0.27669809462E+02  0.00000000000E+00 0. -1.
         21   -1    0    0  504  502 -0.00000000000E+00 -0.00000000000E+00 -0.34730490011E+02  0.34730490011E+02  0.00000000000E+00 0. -1.
         21    1    1    2  503  501  0.52987771614E+01 -0.28971172097E+02  0.62058734271E+01  0.30098483634E+02  0.00000000000E+00 0. -1.
         21    1    1    2  504  503 -0.52987771614E+01  0.28971172097E+02 -0.13266553976E+02  0.32301815839E+02  0.00000000000E+00 0. -1.
</event>
<event>
 4    1  0.1551744E+006  0.3661290E+02  0.7546771E-02  0.1369565E+00
         21   -1    0    0  504  501  0.00000000000E+00  0.00000000000E+00  0.11120939148E+03  0.11120939148E+03  0.00000000000E+00 0.  1.
         21   -1    0    0  501  502 -0.00000000000E+00 -0.00000000000E+00 -0.12295821329E+02  0.12295821329E+02  0.00000000000E+00 0.  1.
         21    1    1    2  503  502 -0.18899837144E+02  0.31357626297E+02  0.58119066060E+02  0.68690104169E+02  0.00000000000E+00 0.  1.
         21    1    1    2  504  503  0.18899837144E+02 -0.31357626297E+02  0.40794504092E+02  0.54815108640E+02  0.00000000000E+00 0.  1.
</event>
<event>
 4    1  0.1551744E+006  0.2625376E+02  0.7546771E-02  0.1455252E+00
         21   -1    0    0  504  501  0.00000000000E+00  0.00000000000E+00  0.19781679019E+02  0.19781679019E+02  0.00000000000E+00 0. -1.
         21   -1    0    0  503  502 -0.00000000000E+00 -0.00000000000E+00 -0.19673463849E+03  0.19673463849E+03  0.00000000000E+00 0.  1.
         21    1    1    2  503  501 -0.23971333322E+02  0.10706789052E+02  0.97281466381E+01  0.27998160477E+02  0.00000000000E+00 0. -1.
         21    1    1    2  504  502  0.23971333322E+02 -0.10706789052E+02 -0.18668110611E+03  0.18851815703E+03  0.00000000000E+00 0.  1.
</event>
<event>
 4    1  0.1551744E+006  0.2255471E+02  0.7546771E-02  0.1498167E+00
         21   -1    0    0  504  501  0.00000000000E+00  0.00000000000E+00  0.19502249922E+03  0.19502249922E+03  0.00000000000E+00 0. -1.
         21   -1    0    0  503  502 -0.00000000000E+00 -0.00000000000E+00 -0.38055971210E+01  0.38055971210E+01  0.00000000000E+00 0. -1.
         21    1    1    2  503  501  0.46563458427E+01  0.22068833685E+02  0.15136580746E+03  0.15303699764E+03  0.00000000000E+00 0. -1.
         21    1    1    2  504  502 -0.46563458427E+01 -0.22068833685E+02  0.39851094635E+02  0.45791098703E+02  0.00000000000E+00 0. -1.
</event>
<event>
 4    1  0.1551744E+006  0.5000007E+02  0.7546771E-02  0.1298172E+00
         21   -1    0    0  504  501  0.00000000000E+00  0.00000000000E+00  0.13711885411E+02  0.13711885411E+02  0.00000000000E+00 0. -1.
         21   -1    0    0  503  502 -0.00000000000E+00 -0.00000000000E+00 -0.22384294397E+03  0.22384294397E+03  0.00000000000E+00 0.  1.
         21    1    1    2  503  501  0.17842062201E+02 -0.46708329603E+02 -0.15622013751E+03  0.16402663992E+03  0.00000000000E+00 0.  1.
         21    1    1    2  504  502 -0.17842062201E+02  0.46708329603E+02 -0.53910921044E+02  0.73528189462E+02  0.00000000000E+00 0. -1.
</event>
<event>
 4    1  0.1551744E+006  0.2282735E+02  0.7546771E-02  0.1494678E+00
         21   -1    0    0  504  501  0.00000000000E+00  0.00000000000E+00  0.34724071314E+01  0.34724071314E+01  0.00000000000E+00 0.  1.
         21   -1    0    0  503  502 -0.00000000000E+00 -0.00000000000E+00 -0.18395229224E+03  0.18395229224E+03  0.00000000000E+00 0. -1.
         21    1    1    2  503  501  0.19876230715E+02 -0.11226016012E+02 -0.13046164348E+03  0.13244368011E+03  0.00000000000E+00 0. -1.
         21    1    1    2  504  502 -0.19876230715E+02  0.11226016012E+02 -0.50018241635E+02  0.54981019263E+02  0.00000000000E+00 0.  1.
</event>
<event>
 4    1  0.1551744E+006  0.2169210E+02  0.7546771E-02  0.1509609E+00
         21   -1    0    0  502  501  0.00000000000E+00  0.00000000000E+00  0.32798021716E+01  0.32798021716E+01  0.00000000000E+00 0. -1.
         21   -1    0    0  504  502 -0.00000000000E+00 -0.00000000000E+00 -0.14421724552E+03  0.14421724552E+03  0.00000000000E+00 0. -1.
         21    1    1    2  503  501  0.21085146579E+02 -0.50954574589E+01 -0.65153536883E+02  0.68669720120E+02  0.00000000000E+00 0. -1.
         21    1    1    2  504  503 -0.21085146579E+02  0.50954574589E+01 -0.75783906465E+02  0.78827327572E+02  0.00000000000E+00 0. -1.
</event>
<event>
 4    1  0.1551744E+006  0.2002523E+02  0.7546771E-02  0.1533650E+00
         21   -1    0    0  502  501  0.00000000000E+00  0.00000000000E+00  0.12207628889E+02  0.12207628889E+02  0.00000000000E+00 0.  1.
         21   -1    0    0  503  502 -0.00000000000E+00 -0.00000000000E+00 -0.80737342373E+02  0.80737342373E+02  0.00000000000E+00 0.  1.
         21    1    1    2  503  504 -0.17338773403E+02 -0.10018812747E+02 -0.70055796953E+02  0.72861679631E+02  0.00000000000E+00 0.  1.
         21    1    1    2  504  501  0.17338773403E+02  0.10018812747E+02  0.15260834689E+01  0.20083291631E+02  0.00000000000E+00 0.  1.
</event>
<event>
 4    1  0.1551744E+006  0.2328484E+02  0.7546771E-02  0.1488952E+00
         21   -1    0    0  504  501  0.00000000000E+00  0.00000000000E+00  0.34949569129E+03  0.34949569129E+03  0.00000000000E+00 0.  1.
         21   -1    0    0  503  502 -0.00000000000E+00 -0.00000000000E+00 -0.19252083765E+01  0.19252083765E+01  0.00000000000E+00 0.  1.
         21    1    1    2  503  501 -0.11023597632E+02 -0.20510091283E+02  0.25121773256E+03  0.25229453562E+03  0.00000000000E+00 0.  1.
         21    1    1    2  504  502  0.11023597632E+02  0.20510091283E+02  0.96352750356E+02  0.99126364053E+02  0.00000000000E+00 0.  1.
</event>
<event>
 4    1  0.1551744E+006  0.3551972E+02  0.7546771E-02  0.1376946E+00
         21   -1    0    0  504  501  0.00000000000E+00  0.00000000000E+00  0.17572842834E+03  0.17572842834E+03  0.00000000000E+00 0.  1.
         21   -1    0    0  503  502 -0.00000000000E+00 -0.00000000000E+00 -0.15355027963E+02  0.15355027963E+02  0.00000000000E+00 0.  1.
         21    1    1    2  503  501  0.67354678759E+01  0.34875258441E+02  0.10471979358E+02  0.37031237227E+02  0.00000000000E+00 0.  1.
         21    1    1    2  504  502 -0.67354678759E+01 -0.34875258441E+02  0.14990142102E+03  0.15405221908E+03  0.00000000000E+00 0.  1.
</event>
<event>
 4    1  0.1551744E+006  0.2131740E+02  0.7546771E-02  0.1514781E+00
         21   -1    0    0  502  501  0.00000000000E+00  0.00000000000E+00  0.27432804438E+03  0.27432804438E+03  0.00000000000E+00 0. -1.
         21   -1    0    0  504  502 -0.00000000000E+00 -0.00000000000E+00 -0.16572460907E+01  0.16572460907E+01  0.00000000000E+00 0. -1.
         21    1    1    2  503  501  0.19149122390E+02  0.93670943976E+01  0.13921324372E+03  0.14083592785E+03  0.00000000000E+00 0. -1.
         21    1    1    2  504  503 -0.19149122390E+02 -0.93670943976E+01  0.13345755458E+03  0.13514936263E+03  0.00000000000E+00 0. -1.
</event>
<event>
 4    1  0.1551744E+006  0.2287328E+02  0.7546771E-02  0.1494096E+00
         21   -1    0    0  503  501  0.00000000000E+00  0.00000000000E+00  0.71168237392E+02  0.71168237392E+02  0.00000000000E+00 0.  1.
         21   -1    0    0  504  502 -0.00000000000E+00 -0.00000000000E+00 -0.32000077542E+02  0.32000077542E+02  0.00000000000E+00 0.  1.
         21    1    1    2  503  502  0.85310477959E+01 -0.21222822116E+02 -0.25688739536E+02  0.34396195924E+02  0.00000000000E+00 0.  1.
         21    1    1    2  504  501 -0.85310477959E+01  0.21222822116E+02  0.64856899386E+02  0.68772119009E+02  0.00000000000E+00 0.  1.
</event>
<event>
 4    1  0.1551744E+006  0.3004416E+02  0.7546771E-02  0.1419213E+00
         21   -1    0    0  504  501  0.00000000000E+00  0.00000000000E+00  0.58702197083E+02  0.58702197083E+02  0.00000000000E+00 0. -1.
         21   -1    0    0  503  502 -0.00000000000E+00 -0.00000000000E+00 -0.10641056207E+03  0.10641056207E+03  0.00000000000E+00 0.  1.
         21    1    1    2  503  501  0.21491764330E+02 -0.20994177196E+02  0.52504695390E+02  0.60492928910E+02  0.00000000000E+00 0. -1.
         21    1    1    2  504  502 -0.21491764330E+02  0.20994177196E+02 -0.10021306038E+03  0.10461983024E+03  0.00000000000E+00 0.  1.
</event>
<event>
 4    1  0.1551744E+006  0.3116752E+02  0.7546771E-02  0.1409715E+00
         21   -1    0    0  503  501  0.00000000000E+00  0.00000000000E+00  0.20204943459E+03  0.20204943459E+03  0.00000000000E+00 0. -1.
         21   -1    0    0  501  502 -0.00000000000E+00 -0.00000000000E+00 -0.35603744485E+02  0.35603744485E+02  0.00000000000E+00 0. -1.
         21    1    1    2  503  504 -0.26841446655E+02 -0.15841425052E+02  0.19373563249E+03  0.19622667837E+03  0.00000000000E+00 0. -1.
         21    1    1    2  504  502  0.26841446655E+02  0.15841425052E+02 -0.27289942381E+02  0.41426500714E+02  0.00000000000E+00 0. -1.
</event>
<event>
 4    1  0.1551744E+006  0.2767302E+02  0.7546771E-02  0.1440962E+00
         21   -1    0    0  504  501  0.00000000000E+00  0.00000000000E+00  0.15317626764E+02  0.15317626764E+02  0.00000000000E+00 0. -1.
         21   -1    0    0  501  502 -0.00000000000E+00 -0.00000000000E+00 -0.13561632676E+03  0.13561632676E+03  0.00000000000E+00 0.  1.
         21    1    1    2  503  502  0.13616622915E+02  0.24091156040E+02 -0.12011373072E+03  0.12326031205E+03  0.00000000000E+00 0.  1.
         21    1    1    2  504  503 -0.13616622915E+02 -0.24091156040E+02 -0.18496927889E+00  0.27673641477E+02  0.00000000000E+00 0. -1.
</event>
<event>
 4    1  0.1551744E+006  0.3052771E+02  0.7546771E-02  0.1415065E+00
         21   -1    0    0  503  501  0.00000000000E+00  0.00000000000E+00  0.26782279981E+03  0.26782279981E+03  0.00000000000E+00 0.  1.
         21   -1    0    0  504  502 -0.00000000000E+00 -0.00000000000E+00 -0.28463628440E+02  0.28463628440E+02  0.00000000000E+00 0.  1.
         21    1    1    2  503  502 -0.17204005792E+02 -0.25218314303E+02  0.25847242309E+03  0.26026896605E+03  0.00000000000E+00 0.  1.
         21    1    1    2  504  501  0.17204005792E+02  0.25218314303E+02 -0.19113251723E+02  0.36017462196E+02  0.00000000000E+00 0.  1.
</event>
<event>
 4    1  0.1551744E+006  0.3241747E+02  0.7546771E-02  0.1399689E+00
         21   -1    0    0  504  501  0.00000000000E+00  0.00000000000E+00  0.25655035595E+03  0.25655035595E+03  0.00000000000E+00 0. -1.
         21   -1    0    0  503  502 -0.00000000000E+00 -0.00000000000E+00 -0.33213645202E+02  0.33213645202E+02  0.00000000000E+00 0. -1.
         21    1    1    2  503  501  0.27519129159E+02 -0.17134466098E+02 -0.23985606373E+02  0.40326191380E+02  0.00000000000E+00 0. -1.
         21    1    1    2  504  502 -0.27519129159E+02  0.17134466098E+02  0.24732231712E+03  0.24943780977E+03  0.00000000000E+00 0. -1.
</event>
<event>
 4    1  0.1551744E+006  0.2257775E+02  0.7546771E-02  0.1497870E+00
         21   -1    0    0  503  501  0.00000000000E+00  0.00000000000E+00  0.45598444635E+02  0.45598444635E+02  0.00000000000E+00 0. -1.
         21   -1    0    0  501  502 -0.00000000000E+00 -0.00000000000E+00 -0.15121162590E+02  0.15121162590E+02  0.00000000000E+00 0. -1.
         21    1    1    2  503  504 -0.14477551352E+02  0.17324988791E+02  0.30739718741E+02  0.38140333481E+02  0.00000000000E+00 0. -1.
         21    1    1    2  504  502  0.14477551352E+02 -0.17324988791E+02 -0.26243669715E+00  0.22579273744E+02  0.00000000000E+00 0. -1.
</event>
<event>
 4    1  0.1551744E+006  0.2930520E+02  0.7546771E-02  0.1425732E+00
         21   -1    0    0  503  501  0.00000000000E+00  0.00000000000E+00  0.92886893399E+03  0.92886893399E+03  0.00000000000E+00 0.  1.
         21   -1    0    0  504  502 -0.00000000000E+00 -0.00000000000E+00 -0.13296157039E+01  0.13296157039E+01  0.00000000000E+00 0.  1.
         21    1    1    2  503  502 -0.18096521000E+02 -0.23050172236E+02  0.72047818188E+03  0.72107392483E+03  0.00000000000E+00 0.  1.
         21    1    1    2  504  501  0.18096521000E+02  0.23050172236E+02  0.20706113641E+03  0.20912462486E+03  0.00000000000E+00 0.  1.
</event>
<event>
 4    1  0.1551744E+006  0.2681911E+02  0.7546771E-02  0.1449434E+00
         21   -1    0    0  504  501  0.00000000000E+00  0.00000000000E+00  0.90181291277E+03  0.90181291277E+03  0.00000000000E+00 0. -1.
         21   -1    0    0  503  502 -0.00000000000E+00 -0.00000000000E+00 -0.35397117827E+01  0.35397117827E+01  0.00000000000E+00 0. -1.
         21    1    1    2  503  501 -0.65282566357E+01  0.26012431814E+02  0.84756314117E+03  0.84798734838E+03  0.00000000000E+00 0. -1.
         21    1    1    2  504  502  0.65282566357E+01 -0.26012431814E+02  0.50710059813E+02  0.57365276168E+02  0.00000000000E+00 0. -1.
</event>
<event>
 4    1  0.1551744E+006  0.2944826E+02  0.7546771E-02  0.1424452E+00
         21   -1    0    0  503  501  0.00000000000E+00  0.00000000000E+00  0.58087454725E+01  0.58087454725E+01  0.00000000000E+00 0. -1.
         21   -1    0    0  504  502 -0.00000000000E+00 -0.00000000000E+00 -0.22720150476E+03  0.22720150476E+03  0.00000000000E+00 0.  1.
         21    1    1    2  503  502 -0.14946119569E+01 -0.29410309898E+02 -0.42472849427E+02  0.51683102961E+02  0.00000000000E+00 0. -1.
         21    1    1    2  504  501  0.14946119569E+01  0.29410309898E+02 -0.17891990986E+03  0.18132714727E+03  0.00000000000E+00 0.  1.
</event>
<event>
 4    1  0.1551744E+006  0.2013928E+02  0.7546771E-02  0.1531917E+00
         21   -1    0    0  502  501  0.00000000000E+00  0.00000000000E+00  0.24615574852E+02  0.24615574852E+02  0.00000000000E+00 0. -1.
         21   -1    0    0  503  502 -0.00000000000E+00 -0.00000000000E+00 -0.44035261242E+03  0.44035261242E+03  0.00000000000E+00 0. -1.
         21    1    1    2  503  504  0.10054943398E+02  0.17449600686E+02 -0.43596163498E+03  0.43642655468E+03  0.00000000000E+00 0. -1.
         21    1    1    2  504  501 -0.10054943398E+02 -0.17449600686E+02  0.20224597413E+02  0.28541632598E+02  0.00000000000E+00 0. -1.
</event>
<event>
 4    1  0.1551744E+006  0.2868176E+02  0.7546771E-02  0.1431409E+00
         21   -1    0    0  504  501  0.00000000000E+00  0.00000000000E+00  0.14700105028E+02  0.14700105028E+02  0.00000000000E+00 0.  1.
         21   -1    0    0  503  502 -0.00000000000E+00 -0.00000000000E+00 -0.56176313811E+02  0.56176313811E+02  0.00000000000E+00 0.  1.
         21    1    1    2  503  501 -0.25280366936E+02  0.13547925202E+02 -0.18547827332E+02  0.34156480036E+02  0.00000000000E+00 0.  1.
         21    1    1    2  504  502  0.25280366936E+02 -0.13547925202E+02 -0.22928381451E+02  0.36719938803E+02  0.00000000000E+00 0.  1.
</event>
<event>
 4    1  0.1551744E+006  0.2023013E+02  0.7546771E-02  0.1530546E+00
         21   -1    0    0  503  501  0.00000000000E+00  0.00000000000E+00  0.80976164829E+01  0.80976164829E+01  0.00000000000E+00 0. -1.
         21   -1    0    0  504  502 -0.00000000000E+00 -0.00000000000E+00 -0.48363448926E+03  0.48363448926E+03  0.00000000000E+00 0. -1.
         21    1    1    2  503  502 -0.32688631841E+00 -0.20227490194E+02 -0.51034795087E+01  0.20863933410E+02  0.00000000000E+00 0. -1.
         21    1    1    2  504  501  0.32688631841E+00  0.20227490194E+02 -0.47043339327E+03  0.47086817233E+03  0.00000000000E+00 0. -1.
</event>
<event>
 4    1  0.1551744E+006  0.2329456E+02  0.7546771E-02  0.1488832E+00
         21   -1    0    0  503  501  0.00000000000E+00  0.00000000000E+00  0.84722724831E+01  0.84722724831E+01  0.00000000000E+00 0. -1.
         21   -1    0    0  504  502 -0.00000000000E+00 -0.00000000000E+00 -0.88093733157E+03  0.88093733157E+03  0.00000000000E+00 0. -1.
         21    1    1    2  503  502  0.42719482779E+01  0.22899500905E+02 -0.79988895477E+01  0.24629634950E+02  0.00000000000E+00 0. -1.
         21    1    1    2  504  501 -0.42719482779E+01 -0.22899500905E+02 -0.86446616954E+03  0.86477996910E+03  0.00000000000E+00 0. -1.
</event>
<event>
 4    1  0.1551744E+006  0.2451950E+02  0.7546771E-02  0.1474251E+00
         21   -1    0    0  504  501  0.00000000000E+00  0.00000000000E+00  0.77006304949E+01  0.77006304949E+01  0.00000000000E+00 0. -1.
         21   -1    0    0  503  502 -0.00000000000E+00 -0.00000000000E+00 -0.95088310306E+02  0.95088310306E+02  0.00000000000E+00 0.  1.
         21    1    1    2  503  501  0.24446282877E+02  0.18934277863E+01 -0.65434959104E+02  0.69878034375E+02  0.00000000000E+00 0.  1.
         21    1    1    2  504  502 -0.24446282877E+02 -0.18934277863E+01 -0.21952720708E+02  0.32910906426E+02  0.00000000000E+00 0. -1.
</event>
<event>
 4    1  0.1551744E+006  0.3165550E+02  0.7546771E-02  0.1405736E+00
         21   -1    0    0  504  501  0.00000000000E+00  0.00000000000E+00  0.55232084357E+03  0.55232084357E+03  0.00000000000E+00 0. -1.
         21   -1    0    0  503  502 -0.00000000000E+00 -0.00000000000E+00 -0.35045248187E+01  0.35045248187E+01  0.00000000000E+00 0.  1.
         21    1    1    2  503  501 -0.11105058018E+02 -0.29643692092E+02  0.81403773273E+02  0.87342115257E+02  0.00000000000E+00 0.  1.
         21    1    1    2  504  502  0.11105058018E+02  0.29643692092E+02  0.46741254548E+03  0.46848325313E+03  0.00000000000E+00 0. -1.
</event>
<event>
 4    1  0.1551744E+006  0.2892461E+02  0.7546771E-02  0.1429177E+00
         21   -1    0    0  504  501  0.00000000000E+00  0.00000000000E+00  0.40282431064E+02  0.40282431064E+02  0.00000000000E+00 0. -1.
         21   -1    0    0  501  502 -0.00000000000E+00 -0.00000000000E+00 -0.95121353059E+02  0.95121353059E+02  0.00000000000E+00 0.  1.
         21    1    1    2  503  502 -0.25937653201E+02  0.12801218491E+02 -0.87275590483E+02  0.91943796651E+02  0.00000000000E+00 0.  1.
         21    1    1    2  504  503  0.25937653201E+02 -0.12801218491E+02  0.32436668488E+02  0.43459987472E+02  0.00000000000E+00 0. -1.
</event>
<event>
 4    1  0.1551744E+006  0.5439010E+02  0.7546771E-02  0.1280184E+00
         21   -1    0    0  504  501  0.00000000000E+00  0.00000000000E+00  0.31452943785E+02  0.31452943785E+02  0.00000000000E+00 0. -1.
         21   -1    0    0  503  502 -0.00000000000E+00 -0.00000000000E+00 -0.23378011090E+03  0.23378011090E+03  0.00000000000E+00 0.  1.
         21    1    1    2  503  501 -0.36459119067E+02  0.40361071437E+02 -0.20368916665E+03  0.21082589988E+03  0.00000000000E+00 0.  1.
         21    1    1    2  504  502  0.36459119067E+02 -0.40361071437E+02  0.13619995379E+01  0.54407154800E+02  0.00000000000E+00 0. -1.
</event>
<event>
 4    1  0.1551744E+006  0.4330210E+02  0.7546771E-02  0.1330151E+00
         21   -1    0    0  502  501  0.00000000000E+00  0.00000000000E+00  0.19219976564E+03  0.19219976564E+03  0.00000000000E+00 0.  1.
         21   -1    0    0  503  502 -0.00000000000E+00 -0.00000000000E+00 -0.14609778473E+03  0.14609778473E+03  0.00000000000E+00 0. -1.
         21    1    1    2  503  504 -0.43218166684E+02  0.26947383837E+01 -0.14035266683E+03  0.14688070886E+03  0.00000000000E+00 0. -1.
         21    1    1    2  504  501  0.43218166684E+02 -0.26947383837E+01  0.18645464775E+03  0.19141684151E+03  0.00000000000E+00 0.  1.
</event>
<event>
 4    1  0.1551744E+006  0.2170484E+02  0.7546771E-02  0.1509435E+00
         21   -1    0    0  503  501  0.00000000000E+00  0.00000000000E+00  0.46872701306E+02  0.46872701306E+02  0.00000000000E+00 0. -1.
         21   -1    0    0  504  502 -0.00000000000E+00 -0.00000000000E+00 -0.20662263597E+03  0.20662263597E+03  0.00000000000E+00 0. -1.
         21    1    1    2  503  502  0.19692630635E+02 -0.91269156804E+01 -0.20350154958E+03  0.20465576213E+03  0.00000000000E+00 0. -1.
         21    1    1    2  504  501 -0.19692630635E+02  0.91269156804E+01  0.43751614925E+02  0.48839575138E+02  0.00000000000E+00 0. -1.
</event>
<event>
 4    1  0.1551744E+006  0.3569765E+02  0.7546771E-02  0.1375724E+00
         21   -1    0    0  502  501  0.00000000000E+00  0.00000000000E+00  0.97012324942E+01  0.97012324942E+01  0.00000000000E+00 0.  1.
         21   -1    0    0  504  502 -0.00000000000E+00 -0.00000000000E+00 -0.24556491438E+03  0.24556491438E+03  0.00000000000E+00 0.  1.
         21    1    1    2  503  501 -0.32491090084E+02  0.14786853877E+02 -0.30889869063E+02  0.47207054485E+02  0.00000000000E+00 0.  1.
         21    1    1    2  504  503  0.32491090084E+02 -0.14786853877E+02 -0.20497381282E+03  0.20805909239E+03  0.00000000000E+00 0.  1.
</event>
<event>
 4    1  0.1551744E+006  0.3146535E+02  0.7546771E-02  0.1407276E+00
         21   -1    0    0  504  501  0.00000000000E+00  0.00000000000E+00  0.18605009485E+03  0.18605009485E+03  0.00000000000E+00 0.  1.
         21   -1    0    0  503  502 -0.00000000000E+00 -0.00000000000E+00 -0.11938826869E+02  0.11938826869E+02  0.00000000000E+00 0.  1.
         21    1    1    2  503  501 -0.31237188801E+02 -0.37823903401E+01  0.13355062291E+02  0.34182248751E+02  0.00000000000E+00 0.  1.
         21    1    1    2  504  502  0.31237188801E+02  0.37823903401E+01  0.16075620569E+03  0.16380667296E+03  0.00000000000E+00 0.  1.
</event>
<event>
 4    1  0.1551744E+006  0.2701572E+02  0.7546771E-02  0.1447450E+00
         21   -1    0    0  502  501  0.00000000000E+00  0.00000000000E+00  0.87642223382E+02  0.87642223382E+02  0.00000000000E+00 0.  1.
         21   -1    0    0  504  502 -0.00000000000E+00 -0.00000000000E+00 -0.12496610474E+02  0.12496610474E+02  0.00000000000E+00 0.  1.
         21    1    1    2  503  501 -0.25537058047E+02 -0.88152067406E+01  0.66492455293E+02  0.71771134967E+02  0.00000000000E+00 0.  1.
         21    1    1    2  504  503  0.25537058047E+02  0.88152067406E+01  0.86531576143E+01  0.28367698889E+02  0.00000000000E+00 0.  1.
</event>
<event>
 4    1  0.1551744E+006  0.2079268E+02  0.7546771E-02  0.1522246E+00
         21   -1    0    0  502  501  0.00000000000E+00  0.00000000000E+00  0.16865062897E+02  0.16865062897E+02  0.00000000000E+00 0. -1.
         21   -1    0    0  504  502 -0.00000000000E+00 -0.00000000000E+00 -0.11145595042E+03  0.11145595042E+03  0.00000000000E+00 0.  1.
         21    1    1    2  503  501 -0.82296098912E+01  0.19094740379E+02  0.90051350386E+01  0.22658950685E+02  0.00000000000E+00 0. -1.
         21    1    1    2  504  503  0.82296098912E+01 -0.19094740379E+02 -0.10359602256E+03  0.10566206263E+03  0.00000000000E+00 0.  1.
</event>
<event>
 4    1  0.1551744E+006  0.3190229E+02  0.7546771E-02  0.1403755E+00
         21   -1    0    0  503  501  0.00000000000E+00  0.00000000000E+00  0.55051977071E+02  0.55051977071E+02  0.00000000000E+00 0. -1.
         21   -1    0    0  504  502 -0.00000000000E+00 -0.00000000000E+00 -0.18942457735E+02  0.18942457735E+02  0.00000000000E+00 0. -1.
         21    1    1    2  503  502 -0.66908025111E+01  0.31192772618E+02  0.23790484440E+02  0.39796269319E+02  0.00000000000E+00 0. -1.
         21    1    1    2  504  501  0.66908025111E+01 -0.31192772618E+02  0.12319034896E+02  0.34198165486E+02  0.00000000000E+00 0. -1.
</event>
<event>
 4    1  0.1551744E+006  0.2623583E+02  0.7546771E-02  0.1455439E+00
         21   -1    0    0  504  501  0.00000000000E+00  0.00000000000E+00  0.32449701019E+02  0.32449701019E+02  0.00000000000E+00 0.  1.
         21   -1    0    0  503  502 -0.00000000000E+00 -0.00000000000E+00 -0.51819896012E+02  0.51819896012E+02  0.00000000000E+00 0.  1.
         21    1    1    2  503  501  0.18170670234E+02  0.18924727132E+02  0.22697402659E+02  0.34691362632E+02  0.00000000000E+00 0.  1.
         21    1    1    2  504  502 -0.18170670234E+02 -0.18924727132E+02 -0.42067597652E+02  0.49578234398E+02  0.00000000000E+00 0.  1.
</event>
<event>
 4    1  0.1551744E+006  0.2600575E+02  0.7546771E-02  0.1457860E+00
         21   -1    0    0  503  501  0.00000000000E+00  0.00000000000E+00  0.10447685454E+02  0.10447685454E+02  0.00000000000E+00 0. -1.
         21   -1    0    0  501  502 -0.00000000000E+00 -0.00000000000E+00 -0.18979926989E+03  0.18979926989E+03  0.00000000000E+00 0.  1.
         21    1    1    2  503  504 -0.19111564934E+02  0.17636524348E+02 -0.84001138044E+01  0.27328754403E+02  0.00000000000E+00 0. -1.
         21    1    1    2  504  502  0.19111564934E+02 -0.17636524348E+02 -0.17095147063E+03  0.17291820094E+03  0.00000000000E+00 0.  1.
</event>
<event>
 4    1  0.1551744E+006  0.2799427E+02  0.7546771E-02  0.1437868E+00
         21   -1    0    0  504  501  0.00000000000E+00  0.00000000000E+00  0.22528863508E+03  0.22528863508E+03  0.00000000000E+00 0.  1.
         21   -1    0    0  501  502 -0.00000000000E+00 -0.00000000000E+00 -0.40646554886E+03  0.40646554886E+03  0.00000000000E+00 0.  1.
         21    1    1    2  503  502 -0.23559831245E+02 -0.15119964294E+02 -0.40511099750E+03  0.40607708537E+03  0.00000000000E+00 0.  1.
         21    1    1    2  504  503  0.23559831245E+02  0.15119964294E+02  0.22393408372E+03  0.22567709857E+03  0.00000000000E+00 0.  1.
</event>
<event>
 4    1  0.1551744E+006  0.2543723E+02  0.7546771E-02  0.1463971E+00
         21   -1    0    0  504  501  0.00000000000E+00  0.00000000000E+00  0.22193605707E+02  0.22193605707E+02  0.00000000000E+00 0. -1.
         21   -1    0    0  503  502 -0.00000000000E+00 -0.00000000000E+00 -0.36393774088E+02  0.36393774088E+02  0.00000000000E+00 0.  1.
         21    1    1    2  503  501 -0.19440528703E+02  0.16404838062E+02 -0.20164661110E+02  0.32460228369E+02  0.00000000000E+00 0.  1.
         21    1    1    2  504  502  0.19440528703E+02 -0.16404838062E+02  0.59644927284E+01  0.26127151425E+02  0.00000000000E+00 0. -1.
</event>
<event>
 4    1  0.1551744E+006  0.3530400E+02  0.7546771E-02  0.1378439E+00
         21   -1    0    0  504  501  0.00000000000E+00  0.00000000000E+00  0.98215120358E+02  0.98215120358E+02  0.00000000000E+00 0. -1.
         21   -1    0    0  503  502 -0.00000000000E+00 -0.00000000000E+00 -0.26710396562E+02  0.26710396562E+02  0.00000000000E+00 0. -1.
         21    1    1    2  503  501  0.34885121156E+02  0.54222428322E+01  0.81006426174E+02  0.88365227759E+02  0.00000000000E+00 0. -1.
         21    1    1    2  504  502 -0.34885121156E+02 -0.54222428322E+01 -0.95017023779E+01  0.36560289160E+02  0.00000000000E+00 0. -1.
</event>
<event>
 4    1  0.1551744E+006  0.2272369E+02  0.7546771E-02  0.1495997E+00
         21   -1    0    0  503  501  0.00000000000E+00  0.00000000000E+00  0.15148533282E+03  0.15148533282E+03  0.00000000000E+00 0. -1.
         21   -1    0    0  501  502 -0.00000000000E+00 -0.00000000000E+00 -0.19558662026E+02  0.19558662026E+02  0.00000000000E+00 0. -1.
         21    1    1    2  503  504 -0.82159952345E+01 -0.21186394446E+02  0.14367643112E+03  0.14546230696E+03  0.00000000000E+00 0. -1.
         21    1    1    2  504  502  0.82159952345E+01  0.21186394446E+02 -0.11749760326E+02  0.25581687885E+02  0.00000000000E+00 0. -1.
</event>
<event>
 4    1  0.1551744E+006  0.2266531E+02  0.7546771E-02  0.1496744E+00
         21   -1    0    0  502  501  0.00000000000E+00  0.00000000000E+00  0.10135762751E+01  0.10135762751E+01  0.00000000000E+00 0. -1.
         21   -1    0    0  503  502 -0.00000000000E+00 -0.00000000000E+00 -0.51915080310E+03  0.51915080310E+03  0.00000000000E+00 0. -1.
         21    1    1    2  503  504 -0.10913668257E+02 -0.19864744430E+02 -0.29912668976E+03  0.29998415417E+03  0.00000000000E+00 0. -1.
         21    1    1    2  504  501  0.10913668257E+02  0.19864744430E+02 -0.21901053706E+03  0.22018022521E+03  0.00000000000E+00 0. -1.
</event>
<event>
 4    1  0.1551744E+006  0.2123714E+02  0.7546771E-02  0.1515906E+00
         21   -1    0    0  504  501  0.00000000000E+00  0.00000000000E+00  0.15779452049E+02  0.15779452049E+02  0.00000000000E+00 0.  1.
         21   -1    0    0  501  502 -0.00000000000E+00 -0.00000000000E+00 -0.36114999621E+02  0.36114999621E+02  0.00000000000E+00 0. -1.
         21    1    1    2  503  502 -0.15530796731E+02  0.14484839228E+02 -0.22017726998E+02  0.30590791371E+02  0.00000000000E+00 0. -1.
         21    1    1    2  504  503  0.15530796731E+02 -0.14484839228E+02  0.16821794255E+01  0.21303660300E+02  0.00000000000E+00 0.  1.
</event>
<event>
 4    1  0.1551744E+006  0.2668244E+02  0.7546771E-02  0.1450824E+00
         21   -1    0    0  504  501  0.00000000000E+00  0.00000000000E+00  0.26499654277E+02  0.26499654277E+02  0.00000000000E+00 0. -1.
         21   -1    0    0  503  502 -0.00000000000E+00 -0.00000000000E+00 -0.33504217610E+02  0.33504217610E+02  0.00000000000E+00 0. -1.
         21    1    1    2  503  501 -0.26058470910E+02  0.57366176737E+01 -0.16856216803E+02  0.31560810088E+02  0.00000000000E+00 0. -1.
         21    1    1    2  504  502  0.26058470910E+02 -0.57366176737E+01  0.98516534697E+01  0.28443061800E+02  0.00000000000E+00 0. -1.
</event>
<event>
 4    1  0.1551744E+006  0.3800928E+02  0.7546771E-02  0.1360563E+00
         21   -1    0    0  504  501  0.00000000000E+00  0.00000000000E+00  0.12331976895E+03  0.12331976895E+03  0.00000000000E+00 0.  1.
         21   -1    0    0  501  502 -0.00000000000E+00 -0.00000000000E+00 -0.47126994361E+02  0.47126994361E+02  0.00000000000E+00 0.  1.
         21    1    1    2  503  502  0.27282345727E+02 -0.26464669949E+02 -0.35778764503E+02  0.52199857598E+02  0.00000000000E+00 0.  1.
         21    1    1    2  504  503 -0.27282345727E+02  0.26464669949E+02  0.11197153909E+03  0.11824690571E+03  0.00000000000E+00 0.  1.
</event>
<event>
 4    1  0.1551744E+006  0.2264442E+02  0.7546771E-02  0.1497012E+00
         21   -1    0    0  503  501  0.00000000000E+00  0.00000000000E+00  0.76207101815E+02  0.76207101815E+02  0.00000000000E+00 0. -1.
         21   -1    0    0  504  502 -0.00000000000E+00 -0.00000000000E+00 -0.69037367188E+01  0.69037367188E+01  0.00000000000E+00 0. -1.
         21    1    1    2  503  502  0.19646532599E+02 -0.11259818419E+02  0.41269748088E+02  0.47074004092E+02  0.00000000000E+00 0. -1.
         21    1    1    2  504  501 -0.19646532599E+02  0.11259818419E+02  0.28033617008E+02  0.36036834442E+02  0.00000000000E+00 0. -1.
</event>
<event>
 4    1  0.1551744E+006  0.2779700E+02  0.7546771E-02  0.1439762E+00
         21   -1    0    0  504  501  0.00000000000E+00  0.00000000000E+00  0.13613527899E+03  0.13613527899E+03  0.00000000000E+00 0. -1.
         21   -1    0    0  503  502 -0.00000000000E+00 -0.00000000000E+00 -0.61453337898E+01  0.61453337898E+01  0.00000000000E+00 0. -1.
         21    1    1    2  503  501  0.26658885211E+02  0.78725572124E+01  0.84659686160E+02  0.89106317276E+02  0.00000000000E+00 0. -1.
         21    1    1    2  504  502 -0.26658885211E+02 -0.78725572124E+01  0.45330259044E+02  0.53174295508E+02  0.00000000000E+00 0. -1.
</event>
<event>
 4    1  0.1551744E+006  0.2123656E+02  0.7546771E-02  0.1515914E+00
         21   -1    0    0  502  501  0.00000000000E+00  0.00000000000E+00  0.18392125585E+02  0.18392125585E+02  0.00000000000E+00 0. -1.
         21   -1    0    0  503  502 -0.00000000000E+00 -0.00000000000E+00 -0.60308782880E+02  0.60308782880E+02  0.00000000000E+00 0.  1.
         21    1    1    2  503  504  0.12240296102E+02  0.17354153650E+02 -0.51271227007E+02  0.55495317067E+02  0.00000000000E+00 0.  1.
         21    1    1    2  504  501 -0.12240296102E+02 -0.17354153650E+02  0.93545697130E+01  0.23205591397E+02  0.00000000000E+00 0. -1.
</event>
<event>
 4    1  0.1551744E+006  0.2411399E+02  0.7546771E-02  0.1478964E+00
         21   -1    0    0  503  501  0.00000000000E+00  0.00000000000E+00  0.18244953677E+03  0.18244953677E+03  0.00000000000E+00 0.  1.
         21   -1    0    0  504  502 -0.00000000000E+00 -0.00000000000E+00 -0.38234752115E+01  0.38234752115E+01  0.00000000000E+00 0.  1.
         21    1    1    2  503  502  0.55888819259E+01 -0.23457388126E+02  0.51316152737E+02  0.56699490215E+02  0.00000000000E+00 0.  1.
         21    1    1    2  504  501 -0.55888819259E+01  0.23457388126E+02  0.12730990882E+03  0.12957352177E+03  0.00000000000E+00 0.  1.
</event>
<event>
 4    1  0.1551744E+006  0.2952286E+02  0.7546771E-02  0.1423789E+00
         21   -1    0    0  504  501  0.00000000000E+00  0.00000000000E+00  0.26247093387E+02  0.26247093387E+02  0.00000000000E+00 0. -1.
         21   -1    0    0  503  502 -0.00000000000E+00 -0.00000000000E+00 -0.50227395898E+02  0.50227395898E+02  0.00000000000E+00 0. -1.
         21    1    1    2  503  501  0.12301952235E+02 -0.26837681173E+02 -0.34248620241E+02  0.45216890073E+02  0.00000000000E+00 0. -1.
         21    1    1    2  504  502 -0.12301952235E+02  0.26837681173E+02  0.10268317729E+02  0.31257599212E+02  0.00000000000E+00 0. -1.
</event>
<event>
 4    1  0.1551744E+006  0.2237011E+02  0.7546771E-02  0.1500563E+00
         21   -1    0    0  504  501  0.00000000000E+00  0.00000000000E+00  0.23084248427E+03  0.23084248427E+03  0.00000000000E+00 0. -1.
         21   -1    0    0  503  502 -0.00000000000E+00 -0.00000000000E+00 -0.31203870036E+01  0.31203870036E+01  0.00000000000E+00 0. -1.
         21    1    1    2  503  501  0.21230821309E+02 -0.70479669630E+01  0.49226639310E+02  0.54071097913E+02  0.00000000000E+00 0. -1.
         21    1    1    2  504  502 -0.21230821309E+02  0.70479669630E+01  0.17849545795E+03  0.17989177336E+03  0.00000000000E+00 0. -1.
</event>
<event>
 4    1  0.1551744E+006  0.2239797E+02  0.7546771E-02  0.1500199E+00
         21   -1    0    0  504  501  0.00000000000E+00  0.00000000000E+00  0.22686993615E+03  0.22686993615E+03  0.00000000000E+00 0. -1.
         21   -1    0    0  503  502 -0.00000000000E+00 -0.00000000000E+00 -0.25781503776E+01  0.25781503776E+01  0.00000000000E+00 0. -1.
         21    1    1    2  503  501 -0.21741270419E+02  0.53838730596E+01  0.15542388895E+03  0.15702946916E+03  0.00000000000E+00 0. -1.
         21    1    1    2  504  502  0.21741270419E+02 -0.53838730596E+01  0.68867896821E+02  0.72418617365E+02  0.00000000000E+00 0. -1.
</event>
<event>
 4    1  0.1551744E+006  0.2095057E+02  0.7546771E-02  0.1519972E+00
         21   -1    0    0  503  501  0.00000000000E+00  0.00000000000E+00  0.16964306102E+03  0.16964306102E+03  0.00000000000E+00 0.  1.
         21   -1    0    0  504  502 -0.00000000000E+00 -0.00000000000E+00 -0.10883902636E+03  0.10883902636E+03  0.00000000000E+00 0.  1.
         21    1    1    2  503  502  0.65895475529E+01 -0.19887284182E+02 -0.10717403341E+03  0.10920256245E+03  0.00000000000E+00 0.  1.
         21    1    1    2  504  501 -0.65895475529E+01  0.19887284182E+02  0.16797806807E+03  0.16927952493E+03  0.00000000000E+00 0.  1.
</event>
<event>
 4    1  0.1551744E+006  0.2469528E+02  0.7546771E-02  0.1472241E+00
         21   -1    0    0  504  501  0.00000000000E+00  0.00000000000E+00  0.36756304198E+03  0.36756304198E+03  0.00000000000E+00 0. -1.
         21   -1    0    0  503  502 -0.00000000000E+00 -0.00000000000E+00 -0.41399569739E+01  0.41399569739E+01  0.00000000000E+00 0.  1.
         21    1    1    2  503  501  0.21262171950E+02 -0.12560918415E+02  0.37844534422E+02  0.45189217885E+02  0.00000000000E+00 0.  1.
         21    1    1    2  504  502 -0.21262171950E+02  0.12560918415E+02  0.32557855059E+03  0.32651378107E+03  0.00000000000E+00 0. -1.
</event>
<event>
 4    1  0.1551744E+006  0.2121070E+02  0.7546771E-02  0.1516278E+00
         21   -1    0    0  504  501  0.00000000000E+00  0.00000000000E+00  0.48938896733E+03  0.48938896733E+03  0.00000000000E+00 0. -1.
         21   -1    0    0  503  502 -0.00000000000E+00 -0.00000000000E+00 -0.14269394880E+01  0.14269394880E+01  0.00000000000E+00 0. -1.
         21    1    1    2  503  501 -0.14630566708E+01  0.21160177926E+02  0.39035535869E+03  0.39093119563E+03  0.00000000000E+00 0. -1.
         21    1    1    2  504  502  0.14630566708E+01 -0.21160177926E+02  0.97606669161E+02  0.99884711189E+02  0.00000000000E+00 0. -1.
</event>
<event>
 4    1  0.1551744E+006  0.2721124E+02  0.7546771E-02  0.1445498E+00
         21   -1    0    0  502  501  0.00000000000E+00  0.00000000000E+00  0.37467869570E+03  0.37467869570E+03  0.00000000000E+00 0. -1.
         21   -1    0    0  503  502 -0.00000000000E+00 -0.00000000000E+00 -0.15785446553E+02  0.15785446553E+02  0.00000000000E+00 0. -1.
         21    1    1    2  503  504 -0.26707281908E+02  0.52127444261E+01 -0.31560908973E+01  0.27393658411E+02  0.00000000000E+00 0. -1.
         21    1    1    2  504  501  0.26707281908E+02 -0.52127444261E+01  0.36204934004E+03  0.36307048384E+03  0.00000000000E+00 0. -1.
</event>
<event>
 4    1  0.1551744E+006  0.2080598E+02  0.7546771E-02  0.1522053E+00
         21   -1    0    0  503  501  0.00000000000E+00  0.00000000000E+00  0.56478993389E+02  0.56478993389E+02  0.00000000000E+00 0. -1.
         21   -1    0    0  501  502 -0.00000000000E+00 -0.00000000000E+00 -0.81200683219E+01  0.81200683219E+01  0.00000000000E+00 0. -1.
         21    1    1    2  503  504  0.18908515192E+02 -0.86808347631E+01  0.31829189154E+02  0.38026124193E+02  0.00000000000E+00 0. -1.
         21    1    1    2  504  502 -0.18908515192E+02  0.86808347631E+01  0.16529735914E+02  0.26572937518E+02  0.00000000000E+00 0. -1.
</event>
<event>
 4    1  0.1551744E+006  0.2242046E+02  0.7546771E-02  0.1499907E+00
         21   -1    0    0  502  501  0.00000000000E+00  0.00000000000E+00  0.77840029265E+01  0.77840029265E+01  0.00000000000E+00 0.  1.
         21   -1    0    0  504  502 -0.00000000000E+00 -0.00000000000E+00 -0.66277779249E+02  0.66277779249E+02  0.00000000000E+00 0.  1.
         21    1    1    2  503  501 -0.61157848080E+01  0.21570214980E+02 -0.23316962455E+02  0.32347453319E+02  0.00000000000E+00 0.  1.
         21    1    1    2  504  503  0.61157848080E+01 -0.21570214980E+02 -0.35176813867E+02  0.41714328857E+02  0.00000000000E+00 0.  1.
</event>
<event>
 4    1  0.1551744E+006  0.1190607E+03  0.7546771E-02  0.1134350E+00
         21   -1    0    0  504  501  0.00000000000E+00  0.00000000000E+00  0.12304192235E+03  0.12304192235E+03  0.00000000000E+00 0. -1.
         21   -1    0    0  503  502 -0.00000000000E+00 -0.00000000000E+00 -0.31222334984E+03  0.31222334984E+03  0.00000000000E+00 0.  1.
         21    1    1    2  503  501  0.31468418648E+02  0.11482682010E+03 -0.26746920007E+03  0.29277163963E+03  0.00000000000E+00 0.  1.
         21    1    1    2  504  502 -0.31468418648E+02 -0.11482682010E+03  0.78287772579E+02  0.14249363256E+03  0.00000000000E+00 0. -1.
</event>
<event>
 4    1  0.1551744E+006  0.2682654E+02  0.7546771E-02  0.1449358E+00
         21   -1    0    0  503  501  0.00000000000E+00  0.00000000000E+00  0.94195496821E+02  0.94195496821E+02  0.00000000000E+00 0. -1.
         21   -1    0    0  504  502 -0.00000000000E+00 -0.00000000000E+00 -0.10969405776E+02  0.10969405776E+02  0.00000000000E+00 0. -1.
         21    1    1    2  503  502  0.25863724638E+02 -0.71225766388E+01  0.70581537493E+02  0.75507726658E+02  0.00000000000E+00 0. -1.
         21    1    1    2  504  501 -0.25863724638E+02  0.71225766388E+01  0.12644553552E+02  0.29657175939E+02  0.00000000000E+00 0. -1.
</event>
<event>
 4    1  0.1551744E+006  0.2284675E+02  0.7546771E-02  0.1494432E+00
         21   -1    0    0  502  501  0.00000000000E+00  0.00000000000E+00  0.45815472304E+03  0.45815472304E+03  0.00000000000E+00 0.  1.
         21   -1    0    0  503  502 -0.00000000000E+00 -0.00000000000E+00 -0.57792281669E+01  0.57792281669E+01  0.00000000000E+00 0.  1.
         21    1    1    2  503  504  0.22231624879E+02 -0.52658259312E+01  0.18339181447E+02  0.29296751418E+02  0.00000000000E+00 0.  1.
         21    1    1    2  504  501 -0.22231624879E+02  0.52658259312E+01  0.43403631343E+03  0.43463719979E+03  0.00000000000E+00 0.  1.
</event>
<event>
 4    1  0.1551744E+006  0.2164496E+02  0.7546771E-02  0.1510252E+00
         21   -1    0    0  502  501  0.00000000000E+00  0.00000000000E+00  0.28303259743E+03  0.28303259743E+03  0.00000000000E+00 0.  1.
         21   -1    0    0  503  502 -0.00000000000E+00 -0.00000000000E+00 -0.24913469852E+01  0.24913469852E+01  0.00000000000E+00 0. -1.
         21    1    1    2  503  504  0.18622906751E+02  0.11031391003E+02  0.57569690317E+02  0.61504255840E+02  0.00000000000E+00 0. -1.
         21    1    1    2  504  501 -0.18622906751E+02 -0.11031391003E+02  0.22297156013E+03  0.22401968858E+03  0.00000000000E+00 0.  1.
</event>
<event>
 4    1  0.1551744E+006  0.2212023E+02  0.7546771E-02  0.1503851E+00
         21   -1    0    0  503  501  0.00000000000E+00  0.00000000000E+00  0.44390853179E+01  0.44390853179E+01  0.00000000000E+00 0.  1.
         21   -1    0    0  504  502 -0.00000000000E+00 -0.00000000000E+00 -0.44121974052E+03  0.44121974052E+03  0.00000000000E+00 0. -1.
         21    1    1    2  503  502 -0.97088769330E+01  0.19875675666E+02 -0.41138913278E+03  0.41198340178E+03  0.00000000000E+00 0. -1.
         21    1    1    2  504  501  0.97088769330E+01 -0.19875675666E+02 -0.25391522425E+02  0.33675424058E+02  0.00000000000E+00 0.  1.
</event>
<event>
 4    1  0.1551744E+006  0.4047444E+02  0.7546771E-02  0.1345728E+00
         21   -1    0    0  503  501  0.00000000000E+00  0.00000000000E+00  0.37327551770E+02  0.37327551770E+02  0.00000000000E+00 0.  1.
         21   -1    0    0  504  502 -0.00000000000E+00 -0.00000000000E+00 -0.89908079903E+02  0.89908079903E+02  0.00000000000E+00 0.  1.
         21    1    1    2  503  502 -0.31442808515E+02 -0.25485879455E+02  0.19225261953E+02  0.44808380423E+02  0.00000000000E+00 0.  1.
         21    1    1    2  504  501  0.31442808515E+02  0.25485879455E+02 -0.71805790086E+02  0.82427251251E+02  0.00000000000E+00 0.  1.
</event>
<event>
 4    1  0.1551744E+006  0.2148994E+02  0.7546771E-02  0.1512383E+00
         21   -1    0    0  504  501  0.00000000000E+00  0.00000000000E+00  0.96029758101E+02  0.96029758101E+02  0.00000000000E+00 0. -1.
         21   -1    0    0  503  502 -0.00000000000E+00 -0.00000000000E+00 -0.11761725953E+02  0.11761725953E+02  0.00000000000E+00 0. -1.
         21    1    1    2  503  501  0.17354725040E+02  0.12674036675E+02  0.83571468040E+02  0.86290254126E+02  0.00000000000E+00 0. -1.
         21    1    1    2  504  502 -0.17354725040E+02 -0.12674036675E+02  0.69656410861E+00  0.21501229928E+02  0.00000000000E+00 0. -1.
</event>
<event>
 4    1  0.1551744E+006  0.2632827E+02  0.7546771E-02  0.1454475E+00
         21   -1    0    0  503  501  0.00000000000E+00  0.00000000000E+00  0.27200496684E+03  0.27200496684E+03  0.00000000000E+00 0. -1.
         21   -1    0    0  504  502 -0.00000000000E+00 -0.00000000000E+00 -0.96447156806E+01  0.96447156806E+01  0.00000000000E+00 0. -1.
         21    1    1    2  503  502 -0.19839816892E+02 -0.17307791580E+02  0.25197568234E+03  0.25334743432E+03  0.00000000000E+00 0. -1.
         21    1    1    2  504  501  0.19839816892E+02  0.17307791580E+02  0.10384568813E+02  0.28302248199E+02  0.00000000000E+00 0. -1.
</event>
<event>
 4    1  0.1551744E+006  0.2478993E+02  0.7546771E-02  0.1471167E+00
         21   -1    0    0  502  501  0.00000000000E+00  0.00000000000E+00  0.37308477071E+02  0.37308477071E+02  0.00000000000E+00 0.  1.
         21   -1    0    0  503  502 -0.00000000000E+00 -0.00000000000E+00 -0.57291021987E+02  0.57291021987E+02  0.00000000000E+00 0. -1.
         21    1    1    2  503  504 -0.24755949188E+02 -0.12974607947E+01 -0.49916512828E+02  0.55733281597E+02  0.00000000000E+00 0. -1.
         21    1    1    2  504  501  0.24755949188E+02  0.12974607947E+01  0.29933967912E+02  0.38866217460E+02  0.00000000000E+00 0.  1.
</event>
<event>
 4    1  0.1551744E+006  0.2060504E+02  0.7546771E-02  0.1524979E+00
         21   -1    0    0  502  501  0.00000000000E+00  0.00000000000E+00  0.52744031623E+02  0.52744031623E+02  0.00000000000E+00 0. -1.
         21   -1    0    0  504  502 -0.00000000000E+00 -0.00000000000E+00 -0.43970745179E+02  0.43970745179E+02  0.00000000000E+00 0.  1.
         21    1    1    2  503  501  0.11727561579E+02 -0.16942022453E+02  0.48094153978E+02  0.52322227325E+02  0.00000000000E+00 0. -1.
         21    1    1    2  504  503 -0.11727561579E+02  0.16942022453E+02 -0.39320867535E+02  0.44392549477E+02  0.00000000000E+00 0.  1.
</event>
<event>
 4    1  0.1551744E+006  0.2036996E+02  0.7546771E-02  0.1528453E+00
         21   -1    0    0  502  501  0.00000000000E+00  0.00000000000E+00  0.55864870194E+02  0.55864870194E+02  0.00000000000E+00 0.  1.
         21   -1    0    0  503  502 -0.00000000000E+00 -0.00000000000E+00 -0.10050592035E+02  0.10050592035E+02  0.00000000000E+00 0.  1.
         21    1    1    2  503  504 -0.59006408271E+01 -0.19496610821E+02  0.60699486869E+01  0.21255109332E+02  0.00000000000E+00 0.  1.
         21    1    1    2  504  501  0.59006408271E+01  0.19496610821E+02  0.39744329472E+02  0.44660352897E+02  0.00000000000E+00 0.  1.
</event>
<event>
 4    1  0.1551744E+006  0.3728166E+02  0.7546771E-02  0.1365196E+00
         21   -1    0    0  504  501  0.00000000000E+00  0.00000000000E+00  0.30454352672E+03  0.30454352672E+03  0.00000000000E+00 0.  1.
         21   -1    0    0  503  502 -0.00000000000E+00 -0.00000000000E+00 -0.88365152367E+01  0.88365152367E+01  0.00000000000E+00 0.  1.
         21    1    1    2  503  501  0.79856272948E+01 -0.36416367743E+02  0.25680797902E+03  0.25950001959E+03  0.00000000000E+00 0.  1.
         21    1    1    2  504  502 -0.79856272948E+01  0.36416367743E+02  0.38899032465E+02  0.53880022361E+02  0.00000000000E+00 0.  1.
</event>
<event>
 4    1  0.1551744E+006  0.2266320E+02  0.7546771E-02  0.1496771E+00
         21   -1    0    0  503  501  0.00000000000E+00  0.00000000000E+00  0.47265728492E+02  0.47265728492E+02  0.00000000000E+00 0. -1.
         21   -1    0    0  501  502 -0.00000000000E+00 -0.00000000000E+00 -0.20435819258E+02  0.20435819258E+02  0.00000000000E+00 0. -1.
         21    1    1    2  503  504  0.22031567025E+02 -0.53132390103E+01  0.36578740241E+02  0.43030508851E+02  0.00000000000E+00 0. -1.
         21    1    1    2  504  502 -0.22031567025E+02  0.53132390103E+01 -0.97488310068E+01  0.24671038899E+02  0.00000000000E+00 0. -1.
</event>
<event>
 4    1  0.1551744E+006  0.2135998E+02  0.7546771E-02  0.1514187E+00
         21   -1    0    0  503  501  0.00000000000E+00  0.00000000000E+00  0.40839426124E+03  0.40839426124E+03  0.00000000000E+00 0. -1.
         21   -1    0    0  504  502 -0.00000000000E+00 -0.00000000000E+00 -0.12338199806E+01  0.12338199806E+01  0.00000000000E+00 0. -1.
         21    1    1    2  503  502  0.34515292561E+01 -0.21079268637E+02  0.14060591587E+03  0.14221909927E+03  0.00000000000E+00 0. -1.
         21    1    1    2  504  501 -0.34515292561E+01  0.21079268637E+02  0.26655452539E+03  0.26740898195E+03  0.00000000000E+00 0. -1.
</event>
<event>
 4    1  0.1551744E+006  0.3341798E+02  0.7546771E-02  0.1392040E+00
         21   -1    0    0  503  501  0.00000000000E+00  0.00000000000E+00  0.16194425618E+03  0.16194425618E+03  0.00000000000E+00 0. -1.
         21   -1    0    0  504  502 -0.00000000000E+00 -0.00000000000E+00 -0.33653444590E+02  0.33653444590E+02  0.00000000000E+00 0. -1.
         21    1    1    2  503  502 -0.31761753098E+02  0.10390024822E+02 -0.23059638508E+02  0.40601828823E+02  0.00000000000E+00 0. -1.
         21    1    1    2  504  501  0.31761753098E+02 -0.10390024822E+02  0.15135045010E+03  0.15499587194E+03  0.00000000000E+00 0. -1.
</event>
<event>
 4    1  0.1551744E+006  0.3000301E+02  0.7546771E-02  0.1419570E+00
         21   -1    0    0  502  501  0.00000000000E+00  0.00000000000E+00  0.76445032499E+02  0.76445032499E+02  0.00000000000E+00 0.  1.
         21   -1    0    0  503  502 -0.00000000000E+00 -0.00000000000E+00 -0.53703423832E+03  0.53703423832E+03  0.00000000000E+00 0. -1.
         21    1    1    2  503  504 -0.27472103518E+02  0.12060855785E+02 -0.53365266453E+03  0.53449541352E+03  0.00000000000E+00 0. -1.
         21    1    1    2  504  501  0.27472103518E+02 -0.12060855785E+02  0.73063458713E+02  0.78983857294E+02  0.00000000000E+00 0.  1.
</event>
<event>
 4    1  0.1551744E+006  0.3731413E+02  0.7546771E-02  0.1364987E+00
         21   -1    0    0  504  501  0.00000000000E+00  0.00000000000E+00  0.10487846093E+02  0.10487846093E+02  0.00000000000E+00 0.  1.
         21   -1    0    0  503  502 -0.00000000000E+00 -0.00000000000E+00 -0.13456027780E+03  0.13456027780E+03  0.00000000000E+00 0.  1.
         21    1    1    2  503  501  0.18388417036E+02 -0.32468608261E+02 -0.70429787839E+02  0.79703823111E+02  0.00000000000E+00 0.  1.
         21    1    1    2  504  502 -0.18388417036E+02  0.32468608261E+02 -0.53642643871E+02  0.65344300784E+02  0.00000000000E+00 0.  1.
</event>
<event>
 4    1  0.1551744E+006  0.3928863E+02  0.7546771E-02  0.1352706E+00
         21   -1    0    0  503  501  0.00000000000E+00  0.00000000000E+00  0.83240866449E+01  0.83240866449E+01  0.00000000000E+00 0.  1.
         21   -1    0    0  504  502 -0.00000000000E+00 -0.00000000000E+00 -0.35098524436E+03  0.35098524436E+03  0.00000000000E+00 0. -1.
         21    1    1    2  503  502  0.10658895447E+02  0.37815138176E+02 -0.47947422467E+02  0.61988321873E+02  0.00000000000E+00 0.  1.
         21    1    1    2  504  501 -0.10658895447E+02 -0.37815138176E+02 -0.29471373525E+03  0.29732100914E+03  0.00000000000E+00 0. -1.
</event>
<event>
 4    1  0.1551744E+006  0.2317586E+02  0.7546771E-02  0.1490302E+00
         21   -1    0    0  503  501  0.00000000000E+00  0.00000000000E+00  0.13850938727E+03  0.13850938727E+03  0.00000000000E+00 0.  1.
         21   -1    0    0  501  502 -0.00000000000E+00 -0.00000000000E+00 -0.48438877041E+01  0.48438877041E+01  0.00000000000E+00 0.  1.
         21    1    1    2  503  504 -0.21502692717E+02 -0.86460862263E+01  0.98841920721E+02  0.10152263734E+03  0.00000000000E+00 0.  1.
         21    1    1    2  504  502  0.21502692717E+02  0.86460862263E+01  0.34823578844E+02  0.41830637631E+02  0.00000000000E+00 0.  1.
</event>
<event>
 4    1  0.1551744E+006  0.2031070E+02  0.7546771E-02  0.1529338E+00
         21   -1    0    0  503  501  0.00000000000E+00  0.00000000000E+00  0.94419291493E+01  0.94419291493E+01  0.00000000000E+00 0.  1.
         21   -1    0    0  501  502 -0.00000000000E+00 -0.00000000000E+00 -0.70043723954E+02  0.70043723954E+02  0.00000000000E+00 0.  1.
         21    1    1    2  503  504  0.81252711931E+01  0.18614634526E+02 -0.59233938054E+01  0.21156825014E+02  0.00000000000E+00 0.  1.
         21    1    1    2  504  502 -0.81252711931E+01 -0.18614634526E+02 -0.54678401000E+02  0.58328828090E+02  0.00000000000E+00 0.  1.
</event>
<event>
 4    1  0.1551744E+006  0.2215755E+02  0.7546771E-02  0.1503357E+00
         21   -1    0    0  503  501  0.00000000000E+00  0.00000000000E+00  0.41599130871E+02  0.41599130871E+02  0.00000000000E+00 0.  1.
         21   -1    0    0  501  502 -0.00000000000E+00 -0.00000000000E+00 -0.11877327423E+02  0.11877327423E+02  0.00000000000E+00 0. -1.
         21    1    1    2  503  504  0.15252766404E+01 -0.22104985471E+02  0.16988936801E+02  0.27920974645E+02  0.00000000000E+00 0. -1.
         21    1    1    2  504  502 -0.15252766404E+01  0.22104985471E+02  0.12732866647E+02  0.25555483650E+02  0.00000000000E+00 0.  1.
</event>
<event>
 4    1  0.1551744E+006  0.3381164E+02  0.7546771E-02  0.1389116E+00
         21   -1    0    0  504  501  0.00000000000E+00  0.00000000000E+00  0.19423162233E+02  0.19423162233E+02  0.00000000000E+00 0. -1.
         21   -1    0    0  503  502 -0.00000000000E+00 -0.00000000000E+00 -0.86650337457E+02  0.86650337457E+02  0.00000000000E+00 0.  1.
         21    1    1    2  503  501 -0.26076538531E+02 -0.21523034774E+02 -0.63649920326E+02  0.72073152041E+02  0.00000000000E+00 0.  1.
         21    1    1    2  504  502  0.26076538531E+02  0.21523034774E+02 -0.35772548975E+01  0.34000347649E+02  0.00000000000E+00 0. -1.
</event>
<event>
 4    1  0.1551744E+006  0.2032491E+02  0.7546771E-02  0.1529125E+00
         21   -1    0    0  503  501  0.00000000000E+00  0.00000000000E+00  0.16637206291E+01  0.16637206291E+01  0.00000000000E+00 0. -1.
         21   -1    0    0  504  502 -0.00000000000E+00 -0.00000000000E+00 -0.42871142115E+03  0.42871142115E+03  0.00000000000E+00 0.  1.
         21    1    1    2  503  502  0.15897676339E+02 -0.12663566272E+02 -0.73929921085E+02  0.76672910832E+02  0.00000000000E+00 0. -1.
         21    1    1    2  504  501 -0.15897676339E+02  0.12663566272E+02 -0.35311777944E+03  0.35370223095E+03  0.00000000000E+00 0.  1.
</event>
<event>
 4    1  0.1551744E+006  0.3561801E+02  0.7546771E-02  0.1376270E+00
         21   -1    0    0  502  501  0.00000000000E+00  0.00000000000E+00  0.44704670002E+02  0.44704670002E+02  0.00000000000E+00 0.  1.
         21   -1    0    0  503  502 -0.00000000000E+00 -0.00000000000E+00 -0.53820766894E+02  0.53820766894E+02  0.00000000000E+00 0. -1.
         21    1    1    2  503  504  0.23056115508E+02  0.27148812412E+02 -0.38428661166E+02  0.52396607493E+02  0.00000000000E+00 0. -1.
         21    1    1    2  504  501 -0.23056115508E+02 -0.27148812412E+02  0.29312564274E+02  0.46128829403E+02  0.00000000000E+00 0.  1.
</event>
<event>
 4    1  0.1551744E+006  0.2271019E+02  0.7546771E-02  0.1496170E+00
         21   -1    0    0  503  501  0.00000000000E+00  0.00000000000E+00  0.20076823416E+03  0.20076823416E+03  0.00000000000E+00 0.  1.
         21   -1    0    0  504  502 -0.00000000000E+00 -0.00000000000E+00 -0.27343646646E+01  0.27343646646E+01  0.00000000000E+00 0.  1.
         21    1    1    2  503  502  0.20445334386E+02  0.98864118552E+01  0.73986475443E+02  0.77393484131E+02  0.00000000000E+00 0.  1.
         21    1    1    2  504  501 -0.20445334386E+02 -0.98864118552E+01  0.12404739405E+03  0.12610911469E+03  0.00000000000E+00 0.  1.
</event>
<event>
 4    1  0.1551744E+006  0.2963307E+02  0.7546771E-02  0.1422812E+00
         21   -1    0    0  504  501  0.00000000000E+00  0.00000000000E+00  0.24950486242E+02  0.24950486242E+02  0.00000000000E+00 0.  1.
         21   -1    0    0  501  502 -0.00000000000E+00 -0.00000000000E+00 -0.18573093730E+03  0.18573093730E+03  0.00000000000E+00 0. -1.
         21    1    1    2  503  502  0.14140054661E+02 -0.26041840698E+02 -0.17522661548E+03  0.17771461782E+03  0.00000000000E+00 0. -1.
         21    1    1    2  504  503 -0.14140054661E+02  0.26041840698E+02  0.14446164428E+02  0.32966805721E+02  0.00000000000E+00 0.  1.
</event>
<event>
 4    1  0.1551744E+006  0.2012387E+02  0.7546771E-02  0.1532151E+00
         21   -1    0    0  504  501  0.00000000000E+00  0.00000000000E+00  0.92644464059E+03  0.92644464059E+03  0.00000000000E+00 0.  1.
         21   -1    0    0  503  502 -0.00000000000E+00 -0.00000000000E+00 -0.62683734902E+00  0.62683734902E+00  0.00000000000E+00 0.  1.
         21    1    1    2  503  501 -0.15510212028E+02 -0.12821994943E+02  0.20789966125E+03  0.20887134648E+03  0.00000000000E+00 0.  1.
         21    1    1    2  504  502  0.15510212028E+02  0.12821994943E+02  0.71791814199E+03  0.71820013146E+03  0.00000000000E+00 0.  1.
</event>
<event>
 4    1  0.1551744E+006  0.2064889E+02  0.7546771E-02  0.1524337E+00
         21   -1    0    0  504  501  0.00000000000E+00  0.00000000000E+00  0.69630956695E+00  0.69630956695E+00  0.00000000000E+00 0.  1.
         21   -1    0    0  503  502 -0.00000000000E+00 -0.00000000000E+00 -0.61300985331E+03  0.61300985331E+03  0.00000000000E+00 0.  1.
         21    1    1    2  503  501 -0.19310963191E+02  0.73118573367E+01 -0.29599544926E+03  0.29671481686E+03  0.00000000000E+00 0.  1.
         21    1    1    2  504  502  0.19310963191E+02 -0.73118573367E+01 -0.31631809448E+03  0.31699134602E+03  0.00000000000E+00 0.  1.
</event>
<event>
 4    1  0.1551744E+006  0.3598760E+02  0.7546771E-02  0.1373750E+00
         21   -1    0    0  503  501  0.00000000000E+00  0.00000000000E+00  0.61778741752E+01  0.61778741752E+01  0.00000000000E+00 0. -1.
         21   -1    0    0  501  502 -0.00000000000E+00 -0.00000000000E+00 -0.80002155612E+03  0.80002155612E+03  0.00000000000E+00 0. -1.
         21    1    1    2  503  504 -0.27822795731E+02  0.22825408082E+02 -0.50640279925E+02  0.62125237764E+02  0.00000000000E+00 0. -1.
         21    1    1    2  504  502  0.27822795731E+02 -0.22825408082E+02 -0.74320340202E+03  0.74407419253E+03  0.00000000000E+00 0. -1.
</event>
<event>
 4    1  0.1551744E+006  0.3624446E+02  0.7546771E-02  0.1372019E+00
         21   -1    0    0  504  501  0.00000000000E+00  0.00000000000E+00  0.65553778883E+02  0.65553778883E+02  0.00000000000E+00 0. -1.
         21   -1    0    0  501  502 -0.00000000000E+00 -0.00000000000E+00 -0.15651788370E+03  0.15651788370E+03  0.00000000000E+00 0.  1.
         21    1    1    2  503  502 -0.36060762137E+02 -0.36445170571E+01 -0.14916639880E+03  0.15350659791E+03  0.00000000000E+00 0.  1.
         21    1    1    2  504  503  0.36060762137E+02  0.36445170571E+01  0.58202293977E+02  0.68565064681E+02  0.00000000000E+00 0. -1.
</event>
<event>
 4    1  0.1551744E+006  0.2309756E+02  0.7546771E-02  0.1491277E+00
         21   -1    0    0  504  501  0.00000000000E+00  0.00000000000E+00  0.28548436387E+02  0.28548436387E+02  0.00000000000E+00 0. -1.
         21   -1    0    0  501  502 -0.00000000000E+00 -0.00000000000E+00 -0.96838197613E+02  0.96838197613E+02  0.00000000000E+00 0. -1.
         21    1    1    2  503  502 -0.90799416101E-01 -0.23097385490E+02 -0.90465117077E+02  0.93367204460E+02  0.00000000000E+00 0. -1.
         21    1    1    2  504  503  0.90799416101E-01  0.23097385490E+02  0.22175355850E+02  0.32019429541E+02  0.00000000000E+00 0. -1.
</event>
<event>
 4    1  0.1551744E+006  0.3476046E+02  0.7546771E-02  0.1382255E+00
         21   -1    0    0  503  501  0.00000000000E+00  0.00000000000E+00  0.31999121652E+01  0.31999121652E+01  0.00000000000E+00 0. -1.
         21   -1    0    0  504  502 -0.00000000000E+00 -0.00000000000E+00 -0.65933387443E+03  0.65933387443E+03  0.00000000000E+00 0. -1.
         21    1    1    2  503  502 -0.32611408772E+01  0.34607141887E+02 -0.54461004527E+03  0.54571823382E+03  0.00000000000E+00 0. -1.
         21    1    1    2  504  501  0.32611408772E+01 -0.34607141887E+02 -0.11152391699E+03  0.11681555278E+03  0.00000000000E+00 0. -1.
</event>
<event>
 4    1  0.1551744E+006  0.2715910E+02  0.7546771E-02  0.1446016E+00
         21   -1    0    0  504  501  0.00000000000E+00  0.00000000000E+00  0.13601692036E+03  0.13601692036E+03  0.00000000000E+00 0. -1.
         21   -1    0    0  503  502 -0.00000000000E+00 -0.00000000000E+00 -0.77994576190E+01  0.77994576190E+01  0.00000000000E+00 0. -1.
         21    1    1    2  503  501 -0.73636361385E+01 -0.26141795087E+02  0.24415786835E+02  0.36520504300E+02  0.00000000000E+00 0. -1.
         21    1    1    2  504  502  0.73636361385E+01  0.26141795087E+02  0.10380167590E+03  0.10729587367E+03  0.00000000000E+00 0. -1.
</event>
<event>
 4    1  0.1551744E+006  0.3113747E+02  0.7546771E-02  0.1409963E+00
         21   -1    0    0  503  501  0.00000000000E+00  0.00000000000E+00  0.13618321755E+03  0.13618321755E+03  0.00000000000E+00 0. -1.
         21   -1    0    0  504  502 -0.00000000000E+00 -0.00000000000E+00 -0.26447478998E+02  0.26447478998E+02  0.00000000000E+00 0.  1.
         21    1    1    2  503  502 -0.10077157161E+02 -0.29461716732E+02  0.12438227435E+03  0.12822048207E+03  0.00000000000E+00 0. -1.
         21    1    1    2  504  501  0.10077157161E+02  0.29461716732E+02 -0.14646535802E+02  0.34410214476E+02  0.00000000000E+00 0.  1.
</event>
<event>
 4    1  0.1551744E+006  0.2374190E+02  0.7546771E-02  0.1483386E+00
         21   -1    0    0  503  501  0.00000000000E+00  0.00000000000E+00  0.46813091230E+01  0.46813091230E+01  0.00000000000E+00 0. -1.
         21   -1    0    0  501  502 -0.00000000000E+00 -0.00000000000E+00 -0.24834302500E+03  0.24834302500E+03  0.00000000000E+00 0.  1.
         21    1    1    2  503  504 -0.40066028007E+01  0.23401388181E+02 -0.31028497731E+02  0.39069751807E+02  0.00000000000E+00 0. -1.
         21    1    1    2  504  502  0.40066028007E+01 -0.23401388181E+02 -0.21263321815E+03  0.21395458232E+03  0.00000000000E+00 0.  1.
</event>
<event>
 4    1  0.1551744E+006  0.3560721E+02  0.7546771E-02  0.1376344E+00
         21   -1    0    0  504  501  0.00000000000E+00  0.00000000000E+00  0.14646588704E+03  0.14646588704E+03  0.00000000000E+00 0.  1.
         21   -1    0    0  501  502 -0.00000000000E+00 -0.00000000000E+00 -0.22991177717E+02  0.22991177717E+02  0.00000000000E+00 0.  1.
         21    1    1    2  503  502  0.35607038421E+02  0.11137655870E+00 -0.51653855514E+01  0.35979922148E+02  0.00000000000E+00 0.  1.
         21    1    1    2  504  503 -0.35607038421E+02 -0.11137655870E+00  0.12864009487E+03  0.13347714261E+03  0.00000000000E+00 0.  1.
</event>
<event>
 4    1  0.1551744E+006  0.2052847E+02  0.7546771E-02  0.1526105E+00
         21   -1    0    0  503  501  0.00000000000E+00  0.00000000000E+00  0.39787212860E+02  0.39787212860E+02  0.00000000000E+00 0.  1.
         21   -1    0    0  504  502 -0.00000000000E+00 -0.00000000000E+00 -0.50529938821E+02  0.50529938821E+02  0.00000000000E+00 0. -1.
         21    1    1    2  503  502 -0.18627699956E+02 -0.86271011787E+01  0.34776254589E+02  0.40383238647E+02  0.00000000000E+00 0.  1.
         21    1    1    2  504  501  0.18627699956E+02  0.86271011787E+01 -0.45518980551E+02  0.49933913033E+02  0.00000000000E+00 0. -1.
</event>
<event>
 4    1  0.1551744E+006  0.3782196E+02  0.7546771E-02  0.1361744E+00
         21   -1    0    0  504  501  0.00000000000E+00  0.00000000000E+00  0.63054420972E+02  0.63054420972E+02  0.00000000000E+00 0. -1.
         21   -1    0    0  503  502 -0.00000000000E+00 -0.00000000000E+00 -0.28941977490E+03  0.28941977490E+03  0.00000000000E+00 0. -1.
         21    1    1    2  503  501  0.37018317036E+02 -0.77552960235E+01  0.56006127001E+02  0.67580963845E+02  0.00000000000E+00 0. -1.
         21    1    1    2  504  502 -0.37018317036E+02  0.77552960235E+01 -0.28237148092E+03  0.28489323202E+03  0.00000000000E+00 0. -1.
</event>
<event>
 4    1  0.1551744E+006  0.2212797E+02  0.7546771E-02  0.1503749E+00
         21   -1    0    0  503  501  0.00000000000E+00  0.00000000000E+00  0.20531373930E+03  0.20531373930E+03  0.00000000000E+00 0. -1.
         21   -1    0    0  501  502 -0.00000000000E+00 -0.00000000000E+00 -0.97204894059E+01  0.97204894059E+01  0.00000000000E+00 0. -1.
         21    1    1    2  503  504 -0.22102066364E+02  0.10702920040E+01  0.19119770289E+03  0.19247391630E+03  0.00000000000E+00 0. -1.
         21    1    1    2  504  502  0.22102066364E+02 -0.10702920040E+01  0.43955469984E+01  0.22560312408E+02  0.00000000000E+00 0. -1.
</event>
<event>
 4    1  0.1551744E+006  0.2559161E+02  0.7546771E-02  0.1462293E+00
         21   -1    0    0  503  501  0.00000000000E+00  0.00000000000E+00  0.31602944709E+03  0.31602944709E+03  0.00000000000E+00 0.  1.
         21   -1    0    0  504  502 -0.00000000000E+00 -0.00000000000E+00 -0.27709687205E+01  0.27709687205E+01  0.00000000000E+00 0.  1.
         21    1    1    2  503  502 -0.25500827600E+02 -0.21536968045E+01  0.23666541008E+03  0.23804505235E+03  0.00000000000E+00 0.  1.
         21    1    1    2  504  501  0.25500827600E+02  0.21536968045E+01  0.76593068287E+02  0.80755363462E+02  0.00000000000E+00 0.  1.
</event>
<event>
 4    1  0.1551744E+006  0.2002153E+02  0.7546771E-02  0.1533707E+00
         21   -1    0    0  503  501  0.00000000000E+00  0.00000000000E+00  0.46014167136E+01  0.46014167136E+01  0.00000000000E+00 0.  1.
         21   -1    0    0  504  502 -0.00000000000E+00 -0.00000000000E+00 -0.44265891356E+03  0.44265891356E+03  0.00000000000E+00 0. -1.
         21    1    1    2  503  502 -0.45779278641E+00  0.20016297643E+02 -0.18608699564E+02  0.27333961385E+02  0.00000000000E+00 0.  1.
         21    1    1    2  504  501  0.45779278641E+00 -0.20016297643E+02 -0.41944879728E+03  0.41992636889E+03  0.00000000000E+00 0. -1.
</event>
<event>
 4    1  0.1551744E+006  0.2894782E+02  0.7546771E-02  0.1428966E+00
         21   -1    0    0  502  501  0.00000000000E+00  0.00000000000E+00  0.18631011227E+03  0.18631011227E+03  0.00000000000E+00 0. -1.
         21   -1    0    0  504  502 -0.00000000000E+00 -0.00000000000E+00 -0.32581166584E+02  0.32581166584E+02  0.00000000000E+00 0.  1.
         21    1    1    2  503  501  0.15220062152E+02  0.24623685758E+02  0.17847533203E+03  0.18080768882E+03  0.00000000000E+00 0. -1.
         21    1    1    2  504  503 -0.15220062152E+02 -0.24623685758E+02 -0.24746386351E+02  0.38083590031E+02  0.00000000000E+00 0.  1.
</event>
<event>
 4    1  0.1551744E+006  0.3584772E+02  0.7546771E-02  0.1374700E+00
         21   -1    0    0  504  501  0.00000000000E+00  0.00000000000E+00  0.68554158914E+02  0.68554158914E+02  0.00000000000E+00 0. -1.
         21   -1    0    0  503  502 -0.00000000000E+00 -0.00000000000E+00 -0.35235316390E+02  0.35235316390E+02  0.00000000000E+00 0. -1.
         21    1    1    2  503  501  0.27268257690E+01 -0.35743855300E+02  0.52160913024E+02  0.63291544601E+02  0.00000000000E+00 0. -1.
         21    1    1    2  504  502 -0.27268257690E+01  0.35743855300E+02 -0.18842070500E+02  0.40497930703E+02  0.00000000000E+00 0. -1.
</event>
<event>
 4    1  0.1551744E+006  0.2166350E+02  0.7546771E-02  0.1509999E+00
         21   -1    0    0  503  501  0.00000000000E+00  0.00000000000E+00  0.80886958922E+03  0.80886958922E+03  0.00000000000E+00 0. -1.
         21   -1    0    0  504  502 -0.00000000000E+00 -0.00000000000E+00 -0.85134628975E+00  0.85134628975E+00  0.00000000000E+00 0. -1.
         21    1    1    2  503  502  0.15619046988E+02 -0.15011750603E+02  0.17552662054E+03  0.17685842305E+03  0.00000000000E+00 0. -1.
         21    1    1    2  504  501 -0.15619046988E+02  0.15011750603E+02  0.63249162239E+03  0.63286251246E+03  0.00000000000E+00 0. -1.
</event>
<event>
 4    1  0.1551744E+006  0.4625656E+02  0.7546771E-02  0.1315273E+00
         21   -1    0    0  504  501  0.00000000000E+00  0.00000000000E+00  0.20008251624E+02  0.20008251624E+02  0.00000000000E+00 0. -1.
         21   -1    0    0  503  502 -0.00000000000E+00 -0.00000000000E+00 -0.11109162250E+03  0.11109162250E+03  0.00000000000E+00 0. -1.
         21    1    1    2  503  501  0.45632486995E+02  0.75726985439E+01 -0.58214526858E+02  0.74354561191E+02  0.00000000000E+00 0. -1.
         21    1    1    2  504  502 -0.45632486995E+02 -0.75726985439E+01 -0.32868844013E+02  0.56745312929E+02  0.00000000000E+00 0. -1.
</event>
<event>
 4    1  0.1551744E+006  0.2574948E+02  0.7546771E-02  0.1460591E+00
         21   -1    0    0  504  501  0.00000000000E+00  0.00000000000E+00  0.17468447499E+02  0.17468447499E+02  0.00000000000E+00 0. -1.
         21   -1    0    0  503  502 -0.00000000000E+00 -0.00000000000E+00 -0.12383040410E+03  0.12383040410E+03  0.00000000000E+00 0.  1.
         21    1    1    2  503  501 -0.15254758883E+02 -0.20744348290E+02 -0.11201470890E+03  0.11493620259E+03  0.00000000000E+00 0.  1.
         21    1    1    2  504  502  0.15254758883E+02  0.20744348290E+02  0.56527522986E+01  0.26362649016E+02  0.00000000000E+00 0. -1.
</event>
<event>
 4    1  0.1551744E+006  0.2494784E+02  0.7546771E-02  0.1469388E+00
         21   -1    0    0  503  501  0.00000000000E+00  0.00000000000E+00  0.14607153777E+02  0.14607153777E+02  0.00000000000E+00 0. -1.
         21   -1    0    0  504  502 -0.00000000000E+00 -0.00000000000E+00 -0.47564475310E+02  0.47564475310E+02  0.00000000000E+00 0. -1.
         21    1    1    2  503  502  0.79957523894E+01 -0.23631818247E+02 -0.64448124657E+01  0.25766848811E+02  0.00000000000E+00 0. -1.
         21    1    1    2  504  501 -0.79957523894E+01  0.23631818247E+02 -0.26512509067E+02  0.36404780276E+02  0.00000000000E+00 0. -1.
</event>
<event>
 4    1  0.1551744E+006  0.2661022E+02  0.7546771E-02  0.1451563E+00
         21   -1    0    0  504  501  0.00000000000E+00  0.00000000000E+00  0.51369630346E+03  0.51369630346E+03  0.00000000000E+00 0.  1.
         21   -1    0    0  501  502 -0.00000000000E+00 -0.00000000000E+00 -0.31989601129E+01  0.31989601129E+01  0.00000000000E+00 0. -1.
         21    1    1    2  503  502  0.52058980562E+01  0.26096019897E+02  0.60279954602E+02  0.65892158531E+02  0.00000000000E+00 0. -1.
         21    1    1    2  504  503 -0.52058980562E+01 -0.26096019897E+02  0.45021738874E+03  0.45100310504E+03  0.00000000000E+00 0.  1.
</event>
<event>
 4    1  0.1551744E+006  0.2226949E+02  0.7546771E-02  0.1501881E+00
         21   -1    0    0  503  501  0.00000000000E+00  0.00000000000E+00  0.76875324586E+02  0.76875324586E+02  0.00000000000E+00 0. -1.
         21   -1    0    0  504  502 -0.00000000000E+00 -0.00000000000E+00 -0.70039271387E+01  0.70039271387E+01  0.00000000000E+00 0. -1.
         21    1    1    2  503  502 -0.20347491647E+02  0.90503971662E+01  0.23152859315E+02  0.32124523338E+02  0.00000000000E+00 0. -1.
         21    1    1    2  504  501  0.20347491647E+02 -0.90503971662E+01  0.46718538133E+02  0.51754728387E+02  0.00000000000E+00 0. -1.
</event>
<event>
 4    1  0.1551744E+006  0.3057555E+02  0.7546771E-02  0.1414660E+00
         21   -1    0    0  503  501  0.00000000000E+00  0.00000000000E+00  0.21959095686E+03  0.21959095686E+03  0.00000000000E+00 0. -1.
         21   -1    0    0  504  502 -0.00000000000E+00 -0.00000000000E+00 -0.42950121165E+01  0.42950121165E+01  0.00000000000E+00 0. -1.
         21    1    1    2  503  502 -0.23862990172E+02  0.19116009151E+02  0.97158163178E+02  0.10185564677E+03  0.00000000000E+00 0. -1.
         21    1    1    2  504  501  0.23862990172E+02 -0.19116009151E+02  0.11813778157E+03  0.12203032221E+03  0.00000000000E+00 0. -1.
</event>
<event>
 4    1  0.1551744E+006  0.2161213E+02  0.7546771E-02  0.1510702E+00
         21   -1    0    0  503  501  0.00000000000E+00  0.00000000000E+00  0.89507694264E+02  0.89507694264E+02  0.00000000000E+00 0. -1.
         21   -1    0    0  501  502 -0.00000000000E+00 -0.00000000000E+00 -0.37906408767E+02  0.37906408767E+02  0.00000000000E+00 0. -1.
         21    1    1    2  503  504  0.66447853693E+01 -0.20565288093E+02  0.84960295807E+02  0.87666048791E+02  0.00000000000E+00 0. -1.
         21    1    1    2  504  502 -0.66447853693E+01  0.20565288093E+02 -0.33359010310E+02  0.39748054240E+02  0.00000000000E+00 0. -1.
</event>
<event>
 4    1  0.1551744E+006  0.2045075E+02  0.7546771E-02  0.1527253E+00
         21   -1    0    0  503  501  0.00000000000E+00  0.00000000000E+00  0.25386868043E+03  0.25386868043E+03  0.00000000000E+00 0. -1.
         21   -1    0    0  504  502 -0.00000000000E+00 -0.00000000000E+00 -0.19049192309E+01  0.19049192309E+01  0.00000000000E+00 0. -1.
         21    1    1    2  503  502  0.89737101949E+01  0.18376775582E+02  0.17299929571E+03  0.17420387387E+03  0.00000000000E+00 0. -1.
         21    1    1    2  504  501 -0.89737101949E+01 -0.18376775582E+02  0.78964465483E+02  0.81569725784E+02  0.00000000000E+00 0. -1.
</event>
<event>
 4    1  0.1551744E+006  0.2989268E+02  0.7546771E-02  0.1420532E+00
         21   -1    0    0  502  501  0.00000000000E+00  0.00000000000E+00  0.65498550818E+02  0.65498550818E+02  0.00000000000E+00 0. -1.
         21   -1    0    0  504  502 -0.00000000000E+00 -0.00000000000E+00 -0.43850471943E+02  0.43850471943E+02  0.00000000000E+00 0.  1.
         21    1    1    2  503  501 -0.26958573696E+02  0.12915395122E+02  0.56203326131E+02  0.63658353694E+02  0.00000000000E+00 0. -1.
         21    1    1    2  504  503  0.26958573696E+02 -0.12915395122E+02 -0.34555247256E+02  0.45690669067E+02  0.00000000000E+00 0.  1.
</event>
<event>
 4    1  0.1551744E+006  0.2212569E+02  0.7546771E-02  0.1503779E+00
         21   -1    0    0  504  501  0.00000000000E+00  0.00000000000E+00  0.36311607428E+03  0.36311607428E+03  0.00000000000E+00 0. -1.
         21   -1    0    0  503  502 -0.00000000000E+00 -0.00000000000E+00 -0.56051466186E+01  0.56051466186E+01  0.00000000000E+00 0. -1.
         21    1    1    2  503  501 -0.35828920512E+00 -0.22122792785E+02  0.18089197817E+02  0.28579107919E+02  0.00000000000E+00 0. -1.
         21    1    1    2  504  502  0.35828920512E+00  0.22122792785E+02  0.33942172985E+03  0.34014211298E+03  0.00000000000E+00 0. -1.
</event>
<event>
 4    1  0.1551744E+006  0.2156106E+02  0.7546771E-02  0.1511403E+00
         21   -1    0    0  504  501  0.00000000000E+00  0.00000000000E+00  0.17036563390E+02  0.17036563390E+02  0.00000000000E+00 0. -1.
         21   -1    0    0  503  502 -0.00000000000E+00 -0.00000000000E+00 -0.56152531573E+02  0.56152531573E+02  0.00000000000E+00 0.  1.
         21    1    1    2  503  501  0.12653315019E+02 -0.17457745211E+02 -0.45795358182E+02  0.50617132276E+02  0.00000000000E+00 0.  1.
         21    1    1    2  504  502 -0.12653315019E+02  0.17457745211E+02  0.66793899984E+01  0.22571962688E+02  0.00000000000E+00 0. -1.
</event>
<event>
 4    1  0.1551744E+006  0.2813729E+02  0.7546771E-02  0.1436507E+00
         21   -1    0    0  503  501  0.00000000000E+00  0.00000000000E+00  0.77067648894E+01  0.77067648894E+01  0.00000000000E+00 0. -1.
         21   -1    0    0  504  502 -0.00000000000E+00 -0.00000000000E+00 -0.13928642145E+03  0.13928642145E+03  0.00000000000E+00 0. -1.
         21    1    1    2  503  502 -0.19635415426E+02  0.20153355022E+02 -0.10344298232E+03  0.10720148250E+03  0.00000000000E+00 0. -1.
         21    1    1    2  504  501  0.19635415426E+02 -0.20153355022E+02 -0.28136674241E+02  0.39791703846E+02  0.00000000000E+00 0. -1.
</event>
<event>
 4    1  0.1551744E+006  0.2192469E+02  0.7546771E-02  0.1506461E+00
         21   -1    0    0  503  501  0.00000000000E+00  0.00000000000E+00  0.21393470331E+02  0.21393470331E+02  0.00000000000E+00 0.  1.
         21   -1    0    0  504  502 -0.00000000000E+00 -0.00000000000E+00 -0.88906657163E+02  0.88906657163E+02  0.00000000000E+00 0.  1.
         21    1    1    2  503  502  0.19719837045E+02 -0.95822861451E+01 -0.81431042370E+02  0.84330936448E+02  0.00000000000E+00 0.  1.
         21    1    1    2  504  501 -0.19719837045E+02  0.95822861451E+01  0.13917855537E+02  0.25969191046E+02  0.00000000000E+00 0.  1.
</event>
<event>
 4    1  0.1551744E+006  0.5010989E+02  0.7546771E-02  0.1297697E+00
         21   -1    0    0  504  501  0.00000000000E+00  0.00000000000E+00  0.18685630490E+02  0.18685630490E+02  0.00000000000E+00 0. -1.
         21   -1    0    0  501  502 -0.00000000000E+00 -0.00000000000E+00 -0.65602708036E+03  0.65602708036E+03  0.00000000000E+00 0. -1.
         21    1    1    2  503  502 -0.13411893299E+02 -0.48281694336E+02 -0.61949704210E+03  0.62152038265E+03  0.00000000000E+00 0. -1.
         21    1    1    2  504  503  0.13411893299E+02  0.48281694336E+02 -0.17844407770E+02  0.53192328191E+02  0.00000000000E+00 0. -1.
</event>
<event>
 4    1  0.1551744E+006  0.2017085E+02  0.7546771E-02  0.1531440E+00
         21   -1    0    0  504  501  0.00000000000E+00  0.00000000000E+00  0.17108551928E+01  0.17108551928E+01  0.00000000000E+00 0. -1.
         21   -1    0    0  503  502 -0.00000000000E+00 -0.00000000000E+00 -0.24754016190E+03  0.24754016190E+03  0.00000000000E+00 0.  1.
         21    1    1    2  503  501 -0.19629820194E+02  0.46403933193E+01 -0.14761959884E+03  0.14899130529E+03  0.00000000000E+00 0.  1.
         21    1    1    2  504  502  0.19629820194E+02 -0.46403933193E+01 -0.98209707870E+02  0.10025971180E+03  0.00000000000E+00 0. -1.
</event>
<event>
 4    1  0.1551744E+006  0.2536191E+02  0.7546771E-02  0.1464795E+00
         21   -1    0    0  503  501  0.00000000000E+00  0.00000000000E+00  0.51128724699E+02  0.51128724699E+02  0.00000000000E+00 0. -1.
         21   -1    0    0  504  502 -0.00000000000E+00 -0.00000000000E+00 -0.88457002540E+02  0.88457002540E+02  0.00000000000E+00 0.  1.
         21    1    1    2  503  502 -0.12063787382E+01 -0.25333199611E+02 -0.83303712170E+02  0.87078899932E+02  0.00000000000E+00 0.  1.
         21    1    1    2  504  501  0.12063787382E+01  0.25333199611E+02  0.45975434329E+02  0.52506827307E+02  0.00000000000E+00 0. -1.
</event>
<event>
 4    1  0.1551744E+006  0.2307149E+02  0.7546771E-02  0.1491602E+00
         21   -1    0    0  503  501  0.00000000000E+00  0.00000000000E+00  0.92313474374E+02  0.92313474374E+02  0.00000000000E+00 0.  1.
         21   -1    0    0  504  502 -0.00000000000E+00 -0.00000000000E+00 -0.68274736154E+01  0.68274736154E+01  0.00000000000E+00 0.  1.
         21    1    1    2  503  502  0.23024072164E+02  0.14784254446E+01  0.23198872116E+02  0.32718210652E+02  0.00000000000E+00 0.  1.
         21    1    1    2  504  501 -0.23024072164E+02 -0.14784254446E+01  0.62287128642E+02  0.66422737337E+02  0.00000000000E+00 0.  1.
</event>
<event>
 4    1  0.1551744E+006  0.2118730E+02  0.7546771E-02  0.1516607E+00
         21   -1    0    0  504  501  0.00000000000E+00  0.00000000000E+00  0.50873207097E+02  0.50873207097E+02  0.00000000000E+00 0. -1.
         21   -1    0    0  503  502 -0.00000000000E+00 -0.00000000000E+00 -0.19465627673E+03  0.19465627673E+03  0.00000000000E+00 0.  1.
         21    1    1    2  503  501 -0.13696265294E+02 -0.16165213027E+02 -0.19184149293E+03  0.19300792783E+03  0.00000000000E+00 0.  1.
         21    1    1    2  504  502  0.13696265294E+02  0.16165213027E+02  0.48058423295E+02  0.52521556001E+02  0.00000000000E+00 0. -1.
</event>
<event>
 4    1  0.1551744E+006  0.2211252E+02  0.7546771E-02  0.1503953E+00
         21   -1    0    0  503  501  0.00000000000E+00  0.00000000000E+00  0.93811889838E+01  0.93811889838E+01  0.00000000000E+00 0.  1.
         21   -1    0    0  501  502 -0.00000000000E+00 -0.00000000000E+00 -0.68752319801E+02  0.68752319801E+02  0.00000000000E+00 0.  1.
         21    1    1    2  503  504  0.57850224697E+00  0.22104954933E+02 -0.10471572699E+02  0.24466661649E+02  0.00000000000E+00 0.  1.
         21    1    1    2  504  502 -0.57850224697E+00 -0.22104954933E+02 -0.48899558118E+02  0.53666847137E+02  0.00000000000E+00 0.  1.
</event>
<event>
 4    1  0.1551744E+006  0.2225398E+02  0.7546771E-02  0.1502085E+00
         21   -1    0    0  504  501  0.00000000000E+00  0.00000000000E+00  0.19006983534E+03  0.19006983534E+03  0.00000000000E+00 0. -1.
         21   -1    0    0  503  502 -0.00000000000E+00 -0.00000000000E+00 -0.33924321019E+02  0.33924321019E+02  0.00000000000E+00 0.  1.
         21    1    1    2  503  501 -0.22110534191E+02  0.25227175716E+01  0.18568293365E+03  0.18701174207E+03  0.00000000000E+00 0. -1.
         21    1    1    2  504  502  0.22110534191E+02 -0.25227175716E+01 -0.29537419324E+02  0.36982414287E+02  0.00000000000E+00 0.  1.
</event>
<event>
 4    1  0.1551744E+006  0.2078887E+02  0.7546771E-02  0.1522301E+00
         21   -1    0    0  504  501  0.00000000000E+00  0.00000000000E+00  0.35957030967E+02  0.35957030967E+02  0.00000000000E+00 0. -1.
         21   -1    0    0  501  502 -0.00000000000E+00 -0.00000000000E+00 -0.24609920957E+02  0.24609920957E+02  0.00000000000E+00 0. -1.
         21    1    1    2  503  502 -0.20540067850E+01 -0.20687153087E+02 -0.15987256009E+02  0.26225361797E+02  0.00000000000E+00 0. -1.
         21    1    1    2  504  503  0.20540067850E+01  0.20687153087E+02  0.27334366019E+02  0.34341590126E+02  0.00000000000E+00 0. -1.
</event>
<event>
 4    1  0.1551744E+006  0.2726050E+02  0.7546771E-02  0.1445009E+00
         21   -1    0    0  504  501  0.00000000000E+00  0.00000000000E+00  0.54790907148E+02  0.54790907148E+02  0.00000000000E+00 0. -1.
         21   -1    0    0  503  502 -0.00000000000E+00 -0.00000000000E+00 -0.19356881801E+02  0.19356881801E+02  0.00000000000E+00 0.  1.
         21    1    1    2  503  501  0.22366471315E+02  0.15584472312E+02  0.37999975639E+02  0.46766793400E+02  0.00000000000E+00 0. -1.
         21    1    1    2  504  502 -0.22366471315E+02 -0.15584472312E+02 -0.25659502918E+01  0.27380995549E+02  0.00000000000E+00 0.  1.
</event>
<event>
 4    1  0.1551744E+006  0.2307402E+02  0.7546771E-02  0.1491571E+00
         21   -1    0    0  504  501  0.00000000000E+00  0.00000000000E+00  0.15931569782E+04  0.15931569782E+04  0.00000000000E+00 0.  1.
         21   -1    0    0  503  502 -0.00000000000E+00 -0.00000000000E+00 -0.22656345714E+01  0.22656345714E+01  0.00000000000E+00 0. -1.
         21    1    1    2  503  501 -0.20261941228E+02  0.11039216286E+02  0.15319790017E+04  0.15321527575E+04  0.00000000000E+00 0.  1.
         21    1    1    2  504  502  0.20261941228E+02 -0.11039216286E+02  0.58912341882E+02  0.63269855260E+02  0.00000000000E+00 0. -1.
</event>
<event>
 4    1  0.1551744E+006  0.3751090E+02  0.7546771E-02  0.1363723E+00
         21   -1    0    0  503  501  0.00000000000E+00  0.00000000000E+00  0.48933257809E+02  0.48933257809E+02  0.00000000000E+00 0. -1.
         21   -1    0    0  504  502 -0.00000000000E+00 -0.00000000000E+00 -0.29496180570E+02  0.29496180570E+02  0.00000000000E+00 0. -1.
         21    1    1    2  503  502  0.25273917265E+02 -0.27718168708E+02  0.15935475664E+02  0.40755455525E+02  0.00000000000E+00 0. -1.
         21    1    1    2  504  501 -0.25273917265E+02  0.27718168708E+02  0.35016015754E+01  0.37673982853E+02  0.00000000000E+00 0. -1.
</event>
<event>
 4    1  0.1551744E+006  0.2110462E+02  0.7546771E-02  0.1517776E+00
         21   -1    0    0  503  501  0.00000000000E+00  0.00000000000E+00  0.14461283158E+02  0.14461283158E+02  0.00000000000E+00 0. -1.
         21   -1    0    0  504  502 -0.00000000000E+00 -0.00000000000E+00 -0.36863129183E+02  0.36863129183E+02  0.00000000000E+00 0. -1.
         21    1    1    2  503  502  0.41195831033E+01  0.20698647214E+02 -0.79327392008E+00  0.21119522839E+02  0.00000000000E+00 0. -1.
         21    1    1    2  504  501 -0.41195831033E+01 -0.20698647214E+02 -0.21608572105E+02  0.30204889502E+02  0.00000000000E+00 0. -1.
</event>
<event>
 4    1  0.1551744E+006  0.4900171E+02  0.7546771E-02  0.1302560E+00
         21   -1    0    0  503  501  0.00000000000E+00  0.00000000000E+00  0.91530968786E+01  0.91530968786E+01  0.00000000000E+00 0.  1.
         21   -1    0    0  504  502 -0.00000000000E+00 -0.00000000000E+00 -0.10176387403E+04  0.10176387403E+04  0.00000000000E+00 0. -1.
         21    1    1    2  503  502 -0.48879064387E+02  0.34647832982E+01 -0.94654260649E+03  0.94781014637E+03  0.00000000000E+00 0. -1.
         21    1    1    2  504  501  0.48879064387E+02 -0.34647832982E+01 -0.61943036925E+02  0.78981690803E+02  0.00000000000E+00 0.  1.
</event>
<event>
 4    1  0.1551744E+006  0.2366955E+02  0.7546771E-02  0.1484257E+00
         21   -1    0    0  504  501  0.00000000000E+00  0.00000000000E+00  0.18781741095E+03  0.18781741095E+03  0.00000000000E+00 0. -1.
         21   -1    0    0  501  502 -0.00000000000E+00 -0.00000000000E+00 -0.17751957175E+02  0.17751957175E+02  0.00000000000E+00 0. -1.
         21    1    1    2  503  502 -0.23438748191E+02 -0.32973494079E+01 -0.87194006903E+01  0.25224499564E+02  0.00000000000E+00 0. -1.
         21    1    1    2  504  503  0.23438748191E+02  0.32973494079E+01  0.17878485447E+03  0.18034486856E+03  0.00000000000E+00 0. -1.
</event>
<event>
 4    1  0.1551744E+006  0.2325595E+02  0.7546771E-02  0.1489309E+00
         21   -1    0    0  504  501  0.00000000000E+00  0.00000000000E+00  0.12108128938E+04  0.12108128938E+04  0.00000000000E+00 0.  1.
         21   -1    0    0  503  502 -0.00000000000E+00 -0.00000000000E+00 -0.14480091463E+01  0.14480091463E+01  0.00000000000E+00 0.  1.
         21    1    1    2  503  501 -0.13868872372E+02 -0.18667986604E+02  0.10063657991E+03  0.10328872427E+03  0.00000000000E+00 0.  1.
         21    1    1    2  504  502  0.13868872372E+02  0.18667986604E+02  0.11087283048E+04  0.11089721787E+04  0.00000000000E+00 0.  1.
</event>
<event>
 4    1  0.1551744E+006  0.4534007E+02  0.7546771E-02  0.1319748E+00
         21   -1    0    0  502  501  0.00000000000E+00  0.00000000000E+00  0.10680474851E+04  0.10680474851E+04  0.00000000000E+00 0.  1.
         21   -1    0    0  504  502 -0.00000000000E+00 -0.00000000000E+00 -0.79622119503E+01  0.79622119503E+01  0.00000000000E+00 0. -1.
         21    1    1    2  503  501  0.23628607456E+02 -0.38696398927E+02  0.99852861137E+03  0.99955745713E+03  0.00000000000E+00 0.  1.
         21    1    1    2  504  503 -0.23628607456E+02  0.38696398927E+02  0.61556661811E+02  0.76452239951E+02  0.00000000000E+00 0. -1.
</event>
<event>
 4    1  0.1551744E+006  0.2070559E+02  0.7546771E-02  0.1523510E+00
         21   -1    0    0  504  501  0.00000000000E+00  0.00000000000E+00  0.94231423262E+02  0.94231423262E+02  0.00000000000E+00 0. -1.
         21   -1    0    0  501  502 -0.00000000000E+00 -0.00000000000E+00 -0.51327593760E+01  0.51327593760E+01  0.00000000000E+00 0. -1.
         21    1    1    2  503  502  0.11690369326E+02  0.17089667031E+02  0.27804003851E+02  0.34666757627E+02  0.00000000000E+00 0. -1.
         21    1    1    2  504  503 -0.11690369326E+02 -0.17089667031E+02  0.61294660035E+02  0.64697425011E+02  0.00000000000E+00 0. -1.
</event>
<event>
 4    1  0.1551744E+006  0.2741297E+02  0.7546771E-02  0.1443503E+00
         21   -1    0    0  504  501  0.00000000000E+00  0.00000000000E+00  0.15033219254E+02  0.15033219254E+02  0.00000000000E+00 0. -1.
         21   -1    0    0  503  502 -0.00000000000E+00 -0.00000000000E+00 -0.60237143393E+02  0.60237143393E+02  0.00000000000E+00 0. -1.
         21    1    1    2  503  501 -0.18704608914E+00 -0.27412330991E+02 -0.70774032987E+01  0.28311844059E+02  0.00000000000E+00 0. -1.
         21    1    1    2  504  502  0.18704608914E+00  0.27412330991E+02 -0.38126520840E+02  0.46958518588E+02  0.00000000000E+00 0. -1.
</event>
<event>
 4    1  0.1551744E+006  0.2503814E+02  0.7546771E-02  0.1468377E+00
         21   -1    0    0  502  501  0.00000000000E+00  0.00000000000E+00  0.16488417238E+04  0.16488417238E+04  0.00000000000E+00 0.  1.
         21   -1    0    0  504  502 -0.00000000000E+00 -0.00000000000E+00 -0.30890063832E+01  0.30890063832E+01  0.00000000000E+00 0. -1.
         21    1    1    2  503  501 -0.18587063028E+02  0.16775862388E+02  0.15963410617E+04  0.15965374075E+04  0.00000000000E+00 0.  1.
         21    1    1    2  504  503  0.18587063028E+02 -0.16775862388E+02  0.49411655746E+02  0.55393322652E+02  0.00000000000E+00 0. -1.
</event>
<event>
 4    1  0.1551744E+006  0.2099287E+02  0.7546771E-02  0.1519367E+00
         21   -1    0    0  504  501  0.00000000000E+00  0.00000000000E+00  0.73685542669E+02  0.73685542669E+02  0.00000000000E+00 0. -1.
         21   -1    0    0  501  502 -0.00000000000E+00 -0.00000000000E+00 -0.63943898106E+01  0.63943898106E+01  0.00000000000E+00 0. -1.
         21    1    1    2  503  502 -0.17483544100E+02 -0.11620086928E+02  0.23462872974E+02  0.31483442358E+02  0.00000000000E+00 0. -1.
         21    1    1    2  504  503  0.17483544100E+02  0.11620086928E+02  0.43828279884E+02  0.48596490121E+02  0.00000000000E+00 0. -1.
</event>
<event>
 4    1  0.1551744E+006  0.2308595E+02  0.7546771E-02  0.1491422E+00
         21   -1    0    0  503  501  0.00000000000E+00  0.00000000000E+00  0.11352568095E+04  0.11352568095E+04  0.00000000000E+00 0.  1.
         21   -1    0    0  504  502 -0.00000000000E+00 -0.00000000000E+00 -0.51282666384E+00  0.51282666384E+00  0.00000000000E+00 0.  1.
         21    1    1    2  503  502 -0.58193834876E+01  0.22340457275E+02  0.40223775775E+03  0.40289970838E+03  0.00000000000E+00 0.  1.
         21    1    1    2  504  501  0.58193834876E+01 -0.22340457275E+02  0.73250622509E+03  0.73286992779E+03  0.00000000000E+00 0.  1.
</event>
<event>
 4    1  0.1551744E+006  0.2031812E+02  0.7546771E-02  0.1529227E+00
         21   -1    0    0  504  501  0.00000000000E+00  0.00000000000E+00  0.93305410910E+01  0.93305410910E+01  0.00000000000E+00 0. -1.
         21   -1    0    0  503  502 -0.00000000000E+00 -0.00000000000E+00 -0.18588623492E+03  0.18588623492E+03  0.00000000000E+00 0.  1.
         21    1    1    2  503  501 -0.59138054063E+01 -0.19438440161E+02 -0.17348165232E+03  0.17466742610E+03  0.00000000000E+00 0.  1.
         21    1    1    2  504  502  0.59138054063E+01  0.19438440161E+02 -0.30740415056E+01  0.20549349903E+02  0.00000000000E+00 0. -1.
</event>
<event>
 4    1  0.1551744E+006  0.3491289E+02  0.7546771E-02  0.1381177E+00
         21   -1    0    0  504  501  0.00000000000E+00  0.00000000000E+00  0.11503692789E+03  0.11503692789E+03  0.00000000000E+00 0.  1.
         21   -1    0    0  503  502 -0.00000000000E+00 -0.00000000000E+00 -0.16410546367E+02  0.16410546367E+02  0.00000000000E+00 0. -1.
         21    1    1    2  503  501  0.21691021449E+02 -0.27357071977E+02  0.10190778535E+02  0.36369791941E+02  0.00000000000E+00 0. -1.
         21    1    1    2  504  502 -0.21691021449E+02  0.27357071977E+02  0.88435602993E+02  0.95077682320E+02  0.00000000000E+00 0.  1.
</event>
<event>
 4    1  0.1551744E+006  0.3087168E+02  0.7546771E-02  0.1412170E+00
         21   -1    0    0  504  501  0.00000000000E+00  0.00000000000E+00  0.57730047429E+01  0.57730047429E+01  0.00000000000E+00 0. -1.
         21   -1    0    0  503  502 -0.00000000000E+00 -0.00000000000E+00 -0.22448534654E+03  0.22448534654E+03  0.00000000000E+00 0. -1.
         21    1    1    2  503  501 -0.23381410762E+02  0.20158627525E+02 -0.16857646989E+03  0.17137994875E+03  0.00000000000E+00 0. -1.
         21    1    1    2  504  502  0.23381410762E+02 -0.20158627525E+02 -0.50135871901E+02  0.58878402527E+02  0.00000000000E+00 0. -1.
</event>
<event>
 4    1  0.1551744E+006  0.2132352E+02  0.7546771E-02  0.1514696E+00
         21   -1    0    0  504  501  0.00000000000E+00  0.00000000000E+00  0.19847588482E+02  0.19847588482E+02  0.00000000000E+00 0.  1.
         21   -1    0    0  503  502 -0.00000000000E+00 -0.00000000000E+00 -0.53669415707E+02  0.53669415707E+02  0.00000000000E+00 0. -1.
         21    1    1    2  503  501  0.21233618639E+02 -0.19559608497E+01  0.10917539832E+02  0.23955897381E+02  0.00000000000E+00 0.  1.
         21    1    1    2  504  502 -0.21233618639E+02  0.19559608497E+01 -0.44739367057E+02  0.49561106807E+02  0.00000000000E+00 0. -1.
</event>
<event>
 4    1  0.1551744E+006  0.2212908E+02  0.7546771E-02  0.1503734E+00
         21   -1    0    0  502  501  0.00000000000E+00  0.00000000000E+00  0.14662860068E+02  0.14662860068E+02  0.00000000000E+00 0.  1.
         21   -1    0    0  504  502 -0.00000000000E+00 -0.00000000000E+00 -0.10714853916E+04  0.10714853916E+04  0.00000000000E+00 0.  1.
         21    1    1    2  503  501  0.22109504003E+02 -0.93050178320E+00  0.61323479443E+01  0.22963050584E+02  0.00000000000E+00 0.  1.
         21    1    1    2  504  503 -0.22109504003E+02  0.93050178320E+00 -0.10629548795E+04  0.10631852011E+04  0.00000000000E+00 0.  1.
</event>
<event>
 4    1  0.1551744E+006  0.3966424E+02  0.7546771E-02  0.1350465E+00
         21   -1    0    0  504  501  0.00000000000E+00  0.00000000000E+00  0.22942426169E+03  0.22942426169E+03  0.00000000000E+00 0.  1.
         21   -1    0    0  503  502 -0.00000000000E+00 -0.00000000000E+00 -0.35705485065E+03  0.35705485065E+03  0.00000000000E+00 0. -1.
         21    1    1    2  503  501  0.34283861170E+02 -0.19946658628E+02 -0.35422530279E+03  0.35643907960E+03  0.00000000000E+00 0. -1.
         21    1    1    2  504  502 -0.34283861170E+02  0.19946658628E+02  0.22659471383E+03  0.23004003274E+03  0.00000000000E+00 0.  1.
</event>
<event>
 4    1  0.1551744E+006  0.2329624E+02  0.7546771E-02  0.1488811E+00
         21   -1    0    0  502  501  0.00000000000E+00  0.00000000000E+00  0.18877786061E+02  0.18877786061E+02  0.00000000000E+00 0.  1.
         21   -1    0    0  504  502 -0.00000000000E+00 -0.00000000000E+00 -0.37315644032E+02  0.37315644032E+02  0.00000000000E+00 0.  1.
         21    1    1    2  503  501  0.22389482062E+02 -0.64362972317E+01  0.42433623501E+01  0.23679547147E+02  0.00000000000E+00 0.  1.
         21    1    1    2  504  503 -0.22389482062E+02  0.64362972317E+01 -0.22681220321E+02  0.32513882947E+02  0.00000000000E+00 0.  1.
</event>
<event>
 4    1  0.1551744E+006  0.3992440E+02  0.7546771E-02  0.1348929E+00
         21   -1    0    0  502  501  0.00000000000E+00  0.00000000000E+00  0.93874385272E+02  0.93874385272E+02  0.00000000000E+00 0. -1.
         21   -1    0    0  504  502 -0.00000000000E+00 -0.00000000000E+00 -0.66730885641E+02  0.66730885641E+02  0.00000000000E+00 0. -1.
         21    1    1    2  503  501 -0.30447240323E+02  0.25824864345E+02  0.82909238937E+02  0.92021193009E+02  0.00000000000E+00 0. -1.
         21    1    1    2  504  503  0.30447240323E+02 -0.25824864345E+02 -0.55765739305E+02  0.68584077904E+02  0.00000000000E+00 0. -1.
</event>
<event>
 4    1  0.1551744E+006  0.2743579E+02  0.7546771E-02  0.1443279E+00
         21   -1    0    0  503  501  0.00000000000E+00  0.00000000000E+00  0.30212456519E+03  0.30212456519E+03  0.00000000000E+00 0. -1.
         21   -1    0    0  504  502 -0.00000000000E+00 -0.00000000000E+00 -0.24916005364E+01  0.24916005364E+01  0.00000000000E+00 0. -1.
         21    1    1    2  503  502 -0.55306154484E+01 -0.26872568524E+02  0.15107114294E+03  0.15354221854E+03  0.00000000000E+00 0. -1.
         21    1    1    2  504  501  0.55306154484E+01  0.26872568524E+02  0.14856182172E+03  0.15107394719E+03  0.00000000000E+00 0. -1.
</event>
<event>
 4    1  0.1551744E+006  0.2499926E+02  0.7546771E-02  0.1468812E+00
         21   -1    0    0  503  501  0.00000000000E+00  0.00000000000E+00  0.12306241035E+02  0.12306241035E+02  0.00000000000E+00 0. -1.
         21   -1    0    0  504  502 -0.00000000000E+00 -0.00000000000E+00 -0.50784293692E+02  0.50784293692E+02  0.00000000000E+00 0. -1.
         21    1    1    2  503  502  0.24597901478E+02  0.44616300642E+01 -0.19202043714E+02  0.31522712173E+02  0.00000000000E+00 0. -1.
         21    1    1    2  504  501 -0.24597901478E+02 -0.44616300642E+01 -0.19276008943E+02  0.31567822553E+02  0.00000000000E+00 0. -1.
</event>
<event>
 4    1  0.1551744E+006  0.2194236E+02  0.7546771E-02  0.1506224E+00
         21   -1    0    0  504  501  0.00000000000E+00  0.00000000000E+00  0.89180195528E+01  0.89180195528E+01  0.00000000000E+00 0. -1.
         21   -1    0    0  501  502 -0.00000000000E+00 -0.00000000000E+00 -0.98137486029E+02  0.98137486029E+02  0.00000000000E+00 0. -1.
         21    1    1    2  503  502  0.19758051609E+02  0.95439350420E+01 -0.80512149512E+02  0.83448628021E+02  0.00000000000E+00 0. -1.
         21    1    1    2  504  503 -0.19758051609E+02 -0.95439350420E+01 -0.87073169643E+01  0.23606877561E+02  0.00000000000E+00 0. -1.
</event>
<event>
 4    1  0.1551744E+006  0.2252565E+02  0.7546771E-02  0.1498542E+00
         21   -1    0    0  502  501  0.00000000000E+00  0.00000000000E+00  0.45919814944E+01  0.45919814944E+01  0.00000000000E+00 0.  1.
         21   -1    0    0  503  502 -0.00000000000E+00 -0.00000000000E+00 -0.19435242217E+03  0.19435242217E+03  0.00000000000E+00 0.  1.
         21    1    1    2  503  504 -0.21743407875E+02 -0.58846501022E+01 -0.16021879694E+03  0.16179452335E+03  0.00000000000E+00 0.  1.
         21    1    1    2  504  501  0.21743407875E+02  0.58846501022E+01 -0.29541643736E+02  0.37149880316E+02  0.00000000000E+00 0.  1.
</event>
<event>
 4    1  0.1551744E+006  0.2018209E+02  0.7546771E-02  0.1531270E+00
         21   -1    0    0  503  501  0.00000000000E+00  0.00000000000E+00  0.14834615995E+03  0.14834615995E+03  0.00000000000E+00 0.  1.
         21   -1    0    0  504  502 -0.00000000000E+00 -0.00000000000E+00 -0.32843071852E+01  0.32843071852E+01  0.00000000000E+00 0.  1.
         21    1    1    2  503  502 -0.30827153813E+01 -0.19945265179E+02  0.10323269286E+03  0.10518700306E+03  0.00000000000E+00 0.  1.
         21    1    1    2  504  501  0.30827153813E+01  0.19945265179E+02  0.41829159905E+02  0.46443464077E+02  0.00000000000E+00 0.  1.
</event>
<event>
 4    1  0.1551744E+006  0.5560589E+02  0.7546771E-02  0.1275540E+00
         21   -1    0    0  503  501  0.00000000000E+00  0.00000000000E+00  0.58902126483E+01  0.58902126483E+01  0.00000000000E+00 0. -1.
         21   -1    0    0  501  502 -0.00000000000E+00 -0.00000000000E+00 -0.54754659932E+03  0.54754659932E+03  0.00000000000E+00 0.  1.
         21    1    1    2  503  504  0.47213194457E+02 -0.29375662472E+02 -0.21460265434E+03  0.22168968069E+03  0.00000000000E+00 0. -1.
         21    1    1    2  504  502 -0.47213194457E+02  0.29375662472E+02 -0.32705373233E+03  0.33174713128E+03  0.00000000000E+00 0.  1.
</event>
<event>
 4    1  0.1551744E+006  0.2474549E+02  0.7546771E-02  0.1471671E+00
         21   -1    0    0  503  501  0.00000000000E+00  0.00000000000E+00  0.36463879881E+02  0.36463879881E+02  0.00000000000E+00 0. -1.
         21   -1    0    0  504  502 -0.00000000000E+00 -0.00000000000E+00 -0.34481448817E+02  0.34481448817E+02  0.00000000000E+00 0. -1.
         21    1    1    2  503  502 -0.23824415011E+02  0.66885364477E+01 -0.24415321969E+02  0.34762727414E+02  0.00000000000E+00 0. -1.
         21    1    1    2  504  501  0.23824415011E+02 -0.66885364477E+01  0.26397753033E+02  0.36182601283E+02  0.00000000000E+00 0. -1.
</event>
<event>
 4    1  0.1551744E+006  0.2205503E+02  0.7546771E-02  0.1504718E+00
         21   -1    0    0  502  501  0.00000000000E+00  0.00000000000E+00  0.46916966681E+01  0.46916966681E+01  0.00000000000E+00 0.  1.
         21   -1    0    0  504  502 -0.00000000000E+00 -0.00000000000E+00 -0.33661067877E+03  0.33661067877E+03  0.00000000000E+00 0.  1.
         21    1    1    2  503  501 -0.19664018489E+02  0.99875236549E+01 -0.24001163486E+02  0.32595706781E+02  0.00000000000E+00 0.  1.
         21    1    1    2  504  503  0.19664018489E+02 -0.99875236549E+01 -0.30791781862E+03  0.30870666866E+03  0.00000000000E+00 0.  1.
</event>
<event>
 4    1  0.1551744E+006  0.2032566E+02  0.7546771E-02  0.1529114E+00
         21   -1    0    0  502  501  0.00000000000E+00  0.00000000000E+00  0.36130430027E+01  0.36130430027E+01  0.00000000000E+00 0.  1.
         21   -1    0    0  503  502 -0.00000000000E+00 -0.00000000000E+00 -0.29475903191E+03  0.29475903191E+03  0.00000000000E+00 0.  1.
         21    1    1    2  503  504 -0.17695364455E+02  0.10000326565E+02 -0.26228891234E+03  0.26307528579E+03  0.00000000000E+00 0.  1.
         21    1    1    2  504  501  0.17695364455E+02 -0.10000326565E+02 -0.28857076562E+02  0.35296789122E+02  0.00000000000E+00 0.  1.
</event>
<event>
 4    1  0.1551744E+006  0.2015606E+02  0.7546771E-02  0.1531663E+00
         21   -1    0    0  503  501  0.00000000000E+00  0.00000000000E+00  0.29176755606E+03  0.29176755606E+03  0.00000000000E+00 0.  1.
         21   -1    0    0  504  502 -0.00000000000E+00 -0.00000000000E+00 -0.14056659172E+01  0.14056659172E+01  0.00000000000E+00 0.  1.
         21    1    1    2  503  502 -0.20064896415E+02  0.19148541324E+01  0.15940368377E+03  0.16067296330E+03  0.00000000000E+00 0.  1.
         21    1    1    2  504  501  0.20064896415E+02 -0.19148541324E+01  0.13095820637E+03  0.13250025868E+03  0.00000000000E+00 0.  1.
</event>
<event>
 4    1  0.1551744E+006  0.2167239E+02  0.7546771E-02  0.1509878E+00
         21   -1    0    0  504  501  0.00000000000E+00  0.00000000000E+00  0.93736612803E+01  0.93736612803E+01  0.00000000000E+00 0.  1.
         21   -1    0    0  503  502 -0.00000000000E+00 -0.00000000000E+00 -0.60494458485E+02  0.60494458485E+02  0.00000000000E+00 0.  1.
         21    1    1    2  503  501 -0.21354308682E+02  0.36994485384E+01 -0.11084961026E+02  0.24342735667E+02  0.00000000000E+00 0.  1.
         21    1    1    2  504  502  0.21354308682E+02 -0.36994485384E+01 -0.40035836178E+02  0.45525384098E+02  0.00000000000E+00 0.  1.
</event>
<event>
 4    1  0.1551744E+006  0.2465923E+02  0.7546771E-02  0.1472652E+00
         21   -1    0    0  504  501  0.00000000000E+00  0.00000000000E+00  0.69445362419E+02  0.69445362419E+02  0.00000000000E+00 0.  1.
         21   -1    0    0  501  502 -0.00000000000E+00 -0.00000000000E+00 -0.11328346595E+02  0.11328346595E+02  0.00000000000E+00 0.  1.
         21    1    1    2  503  502 -0.14517545367E+02 -0.19932850540E+02  0.98141061272E+01  0.26540428278E+02  0.00000000000E+00 0.  1.
         21    1    1    2  504  503  0.14517545367E+02  0.19932850540E+02  0.48302909697E+02  0.54233280735E+02  0.00000000000E+00 0.  1.
</event>
<event>
 4    1  0.1551744E+006  0.2038632E+02  0.7546771E-02  0.1528210E+00
         21   -1    0    0  502  501  0.00000000000E+00  0.00000000000E+00  0.79624841607E+02  0.79624841607E+02  0.00000000000E+00 0.  1.
         21   -1    0    0  503  502 -0.00000000000E+00 -0.00000000000E+00 -0.52219424571E+01  0.52219424571E+01  0.00000000000E+00 0.  1.
         21    1    1    2  503  504 -0.45785514684E+01  0.19865525323E+02  0.36284827633E+02  0.41619598104E+02  0.00000000000E+00 0.  1.
         21    1    1    2  504  501  0.45785514684E+01 -0.19865525323E+02  0.38118071516E+02  0.43227185960E+02  0.00000000000E+00 0.  1.
</event>
<event>
 4    1  0.1551744E+006  0.2833035E+02  0.7546771E-02  0.1434683E+00
         21   -1    0    0  502  501  0.00000000000E+00  0.00000000000E+00  0.14486886627E+03  0.14486886627E+03  0.00000000000E+00 0.  1.
         21   -1    0    0  503  502 -0.00000000000E+00 -0.00000000000E+00 -0.16642797188E+02  0.16642797188E+02  0.00000000000E+00 0. -1.
         21    1    1    2  503  504 -0.28327244548E+02 -0.41973321418E+00 -0.18456753767E+01  0.28390411713E+02  0.00000000000E+00 0. -1.
         21    1    1    2  504  501  0.28327244548E+02  0.41973321418E+00  0.13007174446E+03  0.13312125175E+03  0.00000000000E+00 0.  1.
</event>
<event>
 4    1  0.1551744E+006  0.4858734E+02  0.7546771E-02  0.1304416E+00
         21   -1    0    0  504  501  0.00000000000E+00  0.00000000000E+00  0.26090559887E+03  0.26090559887E+03  0.00000000000E+00 0. -1.
         21   -1    0    0  503  502 -0.00000000000E+00 -0.00000000000E+00 -0.11744746665E+02  0.11744746665E+02  0.00000000000E+00 0. -1.
         21    1    1    2  503  501  0.29403118601E+02 -0.38680570597E+02  0.18990205424E+03  0.19601918306E+03  0.00000000000E+00 0. -1.
         21    1    1    2  504  502 -0.29403118601E+02  0.38680570597E+02  0.59258797965E+02  0.76631162470E+02  0.00000000000E+00 0. -1.
</event>
<event>
 4    1  0.1551744E+006  0.2730041E+02  0.7546771E-02  0.1444614E+00
         21   -1    0    0  503  501  0.00000000000E+00  0.00000000000E+00  0.48502247213E+01  0.48502247213E+01  0.00000000000E+00 0.  1.
         21   -1    0    0  504  502 -0.00000000000E+00 -0.00000000000E+00 -0.48263812916E+03  0.48263812916E+03  0.00000000000E+00 0.  1.
         21    1    1    2  503  502 -0.44461746234E+01  0.26935926988E+02 -0.37659071871E+02  0.46513635911E+02  0.00000000000E+00 0.  1.
         21    1    1    2  504  501  0.44461746234E+01 -0.26935926988E+02 -0.44012883257E+03  0.44097471797E+03  0.00000000000E+00 0.  1.
</event>
<event>
 4    1  0.1551744E+006  0.4725749E+02  0.7546771E-02  0.1310522E+00
         21   -1    0    0  504  501  0.00000000000E+00  0.00000000000E+00  0.31930937617E+03  0.31930937617E+03  0.00000000000E+00 0.  1.
         21   -1    0    0  503  502 -0.00000000000E+00 -0.00000000000E+00 -0.12603309752E+02  0.12603309752E+02  0.00000000000E+00 0. -1.
         21    1    1    2  503  501  0.37048541095E+02 -0.29337271427E+02  0.26406736004E+03  0.26826263350E+03  0.00000000000E+00 0.  1.
         21    1    1    2  504  502 -0.37048541095E+02  0.29337271427E+02  0.42638706373E+02  0.63650052421E+02  0.00000000000E+00 0. -1.
</event>
<event>
 4    1  0.1551744E+006  0.2554315E+02  0.7546771E-02  0.1462818E+00
         21   -1    0    0  504  501  0.00000000000E+00  0.00000000000E+00  0.16549002212E+03  0.16549002212E+03  0.00000000000E+00 0.  1.
         21   -1    0    0  503  502 -0.00000000000E+00 -0.00000000000E+00 -0.43412610868E+01  0.43412610868E+01  0.00000000000E+00 0.  1.
         21    1    1    2  503  501  0.13507774038E+02 -0.21679310541E+02  0.54840242349E+02  0.60497145767E+02  0.00000000000E+00 0.  1.
         21    1    1    2  504  502 -0.13507774038E+02  0.21679310541E+02  0.10630851868E+03  0.10933413744E+03  0.00000000000E+00 0.  1.
</event>
<event>
 4    1  0.1551744E+006  0.2084547E+02  0.7546771E-02  0.1521483E+00
         21   -1    0    0  503  501  0.00000000000E+00  0.00000000000E+00  0.37798089015E+01  0.37798089015E+01  0.00000000000E+00 0. -1.
         21   -1    0    0  504  502 -0.00000000000E+00 -0.00000000000E+00 -0.12001811029E+03  0.12001811029E+03  0.00000000000E+00 0. -1.
         21    1    1    2  503  502 -0.90296560843E+01 -0.18788270169E+02 -0.70824163648E+02  0.73828151415E+02  0.00000000000E+00 0. -1.
         21    1    1    2  504  501  0.90296560843E+01  0.18788270169E+02 -0.45414137745E+02  0.49969767781E+02  0.00000000000E+00 0. -1.
</event>
<event>
 4    1  0.1551744E+006  0.2056929E+02  0.7546771E-02  0.1525504E+00
         21   -1    0    0  502  501  0.00000000000E+00  0.00000000000E+00  0.53525340979E+01  0.53525340979E+01  0.00000000000E+00 0.  1.
         21   -1    0    0  503  502 -0.00000000000E+00 -0.00000000000E+00 -0.19499328380E+03  0.19499328380E+03  0.00000000000E+00 0.  1.
         21    1    1    2  503  504  0.18165841586E+02 -0.96487212403E+01 -0.17206548991E+03  0.17329058959E+03  0.00000000000E+00 0.  1.
         21    1    1    2  504  501 -0.18165841586E+02  0.96487212403E+01 -0.17575259793E+02  0.27055228310E+02  0.00000000000E+00 0.  1.
</event>
<event>
 4    1  0.1551744E+006  0.3038340E+02  0.7546771E-02  0.1416293E+00
         21   -1    0    0  504  501  0.00000000000E+00  0.00000000000E+00  0.32919932428E+01  0.32919932428E+01  0.00000000000E+00 0.  1.
         21   -1    0    0  503  502 -0.00000000000E+00 -0.00000000000E+00 -0.53855749577E+03  0.53855749577E+03  0.00000000000E+00 0.  1.
         21    1    1    2  503  501  0.28394304012E+02 -0.10812697222E+02 -0.45519938360E+03  0.45621226392E+03  0.00000000000E+00 0.  1.
         21    1    1    2  504  502 -0.28394304012E+02  0.10812697222E+02 -0.80066118930E+02  0.85637225095E+02  0.00000000000E+00 0.  1.
</event>
<event>
 4    1  0.1551744E+006  0.2073158E+02  0.7546771E-02  0.1523132E+00
         21   -1    0    0  502  501  0.00000000000E+00  0.00000000000E+00  0.81827566827E+01  0.81827566827E+01  0.00000000000E+00 0. -1.
         21   -1    0    0  503  502 -0.00000000000E+00 -0.00000000000E+00 -0.54836362663E+02  0.54836362663E+02  0.00000000000E+00 0. -1.
         21    1    1    2  503  504 -0.19907926675E+02 -0.57855804709E+01 -0.29796014454E+02  0.36298773577E+02  0.00000000000E+00 0. -1.
         21    1    1    2  504  501  0.19907926675E+02  0.57855804709E+01 -0.16857591526E+02  0.26720345768E+02  0.00000000000E+00 0. -1.
</event>
<event>
 4    1  0.1551744E+006  0.2687548E+02  0.7546771E-02  0.1448863E+00
         21   -1    0    0  502  501  0.00000000000E+00  0.00000000000E+00  0.11164793363E+04  0.11164793363E+04  0.00000000000E+00 0. -1.
         21   -1    0    0  504  502 -0.00000000000E+00 -0.00000000000E+00 -0.15543955957E+02  0.15543955957E+02  0.00000000000E+00 0.  1.
         21    1    1    2  503  501  0.12950932902E+02 -0.23549202279E+02  0.11045755066E+04  0.11049024126E+04  0.00000000000E+00 0. -1.
         21    1    1    2  504  503 -0.12950932902E+02  0.23549202279E+02 -0.36401263075E+01  0.27120879605E+02  0.00000000000E+00 0.  1.
</event>
<event>
 4    1  0.1551744E+006  0.2523720E+02  0.7546771E-02  0.1466167E+00
         21   -1    0    0  503  501  0.00000000000E+00  0.00000000000E+00  0.19308532733E+02  0.19308532733E+02  0.00000000000E+00 0. -1.
         21   -1    0    0  504  502 -0.00000000000E+00 -0.00000000000E+00 -0.36790183380E+02  0.36790183380E+02  0.00000000000E+00 0.  1.
         21    1    1    2  503  502 -0.25224907032E+02  0.78745572155E+00  0.27849057163E+00  0.25238731709E+02  0.00000000000E+00 0. -1.
         21    1    1    2  504  501  0.25224907032E+02 -0.78745572155E+00 -0.17760141218E+02  0.30859984404E+02  0.00000000000E+00 0.  1.
</event>
<event>
 4    1  0.1551744E+006  0.2160909E+02  0.7546771E-02  0.1510744E+00
         21   -1    0    0  503  501  0.00000000000E+00  0.00000000000E+00  0.14198554571E+03  0.14198554571E+03  0.00000000000E+00 0. -1.
         21   -1    0    0  504  502 -0.00000000000E+00 -0.00000000000E+00 -0.95282977453E+01  0.95282977453E+01  0.00000000000E+00 0. -1.
         21    1    1    2  503  502  0.84666406015E+01 -0.19881363518E+02  0.12753304434E+03  0.12935080215E+03  0.00000000000E+00 0. -1.
         21    1    1    2  504  501 -0.84666406015E+01  0.19881363518E+02  0.49242036214E+01  0.22163041301E+02  0.00000000000E+00 0. -1.
</event>
<event>
 4    1  0.1551744E+006  0.3767130E+02  0.7546771E-02  0.1362700E+00
         21   -1    0    0  503  501  0.00000000000E+00  0.00000000000E+00  0.46789943001E+02  0.46789943001E+02  0.00000000000E+00 0.  1.
         21   -1    0    0  504  502 -0.00000000000E+00 -0.00000000000E+00 -0.59558960174E+02  0.59558960174E+02  0.00000000000E+00 0.  1.
         21    1    1    2  503  502  0.30978658685E+02 -0.21434780798E+02  0.30866499511E+02  0.48701826596E+02  0.00000000000E+00 0.  1.
         21    1    1    2  504  501 -0.30978658685E+02  0.21434780798E+02 -0.43635516684E+02  0.57647076579E+02  0.00000000000E+00 0.  1.
</event>
<event>
 4    1  0.1551744E+006  0.2899715E+02  0.7546771E-02  0.1428516E+00
         21   -1    0    0  504  501  0.00000000000E+00  0.00000000000E+00  0.25198640545E+03  0.25198640545E+03  0.00000000000E+00 0.  1.
         21   -1    0    0  503  502 -0.00000000000E+00 -0.00000000000E+00 -0.16849765386E+02  0.16849765386E+02  0.00000000000E+00 0. -1.
         21    1    1    2  503  501 -0.28364940152E+02 -0.60220504961E+01 -0.28065086471E+01  0.29132652004E+02  0.00000000000E+00 0. -1.
         21    1    1    2  504  502  0.28364940152E+02  0.60220504961E+01  0.23794314871E+03  0.23970351883E+03  0.00000000000E+00 0.  1.
</event>
<event>
 4    1  0.1551744E+006  0.2141238E+02  0.7546771E-02  0.1513458E+00
         21   -1    0    0  504  501  0.00000000000E+00  0.00000000000E+00  0.64597778124E+02  0.64597778124E+02  0.00000000000E+00 0. -1.
         21   -1    0    0  503  502 -0.00000000000E+00 -0.00000000000E+00 -0.17649064568E+03  0.17649064568E+03  0.00000000000E+00 0. -1.
         21    1    1    2  503  501  0.18135331459E+02  0.11384196204E+02 -0.17404191628E+03  0.17535415248E+03  0.00000000000E+00 0. -1.
         21    1    1    2  504  502 -0.18135331459E+02 -0.11384196204E+02  0.62149048718E+02  0.65734271327E+02  0.00000000000E+00 0. -1.
</event>
<event>
 4    1  0.1551744E+006  0.2011072E+02  0.7546771E-02  0.1532350E+00
         21   -1    0    0  503  501  0.00000000000E+00  0.00000000000E+00  0.31970023576E+02  0.31970023576E+02  0.00000000000E+00 0. -1.
         21   -1    0    0  504  502 -0.00000000000E+00 -0.00000000000E+00 -0.36184242563E+03  0.36184242563E+03  0.00000000000E+00 0.  1.
         21    1    1    2  503  502  0.61628221543E+01 -0.19143166740E+02  0.28497309030E+02  0.34878902386E+02  0.00000000000E+00 0. -1.
         21    1    1    2  504  501 -0.61628221543E+01  0.19143166740E+02 -0.35836971109E+03  0.35893354682E+03  0.00000000000E+00 0.  1.
</event>
<event>
 4    1  0.1551744E+006  0.2449460E+02  0.7546771E-02  0.1474537E+00
         21   -1    0    0  504  501  0.00000000000E+00  0.00000000000E+00  0.51606715569E+02  0.51606715569E+02  0.00000000000E+00 0. -1.
         21   -1    0    0  503  502 -0.00000000000E+00 -0.00000000000E+00 -0.83982223567E+02  0.83982223567E+02  0.00000000000E+00 0. -1.
         21    1    1    2  503  501  0.10276374842E+01  0.24473031277E+02  0.46739416102E+02  0.52768914298E+02  0.00000000000E+00 0. -1.
         21    1    1    2  504  502 -0.10276374842E+01 -0.24473031277E+02 -0.79114924101E+02  0.82820024838E+02  0.00000000000E+00 0. -1.
</event>
<event>
 4    1  0.1551744E+006  0.2784559E+02  0.7546771E-02  0.1439294E+00
         21   -1    0    0  502  501  0.00000000000E+00  0.00000000000E+00  0.97594475641E+00  0.97594475641E+00  0.00000000000E+00 0. -1.
         21   -1    0    0  504  502 -0.00000000000E+00 -0.00000000000E+00 -0.12249565869E+04  0.12249565869E+04  0.00000000000E+00 0.  1.
         21    1    1    2  503  501  0.19096746820E+02  0.20265515804E+02 -0.24862229169E+03  0.25017677909E+03  0.00000000000E+00 0. -1.
         21    1    1    2  504  503 -0.19096746820E+02 -0.20265515804E+02 -0.97535835047E+03  0.97575575258E+03  0.00000000000E+00 0.  1.
</event>
<event>
 4    1  0.1551744E+006  0.2295315E+02  0.7546771E-02  0.1493087E+00
         21   -1    0    0  503  501  0.00000000000E+00  0.00000000000E+00  0.13858589669E+01  0.13858589669E+01  0.00000000000E+00 0.  1.
         21   -1    0    0  504  502 -0.00000000000E+00 -0.00000000000E+00 -0.38028440471E+03  0.38028440471E+03  0.00000000000E+00 0.  1.
         21    1    1    2  503  502 -0.22266777883E+02  0.55711530125E+01 -0.18598764476E+03  0.18739864233E+03  0.00000000000E+00 0.  1.
         21    1    1    2  504  501  0.22266777883E+02 -0.55711530125E+01 -0.19291090098E+03  0.19427162134E+03  0.00000000000E+00 0.  1.
</event>
<event>
 4    1  0.1551744E+006  0.2137648E+02  0.7546771E-02  0.1513957E+00
         21   -1    0    0  504  501  0.00000000000E+00  0.00000000000E+00  0.21215863510E+00  0.21215863510E+00  0.00000000000E+00 0. -1.
         21   -1    0    0  503  502 -0.00000000000E+00 -0.00000000000E+00 -0.22305348795E+04  0.22305348795E+04  0.00000000000E+00 0. -1.
         21    1    1    2  503  501  0.21135989480E+02 -0.31974488553E+01 -0.90832541493E+03  0.90857691646E+03  0.00000000000E+00 0. -1.
         21    1    1    2  504  502 -0.21135989480E+02  0.31974488553E+01 -0.13219973060E+04  0.13221701217E+04  0.00000000000E+00 0. -1.
</event>
<event>
 4    1  0.1551744E+006  0.2013081E+02  0.7546771E-02  0.1532045E+00
         21   -1    0    0  503  501  0.00000000000E+00  0.00000000000E+00  0.25430688863E+03  0.25430688863E+03  0.00000000000E+00 0.  1.
         21   -1    0    0  504  502 -0.00000000000E+00 -0.00000000000E+00 -0.88587191315E+02  0.88587191315E+02  0.00000000000E+00 0.  1.
         21    1    1    2  503  502  0.19494099287E+02 -0.50229083973E+01 -0.87038161342E+02  0.89335832931E+02  0.00000000000E+00 0.  1.
         21    1    1    2  504  501 -0.19494099287E+02  0.50229083973E+01  0.25275785866E+03  0.25355824702E+03  0.00000000000E+00 0.  1.
</event>
<event>
 4    1  0.1551744E+006  0.4838400E+02  0.7546771E-02  0.1305335E+00
         21   -1    0    0  504  501  0.00000000000E+00  0.00000000000E+00  0.21017786932E+03  0.21017786932E+03  0.00000000000E+00 0. -1.
         21   -1    0    0  503  502 -0.00000000000E+00 -0.00000000000E+00 -0.11369618810E+02  0.11369618810E+02  0.00000000000E+00 0. -1.
         21    1    1    2  503  501  0.14263827081E+02  0.46233695423E+02  0.11520665253E+03  0.12495432822E+03  0.00000000000E+00 0. -1.
         21    1    1    2  504  502 -0.14263827081E+02 -0.46233695423E+02  0.83601597981E+02  0.96593159905E+02  0.00000000000E+00 0. -1.
</event>
<event>
 4    1  0.1551744E+006  0.4150790E+02  0.7546771E-02  0.1339869E+00
         21   -1    0    0  503  501  0.00000000000E+00  0.00000000000E+00  0.10830510470E+02  0.10830510470E+02  0.00000000000E+00 0. -1.
         21   -1    0    0  504  502 -0.00000000000E+00 -0.00000000000E+00 -0.56319805742E+03  0.56319805742E+03  0.00000000000E+00 0. -1.
         21    1    1    2  503  502 -0.35969939194E+02  0.20713984137E+02 -0.51930767567E+03  0.52096388327E+03  0.00000000000E+00 0. -1.
         21    1    1    2  504  501  0.35969939194E+02 -0.20713984137E+02 -0.33059871280E+02  0.53064684617E+02  0.00000000000E+00 0. -1.
</event>
<event>
 4    1  0.1551744E+006  0.2057125E+02  0.7546771E-02  0.1525475E+00
         21   -1    0    0  504  501  0.00000000000E+00  0.00000000000E+00  0.42994439232E+01  0.42994439232E+01  0.00000000000E+00 0.  1.
         21   -1    0    0  501  502 -0.00000000000E+00 -0.00000000000E+00 -0.23576958846E+03  0.23576958846E+03  0.00000000000E+00 0. -1.
         21    1    1    2  503  502  0.16456769874E+02 -0.12343057022E+02 -0.20735010045E+03  0.20836804094E+03  0.00000000000E+00 0. -1.
         21    1    1    2  504  503 -0.16456769874E+02  0.12343057022E+02 -0.24120044091E+02  0.31700991440E+02  0.00000000000E+00 0.  1.
</event>
<event>
 4    1  0.1551744E+006  0.2241902E+02  0.7546771E-02  0.1499925E+00
         21   -1    0    0  503  501  0.00000000000E+00  0.00000000000E+00  0.42249520304E+01  0.42249520304E+01  0.00000000000E+00 0.  1.
         21   -1    0    0  504  502 -0.00000000000E+00 -0.00000000000E+00 -0.23643039352E+03  0.23643039352E+03  0.00000000000E+00 0.  1.
         21    1    1    2  503  502  0.20568307790E+02  0.89194829339E+01 -0.20091773761E+03  0.20216465998E+03  0.00000000000E+00 0.  1.
         21    1    1    2  504  501 -0.20568307790E+02 -0.89194829339E+01 -0.31287703882E+02  0.38490685566E+02  0.00000000000E+00 0.  1.
</event>
<event>
 4    1  0.1551744E+006  0.3763798E+02  0.7546771E-02  0.1362912E+00
         21   -1    0    0  502  501  0.00000000000E+00  0.00000000000E+00  0.97107078771E+01  0.97107078771E+01  0.00000000000E+00 0. -1.
         21   -1    0    0  503  502 -0.00000000000E+00 -0.00000000000E+00 -0.15283726563E+03  0.15283726563E+03  0.00000000000E+00 0. -1.
         21    1    1    2  503  504 -0.27391855978E+02 -0.25812855320E+02 -0.88901098449E+02  0.96540264031E+02  0.00000000000E+00 0. -1.
         21    1    1    2  504  501  0.27391855978E+02  0.25812855320E+02 -0.54225459308E+02  0.66007709481E+02  0.00000000000E+00 0. -1.
</event>
<event>
 4    1  0.1551744E+006  0.2746327E+02  0.7546771E-02  0.1443009E+00
         21   -1    0    0  504  501  0.00000000000E+00  0.00000000000E+00  0.73660026274E+02  0.73660026274E+02  0.00000000000E+00 0.  1.
         21   -1    0    0  503  502 -0.00000000000E+00 -0.00000000000E+00 -0.10267984114E+02  0.10267984114E+02  0.00000000000E+00 0.  1.
         21    1    1    2  503  501  0.26291143890E+02 -0.79376854209E+01  0.29480149327E+02  0.40290325156E+02  0.00000000000E+00 0.  1.
         21    1    1    2  504  502 -0.26291143890E+02  0.79376854209E+01  0.33911892833E+02  0.43637685232E+02  0.00000000000E+00 0.  1.
</event>
<event>
 4    1  0.1551744E+006  0.3103709E+02  0.7546771E-02  0.1410793E+00
         21   -1    0    0  504  501  0.00000000000E+00  0.00000000000E+00  0.51657795955E+02  0.51657795955E+02  0.00000000000E+00 0.  1.
         21   -1    0    0  503  502 -0.00000000000E+00 -0.00000000000E+00 -0.76845075708E+03  0.76845075708E+03  0.00000000000E+00 0.  1.
         21    1    1    2  503  501 -0.27199502846E+02 -0.14949510061E+02  0.46651916563E+02  0.56033044939E+02  0.00000000000E+00 0.  1.
         21    1    1    2  504  502  0.27199502846E+02  0.14949510061E+02 -0.76344487769E+03  0.76407550810E+03  0.00000000000E+00 0.  1.
</event>
<event>
 4    1  0.1551744E+006  0.3245465E+02  0.7546771E-02  0.1399399E+00
         21   -1    0    0  503  501  0.00000000000E+00  0.00000000000E+00  0.99669962117E+02  0.99669962117E+02  0.00000000000E+00 0. -1.
         21   -1    0    0  504  502 -0.00000000000E+00 -0.00000000000E+00 -0.15236807081E+02  0.15236807081E+02  0.00000000000E+00 0. -1.
         21    1    1    2  503  502  0.14502249096E+02  0.29034279108E+02  0.74020093079E+02  0.80822514014E+02  0.00000000000E+00 0. -1.
         21    1    1    2  504  501 -0.14502249096E+02 -0.29034279108E+02  0.10413061956E+02  0.34084255184E+02  0.00000000000E+00 0. -1.
</event>
<event>
 4    1  0.1551744E+006  0.2872580E+02  0.7546771E-02  0.1431002E+00
         21   -1    0    0  504  501  0.00000000000E+00  0.00000000000E+00  0.33634780322E+02  0.33634780322E+02  0.00000000000E+00 0. -1.
         21   -1    0    0  503  502 -0.00000000000E+00 -0.00000000000E+00 -0.40005198887E+02  0.40005198887E+02  0.00000000000E+00 0. -1.
         21    1    1    2  503  501 -0.12213313543E+01 -0.28699826422E+02 -0.26083203936E+02  0.38800840384E+02  0.00000000000E+00 0. -1.
         21    1    1    2  504  502  0.12213313543E+01  0.28699826422E+02  0.19712785372E+02  0.34839138825E+02  0.00000000000E+00 0. -1.
</event>
<event>
 4    1  0.1551744E+006  0.2705652E+02  0.7546771E-02  0.1447041E+00
         21   -1    0    0  504  501  0.00000000000E+00  0.00000000000E+00  0.22897664375E+02  0.22897664375E+02  0.00000000000E+00 0.  1.
         21   -1    0    0  503  502 -0.00000000000E+00 -0.00000000000E+00 -0.34552675784E+02  0.34552675784E+02  0.00000000000E+00 0.  1.
         21    1    1    2  503  501 -0.23225195601E+02 -0.13879687737E+02 -0.13679751168E+02  0.30318163441E+02  0.00000000000E+00 0.  1.
         21    1    1    2  504  502  0.23225195601E+02  0.13879687737E+02  0.20247397604E+01  0.27132176718E+02  0.00000000000E+00 0.  1.
</event>
<event>
 4    1  0.1551744E+006  0.2202692E+02  0.7546771E-02  0.1505093E+00
         21   -1    0    0  502  501  0.00000000000E+00  0.00000000000E+00  0.61035175343E+01  0.61035175343E+01  0.00000000000E+00 0.  1.
         21   -1    0    0  504  502 -0.00000000000E+00 -0.00000000000E+00 -0.80557472845E+02  0.80557472845E+02  0.00000000000E+00 0.  1.
         21    1    1    2  503  501  0.21578270896E+02  0.44230413137E+01 -0.42208589124E+02  0.47610398709E+02  0.00000000000E+00 0.  1.
         21    1    1    2  504  503 -0.21578270896E+02 -0.44230413137E+01 -0.32245366186E+02  0.39050591670E+02  0.00000000000E+00 0.  1.
</event>
<event>
 4    1  0.1551744E+006  0.2018154E+02  0.7546771E-02  0.1531278E+00
         21   -1    0    0  503  501  0.00000000000E+00  0.00000000000E+00  0.32295250434E+03  0.32295250434E+03  0.00000000000E+00 0. -1.
         21   -1    0    0  504  502 -0.00000000000E+00 -0.00000000000E+00 -0.20014225390E+01  0.20014225390E+01  0.00000000000E+00 0. -1.
         21    1    1    2  503  502  0.13562324739E+02  0.14945167109E+02  0.25928883676E+03  0.26007305808E+03  0.00000000000E+00 0. -1.
         21    1    1    2  504  501 -0.13562324739E+02 -0.14945167109E+02  0.61662245041E+02  0.64880868797E+02  0.00000000000E+00 0. -1.
</event>
<event>
 4    1  0.1551744E+006  0.2105432E+02  0.7546771E-02  0.1518491E+00
         21   -1    0    0  503  501  0.00000000000E+00  0.00000000000E+00  0.74350459617E+02  0.74350459617E+02  0.00000000000E+00 0. -1.
         21   -1    0    0  504  502 -0.00000000000E+00 -0.00000000000E+00 -0.97738540647E+01  0.97738540647E+01  0.00000000000E+00 0. -1.
         21    1    1    2  503  502 -0.18716329768E+02  0.96427981520E+01  0.60206483663E+01  0.21898236526E+02  0.00000000000E+00 0. -1.
         21    1    1    2  504  501  0.18716329768E+02 -0.96427981520E+01  0.58555957186E+02  0.62226077156E+02  0.00000000000E+00 0. -1.
</event>
<event>
 4    1  0.1551744E+006  0.2908710E+02  0.7546771E-02  0.1427699E+00
         21   -1    0    0  504  501  0.00000000000E+00  0.00000000000E+00  0.10335331143E+03  0.10335331143E+03  0.00000000000E+00 0.  1.
         21   -1    0    0  501  502 -0.00000000000E+00 -0.00000000000E+00 -0.98006923251E+01  0.98006923251E+01  0.00000000000E+00 0. -1.
         21    1    1    2  503  502  0.20398286866E+02  0.20735707459E+02  0.23812489863E+02  0.37591147154E+02  0.00000000000E+00 0. -1.
         21    1    1    2  504  503 -0.20398286866E+02 -0.20735707459E+02  0.69740129239E+02  0.75562856598E+02  0.00000000000E+00 0.  1.
</event>
<event>
 4    1  0.1551744E+006  0.4274437E+02  0.7546771E-02  0.1333113E+00
         21   -1    0    0  502  501  0.00000000000E+00  0.00000000000E+00  0.30944054185E+03  0.30944054185E+03  0.00000000000E+00 0. -1.
         21   -1    0    0  504  502 -0.00000000000E+00 -0.00000000000E+00 -0.18148440213E+02  0.18148440213E+02  0.00000000000E+00 0. -1.
         21    1    1    2  503  501 -0.25287702050E+02  0.34461759484E+02  0.28018278009E+03  0.28342454199E+03  0.00000000000E+00 0. -1.
         21    1    1    2  504  503  0.25287702050E+02 -0.34461759484E+02  0.11109321543E+02  0.44164440072E+02  0.00000000000E+00 0. -1.
</event>
<event>
 4    1  0.1551744E+006  0.2072795E+02  0.7546771E-02  0.1523185E+00
         21   -1    0    0  502  501  0.00000000000E+00  0.00000000000E+00  0.14187634238E+02  0.14187634238E+02  0.00000000000E+00 0.  1.
         21   -1    0    0  503  502 -0.00000000000E+00 -0.00000000000E+00 -0.34746619520E+03  0.34746619520E+03  0.00000000000E+00 0. -1.
         21    1    1    2  503  504 -0.19293044730E+02 -0.75780214576E+01 -0.33940663843E+03  0.34003898922E+03  0.00000000000E+00 0. -1.
         21    1    1    2  504  501  0.19293044730E+02  0.75780214576E+01  0.61280774633E+01  0.21614840216E+02  0.00000000000E+00 0.  1.
</event>
<event>
 4    1  0.1551744E+006  0.2386207E+02  0.7546771E-02  0.1481948E+00
         21   -1    0    0  503  501  0.00000000000E+00  0.00000000000E+00  0.62320270652E+02  0.62320270652E+02  0.00000000000E+00 0.  1.
         21   -1    0    0  504  502 -0.00000000000E+00 -0.00000000000E+00 -0.93287025150E+01  0.93287025150E+01  0.00000000000E+00 0.  1.
         21    1    1    2  503  502  0.20922850533E+01 -0.23770164075E+02  0.31636007115E+02  0.39626194658E+02  0.00000000000E+00 0.  1.
         21    1    1    2  504  501 -0.20922850533E+01  0.23770164075E+02  0.21355561022E+02  0.32022778509E+02  0.00000000000E+00 0.  1.
</event>
<event>
 4    1  0.1551744E+006  0.2379005E+02  0.7546771E-02  0.1482809E+00
         21   -1    0    0  504  501  0.00000000000E+00  0.00000000000E+00  0.30598783261E+01  0.30598783261E+01  0.00000000000E+00 0.  1.
         21   -1    0    0  503  502 -0.00000000000E+00 -0.00000000000E+00 -0.20836546431E+03  0.20836546431E+03  0.00000000000E+00 0. -1.
         21    1    1    2  503  501 -0.16626491472E+02 -0.17015464539E+02 -0.67225417693E+02  0.71310749794E+02  0.00000000000E+00 0.  1.
         21    1    1    2  504  502  0.16626491472E+02  0.17015464539E+02 -0.13808016829E+03  0.14011459284E+03  0.00000000000E+00 0. -1.
</event>
<event>
 4    1  0.1551744E+006  0.2281157E+02  0.7546771E-02  0.1494878E+00
         21   -1    0    0  503  501  0.00000000000E+00  0.00000000000E+00  0.71541099999E+02  0.71541099999E+02  0.00000000000E+00 0.  1.
         21   -1    0    0  504  502 -0.00000000000E+00 -0.00000000000E+00 -0.12617098526E+02  0.12617098526E+02  0.00000000000E+00 0.  1.
         21    1    1    2  503  502 -0.10606852845E+02 -0.20195597890E+02  0.56845947225E+02  0.61252177245E+02  0.00000000000E+00 0.  1.
         21    1    1    2  504  501  0.10606852845E+02  0.20195597890E+02  0.20780542476E+01  0.22906021280E+02  0.00000000000E+00 0.  1.
</event>
<event>
 4    1  0.1551744E+006  0.3441311E+02  0.7546771E-02  0.1384737E+00
         21   -1    0    0  504  501  0.00000000000E+00  0.00000000000E+00  0.21558431473E+03  0.21558431473E+03  0.00000000000E+00 0.  1.
         21   -1    0    0  503  502 -0.00000000000E+00 -0.00000000000E+00 -0.22728585030E+02  0.22728585030E+02  0.00000000000E+00 0.  1.
         21    1    1    2  503  501  0.26295586088E+02 -0.22199198298E+02  0.20019050261E+03  0.20312680667E+03  0.00000000000E+00 0.  1.
         21    1    1    2  504  502 -0.26295586088E+02  0.22199198298E+02 -0.73347729163E+01  0.35186093083E+02  0.00000000000E+00 0.  1.
</event>
<event>
 4    1  0.1551744E+006  0.2580919E+02  0.7546771E-02  0.1459951E+00
         21   -1    0    0  504  501  0.00000000000E+00  0.00000000000E+00  0.58778731611E+01  0.58778731611E+01  0.00000000000E+00 0.  1.
         21   -1    0    0  503  502 -0.00000000000E+00 -0.00000000000E+00 -0.11415807729E+03  0.11415807729E+03  0.00000000000E+00 0.  1.
         21    1    1    2  503  501 -0.15857955427E+02  0.20362696160E+02 -0.49015198478E+02  0.55394980161E+02  0.00000000000E+00 0.  1.
         21    1    1    2  504  502  0.15857955427E+02 -0.20362696160E+02 -0.59265005652E+02  0.64640970291E+02  0.00000000000E+00 0.  1.
</event>
<event>
 4    1  0.1551744E+006  0.2116023E+02  0.7546771E-02  0.1516989E+00
         21   -1    0    0  504  501  0.00000000000E+00  0.00000000000E+00  0.15243894562E+02  0.15243894562E+02  0.00000000000E+00 0.  1.
         21   -1    0    0  503  502 -0.00000000000E+00 -0.00000000000E+00 -0.99998212414E+02  0.99998212414E+02  0.00000000000E+00 0.  1.
         21    1    1    2  503  501 -0.36713885416E+01  0.20839293811E+02 -0.90801720411E+02  0.93234691451E+02  0.00000000000E+00 0.  1.
         21    1    1    2  504  502  0.36713885416E+01 -0.20839293811E+02  0.60474025589E+01  0.22007415525E+02  0.00000000000E+00 0.  1.
</event>
<event>
 4    1  0.1551744E+006  0.2575933E+02  0.7546771E-02  0.1460485E+00
         21   -1    0    0  503  501  0.00000000000E+00  0.00000000000E+00  0.46697097173E+03  0.46697097173E+03  0.00000000000E+00 0. -1.
         21   -1    0    0  501  502 -0.00000000000E+00 -0.00000000000E+00 -0.16025088231E+02  0.16025088231E+02  0.00000000000E+00 0.  1.
         21    1    1    2  503  504  0.25379749178E+02 -0.44058254917E+01  0.45601561632E+03  0.45674258100E+03  0.00000000000E+00 0. -1.
         21    1    1    2  504  502 -0.25379749178E+02  0.44058254917E+01 -0.50697328252E+01  0.26253478961E+02  0.00000000000E+00 0.  1.
</event>
<event>
 4    1  0.1551744E+006  0.2770607E+02  0.7546771E-02  0.1440642E+00
         21   -1    0    0  504  501  0.00000000000E+00  0.00000000000E+00  0.12489826671E+02  0.12489826671E+02  0.00000000000E+00 0.  1.
         21   -1    0    0  503  502 -0.00000000000E+00 -0.00000000000E+00 -0.73117931432E+02  0.73117931432E+02  0.00000000000E+00 0.  1.
         21    1    1    2  503  501  0.15635550903E+02 -0.22872604206E+02 -0.47405519792E+02  0.54908194124E+02  0.00000000000E+00 0.  1.
         21    1    1    2  504  502 -0.15635550903E+02  0.22872604206E+02 -0.13222584970E+02  0.30699563979E+02  0.00000000000E+00 0.  1.
</event>
<event>
 4    1  0.1551744E+006  0.2026893E+02  0.7546771E-02  0.1529964E+00
         21   -1    0    0  504  501  0.00000000000E+00  0.00000000000E+00  0.18489776162E+02  0.18489776162E+02  0.00000000000E+00 0.  1.
         21   -1    0    0  503  502 -0.00000000000E+00 -0.00000000000E+00 -0.28842852090E+02  0.28842852090E+02  0.00000000000E+00 0. -1.
         21    1    1    2  503  501  0.18813587028E+02  0.75417714429E+01 -0.16517709149E+02  0.26146970931E+02  0.00000000000E+00 0. -1.
         21    1    1    2  504  502 -0.18813587028E+02 -0.75417714429E+01  0.61646332203E+01  0.21185657321E+02  0.00000000000E+00 0.  1.
</event>
<event>
 4    1  0.1551744E+006  0.2280230E+02  0.7546771E-02  0.1494996E+00
         21   -1    0    0  503  501  0.00000000000E+00  0.00000000000E+00  0.53577851387E+02  0.53577851387E+02  0.00000000000E+00 0. -1.
         21   -1    0    0  504  502 -0.00000000000E+00 -0.00000000000E+00 -0.14108686722E+02  0.14108686722E+02  0.00000000000E+00 0. -1.
         21    1    1    2  503  502  0.19545173727E+02 -0.11744411626E+02  0.38643340725E+02  0.44869285740E+02  0.00000000000E+00 0. -1.
         21    1    1    2  504  501 -0.19545173727E+02  0.11744411626E+02  0.82582394068E+00  0.22817252369E+02  0.00000000000E+00 0. -1.
</event>
<event>
 4    1  0.1551744E+006  0.2201058E+02  0.7546771E-02  0.1505311E+00
         21   -1    0    0  504  501  0.00000000000E+00  0.00000000000E+00  0.24650198951E+02  0.24650198951E+02  0.00000000000E+00 0.  1.
         21   -1    0    0  503  502 -0.00000000000E+00 -0.00000000000E+00 -0.20143092557E+02  0.20143092557E+02  0.00000000000E+00 0.  1.
         21    1    1    2  503  501 -0.17808699577E+02  0.12935054676E+02  0.57448606381E+01  0.22747941530E+02  0.00000000000E+00 0.  1.
         21    1    1    2  504  502  0.17808699577E+02 -0.12935054676E+02 -0.12377542441E+01  0.22045349979E+02  0.00000000000E+00 0.  1.
</event>
<event>
 4    1  0.1551744E+006  0.2623538E+02  0.7546771E-02  0.1455444E+00
         21   -1    0    0  503  501  0.00000000000E+00  0.00000000000E+00  0.37346581535E+03  0.37346581535E+03  0.00000000000E+00 0. -1.
         21   -1    0    0  504  502 -0.00000000000E+00 -0.00000000000E+00 -0.74434663433E+01  0.74434663433E+01  0.00000000000E+00 0. -1.
         21    1    1    2  503  502 -0.18604969417E+02 -0.18497307997E+02  0.34821354326E+03  0.34920046821E+03  0.00000000000E+00 0. -1.
         21    1    1    2  504  501  0.18604969417E+02  0.18497307997E+02  0.17808805745E+02  0.31708813479E+02  0.00000000000E+00 0. -1.
</event>
<event>
 4    1  0.1551744E+006  0.2258382E+02  0.7546771E-02  0.1497791E+00
         21   -1    0    0  504  501  0.00000000000E+00  0.00000000000E+00  0.10492212625E+02  0.10492212625E+02  0.00000000000E+00 0.  1.
         21   -1    0    0  503  502 -0.00000000000E+00 -0.00000000000E+00 -0.53566482944E+02  0.53566482944E+02  0.00000000000E+00 0.  1.
         21    1    1    2  503  501 -0.11991599564E+02  0.19137145470E+02 -0.31279817915E+02  0.38580510697E+02  0.00000000000E+00 0.  1.
         21    1    1    2  504  502  0.11991599564E+02 -0.19137145470E+02 -0.11794452403E+02  0.25478184872E+02  0.00000000000E+00 0.  1.
</event>
<event>
 4    1  0.1551744E+006  0.4042852E+02  0.7546771E-02  0.1345993E+00
         21   -1    0    0  503  501  0.00000000000E+00  0.00000000000E+00  0.64794705326E+02  0.64794705326E+02  0.00000000000E+00 0. -1.
         21   -1    0    0  504  502 -0.00000000000E+00 -0.00000000000E+00 -0.27318639858E+02  0.27318639858E+02  0.00000000000E+00 0. -1.
         21    1    1    2  503  502 -0.39205000110E+02  0.98708371599E+01  0.31487251304E+02  0.51243657701E+02  0.00000000000E+00 0. -1.
         21    1    1    2  504  501  0.39205000110E+02 -0.98708371599E+01  0.59888141644E+01  0.40869687483E+02  0.00000000000E+00 0. -1.
</event>
<event>
 4    1  0.1551744E+006  0.2056402E+02  0.7546771E-02  0.1525582E+00
         21   -1    0    0  503  501  0.00000000000E+00  0.00000000000E+00  0.50731798068E+02  0.50731798068E+02  0.00000000000E+00 0. -1.
         21   -1    0    0  501  502 -0.00000000000E+00 -0.00000000000E+00 -0.11119032167E+02  0.11119032167E+02  0.00000000000E+00 0. -1.
         21    1    1    2  503  504 -0.17908304224E+02 -0.10107986547E+02  0.35279373044E+02  0.40835192109E+02  0.00000000000E+00 0. -1.
         21    1    1    2  504  502  0.17908304224E+02  0.10107986547E+02  0.43333928565E+01  0.21015638126E+02  0.00000000000E+00 0. -1.
</event>
<event>
 4    1  0.1551744E+006  0.2267548E+02  0.7546771E-02  0.1496614E+00
         21   -1    0    0  502  501  0.00000000000E+00  0.00000000000E+00  0.37698992794E+02  0.37698992794E+02  0.00000000000E+00 0.  1.
         21   -1    0    0  503  502 -0.00000000000E+00 -0.00000000000E+00 -0.33688635176E+03  0.33688635176E+03  0.00000000000E+00 0.  1.
         21    1    1    2  503  504 -0.18342734704E+02  0.13331213741E+02 -0.33305586155E+03  0.33382687742E+03  0.00000000000E+00 0.  1.
         21    1    1    2  504  501  0.18342734704E+02 -0.13331213741E+02  0.33868502580E+02  0.40758467136E+02  0.00000000000E+00 0.  1.
</event>
<event>
 4    1  0.1551744E+006  0.5647068E+02  0.7546771E-02  0.1272320E+00
         21   -1    0    0  504  501  0.00000000000E+00  0.00000000000E+00  0.27662245648E+01  0.27662245648E+01  0.00000000000E+00 0.  1.
         21   -1    0    0  501  502 -0.00000000000E+00 -0.00000000000E+00 -0.13731320846E+04  0.13731320846E+04  0.00000000000E+00 0.  1.
         21    1    1    2  503  502 -0.47137493034E+02 -0.31096527462E+02 -0.96074985329E+03  0.96240803086E+03  0.00000000000E+00 0.  1.
         21    1    1    2  504  503  0.47137493034E+02  0.31096527462E+02 -0.40961600675E+03  0.41349027831E+03  0.00000000000E+00 0.  1.
</event>
<event>
 4    1  0.1551744E+006  0.2696768E+02  0.7546771E-02  0.1447933E+00
         21   -1    0    0  503  501  0.00000000000E+00  0.00000000000E+00  0.21447709749E+02  0.21447709749E+02  0.00000000000E+00 0. -1.
         21   -1    0    0  504  502 -0.00000000000E+00 -0.00000000000E+00 -0.57195738247E+02  0.57195738247E+02  0.00000000000E+00 0. -1.
         21    1    1    2  503  502 -0.94665842073E+01 -0.25251525209E+02  0.72166070073E+01  0.27916574980E+02  0.00000000000E+00 0. -1.
         21    1    1    2  504  501  0.94665842073E+01  0.25251525209E+02 -0.42964635505E+02  0.50726873016E+02  0.00000000000E+00 0. -1.
</event>
<event>
 4    1  0.1551744E+006  0.3688882E+02  0.7546771E-02  0.1367749E+00
         21   -1    0    0  503  501  0.00000000000E+00  0.00000000000E+00  0.75957585664E+01  0.75957585664E+01  0.00000000000E+00 0.  1.
         21   -1    0    0  504  502 -0.00000000000E+00 -0.00000000000E+00 -0.55317999393E+03  0.55317999393E+03  0.00000000000E+00 0.  1.
         21    1    1    2  503  502  0.41583912212E+01 -0.36653685675E+02 -0.50334940360E+03  0.50469932335E+03  0.00000000000E+00 0.  1.
         21    1    1    2  504  501 -0.41583912212E+01  0.36653685675E+02 -0.42234831765E+02  0.56076429142E+02  0.00000000000E+00 0.  1.
</event>
<event>
 4    1  0.1551744E+006  0.3521699E+02  0.7546771E-02  0.1379044E+00
         21   -1    0    0  503  501  0.00000000000E+00  0.00000000000E+00  0.33016752142E+03  0.33016752142E+03  0.00000000000E+00 0. -1.
         21   -1    0    0  504  502 -0.00000000000E+00 -0.00000000000E+00 -0.20131770271E+02  0.20131770271E+02  0.00000000000E+00 0. -1.
         21    1    1    2  503  502  0.35200773531E+02  0.10685517835E+01 -0.29482791369E+01  0.35340184068E+02  0.00000000000E+00 0. -1.
         21    1    1    2  504  501 -0.35200773531E+02 -0.10685517835E+01  0.31298403029E+03  0.31495910762E+03  0.00000000000E+00 0. -1.
</event>
<event>
 4    1  0.1551744E+006  0.3885627E+02  0.7546771E-02  0.1355322E+00
         21   -1    0    0  502  501  0.00000000000E+00  0.00000000000E+00  0.63683566977E+03  0.63683566977E+03  0.00000000000E+00 0. -1.
         21   -1    0    0  504  502 -0.00000000000E+00 -0.00000000000E+00 -0.75249882274E+02  0.75249882274E+02  0.00000000000E+00 0.  1.
         21    1    1    2  503  501 -0.38854504969E+02  0.37059497673E+00  0.63118209593E+03  0.63237698259E+03  0.00000000000E+00 0. -1.
         21    1    1    2  504  503  0.38854504969E+02 -0.37059497673E+00 -0.69596308429E+02  0.79708569451E+02  0.00000000000E+00 0.  1.
</event>
<event>
 4    1  0.1551744E+006  0.2127954E+02  0.7546771E-02  0.1515311E+00
         21   -1    0    0  503  501  0.00000000000E+00  0.00000000000E+00  0.15458045047E+03  0.15458045047E+03  0.00000000000E+00 0. -1.
         21   -1    0    0  504  502 -0.00000000000E+00 -0.00000000000E+00 -0.49640645196E+01  0.49640645196E+01  0.00000000000E+00 0.  1.
         21    1    1    2  503  502 -0.15223057243E+02  0.14868675476E+02  0.12588053643E+03  0.12766647341E+03  0.00000000000E+00 0. -1.
         21    1    1    2  504  501  0.15223057243E+02 -0.14868675476E+02  0.23735849524E+02  0.31878041579E+02  0.00000000000E+00 0.  1.
</event>
<event>
 4    1  0.1551744E+006  0.2356224E+02  0.7546771E-02  0.1485556E+00
         21   -1    0    0  504  501  0.00000000000E+00  0.00000000000E+00  0.22663161880E+03  0.22663161880E+03  0.00000000000E+00 0. -1.
         21   -1    0    0  503  502 -0.00000000000E+00 -0.00000000000E+00 -0.34226707170E+01  0.34226707170E+01  0.00000000000E+00 0. -1.
         21    1    1    2  503  501  0.22586469280E+02  0.67104684898E+01  0.17293379443E+03  0.17453159094E+03  0.00000000000E+00 0. -1.
         21    1    1    2  504  502 -0.22586469280E+02 -0.67104684898E+01  0.50275153655E+02  0.55522698574E+02  0.00000000000E+00 0. -1.
</event>
<event>
 4    1  0.1551744E+006  0.2709397E+02  0.7546771E-02  0.1446666E+00
         21   -1    0    0  504  501  0.00000000000E+00  0.00000000000E+00  0.94793811565E+03  0.94793811565E+03  0.00000000000E+00 0.  1.
         21   -1    0    0  501  502 -0.00000000000E+00 -0.00000000000E+00 -0.93081254056E+00  0.93081254056E+00  0.00000000000E+00 0.  1.
         21    1    1    2  503  502  0.14877890083E+02 -0.22643579258E+02  0.27902099629E+03  0.28033337237E+03  0.00000000000E+00 0.  1.
         21    1    1    2  504  503 -0.14877890083E+02  0.22643579258E+02  0.66798630682E+03  0.66853555582E+03  0.00000000000E+00 0.  1.
</event>
<event>
 4    1  0.1551744E+006  0.2236226E+02  0.7546771E-02  0.1500665E+00
         21   -1    0    0  502  501  0.00000000000E+00  0.00000000000E+00  0.22135125872E+01  0.22135125872E+01  0.00000000000E+00 0.  1.
         21   -1    0    0  504  502 -0.00000000000E+00 -0.00000000000E+00 -0.10557381413E+04  0.10557381413E+04  0.00000000000E+00 0. -1.
         21    1    1    2  503  501  0.31553215459E+01 -0.22138536626E+02 -0.57787110420E+02  0.61963061486E+02  0.00000000000E+00 0.  1.
         21    1    1    2  504  503 -0.31553215459E+01  0.22138536626E+02 -0.99573751832E+03  0.99598859243E+03  0.00000000000E+00 0. -1.
</event>
<event>
 4    1  0.1551744E+006  0.2707771E+02  0.7546771E-02  0.1446829E+00
         21   -1    0    0  503  501  0.00000000000E+00  0.00000000000E+00  0.95726697524E+02  0.95726697524E+02  0.00000000000E+00 0.  1.
         21   -1    0    0  504  502 -0.00000000000E+00 -0.00000000000E+00 -0.10548584831E+02  0.10548584831E+02  0.00000000000E+00 0. -1.
         21    1    1    2  503  502  0.15595449014E+02  0.22135594096E+02  0.70398861559E+02  0.75426800706E+02  0.00000000000E+00 0.  1.
         21    1    1    2  504  501 -0.15595449014E+02 -0.22135594096E+02  0.14779251134E+02  0.30848481649E+02  0.00000000000E+00 0. -1.
</event>
<event>
 4    1  0.1551744E+006  0.2068164E+02  0.7546771E-02  0.1523859E+00
         21   -1    0    0  504  501  0.00000000000E+00  0.00000000000E+00  0.64750021161E+02  0.64750021161E+02  0.00000000000E+00 0.  1.
         21   -1    0    0  503  502 -0.00000000000E+00 -0.00000000000E+00 -0.54448416616E+03  0.54448416616E+03  0.00000000000E+00 0.  1.
         21    1    1    2  503  501 -0.20562804493E+02  0.22138893668E+01  0.62896522223E+02  0.66209536643E+02  0.00000000000E+00 0.  1.
         21    1    1    2  504  502  0.20562804493E+02 -0.22138893668E+01 -0.54263066722E+03  0.54302465068E+03  0.00000000000E+00 0.  1.
</event>
<event>
 4    1  0.1551744E+006  0.3790137E+02  0.7546771E-02  0.1361243E+00
         21   -1    0    0  502  501  0.00000000000E+00  0.00000000000E+00  0.17191984475E+03  0.17191984475E+03  0.00000000000E+00 0.  1.
         21   -1    0    0  503  502 -0.00000000000E+00 -0.00000000000E+00 -0.48879959151E+02  0.48879959151E+02  0.00000000000E+00 0. -1.
         21    1    1    2  503  504  0.32880159459E+02  0.18852298999E+02 -0.39001961201E+02  0.54384437490E+02  0.00000000000E+00 0. -1.
         21    1    1    2  504  501 -0.32880159459E+02 -0.18852298999E+02  0.16204184680E+03  0.16641536641E+03  0.00000000000E+00 0.  1.
</event>
<event>
 4    1  0.1551744E+006  0.4703687E+02  0.7546771E-02  0.1311557E+00
         21   -1    0    0  504  501  0.00000000000E+00  0.00000000000E+00  0.19412436143E+03  0.19412436143E+03  0.00000000000E+00 0.  1.
         21   -1    0    0  503  502 -0.00000000000E+00 -0.00000000000E+00 -0.13352431163E+02  0.13352431163E+02  0.00000000000E+00 0. -1.
         21    1    1    2  503  501 -0.28523790383E+02 -0.37401343180E+02  0.50688528583E+02  0.69150517130E+02  0.00000000000E+00 0. -1.
         21    1    1    2  504  502  0.28523790383E+02  0.37401343180E+02  0.13008340168E+03  0.13832627546E+03  0.00000000000E+00 0.  1.
</event>
<event>
 4    1  0.1551744E+006  0.2232278E+02  0.7546771E-02  0.1501182E+00
         21   -1    0    0  503  501  0.00000000000E+00  0.00000000000E+00  0.19089090028E+03  0.19089090028E+03  0.00000000000E+00 0.  1.
         21   -1    0    0  504  502 -0.00000000000E+00 -0.00000000000E+00 -0.28481818749E+01  0.28481818749E+01  0.00000000000E+00 0.  1.
         21    1    1    2  503  502 -0.21940769330E+02 -0.41120569450E+01  0.12200923640E+03  0.12403451188E+03  0.00000000000E+00 0.  1.
         21    1    1    2  504  501  0.21940769330E+02  0.41120569450E+01  0.66033482012E+02  0.69704570279E+02  0.00000000000E+00 0.  1.
</event>
<event>
 4    1  0.1551744E+006  0.2234386E+02  0.7546771E-02  0.1500906E+00
         21   -1    0    0  504  501  0.00000000000E+00  0.00000000000E+00  0.36721896123E+02  0.36721896123E+02  0.00000000000E+00 0.  1.
         21   -1    0    0  503  502 -0.00000000000E+00 -0.00000000000E+00 -0.66581563219E+02  0.66581563219E+02  0.00000000000E+00 0. -1.
         21    1    1    2  503  501 -0.12331483099E+02 -0.18632834200E+02  0.31147698565E+02  0.38333107252E+02  0.00000000000E+00 0.  1.
         21    1    1    2  504  502  0.12331483099E+02  0.18632834200E+02 -0.61007365661E+02  0.64970352089E+02  0.00000000000E+00 0. -1.
</event>
<event>
 4    1  0.1551744E+006  0.2393777E+02  0.7546771E-02  0.1481047E+00
         21   -1    0    0  504  501  0.00000000000E+00  0.00000000000E+00  0.51715711578E+01  0.51715711578E+01  0.00000000000E+00 0.  1.
         21   -1    0    0  501  502 -0.00000000000E+00 -0.00000000000E+00 -0.11158164849E+04  0.11158164849E+04  0.00000000000E+00 0. -1.
         21    1    1    2  503  502 -0.17532153280E+02 -0.16298480758E+02 -0.10872603294E+04  0.10875238116E+04  0.00000000000E+00 0. -1.
         21    1    1    2  504  503  0.17532153280E+02  0.16298480758E+02 -0.23384584356E+02  0.33464244488E+02  0.00000000000E+00 0.  1.
</event>
<event>
 4    1  0.1551744E+006  0.2619686E+02  0.7546771E-02  0.1455847E+00
         21   -1    0    0  504  501  0.00000000000E+00  0.00000000000E+00  0.19591799629E+02  0.19591799629E+02  0.00000000000E+00 0. -1.
         21   -1    0    0  503  502 -0.00000000000E+00 -0.00000000000E+00 -0.86195512374E+02  0.86195512374E+02  0.00000000000E+00 0. -1.
         21    1    1    2  503  501 -0.10254218474E+02  0.24106569451E+02  0.74507462309E+01  0.27235809270E+02  0.00000000000E+00 0. -1.
         21    1    1    2  504  502  0.10254218474E+02 -0.24106569451E+02 -0.74054458976E+02  0.78551502732E+02  0.00000000000E+00 0. -1.
</event>
<event>
 4    1  0.1551744E+006  0.2661843E+02  0.7546771E-02  0.1451479E+00
         21   -1    0    0  503  501  0.00000000000E+00  0.00000000000E+00  0.69497327892E+02  0.69497327892E+02  0.00000000000E+00 0. -1.
         21   -1    0    0  504  502 -0.00000000000E+00 -0.00000000000E+00 -0.12440343537E+02  0.12440343537E+02  0.00000000000E+00 0.  1.
         21    1    1    2  503  502  0.24822998258E+02 -0.96104011496E+01  0.11124180455E+02  0.28849409762E+02  0.00000000000E+00 0.  1.
         21    1    1    2  504  501 -0.24822998258E+02  0.96104011496E+01  0.45932803900E+02  0.53088261668E+02  0.00000000000E+00 0. -1.
</event>
<event>
 4    1  0.1551744E+006  0.3495197E+02  0.7546771E-02  0.1380901E+00
         21   -1    0    0  504  501  0.00000000000E+00  0.00000000000E+00  0.90555972623E+02  0.90555972623E+02  0.00000000000E+00 0. -1.
         21   -1    0    0  503  502 -0.00000000000E+00 -0.00000000000E+00 -0.18946248609E+02  0.18946248609E+02  0.00000000000E+00 0. -1.
         21    1    1    2  503  501  0.24483035291E+02  0.24944360900E+02  0.65185469692E+02  0.73964759289E+02  0.00000000000E+00 0. -1.
         21    1    1    2  504  502 -0.24483035291E+02 -0.24944360900E+02  0.64242543220E+01  0.35537461943E+02  0.00000000000E+00 0. -1.
</event>
<event>
 4    1  0.1551744E+006  0.2334498E+02  0.7546771E-02  0.1488211E+00
         21   -1    0    0  504  501  0.00000000000E+00  0.00000000000E+00  0.22203866844E+03  0.22203866844E+03  0.00000000000E+00 0. -1.
         21   -1    0    0  503  502 -0.00000000000E+00 -0.00000000000E+00 -0.58822887300E+01  0.58822887300E+01  0.00000000000E+00 0.  1.
         21    1    1    2  503  501  0.18605974781E+02  0.14099853683E+02  0.19507228124E+03  0.19646420305E+03  0.00000000000E+00 0. -1.
         21    1    1    2  504  502 -0.18605974781E+02 -0.14099853683E+02  0.21084098466E+02  0.31456754117E+02  0.00000000000E+00 0.  1.
</event>
<event>
 4    1  0.1551744E+006  0.2409007E+02  0.7546771E-02  0.1479246E+00
         21   -1    0    0  503  501  0.00000000000E+00  0.00000000000E+00  0.26440632963E+02  0.26440632963E+02  0.00000000000E+00 0.  1.
         21   -1    0    0  504  502 -0.00000000000E+00 -0.00000000000E+00 -0.68295320316E+02  0.68295320316E+02  0.00000000000E+00 0.  1.
         21    1    1    2  503  502 -0.10777395833E+01 -0.24065947850E+02 -0.59948441700E+02  0.64607639106E+02  0.00000000000E+00 0.  1.
         21    1    1    2  504  501  0.10777395833E+01  0.24065947850E+02  0.18093754348E+02  0.30128314173E+02  0.00000000000E+00 0.  1.
</event>
<event>
 4    1  0.1551744E+006  0.2177536E+02  0.7546771E-02  0.1508476E+00
         21   -1    0    0  502  501  0.00000000000E+00  0.00000000000E+00  0.42695948264E+02  0.42695948264E+02  0.00000000000E+00 0. -1.
         21   -1    0    0  504  502 -0.00000000000E+00 -0.00000000000E+00 -0.10447604697E+03  0.10447604697E+03  0.00000000000E+00 0.  1.
         21    1    1    2  503  501  0.21156383080E+02 -0.51549586164E+01  0.38675052434E+02  0.44383846433E+02  0.00000000000E+00 0. -1.
         21    1    1    2  504  503 -0.21156383080E+02  0.51549586164E+01 -0.10045515114E+03  0.10278814880E+03  0.00000000000E+00 0.  1.
</event>
<event>
 4    1  0.1551744E+006  0.3546821E+02  0.7546771E-02  0.1377301E+00
         21   -1    0    0  504  501  0.00000000000E+00  0.00000000000E+00  0.76559938713E+03  0.76559938713E+03  0.00000000000E+00 0.  1.
         21   -1    0    0  503  502 -0.00000000000E+00 -0.00000000000E+00 -0.50437276363E+01  0.50437276363E+01  0.00000000000E+00 0. -1.
         21    1    1    2  503  501  0.16821308119E+01 -0.35428303812E+02  0.63887012146E+02  0.73072187568E+02  0.00000000000E+00 0. -1.
         21    1    1    2  504  502 -0.16821308119E+01  0.35428303812E+02  0.69666864734E+03  0.69757092719E+03  0.00000000000E+00 0.  1.
</event>
<event>
 4    1  0.1551744E+006  0.3039647E+02  0.7546771E-02  0.1416182E+00
         21   -1    0    0  504  501  0.00000000000E+00  0.00000000000E+00  0.80473581226E+01  0.80473581226E+01  0.00000000000E+00 0. -1.
         21   -1    0    0  501  502 -0.00000000000E+00 -0.00000000000E+00 -0.16047762076E+03  0.16047762076E+03  0.00000000000E+00 0. -1.
         21    1    1    2  503  502 -0.90576523148E+01 -0.29015587661E+02 -0.12116356610E+03  0.12491819380E+03  0.00000000000E+00 0. -1.
         21    1    1    2  504  503  0.90576523148E+01  0.29015587661E+02 -0.31266696542E+02  0.43606785084E+02  0.00000000000E+00 0. -1.
</event>
<event>
 4    1  0.1551744E+006  0.2184769E+02  0.7546771E-02  0.1507498E+00
         21   -1    0    0  504  501  0.00000000000E+00  0.00000000000E+00  0.41303545065E+03  0.41303545065E+03  0.00000000000E+00 0. -1.
         21   -1    0    0  501  502 -0.00000000000E+00 -0.00000000000E+00 -0.13676137107E+02  0.13676137107E+02  0.00000000000E+00 0. -1.
         21    1    1    2  503  502  0.21780084988E+02  0.17174410299E+01 -0.44628505574E+01  0.22298850663E+02  0.00000000000E+00 0. -1.
         21    1    1    2  504  503 -0.21780084988E+02 -0.17174410299E+01  0.40382216410E+03  0.40441273710E+03  0.00000000000E+00 0. -1.
</event>
<event>
 4    1  0.1551744E+006  0.2031621E+02  0.7546771E-02  0.1529255E+00
         21   -1    0    0  503  501  0.00000000000E+00  0.00000000000E+00  0.26352183805E+02  0.26352183805E+02  0.00000000000E+00 0.  1.
         21   -1    0    0  504  502 -0.00000000000E+00 -0.00000000000E+00 -0.19743716869E+02  0.19743716869E+02  0.00000000000E+00 0.  1.
         21    1    1    2  503  502  0.57294360749E+01 -0.19491588688E+02 -0.71742340271E+01  0.21545721181E+02  0.00000000000E+00 0.  1.
         21    1    1    2  504  501 -0.57294360749E+01  0.19491588688E+02  0.13782700963E+02  0.24550179494E+02  0.00000000000E+00 0.  1.
</event>
<event>
 4    1  0.1551744E+006  0.2887495E+02  0.7546771E-02  0.1429632E+00
         21   -1    0    0  504  501  0.00000000000E+00  0.00000000000E+00  0.67751929362E+01  0.67751929362E+01  0.00000000000E+00 0. -1.
         21   -1    0    0  503  502 -0.00000000000E+00 -0.00000000000E+00 -0.15968040115E+03  0.15968040115E+03  0.00000000000E+00 0. -1.
         21    1    1    2  503  501 -0.15919932867E+01 -0.28831027394E+02 -0.11630897173E+03  0.11983964072E+03  0.00000000000E+00 0. -1.
         21    1    1    2  504  502  0.15919932867E+01  0.28831027394E+02 -0.36596236477E+02  0.46615953359E+02  0.00000000000E+00 0. -1.
</event>
<event>
 4    1  0.1551744E+006  0.2143521E+02  0.7546771E-02  0.1513141E+00
         21   -1    0    0  503  501  0.00000000000E+00  0.00000000000E+00  0.19593131914E+01  0.19593131914E+01  0.00000000000E+00 0.  1.
         21   -1    0    0  504  502 -0.00000000000E+00 -0.00000000000E+00 -0.23826680160E+03  0.23826680160E+03  0.00000000000E+00 0.  1.
         21    1    1    2  503  502 -0.21222543991E+02  0.30119680783E+01 -0.13324650255E+03  0.13495961902E+03  0.00000000000E+00 0.  1.
         21    1    1    2  504  501  0.21222543991E+02 -0.30119680783E+01 -0.10306098586E+03  0.10526649577E+03  0.00000000000E+00 0.  1.
</event>
<event>
 4    1  0.1551744E+006  0.2981401E+02  0.7546771E-02  0.1421220E+00
         21   -1    0    0  503  501  0.00000000000E+00  0.00000000000E+00  0.72083727022E+02  0.72083727022E+02  0.00000000000E+00 0. -1.
         21   -1    0    0  504  502 -0.00000000000E+00 -0.00000000000E+00 -0.65563186097E+03  0.65563186097E+03  0.00000000000E+00 0.  1.
         21    1    1    2  503  502 -0.29612481245E+02 -0.34606500475E+01 -0.65219389340E+03  0.65287498783E+03  0.00000000000E+00 0.  1.
         21    1    1    2  504  501  0.29612481245E+02  0.34606500475E+01  0.68645759444E+02  0.74840600171E+02  0.00000000000E+00 0. -1.
</event>
<event>
 4    1  0.1551744E+006  0.3043360E+02  0.7546771E-02  0.1415865E+00
         21   -1    0    0  503  501  0.00000000000E+00  0.00000000000E+00  0.42011049877E+01  0.42011049877E+01  0.00000000000E+00 0. -1.
         21   -1    0    0  504  502 -0.00000000000E+00 -0.00000000000E+00 -0.48266985988E+03  0.48266985988E+03  0.00000000000E+00 0.  1.
         21    1    1    2  503  502 -0.30280402554E+02 -0.30497749697E+01 -0.41865721479E+03  0.41976191753E+03  0.00000000000E+00 0.  1.
         21    1    1    2  504  501  0.30280402554E+02  0.30497749697E+01 -0.59811540103E+02  0.67109047347E+02  0.00000000000E+00 0. -1.
</event>
<event>
 4    1  0.1551744E+006  0.2097008E+02  0.7546771E-02  0.1519692E+00
         21   -1    0    0  502  501  0.00000000000E+00  0.00000000000E+00  0.78054033598E+02  0.78054033598E+02  0.00000000000E+00 0.  1.
         21   -1    0    0  503  502 -0.00000000000E+00 -0.00000000000E+00 -0.94011435155E+01  0.94011435155E+01  0.00000000000E+00 0. -1.
         21    1    1    2  503  504 -0.26904640429E+01  0.20796773344E+02  0.66455476166E+01  0.21997901750E+02  0.00000000000E+00 0. -1.
         21    1    1    2  504  501  0.26904640429E+01 -0.20796773344E+02  0.62007342466E+02  0.65457275363E+02  0.00000000000E+00 0.  1.
</event>
<event>
 4    1  0.1551744E+006  0.2333516E+02  0.7546771E-02  0.1488332E+00
         21   -1    0    0  503  501  0.00000000000E+00  0.00000000000E+00  0.34266493682E+02  0.34266493682E+02  0.00000000000E+00 0.  1.
         21   -1    0    0  501  502 -0.00000000000E+00 -0.00000000000E+00 -0.39281637658E+02  0.39281637658E+02  0.00000000000E+00 0.  1.
         21    1    1    2  503  504 -0.22412507428E+02  0.64968776594E+01  0.25869501106E+02  0.34839072835E+02  0.00000000000E+00 0.  1.
         21    1    1    2  504  502  0.22412507428E+02 -0.64968776594E+01 -0.30884645081E+02  0.38709058505E+02  0.00000000000E+00 0.  1.
</event>
<event>
 4    1  0.1551744E+006  0.2341412E+02  0.7546771E-02  0.1487363E+00
         21   -1    0    0  503  501  0.00000000000E+00  0.00000000000E+00  0.17280007033E+03  0.17280007033E+03  0.00000000000E+00 0. -1.
         21   -1    0    0  504  502 -0.00000000000E+00 -0.00000000000E+00 -0.34187027486E+01  0.34187027486E+01  0.00000000000E+00 0. -1.
         21    1    1    2  503  502 -0.67665359961E+01  0.22415058273E+02  0.10833210136E+03  0.11083350140E+03  0.00000000000E+00 0. -1.
         21    1    1    2  504  501  0.67665359961E+01 -0.22415058273E+02  0.61049266222E+02  0.65385271682E+02  0.00000000000E+00 0. -1.
</event>
<event>
 4    1  0.1551744E+006  0.2032006E+02  0.7546771E-02  0.1529198E+00
         21   -1    0    0  504  501  0.00000000000E+00  0.00000000000E+00  0.23785353929E+03  0.23785353929E+03  0.00000000000E+00 0.  1.
         21   -1    0    0  503  502 -0.00000000000E+00 -0.00000000000E+00 -0.70698236357E+01  0.70698236357E+01  0.00000000000E+00 0.  1.
         21    1    1    2  503  501  0.18989600095E+02  0.72318561301E+01  0.22176128237E+03  0.22269030292E+03  0.00000000000E+00 0.  1.
         21    1    1    2  504  502 -0.18989600095E+02 -0.72318561301E+01  0.90224332796E+01  0.22233060004E+02  0.00000000000E+00 0.  1.
</event>
<event>
 4    1  0.1551744E+006  0.4091761E+02  0.7546771E-02  0.1343191E+00
         21   -1    0    0  503  501  0.00000000000E+00  0.00000000000E+00  0.10021444236E+03  0.10021444236E+03  0.00000000000E+00 0.  1.
         21   -1    0    0  501  502 -0.00000000000E+00 -0.00000000000E+00 -0.22640643468E+02  0.22640643468E+02  0.00000000000E+00 0.  1.
         21    1    1    2  503  504 -0.38726419239E+02 -0.13210423874E+02  0.70234760556E+02  0.81284515354E+02  0.00000000000E+00 0.  1.
         21    1    1    2  504  502  0.38726419239E+02  0.13210423874E+02  0.73390383378E+01  0.41570570476E+02  0.00000000000E+00 0.  1.
</event>
<event>
 4    1  0.1551744E+006  0.2133995E+02  0.7546771E-02  0.1514466E+00
         21   -1    0    0  504  501  0.00000000000E+00  0.00000000000E+00  0.10228515434E+04  0.10228515434E+04  0.00000000000E+00 0. -1.
         21   -1    0    0  501  502 -0.00000000000E+00 -0.00000000000E+00 -0.80622682222E+01  0.80622682222E+01  0.00000000000E+00 0.  1.
         21    1    1    2  503  502  0.89630072876E+01 -0.19366417839E+02  0.63722840160E+01  0.22271049439E+02  0.00000000000E+00 0.  1.
         21    1    1    2  504  503 -0.89630072876E+01  0.19366417839E+02  0.10084169912E+04  0.10086427622E+04  0.00000000000E+00 0. -1.
</event>
<event>
 4    1  0.1551744E+006  0.2477980E+02  0.7546771E-02  0.1471282E+00
         21   -1    0    0  504  501  0.00000000000E+00  0.00000000000E+00  0.54022208660E+03  0.54022208660E+03  0.00000000000E+00 0.  1.
         21   -1    0    0  501  502 -0.00000000000E+00 -0.00000000000E+00 -0.74103040067E+02  0.74103040067E+02  0.00000000000E+00 0. -1.
         21    1    1    2  503  502  0.23988489899E+02 -0.62121445827E+01 -0.71738207031E+02  0.75897356581E+02  0.00000000000E+00 0. -1.
         21    1    1    2  504  503 -0.23988489899E+02  0.62121445827E+01  0.53785725356E+03  0.53842777008E+03  0.00000000000E+00 0.  1.
</event>
<event>
 4    1  0.1551744E+006  0.6968334E+02  0.7546771E-02  0.1230064E+00
         21   -1    0    0  504  501  0.00000000000E+00  0.00000000000E+00  0.17474294214E+03  0.17474294214E+03  0.00000000000E+00 0. -1.
         21   -1    0    0  501  502 -0.00000000000E+00 -0.00000000000E+00 -0.33341832056E+02  0.33341832056E+02  0.00000000000E+00 0. -1.
         21    1    1    2  503  502 -0.55963241133E+02 -0.41519671079E+02  0.28237661511E+02  0.75187319225E+02  0.00000000000E+00 0. -1.
         21    1    1    2  504  503  0.55963241133E+02  0.41519671079E+02  0.11316344857E+03  0.13289745497E+03  0.00000000000E+00 0. -1.
</event>
<event>
 4    1  0.1551744E+006  0.2942395E+02  0.7546771E-02  0.1424669E+00
         21   -1    0    0  502  501  0.00000000000E+00  0.00000000000E+00  0.52921383592E+02  0.52921383592E+02  0.00000000000E+00 0.  1.
         21   -1    0    0  503  502 -0.00000000000E+00 -0.00000000000E+00 -0.35848989985E+02  0.35848989985E+02  0.00000000000E+00 0.  1.
         21    1    1    2  503  504 -0.26537435277E+02  0.12709575959E+02 -0.24190300726E+02  0.38091199001E+02  0.00000000000E+00 0.  1.
         21    1    1    2  504  501  0.26537435277E+02 -0.12709575959E+02  0.41262694333E+02  0.50679174577E+02  0.00000000000E+00 0.  1.
</event>
<event>
 4    1  0.1551744E+006  0.2729978E+02  0.7546771E-02  0.1444620E+00
         21   -1    0    0  502  501  0.00000000000E+00  0.00000000000E+00  0.39979862796E+03  0.39979862796E+03  0.00000000000E+00 0. -1.
         21   -1    0    0  504  502 -0.00000000000E+00 -0.00000000000E+00 -0.26534953837E+01  0.26534953837E+01  0.00000000000E+00 0.  1.
         21    1    1    2  503  501 -0.26507272218E+01  0.27170784492E+02  0.30832476390E+03  0.30953099671E+03  0.00000000000E+00 0. -1.
         21    1    1    2  504  503  0.26507272218E+01 -0.27170784492E+02  0.88820368672E+02  0.92921126638E+02  0.00000000000E+00 0.  1.
</event>
<event>
 4    1  0.1551744E+006  0.5376926E+02  0.7546771E-02  0.1282608E+00
         21   -1    0    0  503  501  0.00000000000E+00  0.00000000000E+00  0.42994451562E+02  0.42994451562E+02  0.00000000000E+00 0. -1.
         21   -1    0    0  504  502 -0.00000000000E+00 -0.00000000000E+00 -0.46679785554E+03  0.46679785554E+03  0.00000000000E+00 0.  1.
         21    1    1    2  503  502  0.53768612711E+02  0.26336010095E+00 -0.44772479954E+03  0.45094193550E+03  0.00000000000E+00 0.  1.
         21    1    1    2  504  501 -0.53768612711E+02 -0.26336010095E+00  0.23921395565E+02  0.58850371597E+02  0.00000000000E+00 0. -1.
</event>
<event>
 4    1  0.1551744E+006  0.3409278E+02  0.7546771E-02  0.1387056E+00
         21   -1    0    0  503  501  0.00000000000E+00  0.00000000000E+00  0.37097859655E+03  0.37097859655E+03  0.00000000000E+00 0. -1.
         21   -1    0    0  504  502 -0.00000000000E+00 -0.00000000000E+00 -0.31347261920E+01  0.31347261920E+01  0.00000000000E+00 0. -1.
         21    1    1    2  503  502 -0.10355450361E+02 -0.32482028335E+02  0.17967728268E+03  0.18288314145E+03  0.00000000000E+00 0. -1.
         21    1    1    2  504  501  0.10355450361E+02  0.32482028335E+02  0.18816658768E+03  0.19123018129E+03  0.00000000000E+00 0. -1.
</event>
<event>
 4    1  0.1551744E+006  0.2062655E+02  0.7546771E-02  0.1524664E+00
         21   -1    0    0  502  501  0.00000000000E+00  0.00000000000E+00  0.18617378547E+02  0.18617378547E+02  0.00000000000E+00 0.  1.
         21   -1    0    0  504  502 -0.00000000000E+00 -0.00000000000E+00 -0.46726460707E+02  0.46726460707E+02  0.00000000000E+00 0.  1.
         21    1    1    2  503  501 -0.19444794578E+02 -0.68814542228E+01  0.92991242752E+01  0.22625829503E+02  0.00000000000E+00 0.  1.
         21    1    1    2  504  503  0.19444794578E+02  0.68814542228E+01 -0.37408206436E+02  0.42718009751E+02  0.00000000000E+00 0.  1.
</event>
<event>
 4    1  0.1551744E+006  0.3570929E+02  0.7546771E-02  0.1375644E+00
         21   -1    0    0  503  501  0.00000000000E+00  0.00000000000E+00  0.27534822358E+03  0.27534822358E+03  0.00000000000E+00 0.  1.
         21   -1    0    0  501  502 -0.00000000000E+00 -0.00000000000E+00 -0.27306741549E+02  0.27306741549E+02  0.00000000000E+00 0.  1.
         21    1    1    2  503  504 -0.13199278116E+02 -0.33180300251E+02  0.26192036200E+03  0.26434339276E+03  0.00000000000E+00 0.  1.
         21    1    1    2  504  502  0.13199278116E+02  0.33180300251E+02 -0.13878879972E+02  0.38311572361E+02  0.00000000000E+00 0.  1.
</event>
<event>
 4    1  0.1551744E+006  0.2209198E+02  0.7546771E-02  0.1504226E+00
         21   -1    0    0  502  501  0.00000000000E+00  0.00000000000E+00  0.35715154436E+03  0.35715154436E+03  0.00000000000E+00 0.  1.
         21   -1    0    0  504  502 -0.00000000000E+00 -0.00000000000E+00 -0.19297918102E+02  0.19297918102E+02  0.00000000000E+00 0.  1.
         21    1    1    2  503  501  0.19813808184E+02  0.97707936120E+01  0.35036492160E+03  0.35106072650E+03  0.00000000000E+00 0.  1.
         21    1    1    2  504  503 -0.19813808184E+02 -0.97707936120E+01 -0.12511295343E+02  0.25388735962E+02  0.00000000000E+00 0.  1.
</event>
<event>
 4    1  0.1551744E+006  0.2324056E+02  0.7546771E-02  0.1489499E+00
         21   -1    0    0  503  501  0.00000000000E+00  0.00000000000E+00  0.73142120311E+02  0.73142120311E+02  0.00000000000E+00 0. -1.
         21   -1    0    0  504  502 -0.00000000000E+00 -0.00000000000E+00 -0.17298610186E+02  0.17298610186E+02  0.00000000000E+00 0. -1.
         21    1    1    2  503  502  0.15510754323E+02 -0.17307231412E+02  0.62155436275E+02  0.66358285220E+02  0.00000000000E+00 0. -1.
         21    1    1    2  504  501 -0.15510754323E+02  0.17307231412E+02 -0.63119261500E+01  0.24082445277E+02  0.00000000000E+00 0. -1.
</event>
<event>
 4    1  0.1551744E+006  0.2376835E+02  0.7546771E-02  0.1483069E+00
         21   -1    0    0  502  501  0.00000000000E+00  0.00000000000E+00  0.26960259041E+03  0.26960259041E+03  0.00000000000E+00 0.  1.
         21   -1    0    0  503  502 -0.00000000000E+00 -0.00000000000E+00 -0.24596622029E+01  0.24596622029E+01  0.00000000000E+00 0.  1.
         21    1    1    2  503  504  0.18482736047E+02  0.14943988881E+02  0.81224974293E+02  0.84631145475E+02  0.00000000000E+00 0.  1.
         21    1    1    2  504  501 -0.18482736047E+02 -0.14943988881E+02  0.18591795392E+03  0.18743110714E+03  0.00000000000E+00 0.  1.
</event>
<event>
 4    1  0.1551744E+006  0.7169940E+02  0.7546771E-02  0.1224551E+00
         21   -1    0    0  502  501  0.00000000000E+00  0.00000000000E+00  0.83038958982E+02  0.83038958982E+02  0.00000000000E+00 0. -1.
         21   -1    0    0  504  502 -0.00000000000E+00 -0.00000000000E+00 -0.25001813397E+03  0.25001813397E+03  0.00000000000E+00 0.  1.
         21    1    1    2  503  501  0.35427415320E+02  0.62335400484E+02  0.60957451348E+02  0.94109589228E+02  0.00000000000E+00 0. -1.
         21    1    1    2  504  503 -0.35427415320E+02 -0.62335400484E+02 -0.22793662634E+03  0.23894750372E+03  0.00000000000E+00 0.  1.
</event>
<event>
 4    1  0.1551744E+006  0.3984933E+02  0.7546771E-02  0.1349371E+00
         21   -1    0    0  502  501  0.00000000000E+00  0.00000000000E+00  0.13091702897E+04  0.13091702897E+04  0.00000000000E+00 0. -1.
         21   -1    0    0  503  502 -0.00000000000E+00 -0.00000000000E+00 -0.12333785412E+01  0.12333785412E+01  0.00000000000E+00 0. -1.
         21    1    1    2  503  504 -0.20760746836E+02  0.34014118933E+02  0.73827434958E+03  0.73934902728E+03  0.00000000000E+00 0. -1.
         21    1    1    2  504  501  0.20760746836E+02 -0.34014118933E+02  0.56966256159E+03  0.57105464097E+03  0.00000000000E+00 0. -1.
</event>
<event>
 4    1  0.1551744E+006  0.2369062E+02  0.7546771E-02  0.1484003E+00
         21   -1    0    0  503  501  0.00000000000E+00  0.00000000000E+00  0.10756642818E+03  0.10756642818E+03  0.00000000000E+00 0.  1.
         21   -1    0    0  504  502 -0.00000000000E+00 -0.00000000000E+00 -0.70091303325E+01  0.70091303325E+01  0.00000000000E+00 0.  1.
         21    1    1    2  503  502  0.17087563679E+02  0.16409163865E+02  0.79241027904E+02  0.82706626061E+02  0.00000000000E+00 0.  1.
         21    1    1    2  504  501 -0.17087563679E+02 -0.16409163865E+02  0.21316269942E+02  0.31868932450E+02  0.00000000000E+00 0.  1.
</event>
<event>
 4    1  0.1551744E+006  0.2007578E+02  0.7546771E-02  0.1532880E+00
         21   -1    0    0  504  501  0.00000000000E+00  0.00000000000E+00  0.15774741999E+03  0.15774741999E+03  0.00000000000E+00 0. -1.
         21   -1    0    0  503  502 -0.00000000000E+00 -0.00000000000E+00 -0.46227993367E+01  0.46227993367E+01  0.00000000000E+00 0. -1.
         21    1    1    2  503  501 -0.19712040249E+02 -0.38042562172E+01  0.13086023409E+03  0.13239122993E+03  0.00000000000E+00 0. -1.
         21    1    1    2  504  502  0.19712040249E+02  0.38042562172E+01  0.22264386557E+02  0.29978989391E+02  0.00000000000E+00 0. -1.
</event>
<event>
 4    1  0.1551744E+006  0.2391684E+02  0.7546771E-02  0.1481295E+00
         21   -1    0    0  504  501  0.00000000000E+00  0.00000000000E+00  0.60074996136E+01  0.60074996136E+01  0.00000000000E+00 0. -1.
         21   -1    0    0  503  502 -0.00000000000E+00 -0.00000000000E+00 -0.84709685119E+03  0.84709685119E+03  0.00000000000E+00 0.  1.
         21    1    1    2  503  501  0.19156794397E+02  0.14318962812E+02 -0.18679955780E+02  0.30347260429E+02  0.00000000000E+00 0. -1.
         21    1    1    2  504  502 -0.19156794397E+02 -0.14318962812E+02 -0.82240939580E+03  0.82275709038E+03  0.00000000000E+00 0.  1.
</event>
<event>
 4    1  0.1551744E+006  0.2217407E+02  0.7546771E-02  0.1503138E+00
         21   -1    0    0  504  501  0.00000000000E+00  0.00000000000E+00  0.31023831718E+03  0.31023831718E+03  0.00000000000E+00 0. -1.
         21   -1    0    0  501  502 -0.00000000000E+00 -0.00000000000E+00 -0.19268902576E+02  0.19268902576E+02  0.00000000000E+00 0. -1.
         21    1    1    2  503  502  0.15697435501E+02 -0.15661413376E+02 -0.12348006761E+02  0.25380358966E+02  0.00000000000E+00 0. -1.
         21    1    1    2  504  503 -0.15697435501E+02  0.15661413376E+02  0.30331742137E+03  0.30412686079E+03  0.00000000000E+00 0. -1.
</event>
<event>
 4    1  0.1551744E+006  0.2017321E+02  0.7546771E-02  0.1531404E+00
         21   -1    0    0  503  501  0.00000000000E+00  0.00000000000E+00  0.46892721299E+03  0.46892721299E+03  0.00000000000E+00 0.  1.
         21   -1    0    0  504  502 -0.00000000000E+00 -0.00000000000E+00 -0.91206189459E+00  0.91206189459E+00  0.00000000000E+00 0.  1.
         21    1    1    2  503  502 -0.18353899115E+02 -0.83721392850E+01  0.28572993523E+03  0.28644118806E+03  0.00000000000E+00 0.  1.
         21    1    1    2  504  501  0.18353899115E+02  0.83721392850E+01  0.18228521586E+03  0.18339808683E+03  0.00000000000E+00 0.  1.
</event>
<event>
 4    1  0.1551744E+006  0.2127687E+02  0.7546771E-02  0.1515348E+00
         21   -1    0    0  504  501  0.00000000000E+00  0.00000000000E+00  0.15926859287E+03  0.15926859287E+03  0.00000000000E+00 0. -1.
         21   -1    0    0  503  502 -0.00000000000E+00 -0.00000000000E+00 -0.30029444072E+01  0.30029444072E+01  0.00000000000E+00 0. -1.
         21    1    1    2  503  501  0.19652957974E+02 -0.81526845413E+01  0.59372665010E+02  0.63069948254E+02  0.00000000000E+00 0. -1.
         21    1    1    2  504  502 -0.19652957974E+02  0.81526845413E+01  0.96892983456E+02  0.99201589027E+02  0.00000000000E+00 0. -1.
</event>
<event>
 4    1  0.1551744E+006  0.4656675E+02  0.7546771E-02  0.1313786E+00
         21   -1    0    0  504  501  0.00000000000E+00  0.00000000000E+00  0.34367060364E+03  0.34367060364E+03  0.00000000000E+00 0. -1.
         21   -1    0    0  503  502 -0.00000000000E+00 -0.00000000000E+00 -0.73469773586E+01  0.73469773586E+01  0.00000000000E+00 0.  1.
         21    1    1    2  503  501  0.18190021553E+02 -0.42867062928E+02  0.23410801734E+03  0.23869441918E+03  0.00000000000E+00 0. -1.
         21    1    1    2  504  502 -0.18190021553E+02  0.42867062928E+02  0.10221560895E+03  0.11232316182E+03  0.00000000000E+00 0.  1.
</event>
<event>
 4    1  0.1551744E+006  0.3222642E+02  0.7546771E-02  0.1401186E+00
         21   -1    0    0  502  501  0.00000000000E+00  0.00000000000E+00  0.98124620340E+03  0.98124620340E+03  0.00000000000E+00 0. -1.
         21   -1    0    0  504  502 -0.00000000000E+00 -0.00000000000E+00 -0.25056557451E+01  0.25056557451E+01  0.00000000000E+00 0. -1.
         21    1    1    2  503  501  0.30477517359E+02 -0.10472010984E+02  0.86319572978E+03  0.86379708843E+03  0.00000000000E+00 0. -1.
         21    1    1    2  504  503 -0.30477517359E+02  0.10472010984E+02  0.11554481788E+03  0.11995477072E+03  0.00000000000E+00 0. -1.
</event>
<event>
 4    1  0.1551744E+006  0.2484300E+02  0.7546771E-02  0.1470567E+00
         21   -1    0    0  503  501  0.00000000000E+00  0.00000000000E+00  0.82450331179E+01  0.82450331179E+01  0.00000000000E+00 0.  1.
         21   -1    0    0  501  502 -0.00000000000E+00 -0.00000000000E+00 -0.77948837636E+02  0.77948837636E+02  0.00000000000E+00 0.  1.
         21    1    1    2  503  504  0.17260524878E+02 -0.17867542977E+02 -0.43439093259E+02  0.50041279303E+02  0.00000000000E+00 0.  1.
         21    1    1    2  504  502 -0.17260524878E+02  0.17867542977E+02 -0.26264711260E+02  0.36152591452E+02  0.00000000000E+00 0.  1.
</event>
<event>
 4    1  0.1551744E+006  0.2971296E+02  0.7546771E-02  0.1422107E+00
         21   -1    0    0  503  501  0.00000000000E+00  0.00000000000E+00  0.74683582972E+02  0.74683582972E+02  0.00000000000E+00 0.  1.
         21   -1    0    0  504  502 -0.00000000000E+00 -0.00000000000E+00 -0.11823173463E+02  0.11823173463E+02  0.00000000000E+00 0.  1.
         21    1    1    2  503  502 -0.26093108329E+02 -0.14213012955E+02  0.31968807832E+02  0.43644755856E+02  0.00000000000E+00 0.  1.
         21    1    1    2  504  501  0.26093108329E+02  0.14213012955E+02  0.30891601677E+02  0.42862000579E+02  0.00000000000E+00 0.  1.
</event>
<event>
 4    1  0.1551744E+006  0.2528027E+02  0.7546771E-02  0.1465692E+00
         21   -1    0    0  503  501  0.00000000000E+00  0.00000000000E+00  0.80360304881E+02  0.80360304881E+02  0.00000000000E+00 0.  1.
         21   -1    0    0  504  502 -0.00000000000E+00 -0.00000000000E+00 -0.36691255537E+02  0.36691255537E+02  0.00000000000E+00 0.  1.
         21    1    1    2  503  502 -0.12472265699E+02 -0.21989418943E+02 -0.29961615840E+02  0.39201918077E+02  0.00000000000E+00 0.  1.
         21    1    1    2  504  501  0.12472265699E+02  0.21989418943E+02  0.73630665184E+02  0.77849642341E+02  0.00000000000E+00 0.  1.
</event>
<event>
 4    1  0.1551744E+006  0.2004992E+02  0.7546771E-02  0.1533274E+00
         21   -1    0    0  503  501  0.00000000000E+00  0.00000000000E+00  0.10854874972E+02  0.10854874972E+02  0.00000000000E+00 0. -1.
         21   -1    0    0  504  502 -0.00000000000E+00 -0.00000000000E+00 -0.60113149152E+02  0.60113149152E+02  0.00000000000E+00 0. -1.
         21    1    1    2  503  502 -0.19350512777E+02 -0.52494608733E+01 -0.26425360161E+01  0.20223307859E+02  0.00000000000E+00 0. -1.
         21    1    1    2  504  501  0.19350512777E+02  0.52494608733E+01 -0.46615738164E+02  0.50744716265E+02  0.00000000000E+00 0. -1.
</event>
<event>
 4    1  0.1551744E+006  0.3884090E+02  0.7546771E-02  0.1355415E+00
         21   -1    0    0  503  501  0.00000000000E+00  0.00000000000E+00  0.11961176943E+03  0.11961176943E+03  0.00000000000E+00 0.  1.
         21   -1    0    0  504  502 -0.00000000000E+00 -0.00000000000E+00 -0.57658235992E+02  0.57658235992E+02  0.00000000000E+00 0.  1.
         21    1    1    2  503  502  0.36426715828E+02  0.13479980146E+02 -0.47366367959E+02  0.61255108394E+02  0.00000000000E+00 0.  1.
         21    1    1    2  504  501 -0.36426715828E+02 -0.13479980146E+02  0.10931990140E+03  0.11601489703E+03  0.00000000000E+00 0.  1.
</event>
<event>
 4    1  0.1551744E+006  0.3577783E+02  0.7546771E-02  0.1375176E+00
         21   -1    0    0  502  501  0.00000000000E+00  0.00000000000E+00  0.41109601600E+03  0.41109601600E+03  0.00000000000E+00 0.  1.
         21   -1    0    0  504  502 -0.00000000000E+00 -0.00000000000E+00 -0.31396179108E+03  0.31396179108E+03  0.00000000000E+00 0. -1.
         21    1    1    2  503  501 -0.11973401339E+02  0.33714840177E+02  0.40929382310E+03  0.41085458062E+03  0.00000000000E+00 0.  1.
         21    1    1    2  504  503  0.11973401339E+02 -0.33714840177E+02 -0.31215959818E+03  0.31420322647E+03  0.00000000000E+00 0. -1.
</event>
<event>
 4    1  0.1551744E+006  0.2363963E+02  0.7546771E-02  0.1484619E+00
         21   -1    0    0  504  501  0.00000000000E+00  0.00000000000E+00  0.26003226807E+02  0.26003226807E+02  0.00000000000E+00 0. -1.
         21   -1    0    0  503  502 -0.00000000000E+00 -0.00000000000E+00 -0.22734320799E+03  0.22734320799E+03  0.00000000000E+00 0.  1.
         21    1    1    2  503  501  0.11717195947E+02  0.20531428106E+02 -0.22120735774E+03  0.22246691291E+03  0.00000000000E+00 0.  1.
         21    1    1    2  504  502 -0.11717195947E+02 -0.20531428106E+02  0.19867376556E+02  0.30879521890E+02  0.00000000000E+00 0. -1.
</event>
<event>
 4    1  0.1551744E+006  0.2468239E+02  0.7546771E-02  0.1472388E+00
         21   -1    0    0  503  501  0.00000000000E+00  0.00000000000E+00  0.19679571654E+03  0.19679571654E+03  0.00000000000E+00 0.  1.
         21   -1    0    0  501  502 -0.00000000000E+00 -0.00000000000E+00 -0.50867715223E+01  0.50867715223E+01  0.00000000000E+00 0.  1.
         21    1    1    2  503  504 -0.74260857226E+01  0.23538771509E+02  0.15900703250E+03  0.16091133241E+03  0.00000000000E+00 0.  1.
         21    1    1    2  504  502  0.74260857226E+01 -0.23538771509E+02  0.32701912524E+02  0.40971155659E+02  0.00000000000E+00 0.  1.
</event>
<event>
 4    1  0.1551744E+006  0.2152222E+02  0.7546771E-02  0.1511938E+00
         21   -1    0    0  503  501  0.00000000000E+00  0.00000000000E+00  0.17628712263E+02  0.17628712263E+02  0.00000000000E+00 0. -1.
         21   -1    0    0  501  502 -0.00000000000E+00 -0.00000000000E+00 -0.79341698605E+02  0.79341698605E+02  0.00000000000E+00 0. -1.
         21    1    1    2  503  504 -0.10568711437E+02  0.18748553158E+02  0.87956677979E+01  0.23250154386E+02  0.00000000000E+00 0. -1.
         21    1    1    2  504  502  0.10568711437E+02 -0.18748553158E+02 -0.70508654141E+02  0.73720256481E+02  0.00000000000E+00 0. -1.
</event>
<event>
 4    1  0.1551744E+006  0.2529200E+02  0.7546771E-02  0.1465563E+00
         21   -1    0    0  504  501  0.00000000000E+00  0.00000000000E+00  0.11809924588E+02  0.11809924588E+02  0.00000000000E+00 0. -1.
         21   -1    0    0  503  502 -0.00000000000E+00 -0.00000000000E+00 -0.33046420760E+03  0.33046420760E+03  0.00000000000E+00 0.  1.
         21    1    1    2  503  501  0.13721849826E+02  0.21246088314E+02 -0.28425320502E+01  0.25451236114E+02  0.00000000000E+00 0. -1.
         21    1    1    2  504  502 -0.13721849826E+02 -0.21246088314E+02 -0.31581175096E+03  0.31682289608E+03  0.00000000000E+00 0.  1.
</event>
<event>
 4    1  0.1551744E+006  0.2375530E+02  0.7546771E-02  0.1483225E+00
         21   -1    0    0  504  501  0.00000000000E+00  0.00000000000E+00  0.27152005614E+03  0.27152005614E+03  0.00000000000E+00 0. -1.
         21   -1    0    0  503  502 -0.00000000000E+00 -0.00000000000E+00 -0.21545685805E+01  0.21545685805E+01  0.00000000000E+00 0. -1.
         21    1    1    2  503  501  0.12809257450E+02  0.20005934046E+02  0.10894640425E+03  0.11150620374E+03  0.00000000000E+00 0. -1.
         21    1    1    2  504  502 -0.12809257450E+02 -0.20005934046E+02  0.16041908332E+03  0.16216842099E+03  0.00000000000E+00 0. -1.
</event>
<event>
 4    1  0.1551744E+006  0.2689723E+02  0.7546771E-02  0.1448643E+00
         21   -1    0    0  502  501  0.00000000000E+00  0.00000000000E+00  0.43799687080E+03  0.43799687080E+03  0.00000000000E+00 0. -1.
         21   -1    0    0  503  502 -0.00000000000E+00 -0.00000000000E+00 -0.34013501543E+01  0.34013501543E+01  0.00000000000E+00 0. -1.
         21    1    1    2  503  504  0.12531534060E+02  0.23799611179E+02  0.59011049291E+02  0.64851867950E+02  0.00000000000E+00 0. -1.
         21    1    1    2  504  501 -0.12531534060E+02 -0.23799611179E+02  0.37558447135E+03  0.37654635300E+03  0.00000000000E+00 0. -1.
</event>
<event>
 4    1  0.1551744E+006  0.2215415E+02  0.7546771E-02  0.1503402E+00
         21   -1    0    0  503  501  0.00000000000E+00  0.00000000000E+00  0.33069409047E+03  0.33069409047E+03  0.00000000000E+00 0. -1.
         21   -1    0    0  504  502 -0.00000000000E+00 -0.00000000000E+00 -0.35263220559E+02  0.35263220559E+02  0.00000000000E+00 0. -1.
         21    1    1    2  503  502 -0.17674584191E+01  0.22083532231E+02 -0.31371194825E+02  0.38405184153E+02  0.00000000000E+00 0. -1.
         21    1    1    2  504  501  0.17674584191E+01 -0.22083532231E+02  0.32680206474E+03  0.32755212688E+03  0.00000000000E+00 0. -1.
</event>
<event>
 4    1  0.1551744E+006  0.2186015E+02  0.7546771E-02  0.1507330E+00
         21   -1    0    0  504  501  0.00000000000E+00  0.00000000000E+00  0.18951868592E+02  0.18951868592E+02  0.00000000000E+00 0. -1.
         21   -1    0    0  501  502 -0.00000000000E+00 -0.00000000000E+00 -0.10588522988E+03  0.10588522988E+03  0.00000000000E+00 0. -1.
         21    1    1    2  503  502 -0.21858668858E+02  0.25429869182E+00 -0.97948722776E+02  0.10035844940E+03  0.00000000000E+00 0. -1.
         21    1    1    2  504  503  0.21858668858E+02 -0.25429869182E+00  0.11015361484E+02  0.24478649078E+02  0.00000000000E+00 0. -1.
</event>
<event>
 4    1  0.1551744E+006  0.2081478E+02  0.7546771E-02  0.1521926E+00
         21   -1    0    0  504  501  0.00000000000E+00  0.00000000000E+00  0.72436419067E+00  0.72436419067E+00  0.00000000000E+00 0.  1.
         21   -1    0    0  503  502 -0.00000000000E+00 -0.00000000000E+00 -0.60509363817E+03  0.60509363817E+03  0.00000000000E+00 0.  1.
         21    1    1    2  503  501 -0.62293917304E+01 -0.19860757099E+02 -0.33470866575E+03  0.33535525331E+03  0.00000000000E+00 0.  1.
         21    1    1    2  504  502  0.62293917304E+01  0.19860757099E+02 -0.26966060823E+03  0.27046274905E+03  0.00000000000E+00 0.  1.
</event>
<event>
 4    1  0.1551744E+006  0.2571027E+02  0.7546771E-02  0.1461012E+00
         21   -1    0    0  502  501  0.00000000000E+00  0.00000000000E+00  0.10780664776E+03  0.10780664776E+03  0.00000000000E+00 0.  1.
         21   -1    0    0  503  502 -0.00000000000E+00 -0.00000000000E+00 -0.49707160740E+03  0.49707160740E+03  0.00000000000E+00 0.  1.
         21    1    1    2  503  504  0.22048162158E+02 -0.13224847698E+02 -0.49520048445E+03  0.49586745997E+03  0.00000000000E+00 0.  1.
         21    1    1    2  504  501 -0.22048162158E+02  0.13224847698E+02  0.10593552482E+03  0.10901079520E+03  0.00000000000E+00 0.  1.
</event>
<event>
 4    1  0.1551744E+006  0.2518347E+02  0.7546771E-02  0.1466761E+00
         21   -1    0    0  503  501  0.00000000000E+00  0.00000000000E+00  0.65306626739E+00  0.65306626739E+00  0.00000000000E+00 0.  1.
         21   -1    0    0  504  502 -0.00000000000E+00 -0.00000000000E+00 -0.98357235595E+03  0.98357235595E+03  0.00000000000E+00 0.  1.
         21    1    1    2  503  502 -0.21467296380E+02 -0.13166707404E+02 -0.54682688771E+03  0.54740647796E+03  0.00000000000E+00 0.  1.
         21    1    1    2  504  501  0.21467296380E+02  0.13166707404E+02 -0.43609240198E+03  0.43681894425E+03  0.00000000000E+00 0.  1.
</event>
<event>
 4    1  0.1551744E+006  0.5366473E+02  0.7546771E-02  0.1283020E+00
         21   -1    0    0  504  501  0.00000000000E+00  0.00000000000E+00  0.17518392706E+03  0.17518392706E+03  0.00000000000E+00 0. -1.
         21   -1    0    0  503  502 -0.00000000000E+00 -0.00000000000E+00 -0.14496510551E+03  0.14496510551E+03  0.00000000000E+00 0. -1.
         21    1    1    2  503  501 -0.43219135937E+02  0.31812090872E+02 -0.13561569972E+03  0.14584759459E+03  0.00000000000E+00 0. -1.
         21    1    1    2  504  502  0.43219135937E+02 -0.31812090872E+02  0.16583452127E+03  0.17430143798E+03  0.00000000000E+00 0. -1.
</event>
<event>
 4    1  0.1551744E+006  0.2155816E+02  0.7546771E-02  0.1511443E+00
         21   -1    0    0  503  501  0.00000000000E+00  0.00000000000E+00  0.47528748794E+03  0.47528748794E+03  0.00000000000E+00 0. -1.
         21   -1    0    0  501  502 -0.00000000000E+00 -0.00000000000E+00 -0.98575870846E+00  0.98575870846E+00  0.00000000000E+00 0. -1.
         21    1    1    2  503  504  0.86591449119E+01 -0.19742680885E+02  0.25849697314E+03  0.25939437034E+03  0.00000000000E+00 0. -1.
         21    1    1    2  504  502 -0.86591449119E+01  0.19742680885E+02  0.21580475609E+03  0.21687887631E+03  0.00000000000E+00 0. -1.
</event>
<event>
 4    1  0.1551744E+006  0.4192001E+02  0.7546771E-02  0.1337588E+00
         21   -1    0    0  504  501  0.00000000000E+00  0.00000000000E+00  0.40318267237E+03  0.40318267237E+03  0.00000000000E+00 0.  1.
         21   -1    0    0  501  502 -0.00000000000E+00 -0.00000000000E+00 -0.34377844728E+02  0.34377844728E+02  0.00000000000E+00 0. -1.
         21    1    1    2  503  502 -0.41806029646E+02 -0.30892059752E+01 -0.20039120661E+02  0.46463465919E+02  0.00000000000E+00 0. -1.
         21    1    1    2  504  503  0.41806029646E+02  0.30892059752E+01  0.38884394830E+03  0.39109705117E+03  0.00000000000E+00 0.  1.
</event>
<event>
 4    1  0.1551744E+006  0.2120858E+02  0.7546771E-02  0.1516308E+00
         21   -1    0    0  502  501  0.00000000000E+00  0.00000000000E+00  0.38559907427E+02  0.38559907427E+02  0.00000000000E+00 0. -1.
         21   -1    0    0  504  502 -0.00000000000E+00 -0.00000000000E+00 -0.26398518428E+02  0.26398518428E+02  0.00000000000E+00 0. -1.
         21    1    1    2  503  501  0.20788445563E+02 -0.42005325619E+01  0.30345004872E+02  0.37021929493E+02  0.00000000000E+00 0. -1.
         21    1    1    2  504  503 -0.20788445563E+02  0.42005325619E+01 -0.18183615874E+02  0.27936496362E+02  0.00000000000E+00 0. -1.
</event>
<event>
 4    1  0.1551744E+006  0.2331717E+02  0.7546771E-02  0.1488553E+00
         21   -1    0    0  503  501  0.00000000000E+00  0.00000000000E+00  0.19091897942E+02  0.19091897942E+02  0.00000000000E+00 0.  1.
         21   -1    0    0  504  502 -0.00000000000E+00 -0.00000000000E+00 -0.47883076695E+03  0.47883076695E+03  0.00000000000E+00 0.  1.
         21    1    1    2  503  502  0.18775125165E+02  0.13826963695E+02 -0.47131404532E+03  0.47189047412E+03  0.00000000000E+00 0.  1.
         21    1    1    2  504  501 -0.18775125165E+02 -0.13826963695E+02  0.11575176308E+02  0.26032190775E+02  0.00000000000E+00 0.  1.
</event>
<event>
 4    1  0.1551744E+006  0.3697400E+02  0.7546771E-02  0.1367193E+00
         21   -1    0    0  503  501  0.00000000000E+00  0.00000000000E+00  0.49999425160E+02  0.49999425160E+02  0.00000000000E+00 0. -1.
         21   -1    0    0  504  502 -0.00000000000E+00 -0.00000000000E+00 -0.72332328820E+02  0.72332328820E+02  0.00000000000E+00 0.  1.
         21    1    1    2  503  502 -0.36960370444E+02 -0.10038815652E+01  0.37073103151E+02  0.52359256477E+02  0.00000000000E+00 0. -1.
         21    1    1    2  504  501  0.36960370444E+02  0.10038815652E+01 -0.59406006811E+02  0.69972497503E+02  0.00000000000E+00 0.  1.
</event>
<event>
 4    1  0.1551744E+006  0.3913444E+02  0.7546771E-02  0.1353634E+00
         21   -1    0    0  503  501  0.00000000000E+00  0.00000000000E+00  0.21614413506E+02  0.21614413506E+02  0.00000000000E+00 0. -1.
         21   -1    0    0  504  502 -0.00000000000E+00 -0.00000000000E+00 -0.98539018433E+02  0.98539018433E+02  0.00000000000E+00 0. -1.
         21    1    1    2  503  502  0.30263990238E+02  0.24811187741E+02 -0.70305101489E+02  0.80463106065E+02  0.00000000000E+00 0. -1.
         21    1    1    2  504  501 -0.30263990238E+02 -0.24811187741E+02 -0.66195034381E+01  0.39690325874E+02  0.00000000000E+00 0. -1.
</event>
<event>
 4    1  0.1551744E+006  0.2104555E+02  0.7546771E-02  0.1518615E+00
         21   -1    0    0  504  501  0.00000000000E+00  0.00000000000E+00  0.69865067881E+02  0.69865067881E+02  0.00000000000E+00 0.  1.
         21   -1    0    0  501  502 -0.00000000000E+00 -0.00000000000E+00 -0.67927703680E+02  0.67927703680E+02  0.00000000000E+00 0.  1.
         21    1    1    2  503  502  0.86417798666E+01  0.19189450007E+02 -0.64633978277E+02  0.67974013408E+02  0.00000000000E+00 0.  1.
         21    1    1    2  504  503 -0.86417798666E+01 -0.19189450007E+02  0.66571342477E+02  0.69818758153E+02  0.00000000000E+00 0.  1.
</event>
<event>
 4    1  0.1551744E+006  0.2891558E+02  0.7546771E-02  0.1429260E+00
         21   -1    0    0  504  501  0.00000000000E+00  0.00000000000E+00  0.85039265067E+01  0.85039265067E+01  0.00000000000E+00 0.  1.
         21   -1    0    0  501  502 -0.00000000000E+00 -0.00000000000E+00 -0.10344406171E+03  0.10344406171E+03  0.00000000000E+00 0.  1.
         21    1    1    2  503  502 -0.19145796700E+02 -0.21669086158E+02 -0.35012968800E+02  0.45409457279E+02  0.00000000000E+00 0.  1.
         21    1    1    2  504  503  0.19145796700E+02  0.21669086158E+02 -0.59927166408E+02  0.66538530942E+02  0.00000000000E+00 0.  1.
</event>
<event>
 4    1  0.1551744E+006  0.2281783E+02  0.7546771E-02  0.1494798E+00
         21   -1    0    0  504  501  0.00000000000E+00  0.00000000000E+00  0.21389474186E+02  0.21389474186E+02  0.00000000000E+00 0. -1.
         21   -1    0    0  503  502 -0.00000000000E+00 -0.00000000000E+00 -0.30500171261E+02  0.30500171261E+02  0.00000000000E+00 0. -1.
         21    1    1    2  503  501 -0.58804028335E+01  0.22047092954E+02 -0.16213790355E+02  0.27991792420E+02  0.00000000000E+00 0. -1.
         21    1    1    2  504  502  0.58804028335E+01 -0.22047092954E+02  0.71030932795E+01  0.23897853028E+02  0.00000000000E+00 0. -1.
</event>
<event>
 4    1  0.1551744E+006  0.2572481E+02  0.7546771E-02  0.1460856E+00
         21   -1    0    0  503  501  0.00000000000E+00  0.00000000000E+00  0.23319066177E+02  0.23319066177E+02  0.00000000000E+00 0. -1.
         21   -1    0    0  504  502 -0.00000000000E+00 -0.00000000000E+00 -0.36618138219E+03  0.36618138219E+03  0.00000000000E+00 0. -1.
         21    1    1    2  503  502 -0.19067996348E+02 -0.17267819500E+02  0.15620407638E+02  0.30095900216E+02  0.00000000000E+00 0. -1.
         21    1    1    2  504  501  0.19067996348E+02  0.17267819500E+02 -0.35848272365E+03  0.35940454815E+03  0.00000000000E+00 0. -1.
</event>
<event>
 4    1  0.1551744E+006  0.2098151E+02  0.7546771E-02  0.1519529E+00
         21   -1    0    0  502  501  0.00000000000E+00  0.00000000000E+00  0.34503741686E+03  0.34503741686E+03  0.00000000000E+00 0. -1.
         21   -1    0    0  504  502 -0.00000000000E+00 -0.00000000000E+00 -0.25548160913E+02  0.25548160913E+02  0.00000000000E+00 0.  1.
         21    1    1    2  503  501 -0.59715054771E+01  0.20113797732E+02  0.34035141180E+03  0.34099751796E+03  0.00000000000E+00 0. -1.
         21    1    1    2  504  503  0.59715054771E+01 -0.20113797732E+02 -0.20862155854E+02  0.29588059817E+02  0.00000000000E+00 0.  1.
</event>
<event>
 4    1  0.1551744E+006  0.3825669E+02  0.7546771E-02  0.1359016E+00
         21   -1    0    0  502  501  0.00000000000E+00  0.00000000000E+00  0.10350177998E+02  0.10350177998E+02  0.00000000000E+00 0. -1.
         21   -1    0    0  504  502 -0.00000000000E+00 -0.00000000000E+00 -0.14264983618E+03  0.14264983618E+03  0.00000000000E+00 0. -1.
         21    1    1    2  503  501  0.37988267877E+02  0.45239266694E+01 -0.59005594874E+02  0.70322362270E+02  0.00000000000E+00 0. -1.
         21    1    1    2  504  503 -0.37988267877E+02 -0.45239266694E+01 -0.73294063310E+02  0.82677651910E+02  0.00000000000E+00 0. -1.
</event>
<event>
 4    1  0.1551744E+006  0.3629514E+02  0.7546771E-02  0.1371680E+00
         21   -1    0    0  503  501  0.00000000000E+00  0.00000000000E+00  0.84260129758E+02  0.84260129758E+02  0.00000000000E+00 0. -1.
         21   -1    0    0  504  502 -0.00000000000E+00 -0.00000000000E+00 -0.36730218183E+02  0.36730218183E+02  0.00000000000E+00 0. -1.
         21    1    1    2  503  502  0.36186294950E+02  0.28087410158E+01  0.69611811675E+02  0.78505676820E+02  0.00000000000E+00 0. -1.
         21    1    1    2  504  501 -0.36186294950E+02 -0.28087410158E+01 -0.22081900099E+02  0.42484671121E+02  0.00000000000E+00 0. -1.
</event>
<event>
 4    1  0.1551744E+006  0.2515241E+02  0.7546771E-02  0.1467106E+00
         21   -1    0    0  504  501  0.00000000000E+00  0.00000000000E+00  0.23165321973E+02  0.23165321973E+02  0.00000000000E+00 0.  1.
         21   -1    0    0  503  502 -0.00000000000E+00 -0.00000000000E+00 -0.10257533203E+03  0.10257533203E+03  0.00000000000E+00 0. -1.
         21    1    1    2  503  501  0.24267525256E+02 -0.66129190147E+01 -0.93559496165E+02  0.96881488442E+02  0.00000000000E+00 0. -1.
         21    1    1    2  504  502 -0.24267525256E+02  0.66129190147E+01  0.14149486106E+02  0.28859165564E+02  0.00000000000E+00 0.  1.
</event>
<event>
 4    1  0.1551744E+006  0.3727742E+02  0.7546771E-02  0.1365224E+00
         21   -1    0    0  504  501  0.00000000000E+00  0.00000000000E+00  0.24210425010E+03  0.24210425010E+03  0.00000000000E+00 0.  1.
         21   -1    0    0  503  502 -0.00000000000E+00 -0.00000000000E+00 -0.15914939960E+02  0.15914939960E+02  0.00000000000E+00 0.  1.
         21    1    1    2  503  501  0.10651418166E+02 -0.35723287187E+02  0.21625002069E+03  0.21943946182E+03  0.00000000000E+00 0.  1.
         21    1    1    2  504  502 -0.10651418166E+02  0.35723287187E+02  0.99392894547E+01  0.38579728242E+02  0.00000000000E+00 0.  1.
</event>
<event>
 4    1  0.1551744E+006  0.2835510E+02  0.7546771E-02  0.1434451E+00
         21   -1    0    0  502  501  0.00000000000E+00  0.00000000000E+00  0.10165810672E+03  0.10165810672E+03  0.00000000000E+00 0.  1.
         21   -1    0    0  504  502 -0.00000000000E+00 -0.00000000000E+00 -0.79252574979E+01  0.79252574979E+01  0.00000000000E+00 0.  1.
         21    1    1    2  503  501 -0.25279878929E+02  0.12842884118E+02  0.49349554159E+02  0.56915643252E+02  0.00000000000E+00 0.  1.
         21    1    1    2  504  503  0.25279878929E+02 -0.12842884118E+02  0.44383295066E+02  0.52667720969E+02  0.00000000000E+00 0.  1.
</event>
<event>
 4    1  0.1551744E+006  0.2257837E+02  0.7546771E-02  0.1497862E+00
         21   -1    0    0  503  501  0.00000000000E+00  0.00000000000E+00  0.55279802343E+03  0.55279802343E+03  0.00000000000E+00 0. -1.
         21   -1    0    0  504  502 -0.00000000000E+00 -0.00000000000E+00 -0.11284100590E+01  0.11284100590E+01  0.00000000000E+00 0. -1.
         21    1    1    2  503  502 -0.22401991998E+02 -0.28166420202E+01  0.15743307413E+03  0.15904387931E+03  0.00000000000E+00 0. -1.
         21    1    1    2  504  501  0.22401991998E+02  0.28166420202E+01  0.39423653925E+03  0.39488255418E+03  0.00000000000E+00 0. -1.
</event>
<event>
 4    1  0.1551744E+006  0.2372679E+02  0.7546771E-02  0.1483568E+00
         21   -1    0    0  504  501  0.00000000000E+00  0.00000000000E+00  0.75328972320E+03  0.75328972320E+03  0.00000000000E+00 0.  1.
         21   -1    0    0  503  502 -0.00000000000E+00 -0.00000000000E+00 -0.39247106944E+01  0.39247106944E+01  0.00000000000E+00 0.  1.
         21    1    1    2  503  501  0.23423084226E+02  0.37841164162E+01  0.34023958571E+02  0.41479997210E+02  0.00000000000E+00 0.  1.
         21    1    1    2  504  502 -0.23423084226E+02 -0.37841164162E+01  0.71534105393E+03  0.71573443668E+03  0.00000000000E+00 0.  1.
</event>
<event>
 4    1  0.1551744E+006  0.2143744E+02  0.7546771E-02  0.1513110E+00
         21   -1    0    0  502  501  0.00000000000E+00  0.00000000000E+00  0.15709080696E+02  0.15709080696E+02  0.00000000000E+00 0. -1.
         21   -1    0    0  503  502 -0.00000000000E+00 -0.00000000000E+00 -0.69533674005E+02  0.69533674005E+02  0.00000000000E+00 0. -1.
         21    1    1    2  503  504 -0.36633267813E+01 -0.21122116846E+02 -0.59351435601E+02  0.63104331793E+02  0.00000000000E+00 0. -1.
         21    1    1    2  504  501  0.36633267813E+01  0.21122116846E+02  0.55268422921E+01  0.22138422908E+02  0.00000000000E+00 0. -1.
</event>
<event>
 4    1  0.1551744E+006  0.3893932E+02  0.7546771E-02  0.1354816E+00
         21   -1    0    0  504  501  0.00000000000E+00  0.00000000000E+00  0.23105253154E+01  0.23105253154E+01  0.00000000000E+00 0.  1.
         21   -1    0    0  501  502 -0.00000000000E+00 -0.00000000000E+00 -0.75684558752E+03  0.75684558752E+03  0.00000000000E+00 0.  1.
         21    1    1    2  503  502  0.98270934457E+01  0.37678893131E+02 -0.51565528212E+03  0.51712342892E+03  0.00000000000E+00 0.  1.
         21    1    1    2  504  503 -0.98270934457E+01 -0.37678893131E+02 -0.23887978009E+03  0.24203268392E+03  0.00000000000E+00 0.  1.
</event>
<event>
 4    1  0.1551744E+006  0.2116911E+02  0.7546771E-02  0.1516864E+00
         21   -1    0    0  502  501  0.00000000000E+00  0.00000000000E+00  0.95078503962E+02  0.95078503962E+02  0.00000000000E+00 0. -1.
         21   -1    0    0  503  502 -0.00000000000E+00 -0.00000000000E+00 -0.66474933958E+02  0.66474933958E+02  0.00000000000E+00 0. -1.
         21    1    1    2  503  504  0.10643679109E+02  0.18298719578E+02 -0.63558633074E+02  0.66991274666E+02  0.00000000000E+00 0. -1.
         21    1    1    2  504  501 -0.10643679109E+02 -0.18298719578E+02  0.92162203078E+02  0.94562163254E+02  0.00000000000E+00 0. -1.
</event>
<event>
 4    1  0.1551744E+006  0.2017195E+02  0.7546771E-02  0.1531423E+00
         21   -1    0    0  504  501  0.00000000000E+00  0.00000000000E+00  0.16696200053E+02  0.16696200053E+02  0.00000000000E+00 0. -1.
         21   -1    0    0  501  502 -0.00000000000E+00 -0.00000000000E+00 -0.17071589102E+03  0.17071589102E+03  0.00000000000E+00 0. -1.
         21    1    1    2  503  502 -0.83340131344E+01 -0.18369865784E+02 -0.16376973803E+03  0.16500737814E+03  0.00000000000E+00 0. -1.
         21    1    1    2  504  503  0.83340131344E+01  0.18369865784E+02  0.97500470688E+01  0.22404712935E+02  0.00000000000E+00 0. -1.
</event>
<event>
 4    1  0.1551744E+006  0.2440934E+02  0.7546771E-02  0.1475521E+00
         21   -1    0    0  502  501  0.00000000000E+00  0.00000000000E+00  0.67482881662E+02  0.67482881662E+02  0.00000000000E+00 0.  1.
         21   -1    0    0  503  502 -0.00000000000E+00 -0.00000000000E+00 -0.11013634117E+02  0.11013634117E+02  0.00000000000E+00 0.  1.
         21    1    1    2  503  504 -0.17748084554E+02  0.16757730528E+02  0.10755077063E+02  0.26673727157E+02  0.00000000000E+00 0.  1.
         21    1    1    2  504  501  0.17748084554E+02 -0.16757730528E+02  0.45714170482E+02  0.51822788623E+02  0.00000000000E+00 0.  1.
</event>
<event>
 4    1  0.1551744E+006  0.4884007E+02  0.7546771E-02  0.1303281E+00
         21   -1    0    0  503  501  0.00000000000E+00  0.00000000000E+00  0.49643437716E+02  0.49643437716E+02  0.00000000000E+00 0. -1.
         21   -1    0    0  504  502 -0.00000000000E+00 -0.00000000000E+00 -0.49937782495E+02  0.49937782495E+02  0.00000000000E+00 0. -1.
         21    1    1    2  503  502  0.46866339759E+02  0.13744047331E+02 -0.98286688876E+01  0.49819226927E+02  0.00000000000E+00 0. -1.
         21    1    1    2  504  501 -0.46866339759E+02 -0.13744047331E+02  0.95343241086E+01  0.49761993285E+02  0.00000000000E+00 0. -1.
</event>
<event>
 4    1  0.1551744E+006  0.2511069E+02  0.7546771E-02  0.1467569E+00
         21   -1    0    0  504  501  0.00000000000E+00  0.00000000000E+00  0.96057599654E+03  0.96057599654E+03  0.00000000000E+00 0. -1.
         21   -1    0    0  503  502 -0.00000000000E+00 -0.00000000000E+00 -0.13139691428E+01  0.13139691428E+01  0.00000000000E+00 0. -1.
         21    1    1    2  503  501  0.11828635919E+02 -0.22150168997E+02  0.81985513011E+03  0.82023958755E+03  0.00000000000E+00 0. -1.
         21    1    1    2  504  502 -0.11828635919E+02  0.22150168997E+02  0.13940689729E+03  0.14165037814E+03  0.00000000000E+00 0. -1.
</event>
<event>
 4    1  0.1551744E+006  0.2919985E+02  0.7546771E-02  0.1426679E+00
         21   -1    0    0  503  501  0.00000000000E+00  0.00000000000E+00  0.21836058154E+01  0.21836058154E+01  0.00000000000E+00 0. -1.
         21   -1    0    0  504  502 -0.00000000000E+00 -0.00000000000E+00 -0.39887360440E+03  0.39887360440E+03  0.00000000000E+00 0. -1.
         21    1    1    2  503  502 -0.21572936791E+02  0.19678401474E+02 -0.22745277061E+03  0.22931941467E+03  0.00000000000E+00 0. -1.
         21    1    1    2  504  501  0.21572936791E+02 -0.19678401474E+02 -0.16923722797E+03  0.17173779554E+03  0.00000000000E+00 0. -1.
</event>
<event>
 4    1  0.1551744E+006  0.4757326E+02  0.7546771E-02  0.1309051E+00
         21   -1    0    0  503  501  0.00000000000E+00  0.00000000000E+00  0.16523768176E+04  0.16523768176E+04  0.00000000000E+00 0.  1.
         21   -1    0    0  504  502 -0.00000000000E+00 -0.00000000000E+00 -0.51819492169E+01  0.51819492169E+01  0.00000000000E+00 0.  1.
         21    1    1    2  503  502  0.92946621701E+00  0.47564183733E+02  0.15344582204E+04  0.15351955073E+04  0.00000000000E+00 0.  1.
         21    1    1    2  504  501 -0.92946621701E+00 -0.47564183733E+02  0.11273664801E+03  0.12236325955E+03  0.00000000000E+00 0.  1.
</event>
<event>
 4    1  0.1551744E+006  0.2226159E+02  0.7546771E-02  0.1501985E+00
         21   -1    0    0  504  501  0.00000000000E+00  0.00000000000E+00  0.76140686484E+01  0.76140686484E+01  0.00000000000E+00 0.  1.
         21   -1    0    0  501  502 -0.00000000000E+00 -0.00000000000E+00 -0.91018226698E+03  0.91018226698E+03  0.00000000000E+00 0. -1.
         21    1    1    2  503  502  0.21880827706E+02  0.40997074954E+01 -0.89347003815E+03  0.89374732855E+03  0.00000000000E+00 0. -1.
         21    1    1    2  504  503 -0.21880827706E+02 -0.40997074954E+01 -0.90981601816E+01  0.24049007076E+02  0.00000000000E+00 0.  1.
</event>
<event>
 4    1  0.1551744E+006  0.2178274E+02  0.7546771E-02  0.1508376E+00
         21   -1    0    0  502  501  0.00000000000E+00  0.00000000000E+00  0.14138807918E+01  0.14138807918E+01  0.00000000000E+00 0.  1.
         21   -1    0    0  504  502 -0.00000000000E+00 -0.00000000000E+00 -0.38874313648E+03  0.38874313648E+03  0.00000000000E+00 0.  1.
         21    1    1    2  503  501 -0.17191514443E+02 -0.13376832806E+02 -0.26579732855E+03  0.26668840937E+03  0.00000000000E+00 0.  1.
         21    1    1    2  504  503  0.17191514443E+02  0.13376832806E+02 -0.12153192714E+03  0.12346860791E+03  0.00000000000E+00 0.  1.
</event>
<event>
 4    1  0.1551744E+006  0.2410983E+02  0.7546771E-02  0.1479013E+00
         21   -1    0    0  504  501  0.00000000000E+00  0.00000000000E+00  0.11459764004E+01  0.11459764004E+01  0.00000000000E+00 0. -1.
         21   -1    0    0  501  502 -0.00000000000E+00 -0.00000000000E+00 -0.64218213059E+03  0.64218213059E+03  0.00000000000E+00 0. -1.
         21    1    1    2  503  502 -0.13973807912E+02 -0.19647307422E+02 -0.46796941249E+03  0.46859007140E+03  0.00000000000E+00 0. -1.
         21    1    1    2  504  503  0.13973807912E+02  0.19647307422E+02 -0.17306674170E+03  0.17473803558E+03  0.00000000000E+00 0. -1.
</event>
<event>
 4    1  0.1551744E+006  0.2405572E+02  0.7546771E-02  0.1479650E+00
         21   -1    0    0  503  501  0.00000000000E+00  0.00000000000E+00  0.20023478368E+03  0.20023478368E+03  0.00000000000E+00 0. -1.
         21   -1    0    0  504  502 -0.00000000000E+00 -0.00000000000E+00 -0.59694769877E+01  0.59694769877E+01  0.00000000000E+00 0.  1.
         21    1    1    2  503  502  0.15449656696E+02 -0.18438707365E+02  0.23080408734E+02  0.33337412746E+02  0.00000000000E+00 0.  1.
         21    1    1    2  504  501 -0.15449656696E+02  0.18438707365E+02  0.17118489796E+03  0.17286684792E+03  0.00000000000E+00 0. -1.
</event>
<event>
 4    1  0.1551744E+006  0.2152452E+02  0.7546771E-02  0.1511906E+00
         21   -1    0    0  503  501  0.00000000000E+00  0.00000000000E+00  0.13640448100E+03  0.13640448100E+03  0.00000000000E+00 0. -1.
         21   -1    0    0  504  502 -0.00000000000E+00 -0.00000000000E+00 -0.41212961068E+01  0.41212961068E+01  0.00000000000E+00 0. -1.
         21    1    1    2  503  502 -0.21514697874E+02 -0.65031851095E+00  0.95606218951E+02  0.97999256328E+02  0.00000000000E+00 0. -1.
         21    1    1    2  504  501  0.21514697874E+02  0.65031851095E+00  0.36676965941E+02  0.42526520777E+02  0.00000000000E+00 0. -1.
</event>
<event>
 4    1  0.1551744E+006  0.2143706E+02  0.7546771E-02  0.1513115E+00
         21   -1    0    0  502  501  0.00000000000E+00  0.00000000000E+00  0.32129877126E+01  0.32129877126E+01  0.00000000000E+00 0.  1.
         21   -1    0    0  503  502 -0.00000000000E+00 -0.00000000000E+00 -0.11596621547E+04  0.11596621547E+04  0.00000000000E+00 0. -1.
         21    1    1    2  503  504  0.21000555149E+02  0.43039785211E+01 -0.11226265367E+04  0.11228311932E+04  0.00000000000E+00 0. -1.
         21    1    1    2  504  501 -0.21000555149E+02 -0.43039785211E+01 -0.33822630261E+02  0.40043949174E+02  0.00000000000E+00 0.  1.
</event>
<event>
 4    1  0.1551744E+006  0.2036103E+02  0.7546771E-02  0.1528586E+00
         21   -1    0    0  504  501  0.00000000000E+00  0.00000000000E+00  0.13185876499E+04  0.13185876499E+04  0.00000000000E+00 0. -1.
         21   -1    0    0  503  502 -0.00000000000E+00 -0.00000000000E+00 -0.46667308871E+01  0.46667308871E+01  0.00000000000E+00 0.  1.
         21    1    1    2  503  501  0.19348332952E+02  0.63414085803E+01  0.18009340365E+02  0.27182858407E+02  0.00000000000E+00 0.  1.
         21    1    1    2  504  502 -0.19348332952E+02 -0.63414085803E+01  0.12959115786E+04  0.12960715223E+04  0.00000000000E+00 0. -1.
</event>
<event>
 4    1  0.1551744E+006  0.2023194E+02  0.7546771E-02  0.1530519E+00
         21   -1    0    0  503  501  0.00000000000E+00  0.00000000000E+00  0.12366612856E+02  0.12366612856E+02  0.00000000000E+00 0.  1.
         21   -1    0    0  504  502 -0.00000000000E+00 -0.00000000000E+00 -0.61994950128E+02  0.61994950128E+02  0.00000000000E+00 0.  1.
         21    1    1    2  503  502 -0.17523743105E+02  0.10111868908E+02  0.56944270236E+00  0.20239953809E+02  0.00000000000E+00 0.  1.
         21    1    1    2  504  501  0.17523743105E+02 -0.10111868908E+02 -0.50197779975E+02  0.54121609174E+02  0.00000000000E+00 0.  1.
</event>
<event>
 4    1  0.1551744E+006  0.3578856E+02  0.7546771E-02  0.1375103E+00
         21   -1    0    0  504  501  0.00000000000E+00  0.00000000000E+00  0.79918086760E+02  0.79918086760E+02  0.00000000000E+00 0.  1.
         21   -1    0    0  503  502 -0.00000000000E+00 -0.00000000000E+00 -0.17974528158E+02  0.17974528158E+02  0.00000000000E+00 0.  1.
         21    1    1    2  503  501  0.35408394275E+02  0.52025384560E+01  0.47084536602E+02  0.59141984905E+02  0.00000000000E+00 0.  1.
         21    1    1    2  504  502 -0.35408394275E+02 -0.52025384560E+01  0.14859022001E+02  0.38750630012E+02  0.00000000000E+00 0.  1.
</event>
<event>
 4    1  0.1551744E+006  0.2159680E+02  0.7546771E-02  0.1510912E+00
         21   -1    0    0  504  501  0.00000000000E+00  0.00000000000E+00  0.83263342943E+02  0.83263342943E+02  0.00000000000E+00 0.  1.
         21   -1    0    0  503  502 -0.00000000000E+00 -0.00000000000E+00 -0.15775689415E+02  0.15775689415E+02  0.00000000000E+00 0. -1.
         21    1    1    2  503  501 -0.67286432665E+01 -0.20521872407E+02  0.73511155503E+02  0.76617960497E+02  0.00000000000E+00 0.  1.
         21    1    1    2  504  502  0.67286432665E+01  0.20521872407E+02 -0.60235019751E+01  0.22421071860E+02  0.00000000000E+00 0. -1.
</event>
<event>
 4    1  0.1551744E+006  0.2583836E+02  0.7546771E-02  0.1459639E+00
         21   -1    0    0  504  501  0.00000000000E+00  0.00000000000E+00  0.13394495024E+02  0.13394495024E+02  0.00000000000E+00 0.  1.
         21   -1    0    0  501  502 -0.00000000000E+00 -0.00000000000E+00 -0.50663058426E+02  0.50663058426E+02  0.00000000000E+00 0. -1.
         21    1    1    2  503  502  0.96523578400E+01  0.23967750367E+02 -0.22709320928E+02  0.34399626837E+02  0.00000000000E+00 0. -1.
         21    1    1    2  504  503 -0.96523578400E+01 -0.23967750367E+02 -0.14559242475E+02  0.29657926613E+02  0.00000000000E+00 0.  1.
</event>
<event>
 4    1  0.1551744E+006  0.2791660E+02  0.7546771E-02  0.1438612E+00
         21   -1    0    0  504  501  0.00000000000E+00  0.00000000000E+00  0.27962212497E+02  0.27962212497E+02  0.00000000000E+00 0. -1.
         21   -1    0    0  503  502 -0.00000000000E+00 -0.00000000000E+00 -0.29365795634E+02  0.29365795634E+02  0.00000000000E+00 0. -1.
         21    1    1    2  503  501 -0.67846846388E+01  0.27079599501E+02 -0.71687098361E+01  0.28822336052E+02  0.00000000000E+00 0. -1.
         21    1    1    2  504  502  0.67846846388E+01 -0.27079599501E+02  0.57651266991E+01  0.28505672078E+02  0.00000000000E+00 0. -1.
</event>
<event>
 4    1  0.1551744E+006  0.2498917E+02  0.7546771E-02  0.1468925E+00
         21   -1    0    0  504  501  0.00000000000E+00  0.00000000000E+00  0.11417838138E+02  0.11417838138E+02  0.00000000000E+00 0. -1.
         21   -1    0    0  503  502 -0.00000000000E+00 -0.00000000000E+00 -0.42907775460E+03  0.42907775460E+03  0.00000000000E+00 0.  1.
         21    1    1    2  503  501 -0.12443865705E+02 -0.21670461385E+02 -0.41456275036E+03  0.41531522086E+03  0.00000000000E+00 0.  1.
         21    1    1    2  504  502  0.12443865705E+02  0.21670461385E+02 -0.30971661055E+01  0.25180371884E+02  0.00000000000E+00 0. -1.
</event>
<event>
 4    1  0.1551744E+006  0.2202087E+02  0.7546771E-02  0.1505173E+00
         21   -1    0    0  504  501  0.00000000000E+00  0.00000000000E+00  0.93048549876E+02  0.93048549876E+02  0.00000000000E+00 0. -1.
         21   -1    0    0  501  502 -0.00000000000E+00 -0.00000000000E+00 -0.19352410626E+02  0.19352410626E+02  0.00000000000E+00 0. -1.
         21    1    1    2  503  502 -0.59129601822E+00  0.22012930916E+02 -0.11192904018E+02  0.24702223763E+02  0.00000000000E+00 0. -1.
         21    1    1    2  504  503  0.59129601822E+00 -0.22012930916E+02  0.84889043269E+02  0.87698736739E+02  0.00000000000E+00 0. -1.
</event>
<event>
 4    1  0.1551744E+006  0.3442987E+02  0.7546771E-02  0.1384616E+00
         21   -1    0    0  502  501  0.00000000000E+00  0.00000000000E+00  0.10287456877E+03  0.10287456877E+03  0.00000000000E+00 0.  1.
         21   -1    0    0  504  502 -0.00000000000E+00 -0.00000000000E+00 -0.28985088414E+02  0.28985088414E+02  0.00000000000E+00 0. -1.
         21    1    1    2  503  501  0.33218109654E+01 -0.34269250670E+02  0.88118067085E+02  0.94605548021E+02  0.00000000000E+00 0.  1.
         21    1    1    2  504  503 -0.33218109654E+01  0.34269250670E+02 -0.14228586725E+02  0.37254109166E+02  0.00000000000E+00 0. -1.
</event>
<event>
 4    1  0.1551744E+006  0.2666253E+02  0.7546771E-02  0.1451028E+00
         21   -1    0    0  504  501  0.00000000000E+00  0.00000000000E+00  0.40489578987E+02  0.40489578987E+02  0.00000000000E+00 0. -1.
         21   -1    0    0  503  502 -0.00000000000E+00 -0.00000000000E+00 -0.26747165317E+02  0.26747165317E+02  0.00000000000E+00 0.  1.
         21    1    1    2  503  501  0.15713462436E+02  0.21540141411E+02  0.26576852776E+02  0.37645978500E+02  0.00000000000E+00 0. -1.
         21    1    1    2  504  502 -0.15713462436E+02 -0.21540141411E+02 -0.12834439106E+02  0.29590765804E+02  0.00000000000E+00 0.  1.
</event>
<event>
 4    1  0.1551744E+006  0.2340002E+02  0.7546771E-02  0.1487535E+00
         21   -1    0    0  504  501  0.00000000000E+00  0.00000000000E+00  0.22430948236E+03  0.22430948236E+03  0.00000000000E+00 0.  1.
         21   -1    0    0  501  502 -0.00000000000E+00 -0.00000000000E+00 -0.51870541433E+02  0.51870541433E+02  0.00000000000E+00 0.  1.
         21    1    1    2  503  502  0.21126710392E+02  0.10060961095E+02 -0.48582036832E+02  0.53923790045E+02  0.00000000000E+00 0.  1.
         21    1    1    2  504  503 -0.21126710392E+02 -0.10060961095E+02  0.22102097776E+03  0.22225623375E+03  0.00000000000E+00 0.  1.
</event>
<event>
 4    1  0.1551744E+006  0.2384757E+02  0.7546771E-02  0.1482121E+00
         21   -1    0    0  503  501  0.00000000000E+00  0.00000000000E+00  0.72816194134E+02  0.72816194134E+02  0.00000000000E+00 0.  1.
         21   -1    0    0  501  502 -0.00000000000E+00 -0.00000000000E+00 -0.87966850263E+01  0.87966850263E+01  0.00000000000E+00 0.  1.
         21    1    1    2  503  504  0.15528622322E+02  0.18098848438E+02  0.45675154026E+02  0.51525975209E+02  0.00000000000E+00 0.  1.
         21    1    1    2  504  502 -0.15528622322E+02 -0.18098848438E+02  0.18344355082E+02  0.30086903951E+02  0.00000000000E+00 0.  1.
</event>
<event>
 4    1  0.1551744E+006  0.2112068E+02  0.7546771E-02  0.1517549E+00
         21   -1    0    0  504  501  0.00000000000E+00  0.00000000000E+00  0.40248196519E+01  0.40248196519E+01  0.00000000000E+00 0.  1.
         21   -1    0    0  503  502 -0.00000000000E+00 -0.00000000000E+00 -0.11111318624E+03  0.11111318624E+03  0.00000000000E+00 0.  1.
         21    1    1    2  503  501 -0.20331915869E+02  0.57180858109E+01 -0.56434453483E+02  0.60257205778E+02  0.00000000000E+00 0.  1.
         21    1    1    2  504  502  0.20331915869E+02 -0.57180858109E+01 -0.50653913103E+02  0.54880800111E+02  0.00000000000E+00 0.  1.
</event>
<event>
 4    1  0.1551744E+006  0.3091840E+02  0.7546771E-02  0.1411780E+00
         21   -1    0    0  503  501  0.00000000000E+00  0.00000000000E+00  0.40684373401E+02  0.40684373401E+02  0.00000000000E+00 0.  1.
         21   -1    0    0  504  502 -0.00000000000E+00 -0.00000000000E+00 -0.44815992821E+02  0.44815992821E+02  0.00000000000E+00 0. -1.
         21    1    1    2  503  502  0.71453633368E+01 -0.30081408938E+02  0.27419666746E+02  0.41325361528E+02  0.00000000000E+00 0.  1.
         21    1    1    2  504  501 -0.71453633368E+01  0.30081408938E+02 -0.31551286167E+02  0.44175004694E+02  0.00000000000E+00 0. -1.
</event>
<event>
 4    1  0.1551744E+006  0.2566554E+02  0.7546771E-02  0.1461494E+00
         21   -1    0    0  503  501  0.00000000000E+00  0.00000000000E+00  0.38502582179E+01  0.38502582179E+01  0.00000000000E+00 0.  1.
         21   -1    0    0  504  502 -0.00000000000E+00 -0.00000000000E+00 -0.17689614139E+03  0.17689614139E+03  0.00000000000E+00 0.  1.
         21    1    1    2  503  502 -0.19147058665E+02  0.17091221243E+02 -0.10290347242E+03  0.10605585479E+03  0.00000000000E+00 0.  1.
         21    1    1    2  504  501  0.19147058665E+02 -0.17091221243E+02 -0.70142410750E+02  0.74690544816E+02  0.00000000000E+00 0.  1.
</event>
<event>
 4    1  0.1551744E+006  0.4099006E+02  0.7546771E-02  0.1342780E+00
         21   -1    0    0  503  501  0.00000000000E+00  0.00000000000E+00  0.17099470004E+03  0.17099470004E+03  0.00000000000E+00 0. -1.
         21   -1    0    0  504  502 -0.00000000000E+00 -0.00000000000E+00 -0.10224100844E+03  0.10224100844E+03  0.00000000000E+00 0. -1.
         21    1    1    2  503  502 -0.16537144563E+02  0.37506104200E+02  0.16426402165E+03  0.16930107445E+03  0.00000000000E+00 0. -1.
         21    1    1    2  504  501  0.16537144563E+02 -0.37506104200E+02 -0.95510330055E+02  0.10393463402E+03  0.00000000000E+00 0. -1.
</event>
<event>
 4    1  0.1551744E+006  0.3282912E+02  0.7546771E-02  0.1396503E+00
         21   -1    0    0  504  501  0.00000000000E+00  0.00000000000E+00  0.79458104669E+03  0.79458104669E+03  0.00000000000E+00 0.  1.
         21   -1    0    0  503  502 -0.00000000000E+00 -0.00000000000E+00 -0.15110485229E+01  0.15110485229E+01  0.00000000000E+00 0.  1.
         21    1    1    2  503  501 -0.15897464959E+02 -0.28723189877E+02  0.26918467724E+03  0.27117916861E+03  0.00000000000E+00 0.  1.
         21    1    1    2  504  502  0.15897464959E+02  0.28723189877E+02  0.52388532093E+03  0.52491292660E+03  0.00000000000E+00 0.  1.
</event>
<event>
 4    1  0.1551744E+006  0.2500294E+02  0.7546771E-02  0.1468771E+00
         21   -1    0    0  502  501  0.00000000000E+00  0.00000000000E+00  0.46066838339E+01  0.46066838339E+01  0.00000000000E+00 0.  1.
         21   -1    0    0  504  502 -0.00000000000E+00 -0.00000000000E+00 -0.15218254885E+03  0.15218254885E+03  0.00000000000E+00 0.  1.
         21    1    1    2  503  501 -0.21694197478E+02 -0.12430153332E+02 -0.47991537225E+02  0.54114088381E+02  0.00000000000E+00 0.  1.
         21    1    1    2  504  503  0.21694197478E+02  0.12430153332E+02 -0.99584327787E+02  0.10267514430E+03  0.00000000000E+00 0.  1.
</event>
<event>
 4    1  0.1551744E+006  0.2540374E+02  0.7546771E-02  0.1464337E+00
         21   -1    0    0  504  501  0.00000000000E+00  0.00000000000E+00  0.18293727176E+02  0.18293727176E+02  0.00000000000E+00 0. -1.
         21   -1    0    0  503  502 -0.00000000000E+00 -0.00000000000E+00 -0.64824081279E+02  0.64824081279E+02  0.00000000000E+00 0.  1.
         21    1    1    2  503  501  0.74323797063E+01  0.24292171791E+02 -0.51322896399E+02  0.57265954748E+02  0.00000000000E+00 0.  1.
         21    1    1    2  504  502 -0.74323797063E+01 -0.24292171791E+02  0.47925422962E+01  0.25851853707E+02  0.00000000000E+00 0. -1.
</event>
<event>
 4    1  0.1551744E+006  0.2100153E+02  0.7546771E-02  0.1519243E+00
         21   -1    0    0  504  501  0.00000000000E+00  0.00000000000E+00  0.62410415071E+00  0.62410415071E+00  0.00000000000E+00 0.  1.
         21   -1    0    0  503  502 -0.00000000000E+00 -0.00000000000E+00 -0.77608426400E+03  0.77608426400E+03  0.00000000000E+00 0.  1.
         21    1    1    2  503  501 -0.20905487466E+02 -0.20062304428E+01 -0.27162423749E+03  0.27243492940E+03  0.00000000000E+00 0.  1.
         21    1    1    2  504  502  0.20905487466E+02  0.20062304428E+01 -0.50383592237E+03  0.50427343876E+03  0.00000000000E+00 0.  1.
</event>
<event>
 4    1  0.1551744E+006  0.2728200E+02  0.7546771E-02  0.1444796E+00
         21   -1    0    0  503  501  0.00000000000E+00  0.00000000000E+00  0.85843648712E+02  0.85843648712E+02  0.00000000000E+00 0. -1.
         21   -1    0    0  504  502 -0.00000000000E+00 -0.00000000000E+00 -0.32717789353E+02  0.32717789353E+02  0.00000000000E+00 0. -1.
         21    1    1    2  503  502  0.23587514545E+01  0.27179842404E+02  0.77385254992E+02  0.82053551000E+02  0.00000000000E+00 0. -1.
         21    1    1    2  504  501 -0.23587514545E+01 -0.27179842404E+02 -0.24259395633E+02  0.36507887066E+02  0.00000000000E+00 0. -1.
</event>
<event>
 4    1  0.1551744E+006  0.2409052E+02  0.7546771E-02  0.1479240E+00
         21   -1    0    0  504  501  0.00000000000E+00  0.00000000000E+00  0.63060682422E+01  0.63060682422E+01  0.00000000000E+00 0.  1.
         21   -1    0    0  503  502 -0.00000000000E+00 -0.00000000000E+00 -0.25664441094E+03  0.25664441094E+03  0.00000000000E+00 0. -1.
         21    1    1    2  503  501 -0.15152542511E+02  0.18728422987E+02 -0.19873442536E+02  0.31229906986E+02  0.00000000000E+00 0.  1.
         21    1    1    2  504  502  0.15152542511E+02 -0.18728422987E+02 -0.23046490016E+03  0.23172057220E+03  0.00000000000E+00 0. -1.
</event>
<event>
 4    1  0.1551744E+006  0.2747836E+02  0.7546771E-02  0.1442861E+00
         21   -1    0    0  504  501  0.00000000000E+00  0.00000000000E+00  0.10875108291E+03  0.10875108291E+03  0.00000000000E+00 0.  1.
         21   -1    0    0  503  502 -0.00000000000E+00 -0.00000000000E+00 -0.60092494740E+02  0.60092494740E+02  0.00000000000E+00 0. -1.
         21    1    1    2  503  501  0.14626032061E+02  0.23262408074E+02 -0.55065849858E+02  0.61541110356E+02  0.00000000000E+00 0. -1.
         21    1    1    2  504  502 -0.14626032061E+02 -0.23262408074E+02  0.10372443803E+03  0.10730246730E+03  0.00000000000E+00 0.  1.
</event>
<event>
 4    1  0.1551744E+006  0.2053078E+02  0.7546771E-02  0.1526071E+00
         21   -1    0    0  504  501  0.00000000000E+00  0.00000000000E+00  0.67197988436E+02  0.67197988436E+02  0.00000000000E+00 0.  1.
         21   -1    0    0  503  502 -0.00000000000E+00 -0.00000000000E+00 -0.24224371791E+02  0.24224371791E+02  0.00000000000E+00 0.  1.
         21    1    1    2  503  501 -0.17292203701E+02 -0.11067629439E+02 -0.17863545173E+02  0.27214315651E+02  0.00000000000E+00 0.  1.
         21    1    1    2  504  502  0.17292203701E+02  0.11067629439E+02  0.60837161818E+02  0.64208044576E+02  0.00000000000E+00 0.  1.
</event>
<event>
 4    1  0.1551744E+006  0.2610376E+02  0.7546771E-02  0.1456825E+00
         21   -1    0    0  502  501  0.00000000000E+00  0.00000000000E+00  0.26051587293E+01  0.26051587293E+01  0.00000000000E+00 0.  1.
         21   -1    0    0  503  502 -0.00000000000E+00 -0.00000000000E+00 -0.13059841641E+04  0.13059841641E+04  0.00000000000E+00 0. -1.
         21    1    1    2  503  504  0.19342446074E+02  0.17529298316E+02 -0.12368065898E+04  0.12370820293E+04  0.00000000000E+00 0. -1.
         21    1    1    2  504  501 -0.19342446074E+02 -0.17529298316E+02 -0.66572415513E+02  0.71507293522E+02  0.00000000000E+00 0.  1.
</event>
<event>
 4    1  0.1551744E+006  0.2887617E+02  0.7546771E-02  0.1429620E+00
         21   -1    0    0  503  501  0.00000000000E+00  0.00000000000E+00  0.52595858979E+03  0.52595858979E+03  0.00000000000E+00 0.  1.
         21   -1    0    0  504  502 -0.00000000000E+00 -0.00000000000E+00 -0.18510852229E+01  0.18510852229E+01  0.00000000000E+00 0.  1.
         21    1    1    2  503  502  0.43078928084E+01 -0.28553026060E+02  0.36204253195E+03  0.36319227439E+03  0.00000000000E+00 0.  1.
         21    1    1    2  504  501 -0.43078928084E+01  0.28553026060E+02  0.16206497262E+03  0.16461740062E+03  0.00000000000E+00 0.  1.
</event>
<event>
 4    1  0.1551744E+006  0.2309575E+02  0.7546771E-02  0.1491299E+00
         21   -1    0    0  503  501  0.00000000000E+00  0.00000000000E+00  0.26701489766E+02  0.26701489766E+02  0.00000000000E+00 0. -1.
         21   -1    0    0  504  502 -0.00000000000E+00 -0.00000000000E+00 -0.29134931948E+02  0.29134931948E+02  0.00000000000E+00 0. -1.
         21    1    1    2  503  502  0.22506984046E+01 -0.22985820307E+02 -0.16869128172E+02  0.28600368246E+02  0.00000000000E+00 0. -1.
         21    1    1    2  504  501 -0.22506984046E+01  0.22985820307E+02  0.14435685990E+02  0.27236053468E+02  0.00000000000E+00 0. -1.
</event>
<event>
 4    1  0.1551744E+006  0.2079115E+02  0.7546771E-02  0.1522268E+00
         21   -1    0    0  504  501  0.00000000000E+00  0.00000000000E+00  0.28421546090E+03  0.28421546090E+03  0.00000000000E+00 0.  1.
         21   -1    0    0  503  502 -0.00000000000E+00 -0.00000000000E+00 -0.19396464911E+01  0.19396464911E+01  0.00000000000E+00 0.  1.
         21    1    1    2  503  501  0.15269628240E+02 -0.14110640204E+02  0.74661055651E+02  0.77501902844E+02  0.00000000000E+00 0.  1.
         21    1    1    2  504  502 -0.15269628240E+02  0.14110640204E+02  0.20761475876E+03  0.20865320455E+03  0.00000000000E+00 0.  1.
</event>
<event>
 4    1  0.1551744E+006  0.2738009E+02  0.7546771E-02  0.1443827E+00
         21   -1    0    0  502  501  0.00000000000E+00  0.00000000000E+00  0.30114225265E+03  0.30114225265E+03  0.00000000000E+00 0.  1.
         21   -1    0    0  503  502 -0.00000000000E+00 -0.00000000000E+00 -0.25908952508E+01  0.25908952508E+01  0.00000000000E+00 0.  1.
         21    1    1    2  503  504  0.11647327705E+02  0.24779206610E+02  0.11922052701E+03  0.12232417334E+03  0.00000000000E+00 0.  1.
         21    1    1    2  504  501 -0.11647327705E+02 -0.24779206610E+02  0.17933083039E+03  0.18140897456E+03  0.00000000000E+00 0.  1.
</event>
<event>
 4    1  0.1551744E+006  0.5184117E+02  0.7546771E-02  0.1290381E+00
         21   -1    0    0  502  501  0.00000000000E+00  0.00000000000E+00  0.11120512178E+03  0.11120512178E+03  0.00000000000E+00 0. -1.
         21   -1    0    0  504  502 -0.00000000000E+00 -0.00000000000E+00 -0.15624343696E+03  0.15624343696E+03  0.00000000000E+00 0. -1.
         21    1    1    2  503  501  0.50003036974E+02  0.13682208215E+02  0.10042895437E+03  0.11301982748E+03  0.00000000000E+00 0. -1.
         21    1    1    2  504  503 -0.50003036974E+02 -0.13682208215E+02 -0.14546726955E+03  0.15442873126E+03  0.00000000000E+00 0. -1.
</event>
<event>
 4    1  0.1551744E+006  0.2675278E+02  0.7546771E-02  0.1450107E+00
         21   -1    0    0  504  501  0.00000000000E+00  0.00000000000E+00  0.24331719089E+03  0.24331719089E+03  0.00000000000E+00 0. -1.
         21   -1    0    0  503  502 -0.00000000000E+00 -0.00000000000E+00 -0.21828740358E+02  0.21828740358E+02  0.00000000000E+00 0.  1.
         21    1    1    2  503  501 -0.25469376795E+02 -0.81866912378E+01 -0.12573411151E+02  0.29560137614E+02  0.00000000000E+00 0.  1.
         21    1    1    2  504  502  0.25469376795E+02  0.81866912378E+01  0.23406186168E+03  0.23558579364E+03  0.00000000000E+00 0. -1.
</event>
<event>
 4    1  0.1551744E+006  0.2526832E+02  0.7546771E-02  0.1465824E+00
         21   -1    0    0  502  501  0.00000000000E+00  0.00000000000E+00  0.17578456485E+02  0.17578456485E+02  0.00000000000E+00 0. -1.
         21   -1    0    0  504  502 -0.00000000000E+00 -0.00000000000E+00 -0.12722207404E+04  0.12722207404E+04  0.00000000000E+00 0.  1.
         21    1    1    2  503  501 -0.22978035055E+02 -0.10511802126E+02  0.83057776085E+01  0.26598383797E+02  0.00000000000E+00 0. -1.
         21    1    1    2  504  503  0.22978035055E+02  0.10511802126E+02 -0.12629480615E+04  0.12632008131E+04  0.00000000000E+00 0.  1.
</event>
<event>
 4    1  0.1551744E+006  0.2250656E+02  0.7546771E-02  0.1498789E+00
         21   -1    0    0  503  501  0.00000000000E+00  0.00000000000E+00  0.25365673705E+02  0.25365673705E+02  0.00000000000E+00 0.  1.
         21   -1    0    0  504  502 -0.00000000000E+00 -0.00000000000E+00 -0.57222893377E+02  0.57222893377E+02  0.00000000000E+00 0. -1.
         21    1    1    2  503  502 -0.49105255100E+01  0.21964338142E+02 -0.49247203604E+02  0.54146398529E+02  0.00000000000E+00 0. -1.
         21    1    1    2  504  501  0.49105255100E+01 -0.21964338142E+02  0.17389983932E+02  0.28442168553E+02  0.00000000000E+00 0.  1.
</event>
<event>
 4    1  0.1551744E+006  0.2114649E+02  0.7546771E-02  0.1517184E+00
         21   -1    0    0  503  501  0.00000000000E+00  0.00000000000E+00  0.27212262292E+02  0.27212262292E+02  0.00000000000E+00 0.  1.
         21   -1    0    0  504  502 -0.00000000000E+00 -0.00000000000E+00 -0.34640835314E+03  0.34640835314E+03  0.00000000000E+00 0.  1.
         21    1    1    2  503  502  0.19553860946E+02  0.80511120821E+01 -0.34192359669E+03  0.34257688167E+03  0.00000000000E+00 0.  1.
         21    1    1    2  504  501 -0.19553860946E+02 -0.80511120821E+01  0.22727505843E+02  0.31043733756E+02  0.00000000000E+00 0.  1.
</event>
<event>
 4    1  0.1551744E+006  0.2297069E+02  0.7546771E-02  0.1492867E+00
         21   -1    0    0  503  501  0.00000000000E+00  0.00000000000E+00  0.57318151342E+01  0.57318151342E+01  0.00000000000E+00 0.  1.
         21   -1    0    0  504  502 -0.00000000000E+00 -0.00000000000E+00 -0.12952068895E+03  0.12952068895E+03  0.00000000000E+00 0. -1.
         21    1    1    2  503  502  0.12921232255E+02 -0.18991952240E+02 -0.98265185665E+02  0.10091431616E+03  0.00000000000E+00 0. -1.
         21    1    1    2  504  501 -0.12921232255E+02  0.18991952240E+02 -0.25523688150E+02  0.34338187920E+02  0.00000000000E+00 0.  1.
</event>
<event>
 4    1  0.1551744E+006  0.3533077E+02  0.7546771E-02  0.1378253E+00
         21   -1    0    0  504  501  0.00000000000E+00  0.00000000000E+00  0.79968129121E+02  0.79968129121E+02  0.00000000000E+00 0. -1.
         21   -1    0    0  501  502 -0.00000000000E+00 -0.00000000000E+00 -0.27655575507E+02  0.27655575507E+02  0.00000000000E+00 0. -1.
         21    1    1    2  503  502  0.30456022296E+02 -0.17907929694E+02 -0.93585104666E+01  0.36549212825E+02  0.00000000000E+00 0. -1.
         21    1    1    2  504  503 -0.30456022296E+02  0.17907929694E+02  0.61671064081E+02  0.71074491802E+02  0.00000000000E+00 0. -1.
</event>
<event>
 4    1  0.1551744E+006  0.2066112E+02  0.7546771E-02  0.1524159E+00
         21   -1    0    0  504  501  0.00000000000E+00  0.00000000000E+00  0.21491244295E+02  0.21491244295E+02  0.00000000000E+00 0. -1.
         21   -1    0    0  503  502 -0.00000000000E+00 -0.00000000000E+00 -0.25396491139E+03  0.25396491139E+03  0.00000000000E+00 0. -1.
         21    1    1    2  503  501 -0.20593029862E+02  0.16760540388E+01  0.15995616578E+02  0.26129328077E+02  0.00000000000E+00 0. -1.
         21    1    1    2  504  502  0.20593029862E+02 -0.16760540388E+01 -0.24846928367E+03  0.24932682760E+03  0.00000000000E+00 0. -1.
</event>
<event>
 4    1  0.1551744E+006  0.3248926E+02  0.7546771E-02  0.1399129E+00
         21   -1    0    0  504  501  0.00000000000E+00  0.00000000000E+00  0.37758318378E+01  0.37758318378E+01  0.00000000000E+00 0. -1.
         21   -1    0    0  503  502 -0.00000000000E+00 -0.00000000000E+00 -0.28438836275E+03  0.28438836275E+03  0.00000000000E+00 0. -1.
         21    1    1    2  503  501  0.30850159105E+02 -0.10189192644E+02 -0.15909022765E+03  0.16237380484E+03  0.00000000000E+00 0. -1.
         21    1    1    2  504  502 -0.30850159105E+02  0.10189192644E+02 -0.12152230326E+03  0.12579038975E+03  0.00000000000E+00 0. -1.
</event>
<event>
 4    1  0.1551744E+006  0.4822438E+02  0.7546771E-02  0.1306060E+00
         21   -1    0    0  502  501  0.00000000000E+00  0.00000000000E+00  0.29757319421E+02  0.29757319421E+02  0.00000000000E+00 0.  1.
         21   -1    0    0  504  502 -0.00000000000E+00 -0.00000000000E+00 -0.31719804237E+03  0.31719804237E+03  0.00000000000E+00 0.  1.
         21    1    1    2  503  501 -0.41720329006E+02  0.24186868609E+02  0.68776530749E+01  0.48712345224E+02  0.00000000000E+00 0.  1.
         21    1    1    2  504  503  0.41720329006E+02 -0.24186868609E+02 -0.29431837602E+03  0.29824301657E+03  0.00000000000E+00 0.  1.
</event>
<event>
 4    1  0.1551744E+006  0.2191712E+02  0.7546771E-02  0.1506563E+00
         21   -1    0    0  503  501  0.00000000000E+00  0.00000000000E+00  0.51724560113E+00  0.51724560113E+00  0.00000000000E+00 0. -1.
         21   -1    0    0  504  502 -0.00000000000E+00 -0.00000000000E+00 -0.93476839781E+03  0.93476839781E+03  0.00000000000E+00 0. -1.
         21    1    1    2  503  502 -0.85074220044E+01  0.20198616470E+02 -0.50483848485E+03  0.50531401734E+03  0.00000000000E+00 0. -1.
         21    1    1    2  504  501  0.85074220044E+01 -0.20198616470E+02 -0.42941266736E+03  0.42997162607E+03  0.00000000000E+00 0. -1.
</event>
<event>
 4    1  0.1551744E+006  0.2155550E+02  0.7546771E-02  0.1511479E+00
         21   -1    0    0  502  501  0.00000000000E+00  0.00000000000E+00  0.86445291683E+02  0.86445291683E+02  0.00000000000E+00 0.  1.
         21   -1    0    0  503  502 -0.00000000000E+00 -0.00000000000E+00 -0.57452467027E+01  0.57452467027E+01  0.00000000000E+00 0.  1.
         21    1    1    2  503  504 -0.13817973529E+02  0.16543982746E+02  0.28647685084E+02  0.35851493946E+02  0.00000000000E+00 0.  1.
         21    1    1    2  504  501  0.13817973529E+02 -0.16543982746E+02  0.52052359897E+02  0.56339044440E+02  0.00000000000E+00 0.  1.
</event>
<event>
 4    1  0.1551744E+006  0.2002570E+02  0.7546771E-02  0.1533643E+00
         21   -1    0    0  502  501  0.00000000000E+00  0.00000000000E+00  0.16971245204E+02  0.16971245204E+02  0.00000000000E+00 0.  1.
         21   -1    0    0  503  502 -0.00000000000E+00 -0.00000000000E+00 -0.26736441443E+03  0.26736441443E+03  0.00000000000E+00 0. -1.
         21    1    1    2  503  504  0.19999388597E+02 -0.10262844840E+01 -0.26093664869E+03  0.26170396144E+03  0.00000000000E+00 0. -1.
         21    1    1    2  504  501 -0.19999388597E+02  0.10262844840E+01  0.10543479461E+02  0.22631698197E+02  0.00000000000E+00 0.  1.
</event>
<event>
 4    1  0.1551744E+006  0.2073324E+02  0.7546771E-02  0.1523108E+00
         21   -1    0    0  503  501  0.00000000000E+00  0.00000000000E+00  0.81073586427E+02  0.81073586427E+02  0.00000000000E+00 0.  1.
         21   -1    0    0  504  502 -0.00000000000E+00 -0.00000000000E+00 -0.92341863945E+01  0.92341863945E+01  0.00000000000E+00 0.  1.
         21    1    1    2  503  502 -0.61737035951E+01  0.19792742396E+02  0.64549628172E+01  0.21714829324E+02  0.00000000000E+00 0.  1.
         21    1    1    2  504  501  0.61737035951E+01 -0.19792742396E+02  0.65384437215E+02  0.68592943497E+02  0.00000000000E+00 0.  1.
</event>
<event>
 4    1  0.1551744E+006  0.2438392E+02  0.7546771E-02  0.1475815E+00
         21   -1    0    0  503  501  0.00000000000E+00  0.00000000000E+00  0.80058857001E+02  0.80058857001E+02  0.00000000000E+00 0. -1.
         21   -1    0    0  504  502 -0.00000000000E+00 -0.00000000000E+00 -0.76352228847E+01  0.76352228847E+01  0.00000000000E+00 0. -1.
         21    1    1    2  503  502 -0.19702619073E+02  0.14366015651E+02  0.28966224942E+02  0.37863145556E+02  0.00000000000E+00 0. -1.
         21    1    1    2  504  501  0.19702619073E+02 -0.14366015651E+02  0.43457409174E+02  0.49830934329E+02  0.00000000000E+00 0. -1.
</event>
<event>
 4    1  0.1551744E+006  0.2368974E+02  0.7546771E-02  0.1484014E+00
         21   -1    0    0  504  501  0.00000000000E+00  0.00000000000E+00  0.49303493114E+02  0.49303493114E+02  0.00000000000E+00 0. -1.
         21   -1    0    0  503  502 -0.00000000000E+00 -0.00000000000E+00 -0.15050672435E+02  0.15050672435E+02  0.00000000000E+00 0. -1.
         21    1    1    2  503  501  0.13124347670E+02 -0.19721947389E+02  0.33011349006E+02  0.40631919396E+02  0.00000000000E+00 0. -1.
         21    1    1    2  504  502 -0.13124347670E+02  0.19721947389E+02  0.12414716722E+01  0.23722246152E+02  0.00000000000E+00 0. -1.
</event>
<event>
 4    1  0.1551744E+006  0.2389508E+02  0.7546771E-02  0.1481554E+00
         21   -1    0    0  504  501  0.00000000000E+00  0.00000000000E+00  0.13740899551E+01  0.13740899551E+01  0.00000000000E+00 0. -1.
         21   -1    0    0  503  502 -0.00000000000E+00 -0.00000000000E+00 -0.42388979330E+03  0.42388979330E+03  0.00000000000E+00 0. -1.
         21    1    1    2  503  501  0.16339863711E+02 -0.17435126159E+02 -0.18139608754E+03  0.18296315297E+03  0.00000000000E+00 0. -1.
         21    1    1    2  504  502 -0.16339863711E+02  0.17435126159E+02 -0.24111961581E+03  0.24230073028E+03  0.00000000000E+00 0. -1.
</event>
<event>
 4    1  0.1551744E+006  0.2201412E+02  0.7546771E-02  0.1505263E+00
         21   -1    0    0  504  501  0.00000000000E+00  0.00000000000E+00  0.37020970771E+01  0.37020970771E+01  0.00000000000E+00 0.  1.
         21   -1    0    0  503  502 -0.00000000000E+00 -0.00000000000E+00 -0.40893329705E+03  0.40893329705E+03  0.00000000000E+00 0. -1.
         21    1    1    2  503  501  0.21731996914E+02 -0.35130929574E+01 -0.37273547775E+03  0.37338499955E+03  0.00000000000E+00 0. -1.
         21    1    1    2  504  502 -0.21731996914E+02  0.35130929574E+01 -0.32495722219E+02  0.39250394578E+02  0.00000000000E+00 0.  1.
</event>
<event>
 4    1  0.1551744E+006  0.3257613E+02  0.7546771E-02  0.1398454E+00
         21   -1    0    0  503  501  0.00000000000E+00  0.00000000000E+00  0.16815956818E+03  0.16815956818E+03  0.00000000000E+00 0. -1.
         21   -1    0    0  504  502 -0.00000000000E+00 -0.00000000000E+00 -0.15491523713E+02  0.15491523713E+02  0.00000000000E+00 0. -1.
         21    1    1    2  503  502 -0.14545786826E+02  0.29148314602E+02  0.56441274173E+01  0.33061462957E+02  0.00000000000E+00 0. -1.
         21    1    1    2  504  501  0.14545786826E+02 -0.29148314602E+02  0.14702391705E+03  0.15058962894E+03  0.00000000000E+00 0. -1.
</event>
<event>
 4    1  0.1551744E+006  0.3399303E+02  0.7546771E-02  0.1387784E+00
         21   -1    0    0  504  501  0.00000000000E+00  0.00000000000E+00  0.32022306691E+01  0.32022306691E+01  0.00000000000E+00 0. -1.
         21   -1    0    0  503  502 -0.00000000000E+00 -0.00000000000E+00 -0.50145412500E+03  0.50145412500E+03  0.00000000000E+00 0. -1.
         21    1    1    2  503  501  0.33890033748E+02  0.26442290109E+01 -0.38273888229E+03  0.38424546627E+03  0.00000000000E+00 0. -1.
         21    1    1    2  504  502 -0.33890033748E+02 -0.26442290109E+01 -0.11551301204E+03  0.12041088940E+03  0.00000000000E+00 0. -1.
</event>
<event>
 4    1  0.1551744E+006  0.3053828E+02  0.7546771E-02  0.1414975E+00
         21   -1    0    0  504  501  0.00000000000E+00  0.00000000000E+00  0.90362369078E+02  0.90362369078E+02  0.00000000000E+00 0.  1.
         21   -1    0    0  503  502 -0.00000000000E+00 -0.00000000000E+00 -0.30198522658E+03  0.30198522658E+03  0.00000000000E+00 0.  1.
         21    1    1    2  503  501 -0.28903621543E+02  0.98573289082E+01  0.86981053084E+02  0.92186169608E+02  0.00000000000E+00 0.  1.
         21    1    1    2  504  502  0.28903621543E+02 -0.98573289082E+01 -0.29860391059E+03  0.30016142605E+03  0.00000000000E+00 0.  1.
</event>
<event>
 4    1  0.1551744E+006  0.2041983E+02  0.7546771E-02  0.1527712E+00
         21   -1    0    0  502  501  0.00000000000E+00  0.00000000000E+00  0.11059865120E+02  0.11059865120E+02  0.00000000000E+00 0.  1.
         21   -1    0    0  503  502 -0.00000000000E+00 -0.00000000000E+00 -0.47792774333E+03  0.47792774333E+03  0.00000000000E+00 0. -1.
         21    1    1    2  503  504 -0.17649694347E+02  0.10269264030E+02 -0.46808627423E+03  0.46853146064E+03  0.00000000000E+00 0. -1.
         21    1    1    2  504  501  0.17649694347E+02 -0.10269264030E+02  0.12183960139E+01  0.20456147807E+02  0.00000000000E+00 0.  1.
</event>
<event>
 4    1  0.1551744E+006  0.2273222E+02  0.7546771E-02  0.1495888E+00
         21   -1    0    0  503  501  0.00000000000E+00  0.00000000000E+00  0.23568381981E+03  0.23568381981E+03  0.00000000000E+00 0. -1.
         21   -1    0    0  504  502 -0.00000000000E+00 -0.00000000000E+00 -0.71629829317E+01  0.71629829317E+01  0.00000000000E+00 0. -1.
         21    1    1    2  503  502  0.21034725257E+02 -0.86194016610E+01  0.21540708691E+03  0.21660324754E+03  0.00000000000E+00 0. -1.
         21    1    1    2  504  501 -0.21034725257E+02  0.86194016610E+01  0.13113749968E+02  0.26243555206E+02  0.00000000000E+00 0. -1.
</event>
<event>
 4    1  0.1551744E+006  0.2182076E+02  0.7546771E-02  0.1507862E+00
         21   -1    0    0  504  501  0.00000000000E+00  0.00000000000E+00  0.20940698751E+01  0.20940698751E+01  0.00000000000E+00 0. -1.
         21   -1    0    0  503  502 -0.00000000000E+00 -0.00000000000E+00 -0.23183247268E+03  0.23183247268E+03  0.00000000000E+00 0. -1.
         21    1    1    2  503  501 -0.18620867199E+02 -0.11375793091E+02 -0.13108214360E+03  0.13288594258E+03  0.00000000000E+00 0. -1.
         21    1    1    2  504  502  0.18620867199E+02  0.11375793091E+02 -0.98656259202E+02  0.10104059998E+03  0.00000000000E+00 0. -1.
</event>
<event>
 4    1  0.1551744E+006  0.2110532E+02  0.7546771E-02  0.1517766E+00
         21   -1    0    0  502  501  0.00000000000E+00  0.00000000000E+00  0.15357506933E+03  0.15357506933E+03  0.00000000000E+00 0. -1.
         21   -1    0    0  503  502 -0.00000000000E+00 -0.00000000000E+00 -0.45025120825E+01  0.45025120825E+01  0.00000000000E+00 0. -1.
         21    1    1    2  503  504  0.59363077944E+01  0.20253270038E+02  0.27389244406E+02  0.34577527479E+02  0.00000000000E+00 0. -1.
         21    1    1    2  504  501 -0.59363077944E+01 -0.20253270038E+02  0.12168331285E+03  0.12350005394E+03  0.00000000000E+00 0. -1.
</event>
<event>
 4    1  0.1551744E+006  0.2668069E+02  0.7546771E-02  0.1450842E+00
         21   -1    0    0  502  501  0.00000000000E+00  0.00000000000E+00  0.60931871834E+02  0.60931871834E+02  0.00000000000E+00 0. -1.
         21   -1    0    0  503  502 -0.00000000000E+00 -0.00000000000E+00 -0.13383814072E+02  0.13383814072E+02  0.00000000000E+00 0. -1.
         21    1    1    2  503  504  0.14611962864E+02 -0.22323744516E+02  0.10527387045E+02  0.28682484306E+02  0.00000000000E+00 0. -1.
         21    1    1    2  504  501 -0.14611962864E+02  0.22323744516E+02  0.37020670717E+02  0.45633201600E+02  0.00000000000E+00 0. -1.
</event>
<event>
 4    1  0.1551744E+006  0.2061086E+02  0.7546771E-02  0.1524894E+00
         21   -1    0    0  504  501  0.00000000000E+00  0.00000000000E+00  0.22116394799E+01  0.22116394799E+01  0.00000000000E+00 0.  1.
         21   -1    0    0  503  502 -0.00000000000E+00 -0.00000000000E+00 -0.19732301427E+03  0.19732301427E+03  0.00000000000E+00 0.  1.
         21    1    1    2  503  501  0.98680850817E+00 -0.20587227185E+02 -0.81290284517E+02  0.83862495021E+02  0.00000000000E+00 0.  1.
         21    1    1    2  504  502 -0.98680850817E+00  0.20587227185E+02 -0.11382109028E+03  0.11567215873E+03  0.00000000000E+00 0.  1.
</event>
<event>
 4    1  0.1551744E+006  0.2636230E+02  0.7546771E-02  0.1454121E+00
         21   -1    0    0  504  501  0.00000000000E+00  0.00000000000E+00  0.26125884529E+03  0.26125884529E+03  0.00000000000E+00 0.  1.
         21   -1    0    0  503  502 -0.00000000000E+00 -0.00000000000E+00 -0.47433037662E+02  0.47433037662E+02  0.00000000000E+00 0. -1.
         21    1    1    2  503  501 -0.25918979175E+02  0.48142676627E+01 -0.43042670533E+02  0.50474173011E+02  0.00000000000E+00 0. -1.
         21    1    1    2  504  502  0.25918979175E+02 -0.48142676627E+01  0.25686847817E+03  0.25821770995E+03  0.00000000000E+00 0.  1.
</event>
<event>
 4    1  0.1551744E+006  0.2511385E+02  0.7546771E-02  0.1467534E+00
         21   -1    0    0  502  501  0.00000000000E+00  0.00000000000E+00  0.71731314986E+01  0.71731314986E+01  0.00000000000E+00 0. -1.
         21   -1    0    0  503  502 -0.00000000000E+00 -0.00000000000E+00 -0.24185897331E+03  0.24185897331E+03  0.00000000000E+00 0. -1.
         21    1    1    2  503  504  0.16453938250E+02 -0.18972968998E+02 -0.21667965964E+03  0.21813019171E+03  0.00000000000E+00 0. -1.
         21    1    1    2  504  501 -0.16453938250E+02  0.18972968998E+02 -0.18006182179E+02  0.30901913099E+02  0.00000000000E+00 0. -1.
</event>
<event>
 4    1  0.1551744E+006  0.3698807E+02  0.7546771E-02  0.1367101E+00
         21   -1    0    0  504  501  0.00000000000E+00  0.00000000000E+00  0.83606727130E+01  0.83606727130E+01  0.00000000000E+00 0. -1.
         21   -1    0    0  503  502 -0.00000000000E+00 -0.00000000000E+00 -0.17894655260E+03  0.17894655260E+03  0.00000000000E+00 0.  1.
         21    1    1    2  503  501 -0.35586456033E+02  0.10085710239E+02 -0.57899869284E+02  0.68705984217E+02  0.00000000000E+00 0. -1.
         21    1    1    2  504  502  0.35586456033E+02 -0.10085710239E+02 -0.11268601060E+03  0.11860124110E+03  0.00000000000E+00 0.  1.
</event>
<event>
 4    1  0.1551744E+006  0.2260341E+02  0.7546771E-02  0.1497539E+00
         21   -1    0    0  503  501  0.00000000000E+00  0.00000000000E+00  0.99905894577E+01  0.99905894577E+01  0.00000000000E+00 0. -1.
         21   -1    0    0  501  502 -0.00000000000E+00 -0.00000000000E+00 -0.52993740560E+02  0.52993740560E+02  0.00000000000E+00 0.  1.
         21    1    1    2  503  504 -0.18944104546E+02  0.12330253187E+02 -0.15610867324E+02  0.27470227871E+02  0.00000000000E+00 0. -1.
         21    1    1    2  504  502  0.18944104546E+02 -0.12330253187E+02 -0.27392283779E+02  0.35514102147E+02  0.00000000000E+00 0.  1.
</event>
<event>
 4    1  0.1551744E+006  0.2201997E+02  0.7546771E-02  0.1505185E+00
         21   -1    0    0  504  501  0.00000000000E+00  0.00000000000E+00  0.38747645454E+03  0.38747645454E+03  0.00000000000E+00 0.  1.
         21   -1    0    0  501  502 -0.00000000000E+00 -0.00000000000E+00 -0.14948334499E+01  0.14948334499E+01  0.00000000000E+00 0.  1.
         21    1    1    2  503  502 -0.17900775048E+02 -0.12823467760E+02  0.11450305604E+03  0.11660115315E+03  0.00000000000E+00 0.  1.
         21    1    1    2  504  503  0.17900775048E+02  0.12823467760E+02  0.27147856504E+03  0.27237013484E+03  0.00000000000E+00 0.  1.
</event>
<event>
 4    1  0.1551744E+006  0.2088279E+02  0.7546771E-02  0.1520945E+00
         21   -1    0    0  503  501  0.00000000000E+00  0.00000000000E+00  0.44702223236E+02  0.44702223236E+02  0.00000000000E+00 0.  1.
         21   -1    0    0  504  502 -0.00000000000E+00 -0.00000000000E+00 -0.11293946122E+03  0.11293946122E+03  0.00000000000E+00 0.  1.
         21    1    1    2  503  502 -0.20762651609E+02 -0.22368213768E+01 -0.10945840505E+03  0.11143264112E+03  0.00000000000E+00 0.  1.
         21    1    1    2  504  501  0.20762651609E+02  0.22368213768E+01  0.41221167064E+02  0.46209043334E+02  0.00000000000E+00 0.  1.
</event>
<event>
 4    1  0.1551744E+006  0.2546528E+02  0.7546771E-02  0.1463665E+00
         21   -1    0    0  504  501  0.00000000000E+00  0.00000000000E+00  0.11203116078E+01  0.11203116078E+01  0.00000000000E+00 0.  1.
         21   -1    0    0  503  502 -0.00000000000E+00 -0.00000000000E+00 -0.71229367165E+03  0.71229367165E+03  0.00000000000E+00 0.  1.
         21    1    1    2  503  501 -0.21569500280E+02 -0.13536505679E+02 -0.50998713161E+03  0.51062251688E+03  0.00000000000E+00 0.  1.
         21    1    1    2  504  502  0.21569500280E+02  0.13536505679E+02 -0.20118622843E+03  0.20279146638E+03  0.00000000000E+00 0.  1.
</event>
<event>
 4    1  0.1551744E+006  0.2970710E+02  0.7546771E-02  0.1422159E+00
         21   -1    0    0  502  501  0.00000000000E+00  0.00000000000E+00  0.18374109584E+03  0.18374109584E+03  0.00000000000E+00 0. -1.
         21   -1    0    0  503  502 -0.00000000000E+00 -0.00000000000E+00 -0.18931175141E+02  0.18931175141E+02  0.00000000000E+00 0.  1.
         21    1    1    2  503  504 -0.16462505103E+02  0.24728479981E+02 -0.51374115626E+01  0.30148047930E+02  0.00000000000E+00 0.  1.
         21    1    1    2  504  501  0.16462505103E+02 -0.24728479981E+02  0.16994733226E+03  0.17252422305E+03  0.00000000000E+00 0. -1.
</event>
<event>
 4    1  0.1551744E+006  0.2266532E+02  0.7546771E-02  0.1496744E+00
         21   -1    0    0  503  501  0.00000000000E+00  0.00000000000E+00  0.33806827248E+02  0.33806827248E+02  0.00000000000E+00 0. -1.
         21   -1    0    0  504  502 -0.00000000000E+00 -0.00000000000E+00 -0.16134643371E+02  0.16134643371E+02  0.00000000000E+00 0. -1.
         21    1    1    2  503  502  0.14283533258E+02  0.17598217758E+02  0.14860075197E+02  0.27102369370E+02  0.00000000000E+00 0. -1.
         21    1    1    2  504  501 -0.14283533258E+02 -0.17598217758E+02  0.28121086800E+01  0.22839101248E+02  0.00000000000E+00 0. -1.
</event>
<event>
 4    1  0.1551744E+006  0.2101692E+02  0.7546771E-02  0.1519023E+00
         21   -1    0    0  504  501  0.00000000000E+00  0.00000000000E+00  0.17828372074E+03  0.17828372074E+03  0.00000000000E+00 0. -1.
         21   -1    0    0  503  502 -0.00000000000E+00 -0.00000000000E+00 -0.11229558965E+02  0.11229558965E+02  0.00000000000E+00 0. -1.
         21    1    1    2  503  501  0.27629780020E+01  0.20834506891E+02 -0.12594159557E+00  0.21017292549E+02  0.00000000000E+00 0. -1.
         21    1    1    2  504  502 -0.27629780020E+01 -0.20834506891E+02  0.16718010337E+03  0.16849598715E+03  0.00000000000E+00 0. -1.
</event>
<event>
 4    1  0.1551744E+006  0.2086282E+02  0.7546771E-02  0.1521233E+00
         21   -1    0    0  503  501  0.00000000000E+00  0.00000000000E+00  0.36420910333E+02  0.36420910333E+02  0.00000000000E+00 0. -1.
         21   -1    0    0  501  502 -0.00000000000E+00 -0.00000000000E+00 -0.60213509408E+02  0.60213509408E+02  0.00000000000E+00 0.  1.
         21    1    1    2  503  504 -0.12162165242E+02 -0.16951073984E+02  0.31361154476E+02  0.37666685316E+02  0.00000000000E+00 0. -1.
         21    1    1    2  504  502  0.12162165242E+02  0.16951073984E+02 -0.55153753551E+02  0.58967734426E+02  0.00000000000E+00 0.  1.
</event>
<event>
 4    1  0.1551744E+006  0.3060600E+02  0.7546771E-02  0.1414402E+00
         21   -1    0    0  502  501  0.00000000000E+00  0.00000000000E+00  0.21219632586E+01  0.21219632586E+01  0.00000000000E+00 0.  1.
         21   -1    0    0  504  502 -0.00000000000E+00 -0.00000000000E+00 -0.78260511669E+03  0.78260511669E+03  0.00000000000E+00 0. -1.
         21    1    1    2  503  501  0.30022111945E+02 -0.59497751664E+01 -0.13118337778E+03  0.13470636820E+03  0.00000000000E+00 0.  1.
         21    1    1    2  504  503 -0.30022111945E+02  0.59497751664E+01 -0.64929977566E+03  0.65002071175E+03  0.00000000000E+00 0. -1.
</event>
<event>
 4    1  0.1551744E+006  0.3326218E+02  0.7546771E-02  0.1393210E+00
         21   -1    0    0  504  501  0.00000000000E+00  0.00000000000E+00  0.48518124846E+02  0.48518124846E+02  0.00000000000E+00 0.  1.
         21   -1    0    0  503  502 -0.00000000000E+00 -0.00000000000E+00 -0.22924087784E+02  0.22924087784E+02  0.00000000000E+00 0.  1.
         21    1    1    2  503  501  0.33260758129E+02  0.30775941368E+00  0.15390080794E+02  0.36650065948E+02  0.00000000000E+00 0.  1.
         21    1    1    2  504  502 -0.33260758129E+02 -0.30775941368E+00  0.10203956269E+02  0.34792146681E+02  0.00000000000E+00 0.  1.
</event>
<event>
 4    1  0.1551744E+006  0.2138035E+02  0.7546771E-02  0.1513903E+00
         21   -1    0    0  503  501  0.00000000000E+00  0.00000000000E+00  0.19133057445E+03  0.19133057445E+03  0.00000000000E+00 0.  1.
         21   -1    0    0  504  502 -0.00000000000E+00 -0.00000000000E+00 -0.13875378842E+02  0.13875378842E+02  0.00000000000E+00 0.  1.
         21    1    1    2  503  502  0.90185220710E+01 -0.19385190554E+02  0.18208012491E+03  0.18333109731E+03  0.00000000000E+00 0.  1.
         21    1    1    2  504  501 -0.90185220710E+01  0.19385190554E+02 -0.46249293046E+01  0.21874855982E+02  0.00000000000E+00 0.  1.
</event>
<event>
 4    1  0.1551744E+006  0.2769109E+02  0.7546771E-02  0.1440787E+00
         21   -1    0    0  504  501  0.00000000000E+00  0.00000000000E+00  0.37860516372E+02  0.37860516372E+02  0.00000000000E+00 0. -1.
         21   -1    0    0  503  502 -0.00000000000E+00 -0.00000000000E+00 -0.17815233562E+03  0.17815233562E+03  0.00000000000E+00 0. -1.
         21    1    1    2  503  501  0.27407225620E+02  0.39548341074E+01 -0.17182782232E+03  0.17404481392E+03  0.00000000000E+00 0. -1.
         21    1    1    2  504  502 -0.27407225620E+02 -0.39548341074E+01  0.31536003078E+02  0.41968038066E+02  0.00000000000E+00 0. -1.
</event>
<event>
 4    1  0.1551744E+006  0.2650134E+02  0.7546771E-02  0.1452683E+00
         21   -1    0    0  503  501  0.00000000000E+00  0.00000000000E+00  0.75971929417E+02  0.75971929417E+02  0.00000000000E+00 0.  1.
         21   -1    0    0  504  502 -0.00000000000E+00 -0.00000000000E+00 -0.17091410601E+03  0.17091410601E+03  0.00000000000E+00 0.  1.
         21    1    1    2  503  502  0.20792227685E+02  0.16431799194E+02 -0.16752927978E+03  0.16961244159E+03  0.00000000000E+00 0.  1.
         21    1    1    2  504  501 -0.20792227685E+02 -0.16431799194E+02  0.72587103185E+02  0.77273593845E+02  0.00000000000E+00 0.  1.
</event>
<event>
 4    1  0.1551744E+006  0.2605791E+02  0.7546771E-02  0.1457308E+00
         21   -1    0    0  503  501  0.00000000000E+00  0.00000000000E+00  0.79895064669E+02  0.79895064669E+02  0.00000000000E+00 0. -1.
         21   -1    0    0  504  502 -0.00000000000E+00 -0.00000000000E+00 -0.29290449636E+02  0.29290449636E+02  0.00000000000E+00 0. -1.
         21    1    1    2  503  502 -0.15703483955E+02 -0.20794602823E+02  0.71297890222E+02  0.75910500361E+02  0.00000000000E+00 0. -1.
         21    1    1    2  504  501  0.15703483955E+02  0.20794602823E+02 -0.20693275189E+02  0.33275013944E+02  0.00000000000E+00 0. -1.
</event>
<event>
 4    1  0.1551744E+006  0.2083696E+02  0.7546771E-02  0.1521605E+00
         21   -1    0    0  504  501  0.00000000000E+00  0.00000000000E+00  0.23835134651E+01  0.23835134651E+01  0.00000000000E+00 0. -1.
         21   -1    0    0  503  502 -0.00000000000E+00 -0.00000000000E+00 -0.19174680545E+03  0.19174680545E+03  0.00000000000E+00 0. -1.
         21    1    1    2  503  501 -0.11490561777E+02  0.17382342602E+02 -0.11638640494E+03  0.11823694050E+03  0.00000000000E+00 0. -1.
         21    1    1    2  504  502  0.11490561777E+02 -0.17382342602E+02 -0.72976887048E+02  0.75893378417E+02  0.00000000000E+00 0. -1.
</event>
<event>
 4    1  0.1551744E+006  0.3366172E+02  0.7546771E-02  0.1390224E+00
         21   -1    0    0  503  501  0.00000000000E+00  0.00000000000E+00  0.68077332671E+03  0.68077332671E+03  0.00000000000E+00 0.  1.
         21   -1    0    0  504  502 -0.00000000000E+00 -0.00000000000E+00 -0.46820699096E+01  0.46820699096E+01  0.00000000000E+00 0.  1.
         21    1    1    2  503  502  0.31585496486E+02 -0.11639051228E+02  0.61319133695E+03  0.61411458769E+03  0.00000000000E+00 0.  1.
         21    1    1    2  504  501 -0.31585496486E+02  0.11639051228E+02  0.62899919856E+02  0.71340808936E+02  0.00000000000E+00 0.  1.
</event>
<event>
 4    1  0.1551744E+006  0.2256238E+02  0.7546771E-02  0.1498068E+00
         21   -1    0    0  504  501  0.00000000000E+00  0.00000000000E+00  0.88052936640E+02  0.88052936640E+02  0.00000000000E+00 0. -1.
         21   -1    0    0  503  502 -0.00000000000E+00 -0.00000000000E+00 -0.10490268036E+03  0.10490268036E+03  0.00000000000E+00 0. -1.
         21    1    1    2  503  501  0.11119874610E+02  0.19631849668E+02 -0.10220650490E+03  0.10466723831E+03  0.00000000000E+00 0. -1.
         21    1    1    2  504  502 -0.11119874610E+02 -0.19631849668E+02  0.85356761177E+02  0.88288378688E+02  0.00000000000E+00 0. -1.
</event>
<event>
 4    1  0.1551744E+006  0.2850509E+02  0.7546771E-02  0.1433048E+00
         21   -1    0    0  503  501  0.00000000000E+00  0.00000000000E+00  0.87933403346E+03  0.87933403346E+03  0.00000000000E+00 0.  1.
         21   -1    0    0  504  502 -0.00000000000E+00 -0.00000000000E+00 -0.93604830476E+00  0.93604830476E+00  0.00000000000E+00 0.  1.
         21    1    1    2  503  502 -0.27968878987E+02  0.55029136417E+01  0.48904941257E+03  0.48987944250E+03  0.00000000000E+00 0.  1.
         21    1    1    2  504  501  0.27968878987E+02 -0.55029136417E+01  0.38934857259E+03  0.39039063927E+03  0.00000000000E+00 0.  1.
</event>
<event>
 4    1  0.1551744E+006  0.3192757E+02  0.7546771E-02  0.1403554E+00
         21   -1    0    0  502  501  0.00000000000E+00  0.00000000000E+00  0.68308866598E+02  0.68308866598E+02  0.00000000000E+00 0. -1.
         21   -1    0    0  503  502 -0.00000000000E+00 -0.00000000000E+00 -0.12387786399E+03  0.12387786399E+03  0.00000000000E+00 0. -1.
         21    1    1    2  503  504  0.15235851244E+02  0.28057768714E+02 -0.11790424644E+03  0.12215064829E+03  0.00000000000E+00 0. -1.
         21    1    1    2  504  501 -0.15235851244E+02 -0.28057768714E+02  0.62335249055E+02  0.70036082294E+02  0.00000000000E+00 0. -1.
</event>
<event>
 4    1  0.1551744E+006  0.2004898E+02  0.7546771E-02  0.1533288E+00
         21   -1    0    0  504  501  0.00000000000E+00  0.00000000000E+00  0.22834632144E+03  0.22834632144E+03  0.00000000000E+00 0.  1.
         21   -1    0    0  503  502 -0.00000000000E+00 -0.00000000000E+00 -0.46552401558E+01  0.46552401558E+01  0.00000000000E+00 0. -1.
         21    1    1    2  503  501 -0.32535373987E+01 -0.19783223089E+02  0.19974957741E+02  0.28301243049E+02  0.00000000000E+00 0. -1.
         21    1    1    2  504  502  0.32535373987E+01  0.19783223089E+02  0.20371612354E+03  0.20470031855E+03  0.00000000000E+00 0.  1.
</event>
<event>
 4    1  0.1551744E+006  0.2060363E+02  0.7546771E-02  0.1525000E+00
         21   -1    0    0  503  501  0.00000000000E+00  0.00000000000E+00  0.13409573080E+02  0.13409573080E+02  0.00000000000E+00 0.  1.
         21   -1    0    0  501  502 -0.00000000000E+00 -0.00000000000E+00 -0.71291307613E+02  0.71291307613E+02  0.00000000000E+00 0.  1.
         21    1    1    2  503  504 -0.57807537685E+01  0.19776056665E+02  0.26363739350E+01  0.20771615221E+02  0.00000000000E+00 0.  1.
         21    1    1    2  504  502  0.57807537685E+01 -0.19776056665E+02 -0.60518108467E+02  0.63929265472E+02  0.00000000000E+00 0.  1.
</event>
<event>
 4    1  0.1551744E+006  0.3719747E+02  0.7546771E-02  0.1365740E+00
         21   -1    0    0  504  501  0.00000000000E+00  0.00000000000E+00  0.13954946638E+02  0.13954946638E+02  0.00000000000E+00 0. -1.
         21   -1    0    0  503  502 -0.00000000000E+00 -0.00000000000E+00 -0.18105580846E+03  0.18105580846E+03  0.00000000000E+00 0.  1.
         21    1    1    2  503  501  0.36992342660E+02 -0.39010396765E+01 -0.14913114792E+03  0.15370019781E+03  0.00000000000E+00 0.  1.
         21    1    1    2  504  502 -0.36992342660E+02  0.39010396765E+01 -0.17969713903E+02  0.41310557292E+02  0.00000000000E+00 0. -1.
</event>
<event>
 4    1  0.1551744E+006  0.3246042E+02  0.7546771E-02  0.1399354E+00
         21   -1    0    0  503  501  0.00000000000E+00  0.00000000000E+00  0.30407323087E+02  0.30407323087E+02  0.00000000000E+00 0. -1.
         21   -1    0    0  504  502 -0.00000000000E+00 -0.00000000000E+00 -0.42602389112E+02  0.42602389112E+02  0.00000000000E+00 0. -1.
         21    1    1    2  503  502  0.25291553007E+01 -0.32361738576E+02 -0.21867256985E+02  0.39138927913E+02  0.00000000000E+00 0. -1.
         21    1    1    2  504  501 -0.25291553007E+01  0.32361738576E+02  0.96721909597E+01  0.33870784286E+02  0.00000000000E+00 0. -1.
</event>
<event>
 4    1  0.1551744E+006  0.2863453E+02  0.7546771E-02  0.1431845E+00
         21   -1    0    0  504  501  0.00000000000E+00  0.00000000000E+00  0.35589074652E+03  0.35589074652E+03  0.00000000000E+00 0.  1.
         21   -1    0    0  503  502 -0.00000000000E+00 -0.00000000000E+00 -0.44198161770E+02  0.44198161770E+02  0.00000000000E+00 0.  1.
         21    1    1    2  503  501  0.35946901658E+01 -0.28408004231E+02  0.35060715350E+03  0.35177451952E+03  0.00000000000E+00 0.  1.
         21    1    1    2  504  502 -0.35946901658E+01  0.28408004231E+02 -0.38914568744E+02  0.48314388771E+02  0.00000000000E+00 0.  1.
</event>
<event>
 4    1  0.1551744E+006  0.2462513E+02  0.7546771E-02  0.1473041E+00
         21   -1    0    0  503  501  0.00000000000E+00  0.00000000000E+00  0.11975554554E+02  0.11975554554E+02  0.00000000000E+00 0.  1.
         21   -1    0    0  504  502 -0.00000000000E+00 -0.00000000000E+00 -0.13561494494E+03  0.13561494494E+03  0.00000000000E+00 0.  1.
         21    1    1    2  503  502  0.37586473232E+01 -0.24336591768E+02 -0.12023540649E+03  0.12273121079E+03  0.00000000000E+00 0.  1.
         21    1    1    2  504  501 -0.37586473232E+01  0.24336591768E+02 -0.34039838995E+01  0.24859288706E+02  0.00000000000E+00 0.  1.
</event>
<event>
 4    1  0.1551744E+006  0.2212529E+02  0.7546771E-02  0.1503784E+00
         21   -1    0    0  502  501  0.00000000000E+00  0.00000000000E+00  0.22648127339E+02  0.22648127339E+02  0.00000000000E+00 0.  1.
         21   -1    0    0  503  502 -0.00000000000E+00 -0.00000000000E+00 -0.25417847687E+02  0.25417847687E+02  0.00000000000E+00 0. -1.
         21    1    1    2  503  504 -0.11523215170E+00 -0.22124989447E+02 -0.10681374829E+02  0.24568683414E+02  0.00000000000E+00 0. -1.
         21    1    1    2  504  501  0.11523215170E+00  0.22124989447E+02  0.79116544815E+01  0.23497291612E+02  0.00000000000E+00 0.  1.
</event>
<event>
 4    1  0.1551744E+006  0.3296543E+02  0.7546771E-02  0.1395460E+00
         21   -1    0    0  504  501  0.00000000000E+00  0.00000000000E+00  0.84858698758E+02  0.84858698758E+02  0.00000000000E+00 0. -1.
         21   -1    0    0  503  502 -0.00000000000E+00 -0.00000000000E+00 -0.21042371470E+02  0.21042371470E+02  0.00000000000E+00 0. -1.
         21    1    1    2  503  501 -0.11214438809E+01 -0.32946344821E+02  0.65035395000E+02  0.72913111827E+02  0.00000000000E+00 0. -1.
         21    1    1    2  504  502  0.11214438809E+01  0.32946344821E+02 -0.12190677124E+01  0.32987958402E+02  0.00000000000E+00 0. -1.
</event>
<event>
 4    1  0.1551744E+006  0.2835409E+02  0.7546771E-02  0.1434461E+00
         21   -1    0    0  504  501  0.00000000000E+00  0.00000000000E+00  0.10987977475E+02  0.10987977475E+02  0.00000000000E+00 0. -1.
         21   -1    0    0  501  502 -0.00000000000E+00 -0.00000000000E+00 -0.88677867448E+02  0.88677867448E+02  0.00000000000E+00 0. -1.
         21    1    1    2  503  502  0.25111836737E+02 -0.13166239356E+02 -0.59686532051E+02  0.66079015665E+02  0.00000000000E+00 0. -1.
         21    1    1    2  504  503 -0.25111836737E+02  0.13166239356E+02 -0.18003357922E+02  0.33586829257E+02  0.00000000000E+00 0. -1.
</event>
<event>
 4    1  0.1551744E+006  0.3732662E+02  0.7546771E-02  0.1364906E+00
         21   -1    0    0  504  501  0.00000000000E+00  0.00000000000E+00  0.13829379535E+02  0.13829379535E+02  0.00000000000E+00 0. -1.
         21   -1    0    0  503  502 -0.00000000000E+00 -0.00000000000E+00 -0.31131689872E+03  0.31131689872E+03  0.00000000000E+00 0. -1.
         21    1    1    2  503  501 -0.37282065974E+02 -0.18231659452E+01 -0.15039574739E+02  0.40242579263E+02  0.00000000000E+00 0. -1.
         21    1    1    2  504  502  0.37282065974E+02  0.18231659452E+01 -0.28244794444E+03  0.28490369899E+03  0.00000000000E+00 0. -1.
</event>
<event>
 4    1  0.1551744E+006  0.2199270E+02  0.7546771E-02  0.1505550E+00
         21   -1    0    0  504  501  0.00000000000E+00  0.00000000000E+00  0.44195066907E+02  0.44195066907E+02  0.00000000000E+00 0.  1.
         21   -1    0    0  501  502 -0.00000000000E+00 -0.00000000000E+00 -0.75012361560E+02  0.75012361560E+02  0.00000000000E+00 0.  1.
         21    1    1    2  503  502 -0.21140449480E+02 -0.60630151119E+01 -0.70492981508E+02  0.73844019381E+02  0.00000000000E+00 0.  1.
         21    1    1    2  504  503  0.21140449480E+02  0.60630151119E+01  0.39675686855E+02  0.45363409086E+02  0.00000000000E+00 0.  1.
</event>
<event>
 4    1  0.1551744E+006  0.2236257E+02  0.7546771E-02  0.1500661E+00
         21   -1    0    0  503  501  0.00000000000E+00  0.00000000000E+00  0.39345713501E+01  0.39345713501E+01  0.00000000000E+00 0. -1.
         21   -1    0    0  504  502 -0.00000000000E+00 -0.00000000000E+00 -0.66555084964E+03  0.66555084964E+03  0.00000000000E+00 0.  1.
         21    1    1    2  503  502  0.16410798380E+02  0.15191126974E+02 -0.63189615982E+03  0.63229173760E+03  0.00000000000E+00 0.  1.
         21    1    1    2  504  501 -0.16410798380E+02 -0.15191126974E+02 -0.29720118469E+02  0.37193683389E+02  0.00000000000E+00 0. -1.
</event>
<event>
 4    1  0.1551744E+006  0.2162867E+02  0.7546771E-02  0.1510475E+00
         21   -1    0    0  504  501  0.00000000000E+00  0.00000000000E+00  0.50226215116E+02  0.50226215116E+02  0.00000000000E+00 0. -1.
         21   -1    0    0  503  502 -0.00000000000E+00 -0.00000000000E+00 -0.21440555273E+03  0.21440555273E+03  0.00000000000E+00 0.  1.
         21    1    1    2  503  501  0.61621100051E+01  0.20732291234E+02  0.47320383297E+02  0.52029012819E+02  0.00000000000E+00 0. -1.
         21    1    1    2  504  502 -0.61621100051E+01 -0.20732291234E+02 -0.21149972091E+03  0.21260275503E+03  0.00000000000E+00 0.  1.
</event>
<event>
 4    1  0.1551744E+006  0.2468129E+02  0.7546771E-02  0.1472400E+00
         21   -1    0    0  502  501  0.00000000000E+00  0.00000000000E+00  0.14923496678E+03  0.14923496678E+03  0.00000000000E+00 0.  1.
         21   -1    0    0  503  502 -0.00000000000E+00 -0.00000000000E+00 -0.69777986252E+01  0.69777986252E+01  0.00000000000E+00 0. -1.
         21    1    1    2  503  504 -0.22475617112E+02 -0.10198671552E+02  0.20811328113E+02  0.32284325048E+02  0.00000000000E+00 0. -1.
         21    1    1    2  504  501  0.22475617112E+02  0.10198671552E+02  0.12144584004E+03  0.12392844036E+03  0.00000000000E+00 0.  1.
</event>
<event>
 4    1  0.1551744E+006  0.2231128E+02  0.7546771E-02  0.1501332E+00
         21   -1    0    0  503  501  0.00000000000E+00  0.00000000000E+00  0.23571956809E+03  0.23571956809E+03  0.00000000000E+00 0. -1.
         21   -1    0    0  504  502 -0.00000000000E+00 -0.00000000000E+00 -0.14752462906E+02  0.14752462906E+02  0.00000000000E+00 0.  1.
         21    1    1    2  503  502  0.12227831582E+02  0.18662078422E+02 -0.54427189146E+01  0.22965544309E+02  0.00000000000E+00 0.  1.
         21    1    1    2  504  501 -0.12227831582E+02 -0.18662078422E+02  0.22640982410E+03  0.22750648669E+03  0.00000000000E+00 0. -1.
</event>
<event>
 4    1  0.1551744E+006  0.2233727E+02  0.7546771E-02  0.1500992E+00
         21   -1    0    0  504  501  0.00000000000E+00  0.00000000000E+00  0.28946263885E+02  0.28946263885E+02  0.00000000000E+00 0. -1.
         21   -1    0    0  501  502 -0.00000000000E+00 -0.00000000000E+00 -0.30560630262E+03  0.30560630262E+03  0.00000000000E+00 0.  1.
         21    1    1    2  503  502  0.20284943582E+02 -0.93527969519E+01 -0.30082035978E+03  0.30164854153E+03  0.00000000000E+00 0.  1.
         21    1    1    2  504  503 -0.20284943582E+02  0.93527969519E+01  0.24160321043E+02  0.32904024979E+02  0.00000000000E+00 0. -1.
</event>
<event>
 4    1  0.1551744E+006  0.2526266E+02  0.7546771E-02  0.1465886E+00
         21   -1    0    0  503  501  0.00000000000E+00  0.00000000000E+00  0.12230167623E+03  0.12230167623E+03  0.00000000000E+00 0.  1.
         21   -1    0    0  504  502 -0.00000000000E+00 -0.00000000000E+00 -0.52573987330E+01  0.52573987330E+01  0.00000000000E+00 0.  1.
         21    1    1    2  503  502 -0.24952125353E+02 -0.39488615425E+01  0.53019211775E+02  0.58730221218E+02  0.00000000000E+00 0.  1.
         21    1    1    2  504  501  0.24952125353E+02  0.39488615425E+01  0.64025065725E+02  0.68828853748E+02  0.00000000000E+00 0.  1.
</event>
<event>
 4    1  0.1551744E+006  0.3666318E+02  0.7546771E-02  0.1369233E+00
         21   -1    0    0  503  501  0.00000000000E+00  0.00000000000E+00  0.13114722780E+04  0.13114722780E+04  0.00000000000E+00 0. -1.
         21   -1    0    0  504  502 -0.00000000000E+00 -0.00000000000E+00 -0.31531340137E+01  0.31531340137E+01  0.00000000000E+00 0. -1.
         21    1    1    2  503  502  0.12268948200E+01  0.36642647596E+02  0.11941744934E+04  0.11947371718E+04  0.00000000000E+00 0. -1.
         21    1    1    2  504  501 -0.12268948200E+01 -0.36642647596E+02  0.11414465056E+03  0.11988824023E+03  0.00000000000E+00 0. -1.
</event>
<event>
 4    1  0.1551744E+006  0.2211777E+02  0.7546771E-02  0.1503884E+00
         21   -1    0    0  503  501  0.00000000000E+00  0.00000000000E+00  0.54157705006E+01  0.54157705006E+01  0.00000000000E+00 0. -1.
         21   -1    0    0  504  502 -0.00000000000E+00 -0.00000000000E+00 -0.13814991674E+03  0.13814991674E+03  0.00000000000E+00 0.  1.
         21    1    1    2  503  502  0.16242380872E+02  0.15012688243E+02 -0.24133404131E+02  0.32735560780E+02  0.00000000000E+00 0. -1.
         21    1    1    2  504  501 -0.16242380872E+02 -0.15012688243E+02 -0.10860074211E+03  0.11083012646E+03  0.00000000000E+00 0.  1.
</event>
<event>
 4    1  0.1551744E+006  0.2633400E+02  0.7546771E-02  0.1454415E+00
         21   -1    0    0  503  501  0.00000000000E+00  0.00000000000E+00  0.84119960932E+02  0.84119960932E+02  0.00000000000E+00 0.  1.
         21   -1    0    0  504  502 -0.00000000000E+00 -0.00000000000E+00 -0.14198161839E+02  0.14198161839E+02  0.00000000000E+00 0.  1.
         21    1    1    2  503  502 -0.15679724489E+02  0.21157163967E+02  0.31262355056E+01  0.26518912037E+02  0.00000000000E+00 0.  1.
         21    1    1    2  504  501  0.15679724489E+02 -0.21157163967E+02  0.66795563587E+02  0.71799210734E+02  0.00000000000E+00 0.  1.
</event>
<event>
 4    1  0.1551744E+006  0.3190690E+02  0.7546771E-02  0.1403719E+00
         21   -1    0    0  504  501  0.00000000000E+00  0.00000000000E+00  0.65863042329E+02  0.65863042329E+02  0.00000000000E+00 0. -1.
         21   -1    0    0  501  502 -0.00000000000E+00 -0.00000000000E+00 -0.65354123308E+02  0.65354123308E+02  0.00000000000E+00 0.  1.
         21    1    1    2  503  502  0.30794190044E+02  0.83527126524E+01 -0.57072854017E+02  0.65386241785E+02  0.00000000000E+00 0.  1.
         21    1    1    2  504  503 -0.30794190044E+02 -0.83527126524E+01  0.57581773037E+02  0.65830923852E+02  0.00000000000E+00 0. -1.
</event>
<event>
 4    1  0.1551744E+006  0.2254415E+02  0.7546771E-02  0.1498303E+00
         21   -1    0    0  502  501  0.00000000000E+00  0.00000000000E+00  0.33382562409E+03  0.33382562409E+03  0.00000000000E+00 0.  1.
         21   -1    0    0  504  502 -0.00000000000E+00 -0.00000000000E+00 -0.20368748849E+02  0.20368748849E+02  0.00000000000E+00 0. -1.
         21    1    1    2  503  501 -0.19419791043E+02  0.11450348629E+02  0.32707850769E+03  0.32785452408E+03  0.00000000000E+00 0.  1.
         21    1    1    2  504  503  0.19419791043E+02 -0.11450348629E+02 -0.13621632441E+02  0.26339848866E+02  0.00000000000E+00 0. -1.
</event>
<event>
 4    1  0.1551744E+006  0.2389030E+02  0.7546771E-02  0.1481611E+00
         21   -1    0    0  503  501  0.00000000000E+00  0.00000000000E+00  0.10018333001E+04  0.10018333001E+04  0.00000000000E+00 0.  1.
         21   -1    0    0  504  502 -0.00000000000E+00 -0.00000000000E+00 -0.67311260751E+02  0.67311260751E+02  0.00000000000E+00 0. -1.
         21    1    1    2  503  502 -0.22762675607E+02  0.72530815090E+01  0.99956626396E+03  0.99985172032E+03  0.00000000000E+00 0.  1.
         21    1    1    2  504  501  0.22762675607E+02 -0.72530815090E+01 -0.65044224613E+02  0.69292840523E+02  0.00000000000E+00 0. -1.
</event>
<event>
 4    1  0.1551744E+006  0.2916205E+02  0.7546771E-02  0.1427021E+00
         21   -1    0    0  504  501  0.00000000000E+00  0.00000000000E+00  0.40773270415E+02  0.40773270415E+02  0.00000000000E+00 0. -1.
         21   -1    0    0  501  502 -0.00000000000E+00 -0.00000000000E+00 -0.75204456915E+02  0.75204456915E+02  0.00000000000E+00 0. -1.
         21    1    1    2  503  502  0.17167004968E+02 -0.23573699788E+02 -0.66511485184E+02  0.72623708544E+02  0.00000000000E+00 0. -1.
         21    1    1    2  504  503 -0.17167004968E+02  0.23573699788E+02  0.32080298684E+02  0.43354018786E+02  0.00000000000E+00 0. -1.
</event>
<event>
 4    1  0.1551744E+006  0.2301196E+02  0.7546771E-02  0.1492348E+00
         21   -1    0    0  503  501  0.00000000000E+00  0.00000000000E+00  0.76687965908E+02  0.76687965908E+02  0.00000000000E+00 0.  1.
         21   -1    0    0  501  502 -0.00000000000E+00 -0.00000000000E+00 -0.14047338909E+02  0.14047338909E+02  0.00000000000E+00 0. -1.
         21    1    1    2  503  504  0.21171344202E+01  0.22914359969E+02  0.63669374217E+02  0.67700364579E+02  0.00000000000E+00 0.  1.
         21    1    1    2  504  502 -0.21171344202E+01 -0.22914359969E+02 -0.10287472179E+01  0.23034940238E+02  0.00000000000E+00 0. -1.
</event>
<event>
 4    1  0.1551744E+006  0.2604890E+02  0.7546771E-02  0.1457403E+00
         21   -1    0    0  503  501  0.00000000000E+00  0.00000000000E+00  0.31455258415E+02  0.31455258415E+02  0.00000000000E+00 0.  1.
         21   -1    0    0  504  502 -0.00000000000E+00 -0.00000000000E+00 -0.21889992118E+02  0.21889992118E+02  0.00000000000E+00 0.  1.
         21    1    1    2  503  502  0.19174203988E+02  0.17632220283E+02  0.79986243186E+01  0.27249280388E+02  0.00000000000E+00 0.  1.
         21    1    1    2  504  501 -0.19174203988E+02 -0.17632220283E+02  0.15666419784E+01  0.26095970144E+02  0.00000000000E+00 0.  1.
</event>
<event>
 4    1  0.1551744E+006  0.3751560E+02  0.7546771E-02  0.1363693E+00
         21   -1    0    0  503  501  0.00000000000E+00  0.00000000000E+00  0.54948238738E+03  0.54948238738E+03  0.00000000000E+00 0.  1.
         21   -1    0    0  504  502 -0.00000000000E+00 -0.00000000000E+00 -0.26167165934E+01  0.26167165934E+01  0.00000000000E+00 0.  1.
         21    1    1    2  503  502 -0.20040801122E+02 -0.31714136361E+02  0.23328075647E+03  0.23627808086E+03  0.00000000000E+00 0.  1.
         21    1    1    2  504  501  0.20040801122E+02  0.31714136361E+02  0.31358491432E+03  0.31582102311E+03  0.00000000000E+00 0.  1.
</event>
<event>
 4    1  0.1551744E+006  0.6141836E+02  0.7546771E-02  0.1255088E+00
         21   -1    0    0  504  501  0.00000000000E+00  0.00000000000E+00  0.15555045700E+03  0.15555045700E+03  0.00000000000E+00 0.  1.
         21   -1    0    0  503  502 -0.00000000000E+00 -0.00000000000E+00 -0.86551933389E+02  0.86551933389E+02  0.00000000000E+00 0.  1.
         21    1    1    2  503  501 -0.57108561116E+02 -0.22601482790E+02 -0.68202726952E+02  0.91781407380E+02  0.00000000000E+00 0.  1.
         21    1    1    2  504  502  0.57108561116E+02  0.22601482790E+02  0.13720125056E+03  0.15032098301E+03  0.00000000000E+00 0.  1.
</event>
<event>
 4    1  0.1551744E+006  0.2138600E+02  0.7546771E-02  0.1513825E+00
         21   -1    0    0  504  501  0.00000000000E+00  0.00000000000E+00  0.59756546235E+00  0.59756546235E+00  0.00000000000E+00 0.  1.
         21   -1    0    0  503  502 -0.00000000000E+00 -0.00000000000E+00 -0.13970896824E+04  0.13970896824E+04  0.00000000000E+00 0.  1.
         21    1    1    2  503  501 -0.13487405662E+01 -0.21343430822E+02 -0.11681711689E+04  0.11683669120E+04  0.00000000000E+00 0.  1.
         21    1    1    2  504  502  0.13487405662E+01  0.21343430822E+02 -0.22832094805E+03  0.22932033591E+03  0.00000000000E+00 0.  1.
</event>
<event>
 4    1  0.1551744E+006  0.2563018E+02  0.7546771E-02  0.1461876E+00
         21   -1    0    0  502  501  0.00000000000E+00  0.00000000000E+00  0.88466478020E+02  0.88466478020E+02  0.00000000000E+00 0.  1.
         21   -1    0    0  503  502 -0.00000000000E+00 -0.00000000000E+00 -0.74654260822E+01  0.74654260822E+01  0.00000000000E+00 0.  1.
         21    1    1    2  503  504 -0.98953255017E+01  0.23642937041E+02  0.44009260531E+02  0.50928586778E+02  0.00000000000E+00 0.  1.
         21    1    1    2  504  501  0.98953255017E+01 -0.23642937041E+02  0.36991791407E+02  0.45003317324E+02  0.00000000000E+00 0.  1.
</event>
<event>
 4    1  0.1551744E+006  0.2275009E+02  0.7546771E-02  0.1495660E+00
         21   -1    0    0  503  501  0.00000000000E+00  0.00000000000E+00  0.35529731552E+01  0.35529731552E+01  0.00000000000E+00 0. -1.
         21   -1    0    0  504  502 -0.00000000000E+00 -0.00000000000E+00 -0.75724062119E+03  0.75724062119E+03  0.00000000000E+00 0. -1.
         21    1    1    2  503  502 -0.90684896396E+01 -0.20864538324E+02 -0.34988206162E+02  0.41734171063E+02  0.00000000000E+00 0. -1.
         21    1    1    2  504  501  0.90684896396E+01  0.20864538324E+02 -0.71869944187E+03  0.71905942328E+03  0.00000000000E+00 0. -1.
</event>
<event>
 4    1  0.1551744E+006  0.2157473E+02  0.7546771E-02  0.1511215E+00
         21   -1    0    0  503  501  0.00000000000E+00  0.00000000000E+00  0.31919471720E+01  0.31919471720E+01  0.00000000000E+00 0. -1.
         21   -1    0    0  504  502 -0.00000000000E+00 -0.00000000000E+00 -0.37765894051E+03  0.37765894051E+03  0.00000000000E+00 0. -1.
         21    1    1    2  503  502  0.16255388406E+01  0.21513405335E+02 -0.33643137063E+03  0.33712243493E+03  0.00000000000E+00 0. -1.
         21    1    1    2  504  501 -0.16255388406E+01 -0.21513405335E+02 -0.38035622699E+02  0.43728452748E+02  0.00000000000E+00 0. -1.
</event>
<event>
 4    1  0.1551744E+006  0.4479219E+02  0.7546771E-02  0.1322482E+00
         21   -1    0    0  502  501  0.00000000000E+00  0.00000000000E+00  0.69739422795E+02  0.69739422795E+02  0.00000000000E+00 0. -1.
         21   -1    0    0  504  502 -0.00000000000E+00 -0.00000000000E+00 -0.35115716498E+02  0.35115716498E+02  0.00000000000E+00 0. -1.
         21    1    1    2  503  501  0.20810899676E+02  0.39664169368E+02  0.39600328293E+02  0.59787338775E+02  0.00000000000E+00 0. -1.
         21    1    1    2  504  503 -0.20810899676E+02 -0.39664169368E+02 -0.49766219955E+01  0.45067800517E+02  0.00000000000E+00 0. -1.
</event>
<event>
 4    1  0.1551744E+006  0.2453634E+02  0.7546771E-02  0.1474058E+00
         21   -1    0    0  504  501  0.00000000000E+00  0.00000000000E+00  0.46308659798E+03  0.46308659798E+03  0.00000000000E+00 0. -1.
         21   -1    0    0  503  502 -0.00000000000E+00 -0.00000000000E+00 -0.38966741770E+01  0.38966741770E+01  0.00000000000E+00 0. -1.
         21    1    1    2  503  501 -0.23695644013E+02  0.63677503695E+01  0.38992045441E+02  0.46069636395E+02  0.00000000000E+00 0. -1.
         21    1    1    2  504  502  0.23695644013E+02 -0.63677503695E+01  0.42019787836E+03  0.42091363576E+03  0.00000000000E+00 0. -1.
</event>
<event>
 4    1  0.1551744E+006  0.2551027E+02  0.7546771E-02  0.1463175E+00
         21   -1    0    0  504  501  0.00000000000E+00  0.00000000000E+00  0.38506163512E+03  0.38506163512E+03  0.00000000000E+00 0.  1.
         21   -1    0    0  501  502 -0.00000000000E+00 -0.00000000000E+00 -0.28831187315E+01  0.28831187315E+01  0.00000000000E+00 0.  1.
         21    1    1    2  503  502  0.42652770907E+01 -0.25151169181E+02  0.66310365555E+02  0.71048141988E+02  0.00000000000E+00 0.  1.
         21    1    1    2  504  503 -0.42652770907E+01  0.25151169181E+02  0.31586815084E+03  0.31689661187E+03  0.00000000000E+00 0.  1.
</event>
<event>
 4    1  0.1551744E+006  0.2451640E+02  0.7546771E-02  0.1474287E+00
         21   -1    0    0  502  501  0.00000000000E+00  0.00000000000E+00  0.14930366245E+02  0.14930366245E+02  0.00000000000E+00 0. -1.
         21   -1    0    0  503  502 -0.00000000000E+00 -0.00000000000E+00 -0.42321464042E+02  0.42321464042E+02  0.00000000000E+00 0. -1.
         21    1    1    2  503  504 -0.17600011068E+02  0.17067327293E+02 -0.20017723996E+02  0.31650644930E+02  0.00000000000E+00 0. -1.
         21    1    1    2  504  501  0.17600011068E+02 -0.17067327293E+02 -0.73733738001E+01  0.25601185357E+02  0.00000000000E+00 0. -1.
</event>
<event>
 4    1  0.1551744E+006  0.2171463E+02  0.7546771E-02  0.1509302E+00
         21   -1    0    0  504  501  0.00000000000E+00  0.00000000000E+00  0.83489258620E+01  0.83489258620E+01  0.00000000000E+00 0. -1.
         21   -1    0    0  503  502 -0.00000000000E+00 -0.00000000000E+00 -0.14115877624E+03  0.14115877624E+03  0.00000000000E+00 0. -1.
         21    1    1    2  503  501 -0.21093021819E+02 -0.51584369286E+01 -0.85055653713E+01  0.23321013771E+02  0.00000000000E+00 0. -1.
         21    1    1    2  504  502  0.21093021819E+02  0.51584369286E+01 -0.12430428500E+03  0.12618668833E+03  0.00000000000E+00 0. -1.
</event>
<event>
 4    1  0.1551744E+006  0.2311539E+02  0.7546771E-02  0.1491054E+00
         21   -1    0    0  503  501  0.00000000000E+00  0.00000000000E+00  0.25753500200E+03  0.25753500200E+03  0.00000000000E+00 0. -1.
         21   -1    0    0  504  502 -0.00000000000E+00 -0.00000000000E+00 -0.49460892479E+01  0.49460892479E+01  0.00000000000E+00 0.  1.
         21    1    1    2  503  502 -0.19187268515E+02  0.12890698792E+02  0.26299264563E+02  0.35013893028E+02  0.00000000000E+00 0.  1.
         21    1    1    2  504  501  0.19187268515E+02 -0.12890698792E+02  0.22628964819E+03  0.22746719822E+03  0.00000000000E+00 0. -1.
</event>
<event>
 4    1  0.1551744E+006  0.2352863E+02  0.7546771E-02  0.1485965E+00
         21   -1    0    0  504  501  0.00000000000E+00  0.00000000000E+00  0.88644444812E+02  0.88644444812E+02  0.00000000000E+00 0. -1.
         21   -1    0    0  503  502 -0.00000000000E+00 -0.00000000000E+00 -0.16461755063E+02  0.16461755063E+02  0.00000000000E+00 0. -1.
         21    1    1    2  503  501 -0.40153140199E+01 -0.23183482688E+02  0.77492634624E+02  0.80985832324E+02  0.00000000000E+00 0. -1.
         21    1    1    2  504  502  0.40153140199E+01  0.23183482688E+02 -0.53099448750E+01  0.24120367551E+02  0.00000000000E+00 0. -1.
</event>
<event>
 4    1  0.1551744E+006  0.2434445E+02  0.7546771E-02  0.1476272E+00
         21   -1    0    0  504  501  0.00000000000E+00  0.00000000000E+00  0.26991712229E+02  0.26991712229E+02  0.00000000000E+00 0. -1.
         21   -1    0    0  501  502 -0.00000000000E+00 -0.00000000000E+00 -0.16314752010E+03  0.16314752010E+03  0.00000000000E+00 0.  1.
         21    1    1    2  503  502 -0.15984847602E+02 -0.18361285602E+02 -0.15651908798E+03  0.15840100083E+03  0.00000000000E+00 0.  1.
         21    1    1    2  504  503  0.15984847602E+02  0.18361285602E+02  0.20363280109E+02  0.31738231498E+02  0.00000000000E+00 0. -1.
</event>
<event>
 4    1  0.1551744E+006  0.2733417E+02  0.7546771E-02  0.1444280E+00
         21   -1    0    0  504  501  0.00000000000E+00  0.00000000000E+00  0.82575199719E+02  0.82575199719E+02  0.00000000000E+00 0.  1.
         21   -1    0    0  501  502 -0.00000000000E+00 -0.00000000000E+00 -0.32176071355E+02  0.32176071355E+02  0.00000000000E+00 0. -1.
         21    1    1    2  503  502 -0.26971260717E+02 -0.44393600823E+01 -0.23444386979E+02  0.36011055295E+02  0.00000000000E+00 0. -1.
         21    1    1    2  504  503  0.26971260717E+02  0.44393600823E+01  0.73843515343E+02  0.78740215779E+02  0.00000000000E+00 0.  1.
</event>
<event>
 4    1  0.1551744E+006  0.2079429E+02  0.7546771E-02  0.1522222E+00
         21   -1    0    0  504  501  0.00000000000E+00  0.00000000000E+00  0.14559786726E+04  0.14559786726E+04  0.00000000000E+00 0.  1.
         21   -1    0    0  501  502 -0.00000000000E+00 -0.00000000000E+00 -0.15313108733E+03  0.15313108733E+03  0.00000000000E+00 0. -1.
         21    1    1    2  503  502 -0.18406593000E+02  0.96747030302E+01 -0.15235052738E+03  0.15376308315E+03  0.00000000000E+00 0. -1.
         21    1    1    2  504  503  0.18406593000E+02 -0.96747030302E+01  0.14551981126E+04  0.14553466768E+04  0.00000000000E+00 0.  1.
</event>
<event>
 4    1  0.1551744E+006  0.4548498E+02  0.7546771E-02  0.1319032E+00
         21   -1    0    0  504  501  0.00000000000E+00  0.00000000000E+00  0.49034108989E+01  0.49034108989E+01  0.00000000000E+00 0. -1.
         21   -1    0    0  503  502 -0.00000000000E+00 -0.00000000000E+00 -0.56272309784E+03  0.56272309784E+03  0.00000000000E+00 0. -1.
         21    1    1    2  503  501 -0.43913358412E+02  0.11853266160E+02 -0.13694521986E+03  0.14430133821E+03  0.00000000000E+00 0. -1.
         21    1    1    2  504  502  0.43913358412E+02 -0.11853266160E+02 -0.42087446708E+03  0.42332517053E+03  0.00000000000E+00 0. -1.
</event>
<event>
 4    1  0.1551744E+006  0.2675164E+02  0.7546771E-02  0.1450119E+00
         21   -1    0    0  504  501  0.00000000000E+00  0.00000000000E+00  0.14408704000E+03  0.14408704000E+03  0.00000000000E+00 0.  1.
         21   -1    0    0  503  502 -0.00000000000E+00 -0.00000000000E+00 -0.13198382021E+02  0.13198382021E+02  0.00000000000E+00 0. -1.
         21    1    1    2  503  501 -0.15658324825E+02 -0.21690253481E+02  0.33374053297E+01  0.26959015315E+02  0.00000000000E+00 0. -1.
         21    1    1    2  504  502  0.15658324825E+02  0.21690253481E+02  0.12755125265E+03  0.13032640670E+03  0.00000000000E+00 0.  1.
</event>
<event>
 4    1  0.1551744E+006  0.2551407E+02  0.7546771E-02  0.1463134E+00
         21   -1    0    0  503  501  0.00000000000E+00  0.00000000000E+00  0.65174649665E+02  0.65174649665E+02  0.00000000000E+00 0.  1.
         21   -1    0    0  504  502 -0.00000000000E+00 -0.00000000000E+00 -0.15008942372E+02  0.15008942372E+02  0.00000000000E+00 0. -1.
         21    1    1    2  503  502  0.24043381439E+02  0.85372012616E+01  0.48271249168E+02  0.54599281063E+02  0.00000000000E+00 0.  1.
         21    1    1    2  504  501 -0.24043381439E+02 -0.85372012616E+01  0.18944581246E+01  0.25584310973E+02  0.00000000000E+00 0. -1.
</event>
<event>
 4    1  0.1551744E+006  0.2143026E+02  0.7546771E-02  0.1513210E+00
         21   -1    0    0  503  501  0.00000000000E+00  0.00000000000E+00  0.81700455325E+01  0.81700455325E+01  0.00000000000E+00 0.  1.
         21   -1    0    0  504  502 -0.00000000000E+00 -0.00000000000E+00 -0.56985479890E+02  0.56985479890E+02  0.00000000000E+00 0.  1.
         21    1    1    2  503  502  0.16205312710E+02 -0.14022979805E+02 -0.28202713143E+02  0.35421026965E+02  0.00000000000E+00 0.  1.
         21    1    1    2  504  501 -0.16205312710E+02  0.14022979805E+02 -0.20612721214E+02  0.29734498457E+02  0.00000000000E+00 0.  1.
</event>
<event>
 4    1  0.1551744E+006  0.2101797E+02  0.7546771E-02  0.1519008E+00
         21   -1    0    0  503  501  0.00000000000E+00  0.00000000000E+00  0.52724321592E+02  0.52724321592E+02  0.00000000000E+00 0.  1.
         21   -1    0    0  501  502 -0.00000000000E+00 -0.00000000000E+00 -0.19168967526E+02  0.19168967526E+02  0.00000000000E+00 0.  1.
         21    1    1    2  503  504  0.10482172945E+01 -0.20991819442E+02  0.43747457073E+02  0.48534474792E+02  0.00000000000E+00 0.  1.
         21    1    1    2  504  502 -0.10482172945E+01  0.20991819442E+02 -0.10192103007E+02  0.23358814326E+02  0.00000000000E+00 0.  1.
</event>
<event>
 4    1  0.1551744E+006  0.2415930E+02  0.7546771E-02  0.1478432E+00
         21   -1    0    0  504  501  0.00000000000E+00  0.00000000000E+00  0.90014997743E+01  0.90014997743E+01  0.00000000000E+00 0.  1.
         21   -1    0    0  501  502 -0.00000000000E+00 -0.00000000000E+00 -0.93402091030E+02  0.93402091030E+02  0.00000000000E+00 0.  1.
         21    1    1    2  503  502 -0.23654589780E+02 -0.49124693888E+01 -0.70513527811E+02  0.74537437423E+02  0.00000000000E+00 0.  1.
         21    1    1    2  504  503  0.23654589780E+02  0.49124693888E+01 -0.13887063444E+02  0.27866153381E+02  0.00000000000E+00 0.  1.
</event>
<event>
 4    1  0.1551744E+006  0.2060199E+02  0.7546771E-02  0.1525024E+00
         21   -1    0    0  504  501  0.00000000000E+00  0.00000000000E+00  0.13865668146E+03  0.13865668146E+03  0.00000000000E+00 0. -1.
         21   -1    0    0  503  502 -0.00000000000E+00 -0.00000000000E+00 -0.31241712211E+01  0.31241712211E+01  0.00000000000E+00 0. -1.
         21    1    1    2  503  501 -0.18006138830E+02 -0.10011051211E+02  0.57693912903E+02  0.61261976527E+02  0.00000000000E+00 0. -1.
         21    1    1    2  504  502  0.18006138830E+02  0.10011051211E+02  0.77838597334E+02  0.80518876153E+02  0.00000000000E+00 0. -1.
</event>
<event>
 4    1  0.1551744E+006  0.2272443E+02  0.7546771E-02  0.1495988E+00
         21   -1    0    0  504  501  0.00000000000E+00  0.00000000000E+00  0.30602751205E+03  0.30602751205E+03  0.00000000000E+00 0. -1.
         21   -1    0    0  501  502 -0.00000000000E+00 -0.00000000000E+00 -0.63270984680E+01  0.63270984680E+01  0.00000000000E+00 0. -1.
         21    1    1    2  503  502  0.57886519977E+01  0.21974789852E+02  0.16110883414E+02  0.27856066581E+02  0.00000000000E+00 0. -1.
         21    1    1    2  504  503 -0.57886519977E+01 -0.21974789852E+02  0.28358953017E+03  0.28449854394E+03  0.00000000000E+00 0. -1.
</event>
<event>
 4    1  0.1551744E+006  0.2215468E+02  0.7546771E-02  0.1503395E+00
         21   -1    0    0  503  501  0.00000000000E+00  0.00000000000E+00  0.72769831928E+02  0.72769831928E+02  0.00000000000E+00 0. -1.
         21   -1    0    0  504  502 -0.00000000000E+00 -0.00000000000E+00 -0.61861041057E+02  0.61861041057E+02  0.00000000000E+00 0. -1.
         21    1    1    2  503  502  0.21285906516E+02  0.61432771821E+01  0.68994103564E+02  0.72463894440E+02  0.00000000000E+00 0. -1.
         21    1    1    2  504  501 -0.21285906516E+02 -0.61432771821E+01 -0.58085312693E+02  0.62166978545E+02  0.00000000000E+00 0. -1.
</event>
<event>
 4    1  0.1551744E+006  0.2277221E+02  0.7546771E-02  0.1495378E+00
         21   -1    0    0  502  501  0.00000000000E+00  0.00000000000E+00  0.13236884902E+03  0.13236884902E+03  0.00000000000E+00 0.  1.
         21   -1    0    0  503  502 -0.00000000000E+00 -0.00000000000E+00 -0.14745520649E+02  0.14745520649E+02  0.00000000000E+00 0. -1.
         21    1    1    2  503  504  0.21371802545E+02  0.78625453220E+01 -0.42211596892E+01  0.23160132816E+02  0.00000000000E+00 0. -1.
         21    1    1    2  504  501 -0.21371802545E+02 -0.78625453220E+01  0.12184448806E+03  0.12395423685E+03  0.00000000000E+00 0.  1.
</event>
<event>
 4    1  0.1551744E+006  0.2306525E+02  0.7546771E-02  0.1491680E+00
         21   -1    0    0  504  501  0.00000000000E+00  0.00000000000E+00  0.18144441187E+02  0.18144441187E+02  0.00000000000E+00 0. -1.
         21   -1    0    0  501  502 -0.00000000000E+00 -0.00000000000E+00 -0.33809915413E+02  0.33809915413E+02  0.00000000000E+00 0. -1.
         21    1    1    2  503  502 -0.11742959611E+02 -0.19852171807E+02 -0.17298599716E+02  0.28831361016E+02  0.00000000000E+00 0. -1.
         21    1    1    2  504  503  0.11742959611E+02  0.19852171807E+02  0.16331254896E+01  0.23122995584E+02  0.00000000000E+00 0. -1.
</event>
<event>
 4    1  0.1551744E+006  0.2217923E+02  0.7546771E-02  0.1503070E+00
         21   -1    0    0  503  501  0.00000000000E+00  0.00000000000E+00  0.17921225382E+02  0.17921225382E+02  0.00000000000E+00 0. -1.
         21   -1    0    0  501  502 -0.00000000000E+00 -0.00000000000E+00 -0.10056071720E+03  0.10056071720E+03  0.00000000000E+00 0. -1.
         21    1    1    2  503  504 -0.19886516156E+01 -0.22089900178E+02  0.91930834817E+01  0.24008981840E+02  0.00000000000E+00 0. -1.
         21    1    1    2  504  502  0.19886516156E+01  0.22089900178E+02 -0.91832575303E+02  0.94472960745E+02  0.00000000000E+00 0. -1.
</event>
<event>
 4    1  0.1551744E+006  0.2162607E+02  0.7546771E-02  0.1510511E+00
         21   -1    0    0  503  501  0.00000000000E+00  0.00000000000E+00  0.72434257811E+01  0.72434257811E+01  0.00000000000E+00 0.  1.
         21   -1    0    0  504  502 -0.00000000000E+00 -0.00000000000E+00 -0.70402515586E+03  0.70402515586E+03  0.00000000000E+00 0.  1.
         21    1    1    2  503  502 -0.16909411626E+02 -0.13481784393E+02 -0.68732521525E+03  0.68766535337E+03  0.00000000000E+00 0.  1.
         21    1    1    2  504  501  0.16909411626E+02  0.13481784393E+02 -0.94565148299E+01  0.23603228269E+02  0.00000000000E+00 0.  1.
</event>
<event>
 4    1  0.1551744E+006  0.2286811E+02  0.7546771E-02  0.1494161E+00
         21   -1    0    0  503  501  0.00000000000E+00  0.00000000000E+00  0.42649686222E+02  0.42649686222E+02  0.00000000000E+00 0. -1.
         21   -1    0    0  504  502 -0.00000000000E+00 -0.00000000000E+00 -0.28890373207E+02  0.28890373207E+02  0.00000000000E+00 0.  1.
         21    1    1    2  503  502  0.15431219176E+02  0.16876847846E+02 -0.20258085535E+02  0.30550622711E+02  0.00000000000E+00 0.  1.
         21    1    1    2  504  501 -0.15431219176E+02 -0.16876847846E+02  0.34017398549E+02  0.40989436719E+02  0.00000000000E+00 0. -1.
</event>
<event>
 4    1  0.1551744E+006  0.2244370E+02  0.7546771E-02  0.1499604E+00
         21   -1    0    0  504  501  0.00000000000E+00  0.00000000000E+00  0.10512617648E+02  0.10512617648E+02  0.00000000000E+00 0. -1.
         21   -1    0    0  503  502 -0.00000000000E+00 -0.00000000000E+00 -0.13900786385E+03  0.13900786385E+03  0.00000000000E+00 0. -1.
         21    1    1    2  503  501  0.18172661760E+02 -0.13170953885E+02 -0.37286620045E+01  0.22751320446E+02  0.00000000000E+00 0. -1.
         21    1    1    2  504  502 -0.18172661760E+02  0.13170953885E+02 -0.12476658419E+03  0.12676916105E+03  0.00000000000E+00 0. -1.
</event>
<event>
 4    1  0.1551744E+006  0.2286304E+02  0.7546771E-02  0.1494225E+00
         21   -1    0    0  504  501  0.00000000000E+00  0.00000000000E+00  0.29701322225E+02  0.29701322225E+02  0.00000000000E+00 0. -1.
         21   -1    0    0  501  502 -0.00000000000E+00 -0.00000000000E+00 -0.39805640821E+02  0.39805640821E+02  0.00000000000E+00 0. -1.
         21    1    1    2  503  502  0.16532194130E+02  0.15792565075E+02 -0.31009834907E+02  0.38526982952E+02  0.00000000000E+00 0. -1.
         21    1    1    2  504  503 -0.16532194130E+02 -0.15792565075E+02  0.20905516310E+02  0.30979980094E+02  0.00000000000E+00 0. -1.
</event>
<event>
 4    1  0.1551744E+006  0.3868831E+02  0.7546771E-02  0.1356348E+00
         21   -1    0    0  503  501  0.00000000000E+00  0.00000000000E+00  0.64869925069E+01  0.64869925069E+01  0.00000000000E+00 0.  1.
         21   -1    0    0  504  502 -0.00000000000E+00 -0.00000000000E+00 -0.25247566180E+03  0.25247566180E+03  0.00000000000E+00 0.  1.
         21    1    1    2  503  502 -0.25613501551E+02 -0.28995413103E+02 -0.16098873159E+03  0.16557221126E+03  0.00000000000E+00 0.  1.
         21    1    1    2  504  501  0.25613501551E+02  0.28995413103E+02 -0.84999937694E+02  0.93390443038E+02  0.00000000000E+00 0.  1.
</event>
<event>
 4    1  0.1551744E+006  0.2445524E+02  0.7546771E-02  0.1474991E+00
         21   -1    0    0  504  501  0.00000000000E+00  0.00000000000E+00  0.19130707761E+02  0.19130707761E+02  0.00000000000E+00 0.  1.
         21   -1    0    0  503  502 -0.00000000000E+00 -0.00000000000E+00 -0.58963484437E+02  0.58963484437E+02  0.00000000000E+00 0.  1.
         21    1    1    2  503  501  0.23598595051E+02 -0.64159979091E+01 -0.46680382901E+02  0.52698357331E+02  0.00000000000E+00 0.  1.
         21    1    1    2  504  502 -0.23598595051E+02  0.64159979091E+01  0.68476062253E+01  0.25395834867E+02  0.00000000000E+00 0.  1.
</event>
<event>
 4    1  0.1551744E+006  0.3162452E+02  0.7546771E-02  0.1405986E+00
         21   -1    0    0  503  501  0.00000000000E+00  0.00000000000E+00  0.15497622504E+02  0.15497622504E+02  0.00000000000E+00 0. -1.
         21   -1    0    0  504  502 -0.00000000000E+00 -0.00000000000E+00 -0.34509365523E+03  0.34509365523E+03  0.00000000000E+00 0. -1.
         21    1    1    2  503  502 -0.32566720133E+01  0.31456389050E+02 -0.22319094019E+01  0.31703181927E+02  0.00000000000E+00 0. -1.
         21    1    1    2  504  501  0.32566720133E+01 -0.31456389050E+02 -0.32736412333E+03  0.32888809581E+03  0.00000000000E+00 0. -1.
</event>
<event>
 4    1  0.1551744E+006  0.2352055E+02  0.7546771E-02  0.1486063E+00
         21   -1    0    0  504  501  0.00000000000E+00  0.00000000000E+00  0.75348768851E+02  0.75348768851E+02  0.00000000000E+00 0. -1.
         21   -1    0    0  501  502 -0.00000000000E+00 -0.00000000000E+00 -0.36340938213E+02  0.36340938213E+02  0.00000000000E+00 0.  1.
         21    1    1    2  503  502 -0.16933275641E+02 -0.16324232769E+02 -0.30381726784E+02  0.38422203500E+02  0.00000000000E+00 0.  1.
         21    1    1    2  504  503  0.16933275641E+02  0.16324232769E+02  0.69389557422E+02  0.73267503565E+02  0.00000000000E+00 0. -1.
</event>
<event>
 4    1  0.1551744E+006  0.2636611E+02  0.7546771E-02  0.1454082E+00
         21   -1    0    0  504  501  0.00000000000E+00  0.00000000000E+00  0.39927856760E+03  0.39927856760E+03  0.00000000000E+00 0.  1.
         21   -1    0    0  503  502 -0.00000000000E+00 -0.00000000000E+00 -0.20493657010E+01  0.20493657010E+01  0.00000000000E+00 0.  1.
         21    1    1    2  503  501  0.20782599324E+02 -0.16225144309E+02  0.12078519127E+03  0.12362942276E+03  0.00000000000E+00 0.  1.
         21    1    1    2  504  502 -0.20782599324E+02  0.16225144309E+02  0.27644401063E+03  0.27769851054E+03  0.00000000000E+00 0.  1.
</event>
<event>
 4    1  0.1551744E+006  0.2235696E+02  0.7546771E-02  0.1500735E+00
         21   -1    0    0  504  501  0.00000000000E+00  0.00000000000E+00  0.19719444558E+03  0.19719444558E+03  0.00000000000E+00 0. -1.
         21   -1    0    0  503  502 -0.00000000000E+00 -0.00000000000E+00 -0.10895033101E+02  0.10895033101E+02  0.00000000000E+00 0. -1.
         21    1    1    2  503  501 -0.22323467620E+02  0.12232262331E+01  0.18429138369E+03  0.18564252635E+03  0.00000000000E+00 0. -1.
         21    1    1    2  504  502  0.22323467620E+02 -0.12232262331E+01  0.20080287853E+01  0.22446952323E+02  0.00000000000E+00 0. -1.
</event>
<event>
 4    1  0.1551744E+006  0.2427415E+02  0.7546771E-02  0.1477090E+00
         21   -1    0    0  503  501  0.00000000000E+00  0.00000000000E+00  0.14320594882E+03  0.14320594882E+03  0.00000000000E+00 0. -1.
         21   -1    0    0  504  502 -0.00000000000E+00 -0.00000000000E+00 -0.30584908471E+02  0.30584908471E+02  0.00000000000E+00 0.  1.
         21    1    1    2  503  502 -0.10747680927E+02  0.21765144825E+02  0.13714988585E+03  0.13928146095E+03  0.00000000000E+00 0. -1.
         21    1    1    2  504  501  0.10747680927E+02 -0.21765144825E+02 -0.24528845500E+02  0.34509396346E+02  0.00000000000E+00 0.  1.
</event>
<event>
 4    1  0.1551744E+006  0.2083976E+02  0.7546771E-02  0.1521565E+00
         21   -1    0    0  504  501  0.00000000000E+00  0.00000000000E+00  0.61603336611E+03  0.61603336611E+03  0.00000000000E+00 0.  1.
         21   -1    0    0  501  502 -0.00000000000E+00 -0.00000000000E+00 -0.49821629889E+01  0.49821629889E+01  0.00000000000E+00 0. -1.
         21    1    1    2  503  502  0.19461964855E+02 -0.74516778156E+01  0.17824149484E+02  0.27422543338E+02  0.00000000000E+00 0. -1.
         21    1    1    2  504  503 -0.19461964855E+02  0.74516778156E+01  0.59322705364E+03  0.59359298576E+03  0.00000000000E+00 0.  1.
</event>
<event>
 4    1  0.1551744E+006  0.2001716E+02  0.7546771E-02  0.1533773E+00
         21   -1    0    0  503  501  0.00000000000E+00  0.00000000000E+00  0.20715827937E+03  0.20715827937E+03  0.00000000000E+00 0.  1.
         21   -1    0    0  504  502 -0.00000000000E+00 -0.00000000000E+00 -0.44170803175E+01  0.44170803175E+01  0.00000000000E+00 0. -1.
         21    1    1    2  503  502  0.18497128215E+02 -0.76513415982E+01  0.18068367945E+03  0.18178910528E+03  0.00000000000E+00 0.  1.
         21    1    1    2  504  501 -0.18497128215E+02  0.76513415982E+01  0.22057519610E+02  0.29786254411E+02  0.00000000000E+00 0. -1.
</event>
<event>
 4    1  0.1551744E+006  0.3364752E+02  0.7546771E-02  0.1390329E+00
         21   -1    0    0  504  501  0.00000000000E+00  0.00000000000E+00  0.69541884332E+02  0.69541884332E+02  0.00000000000E+00 0.  1.
         21   -1    0    0  503  502 -0.00000000000E+00 -0.00000000000E+00 -0.53541293999E+02  0.53541293999E+02  0.00000000000E+00 0. -1.
         21    1    1    2  503  501 -0.27337878751E+02  0.19616219078E+02  0.59339848521E+02  0.68215638148E+02  0.00000000000E+00 0.  1.
         21    1    1    2  504  502  0.27337878751E+02 -0.19616219078E+02 -0.43339258187E+02  0.54867540183E+02  0.00000000000E+00 0. -1.
</event>
<event>
 4    1  0.1551744E+006  0.2988481E+02  0.7546771E-02  0.1420600E+00
         21   -1    0    0  503  501  0.00000000000E+00  0.00000000000E+00  0.45671558985E+02  0.45671558985E+02  0.00000000000E+00 0. -1.
         21   -1    0    0  504  502 -0.00000000000E+00 -0.00000000000E+00 -0.27590663461E+02  0.27590663461E+02  0.00000000000E+00 0.  1.
         21    1    1    2  503  502  0.29880889073E+02  0.48411373479E+00 -0.10728479750E+02  0.31752199540E+02  0.00000000000E+00 0.  1.
         21    1    1    2  504  501 -0.29880889073E+02 -0.48411373479E+00  0.28809375274E+02  0.41510022905E+02  0.00000000000E+00 0. -1.
</event>
<event>
 4    1  0.1551744E+006  0.2037218E+02  0.7546771E-02  0.1528420E+00
         21   -1    0    0  503  501  0.00000000000E+00  0.00000000000E+00  0.16692575935E+02  0.16692575935E+02  0.00000000000E+00 0. -1.
         21   -1    0    0  504  502 -0.00000000000E+00 -0.00000000000E+00 -0.27986675063E+02  0.27986675063E+02  0.00000000000E+00 0. -1.
         21    1    1    2  503  502 -0.17544002309E+02 -0.10355368955E+02 -0.13110519560E+02  0.24226254484E+02  0.00000000000E+00 0. -1.
         21    1    1    2  504  501  0.17544002309E+02  0.10355368955E+02  0.18164204326E+01  0.20452996514E+02  0.00000000000E+00 0. -1.
</event>
<event>
 4    1  0.1551744E+006  0.2233096E+02  0.7546771E-02  0.1501075E+00
         21   -1    0    0  504  501  0.00000000000E+00  0.00000000000E+00  0.56140121096E+02  0.56140121096E+02  0.00000000000E+00 0.  1.
         21   -1    0    0  501  502 -0.00000000000E+00 -0.00000000000E+00 -0.60219751760E+02  0.60219751760E+02  0.00000000000E+00 0.  1.
         21    1    1    2  503  502 -0.19612420127E+02 -0.10678228879E+02 -0.55757779442E+02  0.60063312958E+02  0.00000000000E+00 0.  1.
         21    1    1    2  504  503  0.19612420127E+02  0.10678228879E+02  0.51678148777E+02  0.56296559898E+02  0.00000000000E+00 0.  1.
</event>
<event>
 4    1  0.1551744E+006  0.2873092E+02  0.7546771E-02  0.1430955E+00
         21   -1    0    0  504  501  0.00000000000E+00  0.00000000000E+00  0.11351054880E+04  0.11351054880E+04  0.00000000000E+00 0.  1.
         21   -1    0    0  501  502 -0.00000000000E+00 -0.00000000000E+00 -0.36601644360E+01  0.36601644360E+01  0.00000000000E+00 0. -1.
         21    1    1    2  503  502  0.13734943279E+02 -0.25235229972E+02  0.56032361453E+02  0.62968968775E+02  0.00000000000E+00 0. -1.
         21    1    1    2  504  503 -0.13734943279E+02  0.25235229972E+02  0.10754129621E+04  0.10757966836E+04  0.00000000000E+00 0.  1.
</event>
<event>
 4    1  0.1551744E+006  0.2667587E+02  0.7546771E-02  0.1450892E+00
         21   -1    0    0  503  501  0.00000000000E+00  0.00000000000E+00  0.20138091638E+01  0.20138091638E+01  0.00000000000E+00 0.  1.
         21   -1    0    0  504  502 -0.00000000000E+00 -0.00000000000E+00 -0.35502814683E+03  0.35502814683E+03  0.00000000000E+00 0.  1.
         21    1    1    2  503  502 -0.13660629907E+02 -0.22912639973E+02 -0.16427430990E+03  0.16642611205E+03  0.00000000000E+00 0.  1.
         21    1    1    2  504  501  0.13660629907E+02  0.22912639973E+02 -0.18874002777E+03  0.19061584395E+03  0.00000000000E+00 0.  1.
</event>
<event>
 4    1  0.1551744E+006  0.3069611E+02  0.7546771E-02  0.1413642E+00
         21   -1    0    0  503  501  0.00000000000E+00  0.00000000000E+00  0.10661897145E+02  0.10661897145E+02  0.00000000000E+00 0. -1.
         21   -1    0    0  504  502 -0.00000000000E+00 -0.00000000000E+00 -0.13103864068E+03  0.13103864068E+03  0.00000000000E+00 0. -1.
         21    1    1    2  503  502  0.15233148545E+02  0.26649623083E+02 -0.19761710594E+02  0.36507210667E+02  0.00000000000E+00 0. -1.
         21    1    1    2  504  501 -0.15233148545E+02 -0.26649623083E+02 -0.10061503294E+03  0.10519332716E+03  0.00000000000E+00 0. -1.
</event>
<event>
 4    1  0.1551744E+006  0.3070807E+02  0.7546771E-02  0.1413541E+00
         21   -1    0    0  502  501  0.00000000000E+00  0.00000000000E+00  0.22409348995E+02  0.22409348995E+02  0.00000000000E+00 0.  1.
         21   -1    0    0  504  502 -0.00000000000E+00 -0.00000000000E+00 -0.66344042684E+02  0.66344042684E+02  0.00000000000E+00 0.  1.
         21    1    1    2  503  501 -0.28882385236E+02  0.10430406455E+02  0.48697490279E+01  0.31091799744E+02  0.00000000000E+00 0.  1.
         21    1    1    2  504  503  0.28882385236E+02 -0.10430406455E+02 -0.48804442717E+02  0.57661591936E+02  0.00000000000E+00 0.  1.
</event>
<event>
 4    1  0.1551744E+006  0.2346477E+02  0.7546771E-02  0.1486743E+00
         21   -1    0    0  504  501  0.00000000000E+00  0.00000000000E+00  0.89442152821E+01  0.89442152821E+01  0.00000000000E+00 0. -1.
         21   -1    0    0  503  502 -0.00000000000E+00 -0.00000000000E+00 -0.39292314488E+03  0.39292314488E+03  0.00000000000E+00 0.  1.
         21    1    1    2  503  501  0.20608044233E+02 -0.11220688633E+02 -0.37651301743E+03  0.37724348587E+03  0.00000000000E+00 0.  1.
         21    1    1    2  504  502 -0.20608044233E+02  0.11220688633E+02 -0.74659121700E+01  0.24623874290E+02  0.00000000000E+00 0. -1.
</event>
<event>
 4    1  0.1551744E+006  0.2346381E+02  0.7546771E-02  0.1486755E+00
         21   -1    0    0  503  501  0.00000000000E+00  0.00000000000E+00  0.82987021139E+02  0.82987021139E+02  0.00000000000E+00 0. -1.
         21   -1    0    0  504  502 -0.00000000000E+00 -0.00000000000E+00 -0.24595428697E+03  0.24595428697E+03  0.00000000000E+00 0. -1.
         21    1    1    2  503  502 -0.23369595419E+02  0.21006223486E+01 -0.24372097318E+03  0.24484783718E+03  0.00000000000E+00 0. -1.
         21    1    1    2  504  501  0.23369595419E+02 -0.21006223486E+01  0.80753707342E+02  0.84093470935E+02  0.00000000000E+00 0. -1.
</event>
<event>
 4    1  0.1551744E+006  0.2656751E+02  0.7546771E-02  0.1452002E+00
         21   -1    0    0  504  501  0.00000000000E+00  0.00000000000E+00  0.33575118536E+03  0.33575118536E+03  0.00000000000E+00 0. -1.
         21   -1    0    0  501  502 -0.00000000000E+00 -0.00000000000E+00 -0.13519071861E+03  0.13519071861E+03  0.00000000000E+00 0.  1.
         21    1    1    2  503  502  0.29065715761E+01  0.26408039283E+02 -0.13335272937E+03  0.13597346479E+03  0.00000000000E+00 0.  1.
         21    1    1    2  504  503 -0.29065715761E+01 -0.26408039283E+02  0.33391319612E+03  0.33496843917E+03  0.00000000000E+00 0. -1.
</event>
<event>
 4    1  0.1551744E+006  0.4224813E+02  0.7546771E-02  0.1335793E+00
         21   -1    0    0  503  501  0.00000000000E+00  0.00000000000E+00  0.13531461641E+02  0.13531461641E+02  0.00000000000E+00 0. -1.
         21   -1    0    0  504  502 -0.00000000000E+00 -0.00000000000E+00 -0.13494703142E+03  0.13494703142E+03  0.00000000000E+00 0. -1.
         21    1    1    2  503  502  0.27085523015E+02  0.32423433876E+02 -0.49566441870E+02  0.65128617220E+02  0.00000000000E+00 0. -1.
         21    1    1    2  504  501 -0.27085523015E+02 -0.32423433876E+02 -0.71849127907E+02  0.83349875839E+02  0.00000000000E+00 0. -1.
</event>
<event>
 4    1  0.1551744E+006  0.5377068E+02  0.7546771E-02  0.1282603E+00
         21   -1    0    0  504  501  0.00000000000E+00  0.00000000000E+00  0.20629006610E+02  0.20629006610E+02  0.00000000000E+00 0. -1.
         21   -1    0    0  501  502 -0.00000000000E+00 -0.00000000000E+00 -0.18135054723E+03  0.18135054723E+03  0.00000000000E+00 0. -1.
         21    1    1    2  503  502 -0.69056294475E+01 -0.53325405042E+02 -0.12849299446E+03  0.13929011511E+03  0.00000000000E+00 0. -1.
         21    1    1    2  504  503  0.69056294475E+01  0.53325405042E+02 -0.32228546159E+02  0.62689438732E+02  0.00000000000E+00 0. -1.
</event>
<event>
 4    1  0.1551744E+006  0.6090339E+02  0.7546771E-02  0.1256794E+00
         21   -1    0    0  502  501  0.00000000000E+00  0.00000000000E+00  0.30554874547E+02  0.30554874547E+02  0.00000000000E+00 0.  1.
         21   -1    0    0  503  502 -0.00000000000E+00 -0.00000000000E+00 -0.12221396540E+03  0.12221396540E+03  0.00000000000E+00 0.  1.
         21    1    1    2  503  504  0.42165189516E+01  0.60757248970E+02 -0.39578374658E+02  0.72633808072E+02  0.00000000000E+00 0.  1.
         21    1    1    2  504  501 -0.42165189516E+01 -0.60757248970E+02 -0.52080716195E+02  0.80135031876E+02  0.00000000000E+00 0.  1.
</event>
<event>
 4    1  0.1551744E+006  0.2297247E+02  0.7546771E-02  0.1492844E+00
         21   -1    0    0  504  501  0.00000000000E+00  0.00000000000E+00  0.47175670818E+00  0.47175670818E+00  0.00000000000E+00 0.  1.
         21   -1    0    0  503  502 -0.00000000000E+00 -0.00000000000E+00 -0.11622791920E+04  0.11622791920E+04  0.00000000000E+00 0.  1.
         21    1    1    2  503  501  0.23629860128E+01 -0.22850615809E+02 -0.46827452327E+03  0.46883767286E+03  0.00000000000E+00 0.  1.
         21    1    1    2  504  502 -0.23629860128E+01  0.22850615809E+02 -0.69353291199E+03  0.69391327582E+03  0.00000000000E+00 0.  1.
</event>
<event>
 4    1  0.1551744E+006  0.2261803E+02  0.7546771E-02  0.1497351E+00
         21   -1    0    0  504  501  0.00000000000E+00  0.00000000000E+00  0.28815619353E+03  0.28815619353E+03  0.00000000000E+00 0.  1.
         21   -1    0    0  503  502 -0.00000000000E+00 -0.00000000000E+00 -0.18207873545E+01  0.18207873545E+01  0.00000000000E+00 0.  1.
         21    1    1    2  503  501 -0.63524857857E+01  0.21707624940E+02  0.12026109013E+03  0.12236954218E+03  0.00000000000E+00 0.  1.
         21    1    1    2  504  502  0.63524857857E+01 -0.21707624940E+02  0.16607431605E+03  0.16760743870E+03  0.00000000000E+00 0.  1.
</event>
<event>
 4    1  0.1551744E+006  0.2743743E+02  0.7546771E-02  0.1443263E+00
         21   -1    0    0  504  501  0.00000000000E+00  0.00000000000E+00  0.92734050785E+03  0.92734050785E+03  0.00000000000E+00 0.  1.
         21   -1    0    0  503  502 -0.00000000000E+00 -0.00000000000E+00 -0.82271755977E+00  0.82271755977E+00  0.00000000000E+00 0.  1.
         21    1    1    2  503  501  0.19800186539E+02  0.18993816399E+02  0.40979174842E+03  0.41070925181E+03  0.00000000000E+00 0.  1.
         21    1    1    2  504  502 -0.19800186539E+02 -0.18993816399E+02  0.51672604186E+03  0.51745397359E+03  0.00000000000E+00 0.  1.
</event>
<event>
 4    1  0.1551744E+006  0.4722656E+02  0.7546771E-02  0.1310667E+00
         21   -1    0    0  504  501  0.00000000000E+00  0.00000000000E+00  0.52096183960E+03  0.52096183960E+03  0.00000000000E+00 0.  1.
         21   -1    0    0  501  502 -0.00000000000E+00 -0.00000000000E+00 -0.79359799084E+01  0.79359799084E+01  0.00000000000E+00 0.  1.
         21    1    1    2  503  502 -0.10801568258E+02 -0.45974708697E+02  0.77051367686E+02  0.90372899582E+02  0.00000000000E+00 0.  1.
         21    1    1    2  504  503  0.10801568258E+02  0.45974708697E+02  0.43597449200E+03  0.43852491992E+03  0.00000000000E+00 0.  1.
</event>
<event>
 4    1  0.1551744E+006  0.2015420E+02  0.7546771E-02  0.1531691E+00
         21   -1    0    0  504  501  0.00000000000E+00  0.00000000000E+00  0.82821147240E+01  0.82821147240E+01  0.00000000000E+00 0.  1.
         21   -1    0    0  503  502 -0.00000000000E+00 -0.00000000000E+00 -0.12034586325E+03  0.12034586325E+03  0.00000000000E+00 0. -1.
         21    1    1    2  503  501  0.19964786381E+02 -0.27566313552E+01 -0.10553572141E+03  0.10744291603E+03  0.00000000000E+00 0. -1.
         21    1    1    2  504  502 -0.19964786381E+02  0.27566313552E+01 -0.65280271212E+01  0.21185061948E+02  0.00000000000E+00 0.  1.
</event>
<event>
 4    1  0.1551744E+006  0.3108776E+02  0.7546771E-02  0.1410373E+00
         21   -1    0    0  503  501  0.00000000000E+00  0.00000000000E+00  0.42985377780E+01  0.42985377780E+01  0.00000000000E+00 0. -1.
         21   -1    0    0  504  502 -0.00000000000E+00 -0.00000000000E+00 -0.35467218087E+03  0.35467218087E+03  0.00000000000E+00 0.  1.
         21    1    1    2  503  502 -0.14893029279E+02  0.27288210616E+02 -0.66589264557E+02  0.73488631188E+02  0.00000000000E+00 0. -1.
         21    1    1    2  504  501  0.14893029279E+02 -0.27288210616E+02 -0.28378437853E+03  0.28548208746E+03  0.00000000000E+00 0.  1.
</event>
<event>
 4    1  0.1551744E+006  0.2474870E+02  0.7546771E-02  0.1471634E+00
         21   -1    0    0  503  501  0.00000000000E+00  0.00000000000E+00  0.12556685764E+02  0.12556685764E+02  0.00000000000E+00 0.  1.
         21   -1    0    0  504  502 -0.00000000000E+00 -0.00000000000E+00 -0.48836395012E+02  0.48836395012E+02  0.00000000000E+00 0.  1.
         21    1    1    2  503  502  0.94651549824E+01 -0.22867198041E+02 -0.17084114090E+02  0.30072659665E+02  0.00000000000E+00 0.  1.
         21    1    1    2  504  501 -0.94651549824E+01  0.22867198041E+02 -0.19195595158E+02  0.31320421111E+02  0.00000000000E+00 0.  1.
</event>
<event>
 4    1  0.1551744E+006  0.2527155E+02  0.7546771E-02  0.1465788E+00
         21   -1    0    0  504  501  0.00000000000E+00  0.00000000000E+00  0.18662441118E+03  0.18662441118E+03  0.00000000000E+00 0. -1.
         21   -1    0    0  501  502 -0.00000000000E+00 -0.00000000000E+00 -0.36573099514E+01  0.36573099514E+01  0.00000000000E+00 0. -1.
         21    1    1    2  503  502 -0.94177850616E+01  0.23451156913E+02  0.67357065354E+02  0.71941821558E+02  0.00000000000E+00 0. -1.
         21    1    1    2  504  503  0.94177850616E+01 -0.23451156913E+02  0.11561003588E+03  0.11833989958E+03  0.00000000000E+00 0. -1.
</event>
<event>
 4    1  0.1551744E+006  0.2114903E+02  0.7546771E-02  0.1517148E+00
         21   -1    0    0  503  501  0.00000000000E+00  0.00000000000E+00  0.46879791736E+02  0.46879791736E+02  0.00000000000E+00 0. -1.
         21   -1    0    0  504  502 -0.00000000000E+00 -0.00000000000E+00 -0.99091578449E+02  0.99091578449E+02  0.00000000000E+00 0.  1.
         21    1    1    2  503  502 -0.68024771437E+01  0.20025181443E+02 -0.95488951215E+02  0.97802972303E+02  0.00000000000E+00 0.  1.
         21    1    1    2  504  501  0.68024771437E+01 -0.20025181443E+02  0.43277164503E+02  0.48168397882E+02  0.00000000000E+00 0. -1.
</event>
<event>
 4    1  0.1551744E+006  0.3001245E+02  0.7546771E-02  0.1419488E+00
         21   -1    0    0  502  501  0.00000000000E+00  0.00000000000E+00  0.95679143717E+02  0.95679143717E+02  0.00000000000E+00 0.  1.
         21   -1    0    0  504  502 -0.00000000000E+00 -0.00000000000E+00 -0.53777022057E+02  0.53777022057E+02  0.00000000000E+00 0.  1.
         21    1    1    2  503  501 -0.19659614694E+02 -0.22677014800E+02  0.88823709955E+02  0.93757127198E+02  0.00000000000E+00 0.  1.
         21    1    1    2  504  503  0.19659614694E+02  0.22677014800E+02 -0.46921588295E+02  0.55699038576E+02  0.00000000000E+00 0.  1.
</event>
<event>
 4    1  0.1551744E+006  0.2308733E+02  0.7546771E-02  0.1491404E+00
         21   -1    0    0  504  501  0.00000000000E+00  0.00000000000E+00  0.19598082860E+02  0.19598082860E+02  0.00000000000E+00 0. -1.
         21   -1    0    0  503  502 -0.00000000000E+00 -0.00000000000E+00 -0.24492390856E+03  0.24492390856E+03  0.00000000000E+00 0.  1.
         21    1    1    2  503  501 -0.12485772036E+02 -0.19419837821E+02 -0.23736435018E+03  0.23848450545E+03  0.00000000000E+00 0.  1.
         21    1    1    2  504  502  0.12485772036E+02  0.19419837821E+02  0.12038524474E+02  0.26037485974E+02  0.00000000000E+00 0. -1.
</event>
<event>
 4    1  0.1551744E+006  0.3332147E+02  0.7546771E-02  0.1392764E+00
         21   -1    0    0  502  501  0.00000000000E+00  0.00000000000E+00  0.37591834769E+02  0.37591834769E+02  0.00000000000E+00 0.  1.
         21   -1    0    0  503  502 -0.00000000000E+00 -0.00000000000E+00 -0.26303945222E+03  0.26303945222E+03  0.00000000000E+00 0. -1.
         21    1    1    2  503  504  0.31712698295E+02  0.10228657476E+02 -0.25434889382E+03  0.25652228062E+03  0.00000000000E+00 0. -1.
         21    1    1    2  504  501 -0.31712698295E+02 -0.10228657476E+02  0.28901276371E+02  0.44109006368E+02  0.00000000000E+00 0.  1.
</event>
<event>
 4    1  0.1551744E+006  0.2952054E+02  0.7546771E-02  0.1423809E+00
         21   -1    0    0  504  501  0.00000000000E+00  0.00000000000E+00  0.35107941135E+01  0.35107941135E+01  0.00000000000E+00 0.  1.
         21   -1    0    0  501  502 -0.00000000000E+00 -0.00000000000E+00 -0.74268802572E+03  0.74268802572E+03  0.00000000000E+00 0. -1.
         21    1    1    2  503  502 -0.12032592902E+02  0.26956978810E+02 -0.67401961385E+03  0.67466577048E+03  0.00000000000E+00 0. -1.
         21    1    1    2  504  503  0.12032592902E+02 -0.26956978810E+02 -0.65157617749E+02  0.71533049350E+02  0.00000000000E+00 0.  1.
</event>
<event>
 4    1  0.1551744E+006  0.2393210E+02  0.7546771E-02  0.1481114E+00
         21   -1    0    0  502  501  0.00000000000E+00  0.00000000000E+00  0.10387970041E+03  0.10387970041E+03  0.00000000000E+00 0.  1.
         21   -1    0    0  504  502 -0.00000000000E+00 -0.00000000000E+00 -0.58913806837E+01  0.58913806837E+01  0.00000000000E+00 0.  1.
         21    1    1    2  503  501 -0.11985440268E+02  0.20714604403E+02  0.62893677208E+02  0.67293092118E+02  0.00000000000E+00 0.  1.
         21    1    1    2  504  503  0.11985440268E+02 -0.20714604403E+02  0.35094642521E+02  0.42477988979E+02  0.00000000000E+00 0.  1.
</event>
<event>
 4    1  0.1551744E+006  0.2062436E+02  0.7546771E-02  0.1524696E+00
         21   -1    0    0  503  501  0.00000000000E+00  0.00000000000E+00  0.29228324275E+03  0.29228324275E+03  0.00000000000E+00 0. -1.
         21   -1    0    0  504  502 -0.00000000000E+00 -0.00000000000E+00 -0.25861500563E+01  0.25861500563E+01  0.00000000000E+00 0. -1.
         21    1    1    2  503  502 -0.49427038930E+01 -0.20023336663E+02  0.24234130868E+03  0.24321733948E+03  0.00000000000E+00 0. -1.
         21    1    1    2  504  501  0.49427038930E+01  0.20023336663E+02  0.47355784014E+02  0.51652053322E+02  0.00000000000E+00 0. -1.
</event>
<event>
 4    1  0.1551744E+006  0.2034166E+02  0.7546771E-02  0.1528875E+00
         21   -1    0    0  503  501  0.00000000000E+00  0.00000000000E+00  0.72888238670E+02  0.72888238670E+02  0.00000000000E+00 0.  1.
         21   -1    0    0  504  502 -0.00000000000E+00 -0.00000000000E+00 -0.42828269741E+02  0.42828269741E+02  0.00000000000E+00 0.  1.
         21    1    1    2  503  502  0.11231682347E+02 -0.16959729715E+02  0.68917376390E+02  0.71856717771E+02  0.00000000000E+00 0.  1.
         21    1    1    2  504  501 -0.11231682347E+02  0.16959729715E+02 -0.38857407461E+02  0.43859790640E+02  0.00000000000E+00 0.  1.
</event>
<event>
 4    1  0.1551744E+006  0.2253509E+02  0.7546771E-02  0.1498420E+00
         21   -1    0    0  503  501  0.00000000000E+00  0.00000000000E+00  0.18447471324E+03  0.18447471324E+03  0.00000000000E+00 0.  1.
         21   -1    0    0  501  502 -0.00000000000E+00 -0.00000000000E+00 -0.63525366901E+02  0.63525366901E+02  0.00000000000E+00 0. -1.
         21    1    1    2  503  504 -0.22440346061E+02  0.20642787078E+01  0.18175821251E+03  0.18314987904E+03  0.00000000000E+00 0.  1.
         21    1    1    2  504  502  0.22440346061E+02 -0.20642787078E+01 -0.60808866171E+02  0.64850201101E+02  0.00000000000E+00 0. -1.
</event>
<event>
 4    1  0.1551744E+006  0.1085800E+03  0.7546771E-02  0.1149717E+00
         21   -1    0    0  504  501  0.00000000000E+00  0.00000000000E+00  0.19638871359E+02  0.19638871359E+02  0.00000000000E+00 0. -1.
         21   -1    0    0  503  502 -0.00000000000E+00 -0.00000000000E+00 -0.61634658843E+03  0.61634658843E+03  0.00000000000E+00 0. -1.
         21    1    1    2  503  501 -0.40476234051E+02 -0.10075357693E+03 -0.34963104372E+03  0.36610309412E+03  0.00000000000E+00 0. -1.
         21    1    1    2  504  502  0.40476234051E+02  0.10075357693E+03 -0.24707667335E+03  0.26988236567E+03  0.00000000000E+00 0. -1.
</event>
<event>
 4    1  0.1551744E+006  0.2165805E+02  0.7546771E-02  0.1510073E+00
         21   -1    0    0  502  501  0.00000000000E+00  0.00000000000E+00  0.43885585386E+01  0.43885585386E+01  0.00000000000E+00 0. -1.
         21   -1    0    0  504  502 -0.00000000000E+00 -0.00000000000E+00 -0.11072865750E+03  0.11072865750E+03  0.00000000000E+00 0. -1.
         21    1    1    2  503  501  0.19784043583E+02 -0.88126482307E+01 -0.42446175407E+02  0.47652376184E+02  0.00000000000E+00 0. -1.
         21    1    1    2  504  503 -0.19784043583E+02  0.88126482307E+01 -0.63893923555E+02  0.67464839854E+02  0.00000000000E+00 0. -1.
</event>
<event>
 4    1  0.1551744E+006  0.2488657E+02  0.7546771E-02  0.1470076E+00
         21   -1    0    0  503  501  0.00000000000E+00  0.00000000000E+00  0.63486701823E+01  0.63486701823E+01  0.00000000000E+00 0. -1.
         21   -1    0    0  501  502 -0.00000000000E+00 -0.00000000000E+00 -0.26391838079E+03  0.26391838079E+03  0.00000000000E+00 0.  1.
         21    1    1    2  503  504  0.13314038966E+01 -0.24850927813E+02 -0.21495205144E+02  0.32884420227E+02  0.00000000000E+00 0. -1.
         21    1    1    2  504  502 -0.13314038966E+01  0.24850927813E+02 -0.23607450546E+03  0.23738263074E+03  0.00000000000E+00 0.  1.
</event>
<event>
 4    1  0.1551744E+006  0.2834884E+02  0.7546771E-02  0.1434510E+00
         21   -1    0    0  503  501  0.00000000000E+00  0.00000000000E+00  0.16957517818E+02  0.16957517818E+02  0.00000000000E+00 0. -1.
         21   -1    0    0  504  502 -0.00000000000E+00 -0.00000000000E+00 -0.32994577096E+03  0.32994577096E+03  0.00000000000E+00 0.  1.
         21    1    1    2  503  502 -0.63707210885E+00  0.28341676310E+02  0.40178451890E+01  0.28632142024E+02  0.00000000000E+00 0. -1.
         21    1    1    2  504  501  0.63707210885E+00 -0.28341676310E+02 -0.31700609833E+03  0.31827114675E+03  0.00000000000E+00 0.  1.
</event>
<event>
 4    1  0.1551744E+006  0.3219266E+02  0.7546771E-02  0.1401452E+00
         21   -1    0    0  504  501  0.00000000000E+00  0.00000000000E+00  0.21826904728E+02  0.21826904728E+02  0.00000000000E+00 0.  1.
         21   -1    0    0  503  502 -0.00000000000E+00 -0.00000000000E+00 -0.14462358884E+03  0.14462358884E+03  0.00000000000E+00 0. -1.
         21    1    1    2  503  501  0.23955872643E+02  0.21505430446E+02 -0.12960706842E+03  0.13354534645E+03  0.00000000000E+00 0. -1.
         21    1    1    2  504  502 -0.23955872643E+02 -0.21505430446E+02  0.68103843079E+01  0.32905147123E+02  0.00000000000E+00 0.  1.
</event>
<event>
 4    1  0.1551744E+006  0.2193400E+02  0.7546771E-02  0.1506336E+00
         21   -1    0    0  502  501  0.00000000000E+00  0.00000000000E+00  0.14258474088E+02  0.14258474088E+02  0.00000000000E+00 0. -1.
         21   -1    0    0  504  502 -0.00000000000E+00 -0.00000000000E+00 -0.11999197541E+03  0.11999197541E+03  0.00000000000E+00 0.  1.
         21    1    1    2  503  501 -0.21264838130E+02 -0.53765193786E+01  0.40435334288E+01  0.22303597555E+02  0.00000000000E+00 0. -1.
         21    1    1    2  504  503  0.21264838130E+02  0.53765193786E+01 -0.10977703475E+03  0.11194685194E+03  0.00000000000E+00 0.  1.
</event>
<event>
 4    1  0.1551744E+006  0.2287830E+02  0.7546771E-02  0.1494032E+00
         21   -1    0    0  504  501  0.00000000000E+00  0.00000000000E+00  0.13135689337E+03  0.13135689337E+03  0.00000000000E+00 0. -1.
         21   -1    0    0  503  502 -0.00000000000E+00 -0.00000000000E+00 -0.87835141554E+01  0.87835141554E+01  0.00000000000E+00 0.  1.
         21    1    1    2  503  501 -0.22677018348E+02  0.30281030414E+01  0.94942197757E+01  0.24770078287E+02  0.00000000000E+00 0.  1.
         21    1    1    2  504  502  0.22677018348E+02 -0.30281030414E+01  0.11307915943E+03  0.11537032923E+03  0.00000000000E+00 0. -1.
</event>
<event>
 4    1  0.1551744E+006  0.2270757E+02  0.7546771E-02  0.1496203E+00
         21   -1    0    0  504  501  0.00000000000E+00  0.00000000000E+00  0.19755313247E+01  0.19755313247E+01  0.00000000000E+00 0. -1.
         21   -1    0    0  503  502 -0.00000000000E+00 -0.00000000000E+00 -0.26165966095E+03  0.26165966095E+03  0.00000000000E+00 0. -1.
         21    1    1    2  503  501  0.22537929566E+02 -0.27704619030E+01 -0.13640953460E+03  0.13828664020E+03  0.00000000000E+00 0. -1.
         21    1    1    2  504  502 -0.22537929566E+02  0.27704619030E+01 -0.12327459503E+03  0.12534855208E+03  0.00000000000E+00 0. -1.
</event>
<event>
 4    1  0.1551744E+006  0.2618748E+02  0.7546771E-02  0.1455945E+00
         21   -1    0    0  504  501  0.00000000000E+00  0.00000000000E+00  0.38652276877E+02  0.38652276877E+02  0.00000000000E+00 0.  1.
         21   -1    0    0  503  502 -0.00000000000E+00 -0.00000000000E+00 -0.23978308497E+02  0.23978308497E+02  0.00000000000E+00 0.  1.
         21    1    1    2  503  501  0.28271935816E+01  0.26034418063E+02  0.23306702639E+02  0.35056901394E+02  0.00000000000E+00 0.  1.
         21    1    1    2  504  502 -0.28271935816E+01 -0.26034418063E+02 -0.86327342599E+01  0.27573683980E+02  0.00000000000E+00 0.  1.
</event>
<event>
 4    1  0.1551744E+006  0.3586727E+02  0.7546771E-02  0.1374566E+00
         21   -1    0    0  503  501  0.00000000000E+00  0.00000000000E+00  0.41406217500E+02  0.41406217500E+02  0.00000000000E+00 0.  1.
         21   -1    0    0  501  502 -0.00000000000E+00 -0.00000000000E+00 -0.60906107474E+02  0.60906107474E+02  0.00000000000E+00 0.  1.
         21    1    1    2  503  504  0.32052298296E+02 -0.16096931052E+02  0.26055074870E+02  0.44332019375E+02  0.00000000000E+00 0.  1.
         21    1    1    2  504  502 -0.32052298296E+02  0.16096931052E+02 -0.45554964844E+02  0.57980305599E+02  0.00000000000E+00 0.  1.
</event>
<event>
 4    1  0.1551744E+006  0.2153364E+02  0.7546771E-02  0.1511780E+00
         21   -1    0    0  504  501  0.00000000000E+00  0.00000000000E+00  0.53210813528E+01  0.53210813528E+01  0.00000000000E+00 0.  1.
         21   -1    0    0  503  502 -0.00000000000E+00 -0.00000000000E+00 -0.14143379493E+03  0.14143379493E+03  0.00000000000E+00 0.  1.
         21    1    1    2  503  501 -0.11240597408E+02  0.18366998517E+02 -0.11351819995E+03  0.11554254362E+03  0.00000000000E+00 0.  1.
         21    1    1    2  504  502  0.11240597408E+02 -0.18366998517E+02 -0.22594513624E+02  0.31212332667E+02  0.00000000000E+00 0.  1.
</event>
<event>
 4    1  0.1551744E+006  0.2915294E+02  0.7546771E-02  0.1427103E+00
         21   -1    0    0  502  501  0.00000000000E+00  0.00000000000E+00  0.51940773496E+02  0.51940773496E+02  0.00000000000E+00 0. -1.
         21   -1    0    0  504  502 -0.00000000000E+00 -0.00000000000E+00 -0.52807258635E+02  0.52807258635E+02  0.00000000000E+00 0.  1.
         21    1    1    2  503  501 -0.19160795859E+02  0.21971752267E+02  0.43076358706E+02  0.52014100732E+02  0.00000000000E+00 0. -1.
         21    1    1    2  504  503  0.19160795859E+02 -0.21971752267E+02 -0.43942843845E+02  0.52733931399E+02  0.00000000000E+00 0.  1.
</event>
<event>
 4    1  0.1551744E+006  0.2952563E+02  0.7546771E-02  0.1423764E+00
         21   -1    0    0  504  501  0.00000000000E+00  0.00000000000E+00  0.13664153139E+02  0.13664153139E+02  0.00000000000E+00 0.  1.
         21   -1    0    0  503  502 -0.00000000000E+00 -0.00000000000E+00 -0.72585894877E+02  0.72585894877E+02  0.00000000000E+00 0.  1.
         21    1    1    2  503  501  0.26596545685E+02  0.12821328295E+02 -0.44465138651E+02  0.53375193273E+02  0.00000000000E+00 0.  1.
         21    1    1    2  504  502 -0.26596545685E+02 -0.12821328295E+02 -0.14456603086E+02  0.32874854744E+02  0.00000000000E+00 0.  1.
</event>
<event>
 4    1  0.1551744E+006  0.5177025E+02  0.7546771E-02  0.1290674E+00
         21   -1    0    0  504  501  0.00000000000E+00  0.00000000000E+00  0.52979631466E+02  0.52979631466E+02  0.00000000000E+00 0. -1.
         21   -1    0    0  501  502 -0.00000000000E+00 -0.00000000000E+00 -0.35466434434E+03  0.35466434434E+03  0.00000000000E+00 0.  1.
         21    1    1    2  503  502  0.82039691880E+01 -0.51116083096E+02 -0.33956901153E+03  0.34349275488E+03  0.00000000000E+00 0.  1.
         21    1    1    2  504  503 -0.82039691880E+01  0.51116083096E+02  0.37884298659E+02  0.64151220926E+02  0.00000000000E+00 0. -1.
</event>
<event>
 4    1  0.1551744E+006  0.2583793E+02  0.7546771E-02  0.1459644E+00
         21   -1    0    0  504  501  0.00000000000E+00  0.00000000000E+00  0.84270894489E+03  0.84270894489E+03  0.00000000000E+00 0. -1.
         21   -1    0    0  503  502 -0.00000000000E+00 -0.00000000000E+00 -0.10834866297E+01  0.10834866297E+01  0.00000000000E+00 0. -1.
         21    1    1    2  503  501  0.12837254052E+02  0.22423277245E+02  0.20206164703E+03  0.20370691607E+03  0.00000000000E+00 0. -1.
         21    1    1    2  504  502 -0.12837254052E+02 -0.22423277245E+02  0.63956381123E+03  0.64008551545E+03  0.00000000000E+00 0. -1.
</event>
<event>
 4    1  0.1551744E+006  0.2187533E+02  0.7546771E-02  0.1507125E+00
         21   -1    0    0  504  501  0.00000000000E+00  0.00000000000E+00  0.40403891874E+02  0.40403891874E+02  0.00000000000E+00 0. -1.
         21   -1    0    0  503  502 -0.00000000000E+00 -0.00000000000E+00 -0.48294621711E+02  0.48294621711E+02  0.00000000000E+00 0.  1.
         21    1    1    2  503  501  0.77364600498E+00 -0.21861646610E+02 -0.42474692841E+02  0.47776873617E+02  0.00000000000E+00 0.  1.
         21    1    1    2  504  502 -0.77364600498E+00  0.21861646610E+02  0.34583963004E+02  0.40921639969E+02  0.00000000000E+00 0. -1.
</event>
<event>
 4    1  0.1551744E+006  0.2849013E+02  0.7546771E-02  0.1433188E+00
         21   -1    0    0  504  501  0.00000000000E+00  0.00000000000E+00  0.10838263570E+02  0.10838263570E+02  0.00000000000E+00 0.  1.
         21   -1    0    0  503  502 -0.00000000000E+00 -0.00000000000E+00 -0.11039395362E+03  0.11039395362E+03  0.00000000000E+00 0.  1.
         21    1    1    2  503  501 -0.28059249018E+02 -0.49361702726E+01 -0.84153288399E+02  0.88845164082E+02  0.00000000000E+00 0.  1.
         21    1    1    2  504  502  0.28059249018E+02  0.49361702726E+01 -0.15402401653E+02  0.32387053109E+02  0.00000000000E+00 0.  1.
</event>
<event>
 4    1  0.1551744E+006  0.2191792E+02  0.7546771E-02  0.1506552E+00
         21   -1    0    0  503  501  0.00000000000E+00  0.00000000000E+00  0.24073563237E+02  0.24073563237E+02  0.00000000000E+00 0. -1.
         21   -1    0    0  504  502 -0.00000000000E+00 -0.00000000000E+00 -0.27012502169E+02  0.27012502169E+02  0.00000000000E+00 0. -1.
         21    1    1    2  503  502 -0.13246167395E+02 -0.17462368487E+02  0.11586412642E+02  0.24791938644E+02  0.00000000000E+00 0. -1.
         21    1    1    2  504  501  0.13246167395E+02  0.17462368487E+02 -0.14525351574E+02  0.26294126762E+02  0.00000000000E+00 0. -1.
</event>
<event>
 4    1  0.1551744E+006  0.4152493E+02  0.7546771E-02  0.1339774E+00
         21   -1    0    0  503  501  0.00000000000E+00  0.00000000000E+00  0.91736093529E+01  0.91736093529E+01  0.00000000000E+00 0.  1.
         21   -1    0    0  504  502 -0.00000000000E+00 -0.00000000000E+00 -0.18829673827E+03  0.18829673827E+03  0.00000000000E+00 0.  1.
         21    1    1    2  503  502 -0.38883254195E+01 -0.41342478834E+02 -0.85418755474E+02  0.94977278427E+02  0.00000000000E+00 0.  1.
         21    1    1    2  504  501  0.38883254195E+01  0.41342478834E+02 -0.93704373442E+02  0.10249306919E+03  0.00000000000E+00 0.  1.
</event>
<event>
 4    1  0.1551744E+006  0.3040203E+02  0.7546771E-02  0.1416134E+00
         21   -1    0    0  504  501  0.00000000000E+00  0.00000000000E+00  0.43138395782E+02  0.43138395782E+02  0.00000000000E+00 0. -1.
         21   -1    0    0  503  502 -0.00000000000E+00 -0.00000000000E+00 -0.21426119670E+02  0.21426119670E+02  0.00000000000E+00 0. -1.
         21    1    1    2  503  501 -0.14088152574E+02 -0.26940816059E+02  0.10782437278E+02  0.32257473034E+02  0.00000000000E+00 0. -1.
         21    1    1    2  504  502  0.14088152574E+02  0.26940816059E+02  0.10929838834E+02  0.32307042418E+02  0.00000000000E+00 0. -1.
</event>
<event>
 4    1  0.1551744E+006  0.2367203E+02  0.7546771E-02  0.1484228E+00
         21   -1    0    0  502  501  0.00000000000E+00  0.00000000000E+00  0.12055966779E+02  0.12055966779E+02  0.00000000000E+00 0. -1.
         21   -1    0    0  504  502 -0.00000000000E+00 -0.00000000000E+00 -0.69847420928E+02  0.69847420928E+02  0.00000000000E+00 0. -1.
         21    1    1    2  503  501 -0.23100934330E+02  0.51683584711E+01 -0.52093207555E+01  0.24238442998E+02  0.00000000000E+00 0. -1.
         21    1    1    2  504  503  0.23100934330E+02 -0.51683584711E+01 -0.52582133393E+02  0.57664944710E+02  0.00000000000E+00 0. -1.
</event>
<event>
 4    1  0.1551744E+006  0.2026329E+02  0.7546771E-02  0.1530048E+00
         21   -1    0    0  504  501  0.00000000000E+00  0.00000000000E+00  0.41500388906E+03  0.41500388906E+03  0.00000000000E+00 0.  1.
         21   -1    0    0  503  502 -0.00000000000E+00 -0.00000000000E+00 -0.11581515168E+01  0.11581515168E+01  0.00000000000E+00 0.  1.
         21    1    1    2  503  501  0.17557099338E+02 -0.10116768404E+02  0.12749254051E+03  0.12909279076E+03  0.00000000000E+00 0.  1.
         21    1    1    2  504  502 -0.17557099338E+02  0.10116768404E+02  0.28635319703E+03  0.28706924982E+03  0.00000000000E+00 0.  1.
</event>
<event>
 4    1  0.1551744E+006  0.2407964E+02  0.7546771E-02  0.1479369E+00
         21   -1    0    0  503  501  0.00000000000E+00  0.00000000000E+00  0.70599999985E+01  0.70599999985E+01  0.00000000000E+00 0.  1.
         21   -1    0    0  501  502 -0.00000000000E+00 -0.00000000000E+00 -0.18405156091E+03  0.18405156091E+03  0.00000000000E+00 0. -1.
         21    1    1    2  503  504 -0.23954209556E+02 -0.24545381733E+01 -0.17387049780E+02  0.29700815025E+02  0.00000000000E+00 0.  1.
         21    1    1    2  504  502  0.23954209556E+02  0.24545381733E+01 -0.15960451113E+03  0.16141074588E+03  0.00000000000E+00 0. -1.
</event>
<event>
 4    1  0.1551744E+006  0.2078528E+02  0.7546771E-02  0.1522353E+00
         21   -1    0    0  503  501  0.00000000000E+00  0.00000000000E+00  0.60881374051E+00  0.60881374051E+00  0.00000000000E+00 0. -1.
         21   -1    0    0  504  502 -0.00000000000E+00 -0.00000000000E+00 -0.78976905843E+03  0.78976905843E+03  0.00000000000E+00 0. -1.
         21    1    1    2  503  502 -0.20465995433E+02  0.36291912734E+01 -0.52047174992E+03  0.52088661959E+03  0.00000000000E+00 0. -1.
         21    1    1    2  504  501  0.20465995433E+02 -0.36291912734E+01 -0.26868849476E+03  0.26949125258E+03  0.00000000000E+00 0. -1.
</event>
<event>
 4    1  0.1551744E+006  0.2289808E+02  0.7546771E-02  0.1493782E+00
         21   -1    0    0  504  501  0.00000000000E+00  0.00000000000E+00  0.54086743970E+01  0.54086743970E+01  0.00000000000E+00 0. -1.
         21   -1    0    0  503  502 -0.00000000000E+00 -0.00000000000E+00 -0.17834019797E+03  0.17834019797E+03  0.00000000000E+00 0. -1.
         21    1    1    2  503  501 -0.22888999117E+02  0.64487692857E+00 -0.14853554170E+03  0.15029015036E+03  0.00000000000E+00 0. -1.
         21    1    1    2  504  502  0.22888999117E+02 -0.64487692857E+00 -0.24395981870E+02  0.33458722005E+02  0.00000000000E+00 0. -1.
</event>
<event>
 4    1  0.1551744E+006  0.2623574E+02  0.7546771E-02  0.1455440E+00
         21   -1    0    0  504  501  0.00000000000E+00  0.00000000000E+00  0.43685435053E+02  0.43685435053E+02  0.00000000000E+00 0.  1.
         21   -1    0    0  501  502 -0.00000000000E+00 -0.00000000000E+00 -0.70743721016E+03  0.70743721016E+03  0.00000000000E+00 0.  1.
         21    1    1    2  503  502  0.26116108658E+02 -0.25025695163E+01 -0.70323138213E+03  0.70372060564E+03  0.00000000000E+00 0.  1.
         21    1    1    2  504  503 -0.26116108658E+02  0.25025695163E+01  0.39479607022E+02  0.47402039578E+02  0.00000000000E+00 0.  1.
</event>
<event>
 4    1  0.1551744E+006  0.2312356E+02  0.7546771E-02  0.1490952E+00
         21   -1    0    0  503  501  0.00000000000E+00  0.00000000000E+00  0.32626886399E+01  0.32626886399E+01  0.00000000000E+00 0. -1.
         21   -1    0    0  504  502 -0.00000000000E+00 -0.00000000000E+00 -0.16775996503E+03  0.16775996503E+03  0.00000000000E+00 0. -1.
         21    1    1    2  503  502  0.19496939687E+02  0.12432547329E+02 -0.69249014467E+02  0.73007704353E+02  0.00000000000E+00 0. -1.
         21    1    1    2  504  501 -0.19496939687E+02 -0.12432547329E+02 -0.95248261925E+02  0.98014949319E+02  0.00000000000E+00 0. -1.
</event>
<event>
 4    1  0.1551744E+006  0.2005498E+02  0.7546771E-02  0.1533197E+00
         21   -1    0    0  502  501  0.00000000000E+00  0.00000000000E+00  0.38919217878E+02  0.38919217878E+02  0.00000000000E+00 0.  1.
         21   -1    0    0  504  502 -0.00000000000E+00 -0.00000000000E+00 -0.11306498036E+02  0.11306498036E+02  0.00000000000E+00 0.  1.
         21    1    1    2  503  501 -0.33150868467E+01  0.19779092865E+02  0.21170340869E+02  0.29161372530E+02  0.00000000000E+00 0.  1.
         21    1    1    2  504  503  0.33150868467E+01 -0.19779092865E+02  0.64423789737E+01  0.21064343384E+02  0.00000000000E+00 0.  1.
</event>
<event>
 4    1  0.1551744E+006  0.4206285E+02  0.7546771E-02  0.1336804E+00
         21   -1    0    0  504  501  0.00000000000E+00  0.00000000000E+00  0.77590229583E+02  0.77590229583E+02  0.00000000000E+00 0.  1.
         21   -1    0    0  503  502 -0.00000000000E+00 -0.00000000000E+00 -0.37847297781E+02  0.37847297781E+02  0.00000000000E+00 0. -1.
         21    1    1    2  503  501 -0.19670366081E+02  0.37180101891E+02  0.56261862887E+02  0.70247281043E+02  0.00000000000E+00 0.  1.
         21    1    1    2  504  502  0.19670366081E+02 -0.37180101891E+02 -0.16518931085E+02  0.45190246322E+02  0.00000000000E+00 0. -1.
</event>
<event>
 4    1  0.1551744E+006  0.7119494E+02  0.7546771E-02  0.1225911E+00
         21   -1    0    0  502  501  0.00000000000E+00  0.00000000000E+00  0.35350565944E+03  0.35350565944E+03  0.00000000000E+00 0.  1.
         21   -1    0    0  503  502 -0.00000000000E+00 -0.00000000000E+00 -0.73302110381E+02  0.73302110381E+02  0.00000000000E+00 0.  1.
         21    1    1    2  503  504 -0.43830611173E+02  0.56103451144E+02 -0.51295758976E+02  0.87749499115E+02  0.00000000000E+00 0.  1.
         21    1    1    2  504  501  0.43830611173E+02 -0.56103451144E+02  0.33149930804E+03  0.33905827071E+03  0.00000000000E+00 0.  1.
</event>
<event>
 4    1  0.1551744E+006  0.2118866E+02  0.7546771E-02  0.1516588E+00
         21   -1    0    0  503  501  0.00000000000E+00  0.00000000000E+00  0.39734007321E+03  0.39734007321E+03  0.00000000000E+00 0. -1.
         21   -1    0    0  501  502 -0.00000000000E+00 -0.00000000000E+00 -0.11378581363E+02  0.11378581363E+02  0.00000000000E+00 0.  1.
         21    1    1    2  503  504 -0.16099562350E+02 -0.13775469065E+02  0.38692822477E+03  0.38750794906E+03  0.00000000000E+00 0. -1.
         21    1    1    2  504  502  0.16099562350E+02  0.13775469065E+02 -0.96673292985E+00  0.21210705513E+02  0.00000000000E+00 0.  1.
</event>
<event>
 4    1  0.1551744E+006  0.2483641E+02  0.7546771E-02  0.1470642E+00
         21   -1    0    0  504  501  0.00000000000E+00  0.00000000000E+00  0.46357855386E+03  0.46357855386E+03  0.00000000000E+00 0.  1.
         21   -1    0    0  503  502 -0.00000000000E+00 -0.00000000000E+00 -0.14937563140E+01  0.14937563140E+01  0.00000000000E+00 0. -1.
         21    1    1    2  503  501 -0.10858266536E+02  0.22337089258E+02  0.15419588468E+03  0.15618328452E+03  0.00000000000E+00 0. -1.
         21    1    1    2  504  502  0.10858266536E+02 -0.22337089258E+02  0.30788891286E+03  0.30888902566E+03  0.00000000000E+00 0.  1.
</event>
<event>
 4    1  0.1551744E+006  0.2702703E+02  0.7546771E-02  0.1447337E+00
         21   -1    0    0  502  501  0.00000000000E+00  0.00000000000E+00  0.21533377656E+02  0.21533377656E+02  0.00000000000E+00 0.  1.
         21   -1    0    0  503  502 -0.00000000000E+00 -0.00000000000E+00 -0.21081576325E+03  0.21081576325E+03  0.00000000000E+00 0. -1.
         21    1    1    2  503  504 -0.42705596233E+01  0.26687503901E+02 -0.20105929089E+03  0.20286768840E+03  0.00000000000E+00 0. -1.
         21    1    1    2  504  501  0.42705596233E+01 -0.26687503901E+02  0.11776905290E+02  0.29481452511E+02  0.00000000000E+00 0.  1.
</event>
<event>
 4    1  0.1551744E+006  0.2453496E+02  0.7546771E-02  0.1474074E+00
         21   -1    0    0  504  501  0.00000000000E+00  0.00000000000E+00  0.72874354092E+02  0.72874354092E+02  0.00000000000E+00 0. -1.
         21   -1    0    0  501  502 -0.00000000000E+00 -0.00000000000E+00 -0.53727892033E+02  0.53727892033E+02  0.00000000000E+00 0.  1.
         21    1    1    2  503  502 -0.18863030206E+02  0.15689174219E+02 -0.48658873645E+02  0.54494495875E+02  0.00000000000E+00 0.  1.
         21    1    1    2  504  503  0.18863030206E+02 -0.15689174219E+02  0.67805335704E+02  0.72107750251E+02  0.00000000000E+00 0. -1.
</event>
<event>
 4    1  0.1551744E+006  0.2586090E+02  0.7546771E-02  0.1459399E+00
         21   -1    0    0  503  501  0.00000000000E+00  0.00000000000E+00  0.20714623410E+03  0.20714623410E+03  0.00000000000E+00 0. -1.
         21   -1    0    0  504  502 -0.00000000000E+00 -0.00000000000E+00 -0.65455649321E+01  0.65455649321E+01  0.00000000000E+00 0. -1.
         21    1    1    2  503  502  0.87373130492E+01 -0.24340206640E+02  0.17636039019E+03  0.17824638433E+03  0.00000000000E+00 0. -1.
         21    1    1    2  504  501 -0.87373130492E+01  0.24340206640E+02  0.24240278981E+02  0.35445414705E+02  0.00000000000E+00 0. -1.
</event>
<event>
 4    1  0.1551744E+006  0.2481357E+02  0.7546771E-02  0.1470900E+00
         21   -1    0    0  504  501  0.00000000000E+00  0.00000000000E+00  0.12426478820E+03  0.12426478820E+03  0.00000000000E+00 0. -1.
         21   -1    0    0  501  502 -0.00000000000E+00 -0.00000000000E+00 -0.11139228004E+02  0.11139228004E+02  0.00000000000E+00 0. -1.
         21    1    1    2  503  502  0.24246510832E+02  0.52744634032E+01  0.61173237646E+01  0.25556504099E+02  0.00000000000E+00 0. -1.
         21    1    1    2  504  503 -0.24246510832E+02 -0.52744634032E+01  0.10700823643E+03  0.10984751211E+03  0.00000000000E+00 0. -1.
</event>
<event>
 4    1  0.1551744E+006  0.2558444E+02  0.7546771E-02  0.1462370E+00
         21   -1    0    0  502  501  0.00000000000E+00  0.00000000000E+00  0.16192426606E+03  0.16192426606E+03  0.00000000000E+00 0.  1.
         21   -1    0    0  504  502 -0.00000000000E+00 -0.00000000000E+00 -0.72081307416E+02  0.72081307416E+02  0.00000000000E+00 0.  1.
         21    1    1    2  503  501  0.79879812365E+01  0.24305463588E+02  0.15859610396E+03  0.16064646774E+03  0.00000000000E+00 0.  1.
         21    1    1    2  504  503 -0.79879812365E+01 -0.24305463588E+02 -0.68753145315E+02  0.73359105742E+02  0.00000000000E+00 0.  1.
</event>
<event>
 4    1  0.1551744E+006  0.2232561E+02  0.7546771E-02  0.1501145E+00
         21   -1    0    0  503  501  0.00000000000E+00  0.00000000000E+00  0.55816712209E+02  0.55816712209E+02  0.00000000000E+00 0. -1.
         21   -1    0    0  504  502 -0.00000000000E+00 -0.00000000000E+00 -0.11720004689E+02  0.11720004689E+02  0.00000000000E+00 0. -1.
         21    1    1    2  503  502 -0.51903749021E+01  0.21713891026E+02  0.55719386779E+01  0.23010422763E+02  0.00000000000E+00 0. -1.
         21    1    1    2  504  501  0.51903749021E+01 -0.21713891026E+02  0.38524768842E+02  0.44526294135E+02  0.00000000000E+00 0. -1.
</event>
<event>
 4    1  0.1551744E+006  0.2216534E+02  0.7546771E-02  0.1503254E+00
         21   -1    0    0  504  501  0.00000000000E+00  0.00000000000E+00  0.29096166473E+02  0.29096166473E+02  0.00000000000E+00 0. -1.
         21   -1    0    0  501  502 -0.00000000000E+00 -0.00000000000E+00 -0.45202064108E+02  0.45202064108E+02  0.00000000000E+00 0.  1.
         21    1    1    2  503  502  0.20428016022E+02  0.86022353786E+01 -0.37455830102E+02  0.43522884793E+02  0.00000000000E+00 0.  1.
         21    1    1    2  504  503 -0.20428016022E+02 -0.86022353786E+01  0.21349932466E+02  0.30775345789E+02  0.00000000000E+00 0. -1.
</event>
<event>
 4    1  0.1551744E+006  0.2813994E+02  0.7546771E-02  0.1436481E+00
         21   -1    0    0  502  501  0.00000000000E+00  0.00000000000E+00  0.12520717112E+03  0.12520717112E+03  0.00000000000E+00 0.  1.
         21   -1    0    0  503  502 -0.00000000000E+00 -0.00000000000E+00 -0.19605089891E+03  0.19605089891E+03  0.00000000000E+00 0. -1.
         21    1    1    2  503  504 -0.27823291881E+02 -0.42096100735E+01 -0.19343880950E+03  0.19547488178E+03  0.00000000000E+00 0. -1.
         21    1    1    2  504  501  0.27823291881E+02  0.42096100735E+01  0.12259508170E+03  0.12578318825E+03  0.00000000000E+00 0.  1.
</event>
<event>
 4    1  0.1551744E+006  0.4571421E+02  0.7546771E-02  0.1317906E+00
         21   -1    0    0  503  501  0.00000000000E+00  0.00000000000E+00  0.74587884103E+02  0.74587884103E+02  0.00000000000E+00 0.  1.
         21   -1    0    0  504  502 -0.00000000000E+00 -0.00000000000E+00 -0.11831346673E+03  0.11831346673E+03  0.00000000000E+00 0. -1.
         21    1    1    2  503  502  0.13897720814E+02  0.43550459073E+02 -0.10612282238E+03  0.11555017334E+03  0.00000000000E+00 0. -1.
         21    1    1    2  504  501 -0.13897720814E+02 -0.43550459073E+02  0.62397239757E+02  0.77351177487E+02  0.00000000000E+00 0.  1.
</event>
<event>
 4    1  0.1551744E+006  0.2826966E+02  0.7546771E-02  0.1435255E+00
         21   -1    0    0  502  501  0.00000000000E+00  0.00000000000E+00  0.23701733777E+03  0.23701733777E+03  0.00000000000E+00 0.  1.
         21   -1    0    0  504  502 -0.00000000000E+00 -0.00000000000E+00 -0.41100048079E+01  0.41100048079E+01  0.00000000000E+00 0.  1.
         21    1    1    2  503  501 -0.70711671541E+01 -0.27371009228E+02  0.16754951386E+03  0.16991766579E+03  0.00000000000E+00 0.  1.
         21    1    1    2  504  503  0.70711671541E+01  0.27371009228E+02  0.65357819093E+02  0.71209676784E+02  0.00000000000E+00 0.  1.
</event>
<event>
 4    1  0.1551744E+006  0.2566181E+02  0.7546771E-02  0.1461534E+00
         21   -1    0    0  504  501  0.00000000000E+00  0.00000000000E+00  0.78826023894E+03  0.78826023894E+03  0.00000000000E+00 0. -1.
         21   -1    0    0  503  502 -0.00000000000E+00 -0.00000000000E+00 -0.48417596457E+01  0.48417596457E+01  0.00000000000E+00 0.  1.
         21    1    1    2  503  501  0.36428801690E+01 -0.25401927432E+02  0.75243014243E+03  0.75286761634E+03  0.00000000000E+00 0. -1.
         21    1    1    2  504  502 -0.36428801690E+01  0.25401927432E+02  0.30988336863E+02  0.40234382246E+02  0.00000000000E+00 0.  1.
</event>
<event>
 4    1  0.1551744E+006  0.2031005E+02  0.7546771E-02  0.1529348E+00
         21   -1    0    0  503  501  0.00000000000E+00  0.00000000000E+00  0.19340360889E+03  0.19340360889E+03  0.00000000000E+00 0.  1.
         21   -1    0    0  504  502 -0.00000000000E+00 -0.00000000000E+00 -0.59977502372E+01  0.59977502372E+01  0.00000000000E+00 0.  1.
         21    1    1    2  503  502 -0.17052744773E+02  0.11031859828E+02  0.13669043627E+02  0.24481437646E+02  0.00000000000E+00 0.  1.
         21    1    1    2  504  501  0.17052744773E+02 -0.11031859828E+02  0.17373681502E+03  0.17491992148E+03  0.00000000000E+00 0.  1.
</event>
<event>
 4    1  0.1551744E+006  0.4779598E+02  0.7546771E-02  0.1308022E+00
         21   -1    0    0  503  501  0.00000000000E+00  0.00000000000E+00  0.42640411774E+02  0.42640411774E+02  0.00000000000E+00 0.  1.
         21   -1    0    0  504  502 -0.00000000000E+00 -0.00000000000E+00 -0.58085939418E+02  0.58085939418E+02  0.00000000000E+00 0.  1.
         21    1    1    2  503  502 -0.43789744886E+02  0.19154991898E+02  0.63123608712E+01  0.48211008821E+02  0.00000000000E+00 0.  1.
         21    1    1    2  504  501  0.43789744886E+02 -0.19154991898E+02 -0.21757888515E+02  0.52515342372E+02  0.00000000000E+00 0.  1.
</event>
<event>
 4    1  0.1551744E+006  0.3044516E+02  0.7546771E-02  0.1415767E+00
         21   -1    0    0  502  501  0.00000000000E+00  0.00000000000E+00  0.34257459544E+02  0.34257459544E+02  0.00000000000E+00 0. -1.
         21   -1    0    0  503  502 -0.00000000000E+00 -0.00000000000E+00 -0.91851159969E+02  0.91851159969E+02  0.00000000000E+00 0. -1.
         21    1    1    2  503  504 -0.27923154734E+02 -0.12132810685E+02 -0.81755881766E+02  0.87240654908E+02  0.00000000000E+00 0. -1.
         21    1    1    2  504  501  0.27923154734E+02  0.12132810685E+02  0.24162181340E+02  0.38867964605E+02  0.00000000000E+00 0. -1.
</event>
<event>
 4    1  0.1551744E+006  0.3315386E+02  0.7546771E-02  0.1394028E+00
         21   -1    0    0  504  501  0.00000000000E+00  0.00000000000E+00  0.38057419765E+02  0.38057419765E+02  0.00000000000E+00 0. -1.
         21   -1    0    0  503  502 -0.00000000000E+00 -0.00000000000E+00 -0.29552928243E+02  0.29552928243E+02  0.00000000000E+00 0. -1.
         21    1    1    2  503  501 -0.14516382192E+02 -0.29806933024E+02 -0.84088870250E+00  0.33164524752E+02  0.00000000000E+00 0. -1.
         21    1    1    2  504  502  0.14516382192E+02  0.29806933024E+02  0.93453802241E+01  0.34445823256E+02  0.00000000000E+00 0. -1.
</event>
<event>
 4    1  0.1551744E+006  0.3067082E+02  0.7546771E-02  0.1413855E+00
         21   -1    0    0  504  501  0.00000000000E+00  0.00000000000E+00  0.11319152376E+02  0.11319152376E+02  0.00000000000E+00 0.  1.
         21   -1    0    0  503  502 -0.00000000000E+00 -0.00000000000E+00 -0.97608955829E+02  0.97608955829E+02  0.00000000000E+00 0.  1.
         21    1    1    2  503  501  0.24785598368E+01 -0.30570508219E+02 -0.22151612405E+02  0.37833756935E+02  0.00000000000E+00 0.  1.
         21    1    1    2  504  502 -0.24785598368E+01  0.30570508219E+02 -0.64138191048E+02  0.71094351270E+02  0.00000000000E+00 0.  1.
</event>
<event>
 4    1  0.1551744E+006  0.2241725E+02  0.7546771E-02  0.1499948E+00
         21   -1    0    0  504  501  0.00000000000E+00  0.00000000000E+00  0.45167136423E+02  0.45167136423E+02  0.00000000000E+00 0. -1.
         21   -1    0    0  501  502 -0.00000000000E+00 -0.00000000000E+00 -0.15899573501E+03  0.15899573501E+03  0.00000000000E+00 0. -1.
         21    1    1    2  503  502 -0.13274475775E+02  0.18064368365E+02 -0.15535927678E+03  0.15696827066E+03  0.00000000000E+00 0. -1.
         21    1    1    2  504  503  0.13274475775E+02 -0.18064368365E+02  0.41530678191E+02  0.47194600777E+02  0.00000000000E+00 0. -1.
</event>
<event>
 4    1  0.1551744E+006  0.2421885E+02  0.7546771E-02  0.1477735E+00
         21   -1    0    0  504  501  0.00000000000E+00  0.00000000000E+00  0.21979340392E+01  0.21979340392E+01  0.00000000000E+00 0. -1.
         21   -1    0    0  503  502 -0.00000000000E+00 -0.00000000000E+00 -0.63099083423E+03  0.63099083423E+03  0.00000000000E+00 0. -1.
         21    1    1    2  503  501  0.23792923900E+02  0.45221026913E+01 -0.73895296510E+02  0.77762892736E+02  0.00000000000E+00 0. -1.
         21    1    1    2  504  502 -0.23792923900E+02 -0.45221026913E+01 -0.55489760368E+03  0.55542587554E+03  0.00000000000E+00 0. -1.
</event>
<event>
 4    1  0.1551744E+006  0.3588444E+02  0.7546771E-02  0.1374450E+00
         21   -1    0    0  503  501  0.00000000000E+00  0.00000000000E+00  0.83064085529E+01  0.83064085529E+01  0.00000000000E+00 0.  1.
         21   -1    0    0  504  502 -0.00000000000E+00 -0.00000000000E+00 -0.26135561261E+03  0.26135561261E+03  0.00000000000E+00 0.  1.
         21    1    1    2  503  502  0.17690451381E+02  0.31220836550E+02 -0.21252591232E+03  0.21553411821E+03  0.00000000000E+00 0.  1.
         21    1    1    2  504  501 -0.17690451381E+02 -0.31220836550E+02 -0.40523291737E+02  0.54127902954E+02  0.00000000000E+00 0.  1.
</event>
<event>
 4    1  0.1551744E+006  0.2786619E+02  0.7546771E-02  0.1439096E+00
         21   -1    0    0  504  501  0.00000000000E+00  0.00000000000E+00  0.45988597845E+03  0.45988597845E+03  0.00000000000E+00 0.  1.
         21   -1    0    0  503  502 -0.00000000000E+00 -0.00000000000E+00 -0.45779355165E+02  0.45779355165E+02  0.00000000000E+00 0. -1.
         21    1    1    2  503  501 -0.27511546124E+02 -0.44316640871E+01  0.45517945909E+03  0.45603164890E+03  0.00000000000E+00 0.  1.
         21    1    1    2  504  502  0.27511546124E+02  0.44316640871E+01 -0.41072835811E+02  0.49633684713E+02  0.00000000000E+00 0. -1.
</event>
<event>
 4    1  0.1551744E+006  0.2309852E+02  0.7546771E-02  0.1491265E+00
         21   -1    0    0  503  501  0.00000000000E+00  0.00000000000E+00  0.16893891919E+02  0.16893891919E+02  0.00000000000E+00 0. -1.
         21   -1    0    0  504  502 -0.00000000000E+00 -0.00000000000E+00 -0.36497884714E+02  0.36497884714E+02  0.00000000000E+00 0.  1.
         21    1    1    2  503  502  0.23091376337E+02  0.57423493927E+00 -0.19599496206E+02  0.30293260941E+02  0.00000000000E+00 0.  1.
         21    1    1    2  504  501 -0.23091376337E+02 -0.57423493927E+00 -0.44965894085E-02  0.23098515691E+02  0.00000000000E+00 0. -1.
</event>
<event>
 4    1  0.1551744E+006  0.2217752E+02  0.7546771E-02  0.1503093E+00
         21   -1    0    0  503  501  0.00000000000E+00  0.00000000000E+00  0.28973347808E+03  0.28973347808E+03  0.00000000000E+00 0.  1.
         21   -1    0    0  504  502 -0.00000000000E+00 -0.00000000000E+00 -0.11036049623E+03  0.11036049623E+03  0.00000000000E+00 0. -1.
         21    1    1    2  503  502  0.53148366386E+01  0.21531251160E+02  0.28818895166E+03  0.28904102499E+03  0.00000000000E+00 0.  1.
         21    1    1    2  504  501 -0.53148366386E+01 -0.21531251160E+02 -0.10881596982E+03  0.11105294932E+03  0.00000000000E+00 0. -1.
</event>
<event>
 4    1  0.1551744E+006  0.2449158E+02  0.7546771E-02  0.1474572E+00
         21   -1    0    0  504  501  0.00000000000E+00  0.00000000000E+00  0.51100121680E+01  0.51100121680E+01  0.00000000000E+00 0.  1.
         21   -1    0    0  503  502 -0.00000000000E+00 -0.00000000000E+00 -0.85973567726E+03  0.85973567726E+03  0.00000000000E+00 0. -1.
         21    1    1    2  503  501 -0.17936355952E+02  0.16677062531E+02 -0.25493530368E+02  0.35351907588E+02  0.00000000000E+00 0.  1.
         21    1    1    2  504  502  0.17936355952E+02 -0.16677062531E+02 -0.82913213472E+03  0.82949378184E+03  0.00000000000E+00 0. -1.
</event>
<event>
 4    1  0.1551744E+006  0.2027262E+02  0.7546771E-02  0.1529908E+00
         21   -1    0    0  503  501  0.00000000000E+00  0.00000000000E+00  0.10172660633E+04  0.10172660633E+04  0.00000000000E+00 0.  1.
         21   -1    0    0  504  502 -0.00000000000E+00 -0.00000000000E+00 -0.40218662620E+01  0.40218662620E+01  0.00000000000E+00 0. -1.
         21    1    1    2  503  502 -0.73693223945E+01  0.18885769991E+02  0.22304304919E+02  0.30140690745E+02  0.00000000000E+00 0. -1.
         21    1    1    2  504  501  0.73693223945E+01 -0.18885769991E+02  0.99093989211E+03  0.99114723880E+03  0.00000000000E+00 0.  1.
</event>
<event>
 4    1  0.1551744E+006  0.2415618E+02  0.7546771E-02  0.1478469E+00
         21   -1    0    0  504  501  0.00000000000E+00  0.00000000000E+00  0.36244228589E+01  0.36244228589E+01  0.00000000000E+00 0. -1.
         21   -1    0    0  503  502 -0.00000000000E+00 -0.00000000000E+00 -0.20266232960E+03  0.20266232960E+03  0.00000000000E+00 0. -1.
         21    1    1    2  503  501 -0.20821949228E+02  0.12246117126E+02 -0.14628628616E+03  0.14826732099E+03  0.00000000000E+00 0. -1.
         21    1    1    2  504  502  0.20821949228E+02 -0.12246117126E+02 -0.52751620579E+02  0.58019431469E+02  0.00000000000E+00 0. -1.
</event>
<event>
 4    1  0.1551744E+006  0.4172543E+02  0.7546771E-02  0.1338661E+00
         21   -1    0    0  502  501  0.00000000000E+00  0.00000000000E+00  0.61427587072E+02  0.61427587072E+02  0.00000000000E+00 0.  1.
         21   -1    0    0  503  502 -0.00000000000E+00 -0.00000000000E+00 -0.34174463523E+03  0.34174463523E+03  0.00000000000E+00 0.  1.
         21    1    1    2  503  504  0.13394068104E+02  0.39517217082E+02 -0.33320448892E+03  0.33580685363E+03  0.00000000000E+00 0.  1.
         21    1    1    2  504  501 -0.13394068104E+02 -0.39517217082E+02  0.52887440763E+02  0.67365368675E+02  0.00000000000E+00 0.  1.
</event>
<event>
 4    1  0.1551744E+006  0.2032853E+02  0.7546771E-02  0.1529071E+00
         21   -1    0    0  503  501  0.00000000000E+00  0.00000000000E+00  0.52108728813E+03  0.52108728813E+03  0.00000000000E+00 0. -1.
         21   -1    0    0  504  502 -0.00000000000E+00 -0.00000000000E+00 -0.19450322793E+01  0.19450322793E+01  0.00000000000E+00 0. -1.
         21    1    1    2  503  502 -0.24850980929E+01 -0.20176064534E+02  0.58311041396E+02  0.61752950062E+02  0.00000000000E+00 0. -1.
         21    1    1    2  504  501  0.24850980929E+01  0.20176064534E+02  0.46083121445E+03  0.46127937035E+03  0.00000000000E+00 0. -1.
</event>
<event>
 4    1  0.1551744E+006  0.3063936E+02  0.7546771E-02  0.1414120E+00
         21   -1    0    0  504  501  0.00000000000E+00  0.00000000000E+00  0.82935940150E+01  0.82935940150E+01  0.00000000000E+00 0. -1.
         21   -1    0    0  503  502 -0.00000000000E+00 -0.00000000000E+00 -0.23810746879E+03  0.23810746879E+03  0.00000000000E+00 0. -1.
         21    1    1    2  503  501  0.30204284011E+02 -0.51450839484E+01 -0.20414162932E+03  0.20642813637E+03  0.00000000000E+00 0. -1.
         21    1    1    2  504  502 -0.30204284011E+02  0.51450839484E+01 -0.25672245451E+02  0.39972926437E+02  0.00000000000E+00 0. -1.
</event>
<event>
 4    1  0.1551744E+006  0.2890510E+02  0.7546771E-02  0.1429356E+00
         21   -1    0    0  502  501  0.00000000000E+00  0.00000000000E+00  0.54256421089E+02  0.54256421089E+02  0.00000000000E+00 0.  1.
         21   -1    0    0  503  502 -0.00000000000E+00 -0.00000000000E+00 -0.17682832882E+02  0.17682832882E+02  0.00000000000E+00 0. -1.
         21    1    1    2  503  504  0.28796406946E+02 -0.25043667797E+01  0.53604961545E+01  0.29397956136E+02  0.00000000000E+00 0. -1.
         21    1    1    2  504  501 -0.28796406946E+02  0.25043667797E+01  0.31213092053E+02  0.42541297835E+02  0.00000000000E+00 0.  1.
</event>
<event>
 4    1  0.1551744E+006  0.3995309E+02  0.7546771E-02  0.1348761E+00
         21   -1    0    0  504  501  0.00000000000E+00  0.00000000000E+00  0.68653802308E+02  0.68653802308E+02  0.00000000000E+00 0.  1.
         21   -1    0    0  503  502 -0.00000000000E+00 -0.00000000000E+00 -0.58346281201E+02  0.58346281201E+02  0.00000000000E+00 0.  1.
         21    1    1    2  503  501 -0.39181953293E+02 -0.78117566469E+01  0.54402331831E+02  0.67497131157E+02  0.00000000000E+00 0.  1.
         21    1    1    2  504  502  0.39181953293E+02  0.78117566469E+01 -0.44094810724E+02  0.59502952352E+02  0.00000000000E+00 0.  1.
</event>
<event>
 4    1  0.1551744E+006  0.3039540E+02  0.7546771E-02  0.1416191E+00
         21   -1    0    0  503  501  0.00000000000E+00  0.00000000000E+00  0.77572355751E+01  0.77572355751E+01  0.00000000000E+00 0.  1.
         21   -1    0    0  504  502 -0.00000000000E+00 -0.00000000000E+00 -0.12242305981E+03  0.12242305981E+03  0.00000000000E+00 0. -1.
         21    1    1    2  503  502 -0.16372470513E+02  0.25609029504E+02 -0.46607645596E+02  0.55643084124E+02  0.00000000000E+00 0.  1.
         21    1    1    2  504  501  0.16372470513E+02 -0.25609029504E+02 -0.68058178635E+02  0.74537211257E+02  0.00000000000E+00 0. -1.
</event>
<event>
 4    1  0.1551744E+006  0.2622612E+02  0.7546771E-02  0.1455541E+00
         21   -1    0    0  504  501  0.00000000000E+00  0.00000000000E+00  0.28554251703E+03  0.28554251703E+03  0.00000000000E+00 0. -1.
         21   -1    0    0  503  502 -0.00000000000E+00 -0.00000000000E+00 -0.87678438331E+01  0.87678438331E+01  0.00000000000E+00 0. -1.
         21    1    1    2  503  501 -0.80500100724E+01  0.24960104924E+02  0.26370886925E+03  0.26500976816E+03  0.00000000000E+00 0. -1.
         21    1    1    2  504  502  0.80500100724E+01 -0.24960104924E+02  0.13065803950E+02  0.29300592704E+02  0.00000000000E+00 0. -1.
</event>
<event>
 4    1  0.1551744E+006  0.2274507E+02  0.7546771E-02  0.1495724E+00
         21   -1    0    0  504  501  0.00000000000E+00  0.00000000000E+00  0.32002228261E+03  0.32002228261E+03  0.00000000000E+00 0.  1.
         21   -1    0    0  503  502 -0.00000000000E+00 -0.00000000000E+00 -0.26610557083E+01  0.26610557083E+01  0.00000000000E+00 0.  1.
         21    1    1    2  503  501  0.17148972345E+02 -0.14941579269E+02  0.25976196933E+03  0.26075586044E+03  0.00000000000E+00 0.  1.
         21    1    1    2  504  502 -0.17148972345E+02  0.14941579269E+02  0.57599257569E+02  0.61927477876E+02  0.00000000000E+00 0.  1.
</event>
<event>
 4    1  0.1551744E+006  0.2000159E+02  0.7546771E-02  0.1534011E+00
         21   -1    0    0  502  501  0.00000000000E+00  0.00000000000E+00  0.79756825231E+03  0.79756825231E+03  0.00000000000E+00 0. -1.
         21   -1    0    0  503  502 -0.00000000000E+00 -0.00000000000E+00 -0.41530327248E+01  0.41530327248E+01  0.00000000000E+00 0.  1.
         21    1    1    2  503  504 -0.11119888973E+02  0.16625629771E+02  0.20833727030E+02  0.28880922389E+02  0.00000000000E+00 0.  1.
         21    1    1    2  504  501  0.11119888973E+02 -0.16625629771E+02  0.77258149256E+03  0.77284036265E+03  0.00000000000E+00 0. -1.
</event>
<event>
 4    1  0.1551744E+006  0.2829509E+02  0.7546771E-02  0.1435015E+00
         21   -1    0    0  502  501  0.00000000000E+00  0.00000000000E+00  0.65540646152E+02  0.65540646152E+02  0.00000000000E+00 0. -1.
         21   -1    0    0  503  502 -0.00000000000E+00 -0.00000000000E+00 -0.12823394508E+02  0.12823394508E+02  0.00000000000E+00 0. -1.
         21    1    1    2  503  504 -0.66122628763E+01 -0.27511639401E+02  0.17827695740E+02  0.33443071902E+02  0.00000000000E+00 0. -1.
         21    1    1    2  504  501  0.66122628763E+01  0.27511639401E+02  0.34889555904E+02  0.44920968757E+02  0.00000000000E+00 0. -1.
</event>
<event>
 4    1  0.1551744E+006  0.2683332E+02  0.7546771E-02  0.1449290E+00
         21   -1    0    0  504  501  0.00000000000E+00  0.00000000000E+00  0.61824726296E+02  0.61824726296E+02  0.00000000000E+00 0. -1.
         21   -1    0    0  501  502 -0.00000000000E+00 -0.00000000000E+00 -0.59831321208E+02  0.59831321208E+02  0.00000000000E+00 0. -1.
         21    1    1    2  503  502  0.21993245198E+02 -0.15372841786E+02 -0.53591098333E+02  0.59933570888E+02  0.00000000000E+00 0. -1.
         21    1    1    2  504  503 -0.21993245198E+02  0.15372841786E+02  0.55584503422E+02  0.61722476615E+02  0.00000000000E+00 0. -1.
</event>
<event>
 4    1  0.1551744E+006  0.3112775E+02  0.7546771E-02  0.1410043E+00
         21   -1    0    0  503  501  0.00000000000E+00  0.00000000000E+00  0.45522107858E+02  0.45522107858E+02  0.00000000000E+00 0.  1.
         21   -1    0    0  504  502 -0.00000000000E+00 -0.00000000000E+00 -0.52031858967E+02  0.52031858967E+02  0.00000000000E+00 0.  1.
         21    1    1    2  503  502  0.31127694523E+02  0.56485104294E-01  0.34240773774E+02  0.46274908379E+02  0.00000000000E+00 0.  1.
         21    1    1    2  504  501 -0.31127694523E+02 -0.56485104294E-01 -0.40750524882E+02  0.51279058445E+02  0.00000000000E+00 0.  1.
</event>
<event>
 4    1  0.1551744E+006  0.2140162E+02  0.7546771E-02  0.1513607E+00
         21   -1    0    0  504  501  0.00000000000E+00  0.00000000000E+00  0.70691877045E+01  0.70691877045E+01  0.00000000000E+00 0.  1.
         21   -1    0    0  503  502 -0.00000000000E+00 -0.00000000000E+00 -0.77754805667E+03  0.77754805667E+03  0.00000000000E+00 0. -1.
         21    1    1    2  503  501  0.76822945284E-01  0.21401481269E+02 -0.96316505228E+01  0.23469085923E+02  0.00000000000E+00 0.  1.
         21    1    1    2  504  502 -0.76822945284E-01 -0.21401481269E+02 -0.76084721844E+03  0.76114815845E+03  0.00000000000E+00 0. -1.
</event>
<event>
 4    1  0.1551744E+006  0.2222078E+02  0.7546771E-02  0.1502522E+00
         21   -1    0    0  503  501  0.00000000000E+00  0.00000000000E+00  0.15715446965E+02  0.15715446965E+02  0.00000000000E+00 0.  1.
         21   -1    0    0  504  502 -0.00000000000E+00 -0.00000000000E+00 -0.31575587767E+02  0.31575587767E+02  0.00000000000E+00 0.  1.
         21    1    1    2  503  502  0.22220397722E+02  0.13038425362E+00 -0.62647384133E+01  0.23087009819E+02  0.00000000000E+00 0.  1.
         21    1    1    2  504  501 -0.22220397722E+02 -0.13038425362E+00 -0.95954023888E+01  0.24204024913E+02  0.00000000000E+00 0.  1.
</event>
<event>
 4    1  0.1551744E+006  0.4594907E+02  0.7546771E-02  0.1316761E+00
         21   -1    0    0  503  501  0.00000000000E+00  0.00000000000E+00  0.16852247591E+02  0.16852247591E+02  0.00000000000E+00 0.  1.
         21   -1    0    0  504  502 -0.00000000000E+00 -0.00000000000E+00 -0.23305583830E+03  0.23305583830E+03  0.00000000000E+00 0.  1.
         21    1    1    2  503  502 -0.41742739998E+02 -0.19205752802E+02 -0.19307322573E+03  0.19846558335E+03  0.00000000000E+00 0.  1.
         21    1    1    2  504  501  0.41742739998E+02  0.19205752802E+02 -0.23130364986E+02  0.51442502541E+02  0.00000000000E+00 0.  1.
</event>
<event>
 4    1  0.1551744E+006  0.2083703E+02  0.7546771E-02  0.1521604E+00
         21   -1    0    0  504  501  0.00000000000E+00  0.00000000000E+00  0.64177937089E+03  0.64177937089E+03  0.00000000000E+00 0. -1.
         21   -1    0    0  501  502 -0.00000000000E+00 -0.00000000000E+00 -0.84132843477E+02  0.84132843477E+02  0.00000000000E+00 0. -1.
         21    1    1    2  503  502  0.14623169068E+02 -0.14844016403E+02 -0.82670598260E+02  0.85256141792E+02  0.00000000000E+00 0. -1.
         21    1    1    2  504  503 -0.14623169068E+02  0.14844016403E+02  0.64031712567E+03  0.64065607257E+03  0.00000000000E+00 0. -1.
</event>
<event>
 4    1  0.1551744E+006  0.3521450E+02  0.7546771E-02  0.1379061E+00
         21   -1    0    0  502  501  0.00000000000E+00  0.00000000000E+00  0.69302656350E+03  0.69302656350E+03  0.00000000000E+00 0. -1.
         21   -1    0    0  503  502 -0.00000000000E+00 -0.00000000000E+00 -0.17435472792E+02  0.17435472792E+02  0.00000000000E+00 0.  1.
         21    1    1    2  503  504  0.21173758475E+02  0.28137749753E+02  0.12859091376E+01  0.35237970592E+02  0.00000000000E+00 0.  1.
         21    1    1    2  504  501 -0.21173758475E+02 -0.28137749753E+02  0.67430518157E+03  0.67522406570E+03  0.00000000000E+00 0. -1.
</event>
<event>
 4    1  0.1551744E+006  0.2035404E+02  0.7546771E-02  0.1528691E+00
         21   -1    0    0  504  501  0.00000000000E+00  0.00000000000E+00  0.32871479989E+01  0.32871479989E+01  0.00000000000E+00 0. -1.
         21   -1    0    0  503  502 -0.00000000000E+00 -0.00000000000E+00 -0.15874061868E+03  0.15874061868E+03  0.00000000000E+00 0. -1.
         21    1    1    2  503  501 -0.15716502576E+02 -0.12933616230E+02 -0.40952436032E+02  0.45731705620E+02  0.00000000000E+00 0. -1.
         21    1    1    2  504  502  0.15716502576E+02  0.12933616230E+02 -0.11450103465E+03  0.11629606106E+03  0.00000000000E+00 0. -1.
</event>
<event>
 4    1  0.1551744E+006  0.2666521E+02  0.7546771E-02  0.1451000E+00
         21   -1    0    0  504  501  0.00000000000E+00  0.00000000000E+00  0.60711333332E+01  0.60711333332E+01  0.00000000000E+00 0.  1.
         21   -1    0    0  501  502 -0.00000000000E+00 -0.00000000000E+00 -0.54280921995E+03  0.54280921995E+03  0.00000000000E+00 0. -1.
         21    1    1    2  503  502  0.24432704150E+02  0.10680648577E+02 -0.51140577050E+03  0.51210047392E+03  0.00000000000E+00 0. -1.
         21    1    1    2  504  503 -0.24432704150E+02 -0.10680648577E+02 -0.25332316109E+02  0.36779879357E+02  0.00000000000E+00 0.  1.
</event>
<event>
 4    1  0.1551744E+006  0.2021426E+02  0.7546771E-02  0.1530785E+00
         21   -1    0    0  504  501  0.00000000000E+00  0.00000000000E+00  0.98322343145E+02  0.98322343145E+02  0.00000000000E+00 0.  1.
         21   -1    0    0  503  502 -0.00000000000E+00 -0.00000000000E+00 -0.39991777479E+02  0.39991777479E+02  0.00000000000E+00 0.  1.
         21    1    1    2  503  501 -0.19705269932E+02  0.45076091293E+01  0.94630451656E+02  0.96765379055E+02  0.00000000000E+00 0.  1.
         21    1    1    2  504  502  0.19705269932E+02 -0.45076091293E+01 -0.36299885989E+02  0.41548741569E+02  0.00000000000E+00 0.  1.
</event>
<event>
 4    1  0.1551744E+006  0.2408866E+02  0.7546771E-02  0.1479262E+00
         21   -1    0    0  503  501  0.00000000000E+00  0.00000000000E+00  0.30846468324E+03  0.30846468324E+03  0.00000000000E+00 0. -1.
         21   -1    0    0  504  502 -0.00000000000E+00 -0.00000000000E+00 -0.35031291123E+02  0.35031291123E+02  0.00000000000E+00 0.  1.
         21    1    1    2  503  502 -0.14590406136E+02 -0.19167249809E+02 -0.30356345606E+02  0.38752691971E+02  0.00000000000E+00 0.  1.
         21    1    1    2  504  501  0.14590406136E+02  0.19167249809E+02  0.30378973772E+03  0.30474328239E+03  0.00000000000E+00 0. -1.
</event>
<event>
 4    1  0.1551744E+006  0.2090422E+02  0.7546771E-02  0.1520637E+00
         21   -1    0    0  504  501  0.00000000000E+00  0.00000000000E+00  0.11678723949E+02  0.11678723949E+02  0.00000000000E+00 0.  1.
         21   -1    0    0  503  502 -0.00000000000E+00 -0.00000000000E+00 -0.40738007693E+02  0.40738007693E+02  0.00000000000E+00 0.  1.
         21    1    1    2  503  501 -0.20841565149E+02  0.16172644587E+01 -0.22012284636E+02  0.30356664130E+02  0.00000000000E+00 0.  1.
         21    1    1    2  504  502  0.20841565149E+02 -0.16172644587E+01 -0.70469991077E+01  0.22060067512E+02  0.00000000000E+00 0.  1.
</event>
<event>
 4    1  0.1551744E+006  0.2099770E+02  0.7546771E-02  0.1519298E+00
         21   -1    0    0  504  501  0.00000000000E+00  0.00000000000E+00  0.54968967356E+01  0.54968967356E+01  0.00000000000E+00 0. -1.
         21   -1    0    0  503  502 -0.00000000000E+00 -0.00000000000E+00 -0.11395377725E+03  0.11395377725E+03  0.00000000000E+00 0. -1.
         21    1    1    2  503  501  0.10523330497E+02  0.18170380934E+02 -0.86729269430E+02  0.89234911352E+02  0.00000000000E+00 0. -1.
         21    1    1    2  504  502 -0.10523330497E+02 -0.18170380934E+02 -0.21727611081E+02  0.30215762630E+02  0.00000000000E+00 0. -1.
</event>
<event>
 4    1  0.1551744E+006  0.2504396E+02  0.7546771E-02  0.1468312E+00
         21   -1    0    0  504  501  0.00000000000E+00  0.00000000000E+00  0.73810867709E+01  0.73810867709E+01  0.00000000000E+00 0.  1.
         21   -1    0    0  503  502 -0.00000000000E+00 -0.00000000000E+00 -0.13977378710E+03  0.13977378710E+03  0.00000000000E+00 0.  1.
         21    1    1    2  503  501  0.24987191872E+02 -0.16853301796E+01 -0.11226669089E+03  0.11502612738E+03  0.00000000000E+00 0.  1.
         21    1    1    2  504  502 -0.24987191872E+02  0.16853301796E+01 -0.20126009440E+02  0.32128746497E+02  0.00000000000E+00 0.  1.
</event>
<event>
 4    1  0.1551744E+006  0.2814084E+02  0.7546771E-02  0.1436473E+00
         21   -1    0    0  503  501  0.00000000000E+00  0.00000000000E+00  0.26019619895E+03  0.26019619895E+03  0.00000000000E+00 0. -1.
         21   -1    0    0  504  502 -0.00000000000E+00 -0.00000000000E+00 -0.33625272376E+01  0.33625272376E+01  0.00000000000E+00 0. -1.
         21    1    1    2  503  502 -0.15426218584E+02  0.23535896741E+02  0.16900782424E+03  0.17133461795E+03  0.00000000000E+00 0. -1.
         21    1    1    2  504  501  0.15426218584E+02 -0.23535896741E+02  0.87825847478E+02  0.92224108238E+02  0.00000000000E+00 0. -1.
</event>
<event>
 4    1  0.1551744E+006  0.2073091E+02  0.7546771E-02  0.1523142E+00
         21   -1    0    0  504  501  0.00000000000E+00  0.00000000000E+00  0.18453701839E+03  0.18453701839E+03  0.00000000000E+00 0.  1.
         21   -1    0    0  503  502 -0.00000000000E+00 -0.00000000000E+00 -0.25164165429E+01  0.25164165429E+01  0.00000000000E+00 0.  1.
         21    1    1    2  503  501 -0.17160449852E+02  0.11631399317E+02  0.11654026738E+03  0.11836977828E+03  0.00000000000E+00 0.  1.
         21    1    1    2  504  502  0.17160449852E+02 -0.11631399317E+02  0.65480334468E+02  0.68683656653E+02  0.00000000000E+00 0.  1.
</event>
<event>
 4    1  0.1551744E+006  0.2348992E+02  0.7546771E-02  0.1486436E+00
         21   -1    0    0  504  501  0.00000000000E+00  0.00000000000E+00  0.13175015596E+03  0.13175015596E+03  0.00000000000E+00 0.  1.
         21   -1    0    0  501  502 -0.00000000000E+00 -0.00000000000E+00 -0.21163071182E+02  0.21163071182E+02  0.00000000000E+00 0.  1.
         21    1    1    2  503  502  0.78180994829E+01 -0.22150704761E+02 -0.13181271225E+02  0.26935521381E+02  0.00000000000E+00 0.  1.
         21    1    1    2  504  503 -0.78180994829E+01  0.22150704761E+02  0.12376835601E+03  0.12597770576E+03  0.00000000000E+00 0.  1.
</event>
<event>
 4    1  0.1551744E+006  0.2113494E+02  0.7546771E-02  0.1517347E+00
         21   -1    0    0  503  501  0.00000000000E+00  0.00000000000E+00  0.10831601111E+02  0.10831601111E+02  0.00000000000E+00 0. -1.
         21   -1    0    0  504  502 -0.00000000000E+00 -0.00000000000E+00 -0.41354663007E+02  0.41354663007E+02  0.00000000000E+00 0. -1.
         21    1    1    2  503  502 -0.17961454688E+02  0.11138760024E+02 -0.16640685728E+02  0.26899781614E+02  0.00000000000E+00 0. -1.
         21    1    1    2  504  501  0.17961454688E+02 -0.11138760024E+02 -0.13882376168E+02  0.25286482504E+02  0.00000000000E+00 0. -1.
</event>
<event>
 4    1  0.1551744E+006  0.2022287E+02  0.7546771E-02  0.1530656E+00
         21   -1    0    0  504  501  0.00000000000E+00  0.00000000000E+00  0.35940386928E+02  0.35940386928E+02  0.00000000000E+00 0. -1.
         21   -1    0    0  503  502 -0.00000000000E+00 -0.00000000000E+00 -0.36500449942E+03  0.36500449942E+03  0.00000000000E+00 0.  1.
         21    1    1    2  503  501 -0.19958561708E+02 -0.32588936505E+01  0.32790793842E+02  0.38525325878E+02  0.00000000000E+00 0. -1.
         21    1    1    2  504  502  0.19958561708E+02  0.32588936505E+01 -0.36185490633E+03  0.36241956047E+03  0.00000000000E+00 0.  1.
</event>
<event>
 4    1  0.1551744E+006  0.2726085E+02  0.7546771E-02  0.1445005E+00
         21   -1    0    0  503  501  0.00000000000E+00  0.00000000000E+00  0.20752522114E+03  0.20752522114E+03  0.00000000000E+00 0. -1.
         21   -1    0    0  504  502 -0.00000000000E+00 -0.00000000000E+00 -0.40321652920E+02  0.40321652920E+02  0.00000000000E+00 0.  1.
         21    1    1    2  503  502  0.63347543965E+01 -0.26514617667E+02  0.20189437492E+03  0.20372651445E+03  0.00000000000E+00 0. -1.
         21    1    1    2  504  501 -0.63347543965E+01  0.26514617667E+02 -0.34690806699E+02  0.44120359617E+02  0.00000000000E+00 0.  1.
</event>
<event>
 4    1  0.1551744E+006  0.2096714E+02  0.7546771E-02  0.1519734E+00
         21   -1    0    0  504  501  0.00000000000E+00  0.00000000000E+00  0.73255928296E+01  0.73255928296E+01  0.00000000000E+00 0. -1.
         21   -1    0    0  503  502 -0.00000000000E+00 -0.00000000000E+00 -0.13297442213E+04  0.13297442213E+04  0.00000000000E+00 0. -1.
         21    1    1    2  503  501 -0.15768077089E+02  0.13819869635E+02 -0.13144844962E+04  0.13146517074E+04  0.00000000000E+00 0. -1.
         21    1    1    2  504  502  0.15768077089E+02 -0.13819869635E+02 -0.79341321974E+01  0.22418106644E+02  0.00000000000E+00 0. -1.
</event>
<event>
 4    1  0.1551744E+006  0.7204419E+02  0.7546771E-02  0.1223629E+00
         21   -1    0    0  503  501  0.00000000000E+00  0.00000000000E+00  0.17089118424E+03  0.17089118424E+03  0.00000000000E+00 0. -1.
         21   -1    0    0  501  502 -0.00000000000E+00 -0.00000000000E+00 -0.41841400477E+03  0.41841400477E+03  0.00000000000E+00 0. -1.
         21    1    1    2  503  504 -0.67883684896E+02 -0.24128201123E+02  0.15999543307E+03  0.17546767043E+03  0.00000000000E+00 0. -1.
         21    1    1    2  504  502  0.67883684896E+02  0.24128201123E+02 -0.40751825360E+03  0.41383751857E+03  0.00000000000E+00 0. -1.
</event>
<event>
 4    1  0.1551744E+006  0.2509189E+02  0.7546771E-02  0.1467778E+00
         21   -1    0    0  504  501  0.00000000000E+00  0.00000000000E+00  0.75344672168E+02  0.75344672168E+02  0.00000000000E+00 0. -1.
         21   -1    0    0  501  502 -0.00000000000E+00 -0.00000000000E+00 -0.79802142750E+02  0.79802142750E+02  0.00000000000E+00 0.  1.
         21    1    1    2  503  502  0.15762536384E+00  0.25091397774E+02 -0.75628396877E+02  0.79682228271E+02  0.00000000000E+00 0.  1.
         21    1    1    2  504  503 -0.15762536384E+00 -0.25091397774E+02  0.71170926295E+02  0.75464586647E+02  0.00000000000E+00 0. -1.
</event>
<event>
 4    1  0.1551744E+006  0.2249428E+02  0.7546771E-02  0.1498948E+00
         21   -1    0    0  504  501  0.00000000000E+00  0.00000000000E+00  0.22572413471E+03  0.22572413471E+03  0.00000000000E+00 0.  1.
         21   -1    0    0  503  502 -0.00000000000E+00 -0.00000000000E+00 -0.14079390351E+02  0.14079390351E+02  0.00000000000E+00 0. -1.
         21    1    1    2  503  501 -0.18501472535E+02 -0.12794064008E+02  0.21576552966E+03  0.21693491270E+03  0.00000000000E+00 0.  1.
         21    1    1    2  504  502  0.18501472535E+02  0.12794064008E+02 -0.41207852997E+01  0.22868612360E+02  0.00000000000E+00 0. -1.
</event>
<event>
 4    1  0.1551744E+006  0.2689699E+02  0.7546771E-02  0.1448646E+00
         21   -1    0    0  503  501  0.00000000000E+00  0.00000000000E+00  0.70861986336E+03  0.70861986336E+03  0.00000000000E+00 0.  1.
         21   -1    0    0  504  502 -0.00000000000E+00 -0.00000000000E+00 -0.12391977119E+01  0.12391977119E+01  0.00000000000E+00 0.  1.
         21    1    1    2  503  502  0.84840877000E+01 -0.25523878556E+02  0.20472987014E+03  0.20648914705E+03  0.00000000000E+00 0.  1.
         21    1    1    2  504  501 -0.84840877000E+01  0.25523878556E+02  0.50265079551E+03  0.50336991402E+03  0.00000000000E+00 0.  1.
</event>
<event>
 4    1  0.1551744E+006  0.2280429E+02  0.7546771E-02  0.1494970E+00
         21   -1    0    0  504  501  0.00000000000E+00  0.00000000000E+00  0.26520646470E+02  0.26520646470E+02  0.00000000000E+00 0.  1.
         21   -1    0    0  503  502 -0.00000000000E+00 -0.00000000000E+00 -0.17055473775E+03  0.17055473775E+03  0.00000000000E+00 0.  1.
         21    1    1    2  503  501 -0.24368360017E+01 -0.22673719357E+02  0.20683295800E+02  0.30786920020E+02  0.00000000000E+00 0.  1.
         21    1    1    2  504  502  0.24368360017E+01  0.22673719357E+02 -0.16471738708E+03  0.16628846420E+03  0.00000000000E+00 0.  1.
</event>
<event>
 4    1  0.1551744E+006  0.2358732E+02  0.7546771E-02  0.1485252E+00
         21   -1    0    0  503  501  0.00000000000E+00  0.00000000000E+00  0.26032399073E+03  0.26032399073E+03  0.00000000000E+00 0. -1.
         21   -1    0    0  504  502 -0.00000000000E+00 -0.00000000000E+00 -0.89374483875E+01  0.89374483875E+01  0.00000000000E+00 0. -1.
         21    1    1    2  503  502 -0.12964689726E+02  0.19704782963E+02  0.82575760373E+01  0.24990982640E+02  0.00000000000E+00 0. -1.
         21    1    1    2  504  501  0.12964689726E+02 -0.19704782963E+02  0.24312896630E+03  0.24427045648E+03  0.00000000000E+00 0. -1.
</event>
<event>
 4    1  0.1551744E+006  0.2123979E+02  0.7546771E-02  0.1515869E+00
         21   -1    0    0  502  501  0.00000000000E+00  0.00000000000E+00  0.10488651048E+03  0.10488651048E+03  0.00000000000E+00 0. -1.
         21   -1    0    0  503  502 -0.00000000000E+00 -0.00000000000E+00 -0.59495707262E+01  0.59495707262E+01  0.00000000000E+00 0. -1.
         21    1    1    2  503  504  0.16599752336E+02 -0.13250549580E+02  0.20297751651E+02  0.29379032725E+02  0.00000000000E+00 0. -1.
         21    1    1    2  504  501 -0.16599752336E+02  0.13250549580E+02  0.78639188108E+02  0.81457048486E+02  0.00000000000E+00 0. -1.
</event>
<event>
 4    1  0.1551744E+006  0.3531781E+02  0.7546771E-02  0.1378343E+00
         21   -1    0    0  503  501  0.00000000000E+00  0.00000000000E+00  0.83492443061E+02  0.83492443061E+02  0.00000000000E+00 0. -1.
         21   -1    0    0  504  502 -0.00000000000E+00 -0.00000000000E+00 -0.43279638021E+02  0.43279638021E+02  0.00000000000E+00 0.  1.
         21    1    1    2  503  502  0.35280270774E+02  0.16280502303E+01 -0.31185833164E+02  0.47115859788E+02  0.00000000000E+00 0. -1.
         21    1    1    2  504  501 -0.35280270774E+02 -0.16280502303E+01  0.71398638204E+02  0.79656221294E+02  0.00000000000E+00 0.  1.
</event>
<event>
 4    1  0.1551744E+006  0.2122548E+02  0.7546771E-02  0.1516070E+00
         21   -1    0    0  504  501  0.00000000000E+00  0.00000000000E+00  0.54297219131E+03  0.54297219131E+03  0.00000000000E+00 0.  1.
         21   -1    0    0  501  502 -0.00000000000E+00 -0.00000000000E+00 -0.32135226498E+01  0.32135226498E+01  0.00000000000E+00 0.  1.
         21    1    1    2  503  502  0.21136729206E+02  0.19389419942E+01  0.34670401050E+02  0.40651660809E+02  0.00000000000E+00 0.  1.
         21    1    1    2  504  503 -0.21136729206E+02 -0.19389419942E+01  0.50508826761E+03  0.50553405315E+03  0.00000000000E+00 0.  1.
</event>
<event>
 4    1  0.1551744E+006  0.2077137E+02  0.7546771E-02  0.1522554E+00
         21   -1    0    0  504  501  0.00000000000E+00  0.00000000000E+00  0.73216637485E+02  0.73216637485E+02  0.00000000000E+00 0. -1.
         21   -1    0    0  503  502 -0.00000000000E+00 -0.00000000000E+00 -0.72709033379E+01  0.72709033379E+01  0.00000000000E+00 0. -1.
         21    1    1    2  503  501 -0.19234574237E+02 -0.78409709243E+01  0.50493437127E+02  0.54598872370E+02  0.00000000000E+00 0. -1.
         21    1    1    2  504  502  0.19234574237E+02  0.78409709243E+01  0.15452297020E+02  0.25888668454E+02  0.00000000000E+00 0. -1.
</event>
<event>
 4    1  0.1551744E+006  0.2111754E+02  0.7546771E-02  0.1517593E+00
         21   -1    0    0  503  501  0.00000000000E+00  0.00000000000E+00  0.15176962259E+02  0.15176962259E+02  0.00000000000E+00 0.  1.
         21   -1    0    0  501  502 -0.00000000000E+00 -0.00000000000E+00 -0.61247208864E+03  0.61247208864E+03  0.00000000000E+00 0. -1.
         21    1    1    2  503  504  0.88136972409E+01 -0.19190340340E+02  0.75565683441E+01  0.22428824012E+02  0.00000000000E+00 0.  1.
         21    1    1    2  504  502 -0.88136972409E+01  0.19190340340E+02 -0.60485169473E+03  0.60522022689E+03  0.00000000000E+00 0. -1.
</event>
<event>
 4    1  0.1551744E+006  0.2426371E+02  0.7546771E-02  0.1477211E+00
         21   -1    0    0  504  501  0.00000000000E+00  0.00000000000E+00  0.31576871976E+02  0.31576871976E+02  0.00000000000E+00 0.  1.
         21   -1    0    0  503  502 -0.00000000000E+00 -0.00000000000E+00 -0.19124323500E+02  0.19124323500E+02  0.00000000000E+00 0.  1.
         21    1    1    2  503  501 -0.70902041648E+01 -0.23204667035E+02  0.22098251200E+01  0.24364131307E+02  0.00000000000E+00 0.  1.
         21    1    1    2  504  502  0.70902041648E+01  0.23204667035E+02  0.10242723356E+02  0.26337064169E+02  0.00000000000E+00 0.  1.
</event>
<event>
 4    1  0.1551744E+006  0.2042356E+02  0.7546771E-02  0.1527656E+00
         21   -1    0    0  502  501  0.00000000000E+00  0.00000000000E+00  0.64260186348E+02  0.64260186348E+02  0.00000000000E+00 0. -1.
         21   -1    0    0  503  502 -0.00000000000E+00 -0.00000000000E+00 -0.13213643539E+02  0.13213643539E+02  0.00000000000E+00 0. -1.
         21    1    1    2  503  504 -0.19489161655E+02  0.61069195010E+01 -0.21066242901E+01  0.20531920361E+02  0.00000000000E+00 0. -1.
         21    1    1    2  504  501  0.19489161655E+02 -0.61069195010E+01  0.53153167099E+02  0.56941909526E+02  0.00000000000E+00 0. -1.
</event>
<event>
 4    1  0.1551744E+006  0.4426866E+02  0.7546771E-02  0.1325137E+00
         21   -1    0    0  503  501  0.00000000000E+00  0.00000000000E+00  0.82161125102E+02  0.82161125102E+02  0.00000000000E+00 0.  1.
         21   -1    0    0  501  502 -0.00000000000E+00 -0.00000000000E+00 -0.11186362486E+03  0.11186362486E+03  0.00000000000E+00 0.  1.
         21    1    1    2  503  504  0.35387881770E+02 -0.26597225932E+02  0.71199069882E+02  0.83839263806E+02  0.00000000000E+00 0.  1.
         21    1    1    2  504  502 -0.35387881770E+02  0.26597225932E+02 -0.10090156964E+03  0.11018548616E+03  0.00000000000E+00 0.  1.
</event>
<event>
 4    1  0.1551744E+006  0.2350727E+02  0.7546771E-02  0.1486225E+00
         21   -1    0    0  504  501  0.00000000000E+00  0.00000000000E+00  0.21486974415E+02  0.21486974415E+02  0.00000000000E+00 0.  1.
         21   -1    0    0  503  502 -0.00000000000E+00 -0.00000000000E+00 -0.27747307798E+02  0.27747307798E+02  0.00000000000E+00 0. -1.
         21    1    1    2  503  501  0.22996831183E+02  0.48721182451E+01 -0.97882937343E+01  0.25463748249E+02  0.00000000000E+00 0. -1.
         21    1    1    2  504  502 -0.22996831183E+02 -0.48721182451E+01  0.35279603512E+01  0.23770533963E+02  0.00000000000E+00 0.  1.
</event>
<event>
 4    1  0.1551744E+006  0.2022484E+02  0.7546771E-02  0.1530626E+00
         21   -1    0    0  504  501  0.00000000000E+00  0.00000000000E+00  0.15177456241E+04  0.15177456241E+04  0.00000000000E+00 0.  1.
         21   -1    0    0  503  502 -0.00000000000E+00 -0.00000000000E+00 -0.27829367908E+00  0.27829367908E+00  0.00000000000E+00 0. -1.
         21    1    1    2  503  501  0.40760839552E+01 -0.19809843263E+02  0.62387201262E+03  0.62419975367E+03  0.00000000000E+00 0.  1.
         21    1    1    2  504  502 -0.40760839552E+01  0.19809843263E+02  0.89359531784E+03  0.89382416415E+03  0.00000000000E+00 0. -1.
</event>
<event>
 4    1  0.1551744E+006  0.2581742E+02  0.7546771E-02  0.1459863E+00
         21   -1    0    0  502  501  0.00000000000E+00  0.00000000000E+00  0.89354865200E+01  0.89354865200E+01  0.00000000000E+00 0.  1.
         21   -1    0    0  504  502 -0.00000000000E+00 -0.00000000000E+00 -0.90301095910E+02  0.90301095910E+02  0.00000000000E+00 0. -1.
         21    1    1    2  503  501 -0.18197693298E+01 -0.25753202310E+02 -0.19989253386E+02  0.32651328312E+02  0.00000000000E+00 0.  1.
         21    1    1    2  504  503  0.18197693298E+01  0.25753202310E+02 -0.61376356005E+02  0.66585254118E+02  0.00000000000E+00 0. -1.
</event>
<event>
 4    1  0.1551744E+006  0.2120882E+02  0.7546771E-02  0.1516304E+00
         21   -1    0    0  503  501  0.00000000000E+00  0.00000000000E+00  0.85859768114E+02  0.85859768114E+02  0.00000000000E+00 0. -1.
         21   -1    0    0  504  502 -0.00000000000E+00 -0.00000000000E+00 -0.26043688303E+03  0.26043688303E+03  0.00000000000E+00 0. -1.
         21    1    1    2  503  502  0.14082501756E+01 -0.21162019886E+02  0.84109397394E+02  0.86742175349E+02  0.00000000000E+00 0. -1.
         21    1    1    2  504  501 -0.14082501756E+01  0.21162019886E+02 -0.25868651231E+03  0.25955447579E+03  0.00000000000E+00 0. -1.
</event>
<event>
 4    1  0.1551744E+006  0.2369197E+02  0.7546771E-02  0.1483987E+00
         21   -1    0    0  504  501  0.00000000000E+00  0.00000000000E+00  0.22980011438E+02  0.22980011438E+02  0.00000000000E+00 0.  1.
         21   -1    0    0  503  502 -0.00000000000E+00 -0.00000000000E+00 -0.40888256810E+02  0.40888256810E+02  0.00000000000E+00 0. -1.
         21    1    1    2  503  501  0.23278010643E+02 -0.44094905327E+01  0.11308737488E+02  0.26252560443E+02  0.00000000000E+00 0.  1.
         21    1    1    2  504  502 -0.23278010643E+02  0.44094905327E+01 -0.29216982860E+02  0.37615707805E+02  0.00000000000E+00 0. -1.
</event>
<event>
 4    1  0.1551744E+006  0.2338844E+02  0.7546771E-02  0.1487677E+00
         21   -1    0    0  503  501  0.00000000000E+00  0.00000000000E+00  0.62291626066E+01  0.62291626066E+01  0.00000000000E+00 0. -1.
         21   -1    0    0  504  502 -0.00000000000E+00 -0.00000000000E+00 -0.15901880408E+03  0.15901880408E+03  0.00000000000E+00 0. -1.
         21    1    1    2  503  502 -0.11964925738E+02  0.20096259871E+02 -0.21106812789E+02  0.31504232332E+02  0.00000000000E+00 0. -1.
         21    1    1    2  504  501  0.11964925738E+02 -0.20096259871E+02 -0.13168282868E+03  0.13374373435E+03  0.00000000000E+00 0. -1.
</event>
<event>
 4    1  0.1551744E+006  0.2047528E+02  0.7546771E-02  0.1526890E+00
         21   -1    0    0  504  501  0.00000000000E+00  0.00000000000E+00  0.13710702613E+03  0.13710702613E+03  0.00000000000E+00 0.  1.
         21   -1    0    0  503  502 -0.00000000000E+00 -0.00000000000E+00 -0.49222460541E+02  0.49222460541E+02  0.00000000000E+00 0.  1.
         21    1    1    2  503  501 -0.72530401607E+01 -0.19147593856E+02  0.13416690275E+03  0.13572028123E+03  0.00000000000E+00 0.  1.
         21    1    1    2  504  502  0.72530401607E+01  0.19147593856E+02 -0.46282337166E+02  0.50609205443E+02  0.00000000000E+00 0.  1.
</event>
<event>
 4    1  0.1551744E+006  0.4012430E+02  0.7546771E-02  0.1347759E+00
         21   -1    0    0  503  501  0.00000000000E+00  0.00000000000E+00  0.26072632128E+02  0.26072632128E+02  0.00000000000E+00 0. -1.
         21   -1    0    0  504  502 -0.00000000000E+00 -0.00000000000E+00 -0.53781300178E+03  0.53781300178E+03  0.00000000000E+00 0.  1.
         21    1    1    2  503  502 -0.10863588474E+02 -0.38625662734E+02  0.93936539090E+01  0.41209223603E+02  0.00000000000E+00 0. -1.
         21    1    1    2  504  501  0.10863588474E+02  0.38625662734E+02 -0.52113402356E+03  0.52267641030E+03  0.00000000000E+00 0.  1.
</event>
<event>
 4    1  0.1551744E+006  0.2779544E+02  0.7546771E-02  0.1439777E+00
         21   -1    0    0  502  501  0.00000000000E+00  0.00000000000E+00  0.57789219407E+03  0.57789219407E+03  0.00000000000E+00 0. -1.
         21   -1    0    0  503  502 -0.00000000000E+00 -0.00000000000E+00 -0.19144288506E+03  0.19144288506E+03  0.00000000000E+00 0. -1.
         21    1    1    2  503  504  0.19978088411E+02  0.19325179465E+02 -0.19009740632E+03  0.19211874054E+03  0.00000000000E+00 0. -1.
         21    1    1    2  504  501 -0.19978088411E+02 -0.19325179465E+02  0.57654671533E+03  0.57721633859E+03  0.00000000000E+00 0. -1.
</event>
<event>
 4    1  0.1551744E+006  0.4476396E+02  0.7546771E-02  0.1322624E+00
         21   -1    0    0  504  501  0.00000000000E+00  0.00000000000E+00  0.85003809955E+01  0.85003809955E+01  0.00000000000E+00 0. -1.
         21   -1    0    0  503  502 -0.00000000000E+00 -0.00000000000E+00 -0.23707356462E+03  0.23707356462E+03  0.00000000000E+00 0. -1.
         21    1    1    2  503  501  0.43986691863E+02  0.83055872358E+01 -0.10504990960E+03  0.11418973399E+03  0.00000000000E+00 0. -1.
         21    1    1    2  504  502 -0.43986691863E+02 -0.83055872358E+01 -0.12352327402E+03  0.13138421163E+03  0.00000000000E+00 0. -1.
</event>
<event>
 4    1  0.1551744E+006  0.2038670E+02  0.7546771E-02  0.1528204E+00
         21   -1    0    0  504  501  0.00000000000E+00  0.00000000000E+00  0.33971275019E+02  0.33971275019E+02  0.00000000000E+00 0.  1.
         21   -1    0    0  503  502 -0.00000000000E+00 -0.00000000000E+00 -0.15266967482E+02  0.15266967482E+02  0.00000000000E+00 0.  1.
         21    1    1    2  503  501 -0.19573170307E+02 -0.57016092018E+01 -0.16202840931E+01  0.20450981979E+02  0.00000000000E+00 0.  1.
         21    1    1    2  504  502  0.19573170307E+02  0.57016092018E+01  0.20324591631E+02  0.28787260521E+02  0.00000000000E+00 0.  1.
</event>
<event>
 4    1  0.1551744E+006  0.3063869E+02  0.7546771E-02  0.1414126E+00
         21   -1    0    0  504  501  0.00000000000E+00  0.00000000000E+00  0.27925373793E+03  0.27925373793E+03  0.00000000000E+00 0.  1.
         21   -1    0    0  503  502 -0.00000000000E+00 -0.00000000000E+00 -0.47666806329E+01  0.47666806329E+01  0.00000000000E+00 0.  1.
         21    1    1    2  503  501  0.28194023851E+02 -0.11992752202E+02  0.60141136544E+02  0.67495817582E+02  0.00000000000E+00 0.  1.
         21    1    1    2  504  502 -0.28194023851E+02  0.11992752202E+02  0.21434592075E+03  0.21652460098E+03  0.00000000000E+00 0.  1.
</event>
<event>
 4    1  0.1551744E+006  0.2611272E+02  0.7546771E-02  0.1456730E+00
         21   -1    0    0  502  501  0.00000000000E+00  0.00000000000E+00  0.41536974300E+01  0.41536974300E+01  0.00000000000E+00 0.  1.
         21   -1    0    0  504  502 -0.00000000000E+00 -0.00000000000E+00 -0.35163128984E+03  0.35163128984E+03  0.00000000000E+00 0.  1.
         21    1    1    2  503  501  0.19278879642E+02  0.17612465584E+02 -0.43847406099E+02  0.51034000097E+02  0.00000000000E+00 0.  1.
         21    1    1    2  504  503 -0.19278879642E+02 -0.17612465584E+02 -0.30363018631E+03  0.30475098717E+03  0.00000000000E+00 0.  1.
</event>
<event>
 4    1  0.1551744E+006  0.2392295E+02  0.7546771E-02  0.1481223E+00
         21   -1    0    0  503  501  0.00000000000E+00  0.00000000000E+00  0.25810498086E+03  0.25810498086E+03  0.00000000000E+00 0. -1.
         21   -1    0    0  504  502 -0.00000000000E+00 -0.00000000000E+00 -0.27464312099E+02  0.27464312099E+02  0.00000000000E+00 0.  1.
         21    1    1    2  503  502  0.53939559134E+01  0.23306929644E+02  0.25221980123E+03  0.25335180256E+03  0.00000000000E+00 0. -1.
         21    1    1    2  504  501 -0.53939559134E+01 -0.23306929644E+02 -0.21579132464E+02  0.32217490401E+02  0.00000000000E+00 0.  1.
</event>
<event>
 4    1  0.1551744E+006  0.4425699E+02  0.7546771E-02  0.1325197E+00
         21   -1    0    0  504  501  0.00000000000E+00  0.00000000000E+00  0.42256534549E+02  0.42256534549E+02  0.00000000000E+00 0.  1.
         21   -1    0    0  503  502 -0.00000000000E+00 -0.00000000000E+00 -0.27713464570E+03  0.27713464570E+03  0.00000000000E+00 0. -1.
         21    1    1    2  503  501 -0.14121071389E+02 -0.41943732312E+02 -0.26316904819E+03  0.26686443986E+03  0.00000000000E+00 0. -1.
         21    1    1    2  504  502  0.14121071389E+02  0.41943732312E+02  0.28290937037E+02  0.52526740389E+02  0.00000000000E+00 0.  1.
</event>
<event>
 4    1  0.1551744E+006  0.2111863E+02  0.7546771E-02  0.1517578E+00
         21   -1    0    0  503  501  0.00000000000E+00  0.00000000000E+00  0.81586970337E+02  0.81586970337E+02  0.00000000000E+00 0. -1.
         21   -1    0    0  504  502 -0.00000000000E+00 -0.00000000000E+00 -0.24474066459E+03  0.24474066459E+03  0.00000000000E+00 0.  1.
         21    1    1    2  503  502 -0.16451081080E+02 -0.13242301825E+02  0.79754469596E+02  0.82503163860E+02  0.00000000000E+00 0. -1.
         21    1    1    2  504  501  0.16451081080E+02  0.13242301825E+02 -0.24290816385E+03  0.24382447107E+03  0.00000000000E+00 0.  1.
</event>
<event>
 4    1  0.1551744E+006  0.2502559E+02  0.7546771E-02  0.1468517E+00
         21   -1    0    0  504  501  0.00000000000E+00  0.00000000000E+00  0.14526871640E+02  0.14526871640E+02  0.00000000000E+00 0. -1.
         21   -1    0    0  503  502 -0.00000000000E+00 -0.00000000000E+00 -0.24490584742E+03  0.24490584742E+03  0.00000000000E+00 0.  1.
         21    1    1    2  503  501 -0.17135037222E+02 -0.18239264020E+02 -0.23293633871E+03  0.23427679813E+03  0.00000000000E+00 0.  1.
         21    1    1    2  504  502  0.17135037222E+02  0.18239264020E+02  0.25573629275E+01  0.25155920928E+02  0.00000000000E+00 0. -1.
</event>
<event>
 4    1  0.1551744E+006  0.2215128E+02  0.7546771E-02  0.1503440E+00
         21   -1    0    0  503  501  0.00000000000E+00  0.00000000000E+00  0.46249867064E+00  0.46249867064E+00  0.00000000000E+00 0. -1.
         21   -1    0    0  504  502 -0.00000000000E+00 -0.00000000000E+00 -0.13072237555E+04  0.13072237555E+04  0.00000000000E+00 0.  1.
         21    1    1    2  503  502  0.39040680580E+01  0.21804528554E+02 -0.93718844197E+03  0.93745018800E+03  0.00000000000E+00 0.  1.
         21    1    1    2  504  501 -0.39040680580E+01 -0.21804528554E+02 -0.36957281483E+03  0.37023606614E+03  0.00000000000E+00 0. -1.
</event>
<event>
 4    1  0.1551744E+006  0.4475587E+02  0.7546771E-02  0.1322665E+00
         21   -1    0    0  502  501  0.00000000000E+00  0.00000000000E+00  0.77286889773E+02  0.77286889773E+02  0.00000000000E+00 0.  1.
         21   -1    0    0  503  502 -0.00000000000E+00 -0.00000000000E+00 -0.25966417772E+02  0.25966417772E+02  0.00000000000E+00 0.  1.
         21    1    1    2  503  504  0.36101900607E+02 -0.26452606428E+02  0.23420823334E+02  0.50513588072E+02  0.00000000000E+00 0.  1.
         21    1    1    2  504  501 -0.36101900607E+02  0.26452606428E+02  0.27899648667E+02  0.52739719473E+02  0.00000000000E+00 0.  1.
</event>
<event>
 4    1  0.1551744E+006  0.2709448E+02  0.7546771E-02  0.1446661E+00
         21   -1    0    0  502  501  0.00000000000E+00  0.00000000000E+00  0.24835685945E+02  0.24835685945E+02  0.00000000000E+00 0. -1.
         21   -1    0    0  504  502 -0.00000000000E+00 -0.00000000000E+00 -0.35997169278E+03  0.35997169278E+03  0.00000000000E+00 0.  1.
         21    1    1    2  503  501  0.21726260013E+02 -0.16188901087E+02  0.16766982708E+02  0.31862871837E+02  0.00000000000E+00 0. -1.
         21    1    1    2  504  503 -0.21726260013E+02  0.16188901087E+02 -0.35190298954E+03  0.35294450688E+03  0.00000000000E+00 0.  1.
</event>
<event>
 4    1  0.1551744E+006  0.3772237E+02  0.7546771E-02  0.1362375E+00
         21   -1    0    0  502  501  0.00000000000E+00  0.00000000000E+00  0.36573641499E+01  0.36573641499E+01  0.00000000000E+00 0.  1.
         21   -1    0    0  503  502 -0.00000000000E+00 -0.00000000000E+00 -0.75485773773E+03  0.75485773773E+03  0.00000000000E+00 0.  1.
         21    1    1    2  503  504  0.37631594289E+02  0.26154081298E+01 -0.63960702998E+03  0.64071844835E+03  0.00000000000E+00 0.  1.
         21    1    1    2  504  501 -0.37631594289E+02 -0.26154081298E+01 -0.11159334360E+03  0.11779665354E+03  0.00000000000E+00 0.  1.
</event>
<event>
 4    1  0.1551744E+006  0.3032595E+02  0.7546771E-02  0.1416785E+00
         21   -1    0    0  503  501  0.00000000000E+00  0.00000000000E+00  0.11843716834E+03  0.11843716834E+03  0.00000000000E+00 0.  1.
         21   -1    0    0  504  502 -0.00000000000E+00 -0.00000000000E+00 -0.53799803504E+02  0.53799803504E+02  0.00000000000E+00 0.  1.
         21    1    1    2  503  502  0.17482193024E+02 -0.24779758537E+02 -0.47342955548E+02  0.56222939679E+02  0.00000000000E+00 0.  1.
         21    1    1    2  504  501 -0.17482193024E+02  0.24779758537E+02  0.11198032038E+03  0.11601403216E+03  0.00000000000E+00 0.  1.
</event>
<event>
 4    1  0.1551744E+006  0.3775930E+02  0.7546771E-02  0.1362141E+00
         21   -1    0    0  504  501  0.00000000000E+00  0.00000000000E+00  0.63775225814E+02  0.63775225814E+02  0.00000000000E+00 0.  1.
         21   -1    0    0  501  502 -0.00000000000E+00 -0.00000000000E+00 -0.49615112370E+02  0.49615112370E+02  0.00000000000E+00 0.  1.
         21    1    1    2  503  502 -0.27338823106E+02 -0.26045215541E+02 -0.34943637389E+02  0.51447276851E+02  0.00000000000E+00 0.  1.
         21    1    1    2  504  503  0.27338823106E+02  0.26045215541E+02  0.49103750833E+02  0.61943061333E+02  0.00000000000E+00 0.  1.
</event>
<event>
 4    1  0.1551744E+006  0.3410504E+02  0.7546771E-02  0.1386966E+00
         21   -1    0    0  502  501  0.00000000000E+00  0.00000000000E+00  0.40017402120E+02  0.40017402120E+02  0.00000000000E+00 0.  1.
         21   -1    0    0  503  502 -0.00000000000E+00 -0.00000000000E+00 -0.57237196860E+02  0.57237196860E+02  0.00000000000E+00 0.  1.
         21    1    1    2  503  504  0.13522131166E+02  0.31309836096E+02 -0.42724637764E+02  0.54667618749E+02  0.00000000000E+00 0.  1.
         21    1    1    2  504  501 -0.13522131166E+02 -0.31309836096E+02  0.25504843024E+02  0.42586980232E+02  0.00000000000E+00 0.  1.
</event>
<event>
 4    1  0.1551744E+006  0.2135640E+02  0.7546771E-02  0.1514237E+00
         21   -1    0    0  502  501  0.00000000000E+00  0.00000000000E+00  0.38686177812E+03  0.38686177812E+03  0.00000000000E+00 0. -1.
         21   -1    0    0  504  502 -0.00000000000E+00 -0.00000000000E+00 -0.16457856321E+01  0.16457856321E+01  0.00000000000E+00 0. -1.
         21    1    1    2  503  501  0.61063905892E+01  0.20464794162E+02  0.29606471506E+03  0.29683397937E+03  0.00000000000E+00 0. -1.
         21    1    1    2  504  503 -0.61063905892E+01 -0.20464794162E+02  0.89151277430E+02  0.91673584382E+02  0.00000000000E+00 0. -1.
</event>
<event>
 4    1  0.1551744E+006  0.2739836E+02  0.7546771E-02  0.1443647E+00
         21   -1    0    0  503  501  0.00000000000E+00  0.00000000000E+00  0.47698607211E+03  0.47698607211E+03  0.00000000000E+00 0. -1.
         21   -1    0    0  504  502 -0.00000000000E+00 -0.00000000000E+00 -0.43695615771E+01  0.43695615771E+01  0.00000000000E+00 0. -1.
         21    1    1    2  503  502  0.40327658984E+01 -0.27099942844E+02  0.43791328694E+02  0.51656079717E+02  0.00000000000E+00 0. -1.
         21    1    1    2  504  501 -0.40327658984E+01  0.27099942844E+02  0.42882518184E+03  0.42969955397E+03  0.00000000000E+00 0. -1.
</event>
<event>
 4    1  0.1551744E+006  0.2879397E+02  0.7546771E-02  0.1430374E+00
         21   -1    0    0  504  501  0.00000000000E+00  0.00000000000E+00  0.18928460567E+02  0.18928460567E+02  0.00000000000E+00 0. -1.
         21   -1    0    0  503  502 -0.00000000000E+00 -0.00000000000E+00 -0.25250029396E+03  0.25250029396E+03  0.00000000000E+00 0. -1.
         21    1    1    2  503  501  0.17019579991E+02 -0.23225556920E+02 -0.24016882816E+03  0.24188873189E+03  0.00000000000E+00 0. -1.
         21    1    1    2  504  502 -0.17019579991E+02  0.23225556920E+02  0.65969947669E+01  0.29540022634E+02  0.00000000000E+00 0. -1.
</event>
<event>
 4    1  0.1551744E+006  0.2240163E+02  0.7546771E-02  0.1500152E+00
         21   -1    0    0  502  501  0.00000000000E+00  0.00000000000E+00  0.18706695431E+03  0.18706695431E+03  0.00000000000E+00 0. -1.
         21   -1    0    0  504  502 -0.00000000000E+00 -0.00000000000E+00 -0.11874578285E+02  0.11874578285E+02  0.00000000000E+00 0.  1.
         21    1    1    2  503  501  0.20479131140E+02 -0.90795550277E+01  0.17511268715E+03  0.17653975851E+03  0.00000000000E+00 0. -1.
         21    1    1    2  504  503 -0.20479131140E+02  0.90795550277E+01  0.79688866760E-01  0.22401774083E+02  0.00000000000E+00 0.  1.
</event>
<event>
 4    1  0.1551744E+006  0.2461428E+02  0.7546771E-02  0.1473165E+00
         21   -1    0    0  502  501  0.00000000000E+00  0.00000000000E+00  0.60633204296E+01  0.60633204296E+01  0.00000000000E+00 0. -1.
         21   -1    0    0  504  502 -0.00000000000E+00 -0.00000000000E+00 -0.14872448912E+03  0.14872448912E+03  0.00000000000E+00 0. -1.
         21    1    1    2  503  501 -0.82964252201E+01 -0.23173957527E+02 -0.26996916929E+02  0.36533498362E+02  0.00000000000E+00 0. -1.
         21    1    1    2  504  503  0.82964252201E+01  0.23173957527E+02 -0.11566425176E+03  0.11825431119E+03  0.00000000000E+00 0. -1.
</event>
<event>
 4    1  0.1551744E+006  0.2702671E+02  0.7546771E-02  0.1447340E+00
         21   -1    0    0  504  501  0.00000000000E+00  0.00000000000E+00  0.93627856264E+03  0.93627856264E+03  0.00000000000E+00 0.  1.
         21   -1    0    0  503  502 -0.00000000000E+00 -0.00000000000E+00 -0.72602869100E+01  0.72602869100E+01  0.00000000000E+00 0. -1.
         21    1    1    2  503  501  0.13630432972E+02  0.23337829086E+02  0.18806912777E+02  0.32926325906E+02  0.00000000000E+00 0. -1.
         21    1    1    2  504  502 -0.13630432972E+02 -0.23337829086E+02  0.91021136296E+03  0.91061252365E+03  0.00000000000E+00 0.  1.
</event>
<event>
 4    1  0.1551744E+006  0.2220490E+02  0.7546771E-02  0.1502731E+00
         21   -1    0    0  504  501  0.00000000000E+00  0.00000000000E+00  0.41651625235E+03  0.41651625235E+03  0.00000000000E+00 0.  1.
         21   -1    0    0  503  502 -0.00000000000E+00 -0.00000000000E+00 -0.27546750209E+01  0.27546750209E+01  0.00000000000E+00 0.  1.
         21    1    1    2  503  501  0.14021136327E+02 -0.17218166887E+02  0.48571949091E+02  0.53406851370E+02  0.00000000000E+00 0.  1.
         21    1    1    2  504  502 -0.14021136327E+02  0.17218166887E+02  0.36518962824E+03  0.36586407600E+03  0.00000000000E+00 0.  1.
</event>
<event>
 4    1  0.1551744E+006  0.2205529E+02  0.7546771E-02  0.1504714E+00
         21   -1    0    0  503  501  0.00000000000E+00  0.00000000000E+00  0.12864785512E+02  0.12864785512E+02  0.00000000000E+00 0. -1.
         21   -1    0    0  501  502 -0.00000000000E+00 -0.00000000000E+00 -0.73281210468E+02  0.73281210468E+02  0.00000000000E+00 0.  1.
         21    1    1    2  503  504 -0.52674301765E+01 -0.21417048467E+02 -0.24156866729E+00  0.22056612186E+02  0.00000000000E+00 0. -1.
         21    1    1    2  504  502  0.52674301765E+01  0.21417048467E+02 -0.60174856288E+02  0.64089383793E+02  0.00000000000E+00 0.  1.
</event>
<event>
 4    1  0.1551744E+006  0.2734170E+02  0.7546771E-02  0.1444206E+00
         21   -1    0    0  503  501  0.00000000000E+00  0.00000000000E+00  0.84250492297E+02  0.84250492297E+02  0.00000000000E+00 0.  1.
         21   -1    0    0  504  502 -0.00000000000E+00 -0.00000000000E+00 -0.97866294230E+01  0.97866294230E+01  0.00000000000E+00 0.  1.
         21    1    1    2  503  502  0.46634321449E+01 -0.26941067037E+02  0.22867180813E+02  0.35643746307E+02  0.00000000000E+00 0.  1.
         21    1    1    2  504  501 -0.46634321449E+01  0.26941067037E+02  0.51596682060E+02  0.58393375413E+02  0.00000000000E+00 0.  1.
</event>
<event>
 4    1  0.1551744E+006  0.4230272E+02  0.7546771E-02  0.1335496E+00
         21   -1    0    0  503  501  0.00000000000E+00  0.00000000000E+00  0.20756563155E+03  0.20756563155E+03  0.00000000000E+00 0. -1.
         21   -1    0    0  504  502 -0.00000000000E+00 -0.00000000000E+00 -0.60936183649E+02  0.60936183649E+02  0.00000000000E+00 0. -1.
         21    1    1    2  503  502  0.26243870972E+02  0.33177993493E+02 -0.51077017517E+02  0.66320296548E+02  0.00000000000E+00 0. -1.
         21    1    1    2  504  501 -0.26243870972E+02 -0.33177993493E+02  0.19770646542E+03  0.20218151865E+03  0.00000000000E+00 0. -1.
</event>
<event>
 4    1  0.1551744E+006  0.2071296E+02  0.7546771E-02  0.1523403E+00
         21   -1    0    0  503  501  0.00000000000E+00  0.00000000000E+00  0.98726685178E+01  0.98726685178E+01  0.00000000000E+00 0. -1.
         21   -1    0    0  504  502 -0.00000000000E+00 -0.00000000000E+00 -0.64360870722E+02  0.64360870722E+02  0.00000000000E+00 0. -1.
         21    1    1    2  503  502 -0.61040603986E+01 -0.19793111767E+02 -0.48397629007E+02  0.52643682625E+02  0.00000000000E+00 0. -1.
         21    1    1    2  504  501  0.61040603986E+01  0.19793111767E+02 -0.60905731970E+01  0.21589856615E+02  0.00000000000E+00 0. -1.
</event>
<event>
 4    1  0.1551744E+006  0.2695876E+02  0.7546771E-02  0.1448023E+00
         21   -1    0    0  503  501  0.00000000000E+00  0.00000000000E+00  0.45224577587E+02  0.45224577587E+02  0.00000000000E+00 0.  1.
         21   -1    0    0  501  502 -0.00000000000E+00 -0.00000000000E+00 -0.15227811690E+03  0.15227811690E+03  0.00000000000E+00 0.  1.
         21    1    1    2  503  504 -0.16790358148E+02  0.21091667125E+02  0.39868574211E+02  0.48127723387E+02  0.00000000000E+00 0.  1.
         21    1    1    2  504  502  0.16790358148E+02 -0.21091667125E+02 -0.14692211352E+03  0.14937497110E+03  0.00000000000E+00 0.  1.
</event>
<event>
 4    1  0.1551744E+006  0.2398975E+02  0.7546771E-02  0.1480430E+00
         21   -1    0    0  504  501  0.00000000000E+00  0.00000000000E+00  0.73797255276E+01  0.73797255276E+01  0.00000000000E+00 0. -1.
         21   -1    0    0  501  502 -0.00000000000E+00 -0.00000000000E+00 -0.86328621001E+02  0.86328621001E+02  0.00000000000E+00 0. -1.
         21    1    1    2  503  502 -0.11587726114E+02  0.21005540098E+02 -0.54040685674E+02  0.59126168652E+02  0.00000000000E+00 0. -1.
         21    1    1    2  504  503  0.11587726114E+02 -0.21005540098E+02 -0.24908209800E+02  0.34582177877E+02  0.00000000000E+00 0. -1.
</event>
<event>
 4    1  0.1551744E+006  0.2707694E+02  0.7546771E-02  0.1446837E+00
         21   -1    0    0  503  501  0.00000000000E+00  0.00000000000E+00  0.23588966925E+02  0.23588966925E+02  0.00000000000E+00 0.  1.
         21   -1    0    0  504  502 -0.00000000000E+00 -0.00000000000E+00 -0.45601723065E+02  0.45601723065E+02  0.00000000000E+00 0. -1.
         21    1    1    2  503  502  0.12286190977E+02 -0.24129028008E+02 -0.30528470244E+02  0.40806224731E+02  0.00000000000E+00 0. -1.
         21    1    1    2  504  501 -0.12286190977E+02  0.24129028008E+02  0.85157141045E+01  0.28384465259E+02  0.00000000000E+00 0.  1.
</event>
<event>
 4    1  0.1551744E+006  0.2197240E+02  0.7546771E-02  0.1505821E+00
         21   -1    0    0  502  501  0.00000000000E+00  0.00000000000E+00  0.30378945916E+02  0.30378945916E+02  0.00000000000E+00 0. -1.
         21   -1    0    0  503  502 -0.00000000000E+00 -0.00000000000E+00 -0.12177444249E+03  0.12177444249E+03  0.00000000000E+00 0.  1.
         21    1    1    2  503  504 -0.21971550791E+02  0.19347689800E+00 -0.11663677817E+03  0.11868835031E+03  0.00000000000E+00 0.  1.
         21    1    1    2  504  501  0.21971550791E+02 -0.19347689800E+00  0.25241281602E+02  0.33465038090E+02  0.00000000000E+00 0. -1.
</event>
<event>
 4    1  0.1551744E+006  0.2999273E+02  0.7546771E-02  0.1419660E+00
         21   -1    0    0  504  501  0.00000000000E+00  0.00000000000E+00  0.49921652925E+02  0.49921652925E+02  0.00000000000E+00 0. -1.
         21   -1    0    0  503  502 -0.00000000000E+00 -0.00000000000E+00 -0.63562762911E+02  0.63562762911E+02  0.00000000000E+00 0. -1.
         21    1    1    2  503  501  0.84970295697E+01 -0.28763937536E+02 -0.54851029961E+02  0.62515590870E+02  0.00000000000E+00 0. -1.
         21    1    1    2  504  502 -0.84970295697E+01  0.28763937536E+02  0.41209919974E+02  0.50968824966E+02  0.00000000000E+00 0. -1.
</event>
<event>
 4    1  0.1551744E+006  0.2408758E+02  0.7546771E-02  0.1479275E+00
         21   -1    0    0  503  501  0.00000000000E+00  0.00000000000E+00  0.47864899516E+01  0.47864899516E+01  0.00000000000E+00 0.  1.
         21   -1    0    0  504  502 -0.00000000000E+00 -0.00000000000E+00 -0.19120887873E+03  0.19120887873E+03  0.00000000000E+00 0.  1.
         21    1    1    2  503  502 -0.16399830075E+02  0.17642477753E+02 -0.33921289536E+02  0.41603669689E+02  0.00000000000E+00 0.  1.
         21    1    1    2  504  501  0.16399830075E+02 -0.17642477753E+02 -0.15250109924E+03  0.15439169900E+03  0.00000000000E+00 0.  1.
</event>
<event>
 4    1  0.1551744E+006  0.2074770E+02  0.7546771E-02  0.1522898E+00
         21   -1    0    0  504  501  0.00000000000E+00  0.00000000000E+00  0.10772673970E+03  0.10772673970E+03  0.00000000000E+00 0. -1.
         21   -1    0    0  503  502 -0.00000000000E+00 -0.00000000000E+00 -0.13392950860E+03  0.13392950860E+03  0.00000000000E+00 0.  1.
         21    1    1    2  503  501 -0.10824670715E+01  0.20719438667E+02  0.10591057916E+03  0.10792366586E+03  0.00000000000E+00 0. -1.
         21    1    1    2  504  502  0.10824670715E+01 -0.20719438667E+02 -0.13211334806E+03  0.13373258245E+03  0.00000000000E+00 0.  1.
</event>
<event>
 4    1  0.1551744E+006  0.3340967E+02  0.7546771E-02  0.1392102E+00
         21   -1    0    0  503  501  0.00000000000E+00  0.00000000000E+00  0.44363121433E+01  0.44363121433E+01  0.00000000000E+00 0.  1.
         21   -1    0    0  504  502 -0.00000000000E+00 -0.00000000000E+00 -0.25510900298E+03  0.25510900298E+03  0.00000000000E+00 0.  1.
         21    1    1    2  503  502 -0.44830434883E+01 -0.33107532012E+02 -0.14054147852E+03  0.14445799922E+03  0.00000000000E+00 0.  1.
         21    1    1    2  504  501  0.44830434883E+01  0.33107532012E+02 -0.11013121231E+03  0.11508731589E+03  0.00000000000E+00 0.  1.
</event>
<event>
 4    1  0.1551744E+006  0.2360266E+02  0.7546771E-02  0.1485066E+00
         21   -1    0    0  504  501  0.00000000000E+00  0.00000000000E+00  0.33142412658E+03  0.33142412658E+03  0.00000000000E+00 0.  1.
         21   -1    0    0  503  502 -0.00000000000E+00 -0.00000000000E+00 -0.17915830909E+01  0.17915830909E+01  0.00000000000E+00 0.  1.
         21    1    1    2  503  501  0.17717145797E+02  0.15594502071E+02  0.20623031293E+03  0.20757655870E+03  0.00000000000E+00 0.  1.
         21    1    1    2  504  502 -0.17717145797E+02 -0.15594502071E+02  0.12340223055E+03  0.12563915097E+03  0.00000000000E+00 0.  1.
</event>
<event>
 4    1  0.1551744E+006  0.2637369E+02  0.7546771E-02  0.1454003E+00
         21   -1    0    0  503  501  0.00000000000E+00  0.00000000000E+00  0.45058966001E+03  0.45058966001E+03  0.00000000000E+00 0. -1.
         21   -1    0    0  504  502 -0.00000000000E+00 -0.00000000000E+00 -0.18624321286E+01  0.18624321286E+01  0.00000000000E+00 0. -1.
         21    1    1    2  503  502  0.26291050623E+02 -0.20862233601E+01  0.31795173393E+03  0.31904369102E+03  0.00000000000E+00 0. -1.
         21    1    1    2  504  501 -0.26291050623E+02  0.20862233601E+01  0.13077549396E+03  0.13340840112E+03  0.00000000000E+00 0. -1.
</event>
<event>
 4    1  0.1551744E+006  0.2693902E+02  0.7546771E-02  0.1448222E+00
         21   -1    0    0  503  501  0.00000000000E+00  0.00000000000E+00  0.28604684399E+01  0.28604684399E+01  0.00000000000E+00 0. -1.
         21   -1    0    0  504  502 -0.00000000000E+00 -0.00000000000E+00 -0.59387003527E+03  0.59387003527E+03  0.00000000000E+00 0. -1.
         21    1    1    2  503  502 -0.17180500728E+02 -0.20749485762E+02 -0.69692090421E+02  0.74717456005E+02  0.00000000000E+00 0. -1.
         21    1    1    2  504  501  0.17180500728E+02  0.20749485762E+02 -0.52131747641E+03  0.52201304770E+03  0.00000000000E+00 0. -1.
</event>
<event>
 4    1  0.1551744E+006  0.2033830E+02  0.7546771E-02  0.1528925E+00
         21   -1    0    0  504  501  0.00000000000E+00  0.00000000000E+00  0.28161483055E+02  0.28161483055E+02  0.00000000000E+00 0.  1.
         21   -1    0    0  501  502 -0.00000000000E+00 -0.00000000000E+00 -0.38036876582E+02  0.38036876582E+02  0.00000000000E+00 0. -1.
         21    1    1    2  503  502 -0.16221815556E+02  0.12267814536E+02 -0.30870189585E+02  0.36967758634E+02  0.00000000000E+00 0. -1.
         21    1    1    2  504  503  0.16221815556E+02 -0.12267814536E+02  0.20994796058E+02  0.29230601002E+02  0.00000000000E+00 0.  1.
</event>
<event>
 4    1  0.1551744E+006  0.2256989E+02  0.7546771E-02  0.1497971E+00
         21   -1    0    0  504  501  0.00000000000E+00  0.00000000000E+00  0.93189799688E+02  0.93189799688E+02  0.00000000000E+00 0.  1.
         21   -1    0    0  503  502 -0.00000000000E+00 -0.00000000000E+00 -0.11309702297E+02  0.11309702297E+02  0.00000000000E+00 0.  1.
         21    1    1    2  503  501 -0.14641828582E+02  0.17176058731E+02  0.78497216416E+02  0.81677494592E+02  0.00000000000E+00 0.  1.
         21    1    1    2  504  502  0.14641828582E+02 -0.17176058731E+02  0.33828809747E+01  0.22822007393E+02  0.00000000000E+00 0.  1.
</event>
<event>
 4    1  0.1551744E+006  0.2194127E+02  0.7546771E-02  0.1506238E+00
         21   -1    0    0  503  501  0.00000000000E+00  0.00000000000E+00  0.10285763232E+03  0.10285763232E+03  0.00000000000E+00 0. -1.
         21   -1    0    0  504  502 -0.00000000000E+00 -0.00000000000E+00 -0.32797302777E+02  0.32797302777E+02  0.00000000000E+00 0.  1.
         21    1    1    2  503  502  0.68262412354E+01 -0.20852385199E+02 -0.27771322115E+02  0.35393020073E+02  0.00000000000E+00 0.  1.
         21    1    1    2  504  501 -0.68262412354E+01  0.20852385199E+02  0.97831651655E+02  0.10026191502E+03  0.00000000000E+00 0. -1.
</event>
<event>
 4    1  0.1551744E+006  0.2035801E+02  0.7546771E-02  0.1528631E+00
         21   -1    0    0  504  501  0.00000000000E+00  0.00000000000E+00  0.30622016500E+03  0.30622016500E+03  0.00000000000E+00 0.  1.
         21   -1    0    0  503  502 -0.00000000000E+00 -0.00000000000E+00 -0.77102773659E+01  0.77102773659E+01  0.00000000000E+00 0. -1.
         21    1    1    2  503  501  0.16888052705E+02 -0.11368477791E+02  0.29177934007E+03  0.29248868679E+03  0.00000000000E+00 0.  1.
         21    1    1    2  504  502 -0.16888052705E+02  0.11368477791E+02  0.67305475647E+01  0.21441755571E+02  0.00000000000E+00 0. -1.
</event>
<event>
 4    1  0.1551744E+006  0.2535346E+02  0.7546771E-02  0.1464888E+00
         21   -1    0    0  502  501  0.00000000000E+00  0.00000000000E+00  0.39416221240E+02  0.39416221240E+02  0.00000000000E+00 0.  1.
         21   -1    0    0  504  502 -0.00000000000E+00 -0.00000000000E+00 -0.35317780364E+02  0.35317780364E+02  0.00000000000E+00 0.  1.
         21    1    1    2  503  501 -0.24305678816E+02 -0.72133000341E+01  0.29463742217E+02  0.38870423532E+02  0.00000000000E+00 0.  1.
         21    1    1    2  504  503  0.24305678816E+02  0.72133000341E+01 -0.25365301340E+02  0.35863578073E+02  0.00000000000E+00 0.  1.
</event>
<event>
 4    1  0.1551744E+006  0.3600159E+02  0.7546771E-02  0.1373655E+00
         21   -1    0    0  503  501  0.00000000000E+00  0.00000000000E+00  0.28075006239E+01  0.28075006239E+01  0.00000000000E+00 0. -1.
         21   -1    0    0  504  502 -0.00000000000E+00 -0.00000000000E+00 -0.67512603713E+03  0.67512603713E+03  0.00000000000E+00 0. -1.
         21    1    1    2  503  502  0.34895100960E+02 -0.88569897689E+01 -0.52676141336E+03  0.52799024702E+03  0.00000000000E+00 0. -1.
         21    1    1    2  504  501 -0.34895100960E+02  0.88569897689E+01 -0.14555712314E+03  0.14994329074E+03  0.00000000000E+00 0. -1.
</event>
<event>
 4    1  0.1551744E+006  0.2858267E+02  0.7546771E-02  0.1432326E+00
         21   -1    0    0  504  501  0.00000000000E+00  0.00000000000E+00  0.25367945057E+01  0.25367945057E+01  0.00000000000E+00 0. -1.
         21   -1    0    0  503  502 -0.00000000000E+00 -0.00000000000E+00 -0.84608337376E+03  0.84608337376E+03  0.00000000000E+00 0. -1.
         21    1    1    2  503  501  0.25213619498E+02 -0.13462637004E+02 -0.87841981186E+02  0.92375228617E+02  0.00000000000E+00 0. -1.
         21    1    1    2  504  502 -0.25213619498E+02  0.13462637004E+02 -0.75570459807E+03  0.75624493965E+03  0.00000000000E+00 0. -1.
</event>
<event>
 4    1  0.1551744E+006  0.2768746E+02  0.7546771E-02  0.1440822E+00
         21   -1    0    0  504  501  0.00000000000E+00  0.00000000000E+00  0.45545216895E+02  0.45545216895E+02  0.00000000000E+00 0. -1.
         21   -1    0    0  503  502 -0.00000000000E+00 -0.00000000000E+00 -0.17555351579E+02  0.17555351579E+02  0.00000000000E+00 0. -1.
         21    1    1    2  503  501  0.59975563821E+01 -0.27030067702E+02  0.75884864347E+01  0.28708541741E+02  0.00000000000E+00 0. -1.
         21    1    1    2  504  502 -0.59975563821E+01  0.27030067702E+02  0.20401378881E+02  0.34392026733E+02  0.00000000000E+00 0. -1.
</event>
<event>
 4    1  0.1551744E+006  0.2231066E+02  0.7546771E-02  0.1501340E+00
         21   -1    0    0  503  501  0.00000000000E+00  0.00000000000E+00  0.36360426990E+03  0.36360426990E+03  0.00000000000E+00 0.  1.
         21   -1    0    0  504  502 -0.00000000000E+00 -0.00000000000E+00 -0.48082427435E+01  0.48082427435E+01  0.00000000000E+00 0.  1.
         21    1    1    2  503  502  0.22291653794E+02  0.92071603821E+00  0.33518963927E+03  0.33593133200E+03  0.00000000000E+00 0.  1.
         21    1    1    2  504  501 -0.22291653794E+02 -0.92071603821E+00  0.23606387893E+02  0.32481180648E+02  0.00000000000E+00 0.  1.
</event>
<event>
 4    1  0.1551744E+006  0.2048869E+02  0.7546771E-02  0.1526692E+00
         21   -1    0    0  502  501  0.00000000000E+00  0.00000000000E+00  0.20139797118E+01  0.20139797118E+01  0.00000000000E+00 0. -1.
         21   -1    0    0  503  502 -0.00000000000E+00 -0.00000000000E+00 -0.24125351663E+03  0.24125351663E+03  0.00000000000E+00 0. -1.
         21    1    1    2  503  504 -0.14343744066E+02 -0.14630227850E+02 -0.16448065667E+03  0.16575184156E+03  0.00000000000E+00 0. -1.
         21    1    1    2  504  501  0.14343744066E+02  0.14630227850E+02 -0.74758880245E+02  0.77515654782E+02  0.00000000000E+00 0. -1.
</event>
<event>
 4    1  0.1551744E+006  0.2119864E+02  0.7546771E-02  0.1516448E+00
         21   -1    0    0  503  501  0.00000000000E+00  0.00000000000E+00  0.11487620095E+01  0.11487620095E+01  0.00000000000E+00 0.  1.
         21   -1    0    0  501  502 -0.00000000000E+00 -0.00000000000E+00 -0.83136867489E+03  0.83136867489E+03  0.00000000000E+00 0.  1.
         21    1    1    2  503  504  0.11723018452E+01 -0.21166195703E+02 -0.11222206888E+03  0.11420671992E+03  0.00000000000E+00 0.  1.
         21    1    1    2  504  502 -0.11723018452E+01  0.21166195703E+02 -0.71799784400E+03  0.71831071698E+03  0.00000000000E+00 0.  1.
</event>
<event>
 4    1  0.1551744E+006  0.2062736E+02  0.7546771E-02  0.1524652E+00
         21   -1    0    0  504  501  0.00000000000E+00  0.00000000000E+00  0.11227121530E+03  0.11227121530E+03  0.00000000000E+00 0. -1.
         21   -1    0    0  501  502 -0.00000000000E+00 -0.00000000000E+00 -0.86292479195E+02  0.86292479195E+02  0.00000000000E+00 0. -1.
         21    1    1    2  503  502  0.13907297176E+02  0.15234004980E+02 -0.84087855378E+02  0.86580917323E+02  0.00000000000E+00 0. -1.
         21    1    1    2  504  503 -0.13907297176E+02 -0.15234004980E+02  0.11006659148E+03  0.11198277717E+03  0.00000000000E+00 0. -1.
</event>
<event>
 4    1  0.1551744E+006  0.2023931E+02  0.7546771E-02  0.1530408E+00
         21   -1    0    0  502  501  0.00000000000E+00  0.00000000000E+00  0.69416417202E+02  0.69416417202E+02  0.00000000000E+00 0. -1.
         21   -1    0    0  503  502 -0.00000000000E+00 -0.00000000000E+00 -0.14022643474E+03  0.14022643474E+03  0.00000000000E+00 0.  1.
         21    1    1    2  503  504 -0.24289300078E+00 -0.20237851363E+02 -0.13799716716E+03  0.13947346618E+03  0.00000000000E+00 0.  1.
         21    1    1    2  504  501  0.24289300078E+00  0.20237851363E+02  0.67187149618E+02  0.70169385764E+02  0.00000000000E+00 0. -1.
</event>
<event>
 4    1  0.1551744E+006  0.2547175E+02  0.7546771E-02  0.1463595E+00
         21   -1    0    0  503  501  0.00000000000E+00  0.00000000000E+00  0.20361429716E+03  0.20361429716E+03  0.00000000000E+00 0.  1.
         21   -1    0    0  504  502 -0.00000000000E+00 -0.00000000000E+00 -0.21399553048E+02  0.21399553048E+02  0.00000000000E+00 0. -1.
         21    1    1    2  503  502 -0.24591196757E+02 -0.66395017994E+01 -0.12685777584E+02  0.28455911424E+02  0.00000000000E+00 0. -1.
         21    1    1    2  504  501  0.24591196757E+02  0.66395017994E+01  0.19490052170E+03  0.19655793879E+03  0.00000000000E+00 0.  1.
</event>
<event>
 4    1  0.1551744E+006  0.4790713E+02  0.7546771E-02  0.1307511E+00
         21   -1    0    0  503  501  0.00000000000E+00  0.00000000000E+00  0.48145911291E+02  0.48145911291E+02  0.00000000000E+00 0.  1.
         21   -1    0    0  501  502 -0.00000000000E+00 -0.00000000000E+00 -0.17345042562E+03  0.17345042562E+03  0.00000000000E+00 0.  1.
         21    1    1    2  503  504  0.51696254718E+01 -0.47627390103E+02  0.31699985017E+02  0.57445472977E+02  0.00000000000E+00 0.  1.
         21    1    1    2  504  502 -0.51696254718E+01  0.47627390103E+02 -0.15700449935E+03  0.16415086394E+03  0.00000000000E+00 0.  1.
</event>
<event>
 4    1  0.1551744E+006  0.2087714E+02  0.7546771E-02  0.1521026E+00
         21   -1    0    0  502  501  0.00000000000E+00  0.00000000000E+00  0.73630810034E+03  0.73630810034E+03  0.00000000000E+00 0. -1.
         21   -1    0    0  504  502 -0.00000000000E+00 -0.00000000000E+00 -0.13777844656E+01  0.13777844656E+01  0.00000000000E+00 0. -1.
         21    1    1    2  503  501  0.48789929613E+01  0.20299021814E+02  0.64602428538E+03  0.64636153363E+03  0.00000000000E+00 0. -1.
         21    1    1    2  504  503 -0.48789929613E+01 -0.20299021814E+02  0.88906030499E+02  0.91324351178E+02  0.00000000000E+00 0. -1.
</event>
<event>
 4    1  0.1551744E+006  0.2207833E+02  0.7546771E-02  0.1504408E+00
         21   -1    0    0  504  501  0.00000000000E+00  0.00000000000E+00  0.50061387040E+01  0.50061387040E+01  0.00000000000E+00 0. -1.
         21   -1    0    0  503  502 -0.00000000000E+00 -0.00000000000E+00 -0.74966356453E+03  0.74966356453E+03  0.00000000000E+00 0.  1.
         21    1    1    2  503  501  0.19756918851E+02 -0.98547808845E+01 -0.20351179110E+02  0.30027038481E+02  0.00000000000E+00 0. -1.
         21    1    1    2  504  502 -0.19756918851E+02  0.98547808845E+01 -0.72430624672E+03  0.72464266475E+03  0.00000000000E+00 0.  1.
</event>
<event>
 4    1  0.1551744E+006  0.2262040E+02  0.7546771E-02  0.1497321E+00
         21   -1    0    0  503  501  0.00000000000E+00  0.00000000000E+00  0.49123392418E+02  0.49123392418E+02  0.00000000000E+00 0.  1.
         21   -1    0    0  504  502 -0.00000000000E+00 -0.00000000000E+00 -0.10454816162E+02  0.10454816162E+02  0.00000000000E+00 0.  1.
         21    1    1    2  503  502  0.20242518550E+02  0.10095695267E+02  0.17525539635E+02  0.28615156118E+02  0.00000000000E+00 0.  1.
         21    1    1    2  504  501 -0.20242518550E+02 -0.10095695267E+02  0.21143036621E+02  0.30963052461E+02  0.00000000000E+00 0.  1.
</event>
<event>
 4    1  0.1551744E+006  0.2302893E+02  0.7546771E-02  0.1492135E+00
         21   -1    0    0  504  501  0.00000000000E+00  0.00000000000E+00  0.34087657818E+03  0.34087657818E+03  0.00000000000E+00 0. -1.
         21   -1    0    0  503  502 -0.00000000000E+00 -0.00000000000E+00 -0.13226339428E+03  0.13226339428E+03  0.00000000000E+00 0. -1.
         21    1    1    2  503  501 -0.16385835088E+00 -0.23028349597E+02  0.33948109939E+03  0.34026129456E+03  0.00000000000E+00 0. -1.
         21    1    1    2  504  502  0.16385835088E+00  0.23028349597E+02 -0.13086791549E+03  0.13287867790E+03  0.00000000000E+00 0. -1.
</event>
<event>
 4    1  0.1551744E+006  0.2726342E+02  0.7546771E-02  0.1444980E+00
         21   -1    0    0  504  501  0.00000000000E+00  0.00000000000E+00  0.53095099156E+03  0.53095099156E+03  0.00000000000E+00 0.  1.
         21   -1    0    0  503  502 -0.00000000000E+00 -0.00000000000E+00 -0.25335628838E+01  0.25335628838E+01  0.00000000000E+00 0.  1.
         21    1    1    2  503  501  0.22886189711E+02 -0.14816080442E+02  0.44263643893E+03  0.44347526536E+03  0.00000000000E+00 0.  1.
         21    1    1    2  504  502 -0.22886189711E+02  0.14816080442E+02  0.85780989742E+02  0.90009289078E+02  0.00000000000E+00 0.  1.
</event>
<event>
 4    1  0.1551744E+006  0.3052843E+02  0.7546771E-02  0.1415059E+00
         21   -1    0    0  504  501  0.00000000000E+00  0.00000000000E+00  0.31883832830E+03  0.31883832830E+03  0.00000000000E+00 0. -1.
         21   -1    0    0  503  502 -0.00000000000E+00 -0.00000000000E+00 -0.25004686457E+03  0.25004686457E+03  0.00000000000E+00 0. -1.
         21    1    1    2  503  501  0.21586834822E+02  0.21586882229E+02  0.31717086447E+03  0.31863669310E+03  0.00000000000E+00 0. -1.
         21    1    1    2  504  502 -0.21586834822E+02 -0.21586882229E+02 -0.24837940074E+03  0.25024849977E+03  0.00000000000E+00 0. -1.
</event>
<event>
 4    1  0.1551744E+006  0.2169725E+02  0.7546771E-02  0.1509538E+00
         21   -1    0    0  504  501  0.00000000000E+00  0.00000000000E+00  0.10180575406E+03  0.10180575406E+03  0.00000000000E+00 0.  1.
         21   -1    0    0  503  502 -0.00000000000E+00 -0.00000000000E+00 -0.38130494367E+02  0.38130494367E+02  0.00000000000E+00 0.  1.
         21    1    1    2  503  501  0.18910204069E+02  0.10638358768E+02 -0.33750793618E+02  0.40123391744E+02  0.00000000000E+00 0.  1.
         21    1    1    2  504  502 -0.18910204069E+02 -0.10638358768E+02  0.97426053309E+02  0.99812856680E+02  0.00000000000E+00 0.  1.
</event>
<event>
 4    1  0.1551744E+006  0.3965738E+02  0.7546771E-02  0.1350505E+00
         21   -1    0    0  502  501  0.00000000000E+00  0.00000000000E+00  0.50167175344E+03  0.50167175344E+03  0.00000000000E+00 0. -1.
         21   -1    0    0  503  502 -0.00000000000E+00 -0.00000000000E+00 -0.84013728652E+01  0.84013728652E+01  0.00000000000E+00 0. -1.
         21    1    1    2  503  504  0.41135428027E+01  0.39443459942E+02  0.44712163931E+02  0.59765252196E+02  0.00000000000E+00 0. -1.
         21    1    1    2  504  501 -0.41135428027E+01 -0.39443459942E+02  0.44855821664E+03  0.45030787411E+03  0.00000000000E+00 0. -1.
</event>
<event>
 4    1  0.1551744E+006  0.3318739E+02  0.7546771E-02  0.1393775E+00
         21   -1    0    0  503  501  0.00000000000E+00  0.00000000000E+00  0.57310570390E+02  0.57310570390E+02  0.00000000000E+00 0. -1.
         21   -1    0    0  504  502 -0.00000000000E+00 -0.00000000000E+00 -0.32705246584E+02  0.32705246584E+02  0.00000000000E+00 0. -1.
         21    1    1    2  503  502  0.33138617680E+02 -0.17985933530E+01  0.41205428319E+02  0.52908319220E+02  0.00000000000E+00 0. -1.
         21    1    1    2  504  501 -0.33138617680E+02  0.17985933530E+01 -0.16600104512E+02  0.37107497754E+02  0.00000000000E+00 0. -1.
</event>
<event>
 4    1  0.1551744E+006  0.2148944E+02  0.7546771E-02  0.1512390E+00
         21   -1    0    0  503  501  0.00000000000E+00  0.00000000000E+00  0.59186785994E+02  0.59186785994E+02  0.00000000000E+00 0. -1.
         21   -1    0    0  504  502 -0.00000000000E+00 -0.00000000000E+00 -0.14322771395E+02  0.14322771395E+02  0.00000000000E+00 0. -1.
         21    1    1    2  503  502  0.59245906129E+01  0.20656599626E+02 -0.23672224079E+01  0.21619427004E+02  0.00000000000E+00 0. -1.
         21    1    1    2  504  501 -0.59245906129E+01 -0.20656599626E+02  0.47231237007E+02  0.51890130384E+02  0.00000000000E+00 0. -1.
</event>
<event>
 4    1  0.1551744E+006  0.2503658E+02  0.7546771E-02  0.1468395E+00
         21   -1    0    0  503  501  0.00000000000E+00  0.00000000000E+00  0.34323951884E+02  0.34323951884E+02  0.00000000000E+00 0.  1.
         21   -1    0    0  504  502 -0.00000000000E+00 -0.00000000000E+00 -0.19107869884E+02  0.19107869884E+02  0.00000000000E+00 0.  1.
         21    1    1    2  503  502 -0.12847001088E+02  0.21489177786E+02  0.13228468268E+02  0.28316471736E+02  0.00000000000E+00 0.  1.
         21    1    1    2  504  501  0.12847001088E+02 -0.21489177786E+02  0.19876137317E+01  0.25115350032E+02  0.00000000000E+00 0.  1.
</event>
<event>
 4    1  0.1551744E+006  0.2521244E+02  0.7546771E-02  0.1466441E+00
         21   -1    0    0  503  501  0.00000000000E+00  0.00000000000E+00  0.12553730170E+01  0.12553730170E+01  0.00000000000E+00 0.  1.
         21   -1    0    0  504  502 -0.00000000000E+00 -0.00000000000E+00 -0.13865001388E+04  0.13865001388E+04  0.00000000000E+00 0. -1.
         21    1    1    2  503  502 -0.18955459675E+02 -0.16624015500E+02 -0.12454625331E+04  0.12457177003E+04  0.00000000000E+00 0. -1.
         21    1    1    2  504  501  0.18955459675E+02  0.16624015500E+02 -0.13978223267E+03  0.14203781156E+03  0.00000000000E+00 0.  1.
</event>
<event>
 4    1  0.1551744E+006  0.2533132E+02  0.7546771E-02  0.1465131E+00
         21   -1    0    0  504  501  0.00000000000E+00  0.00000000000E+00  0.21187601959E+02  0.21187601959E+02  0.00000000000E+00 0.  1.
         21   -1    0    0  503  502 -0.00000000000E+00 -0.00000000000E+00 -0.72336269712E+02  0.72336269712E+02  0.00000000000E+00 0.  1.
         21    1    1    2  503  501 -0.24674665687E+02 -0.57303485322E+01 -0.61227792822E+02  0.66260988786E+02  0.00000000000E+00 0.  1.
         21    1    1    2  504  502  0.24674665687E+02  0.57303485322E+01  0.10079125069E+02  0.27262882885E+02  0.00000000000E+00 0.  1.
</event>
<event>
 4    1  0.1551744E+006  0.5798882E+02  0.7546771E-02  0.1266823E+00
         21   -1    0    0  503  501  0.00000000000E+00  0.00000000000E+00  0.24189560481E+03  0.24189560481E+03  0.00000000000E+00 0.  1.
         21   -1    0    0  504  502 -0.00000000000E+00 -0.00000000000E+00 -0.15127653187E+02  0.15127653187E+02  0.00000000000E+00 0. -1.
         21    1    1    2  503  502 -0.82340523978E+01 -0.57401252865E+02  0.76796277296E+02  0.96230824873E+02  0.00000000000E+00 0.  1.
         21    1    1    2  504  501  0.82340523978E+01  0.57401252865E+02  0.14997167433E+03  0.16079243312E+03  0.00000000000E+00 0. -1.
</event>
<event>
 4    1  0.1551744E+006  0.2055031E+02  0.7546771E-02  0.1525783E+00
         21   -1    0    0  504  501  0.00000000000E+00  0.00000000000E+00  0.17942463973E+03  0.17942463973E+03  0.00000000000E+00 0. -1.
         21   -1    0    0  503  502 -0.00000000000E+00 -0.00000000000E+00 -0.69791647041E+01  0.69791647041E+01  0.00000000000E+00 0.  1.
         21    1    1    2  503  501  0.19460339399E+02  0.66038318975E+01  0.10347548118E+02  0.23008414924E+02  0.00000000000E+00 0.  1.
         21    1    1    2  504  502 -0.19460339399E+02 -0.66038318975E+01  0.16209792691E+03  0.16339538951E+03  0.00000000000E+00 0. -1.
</event>
<event>
 4    1  0.1551744E+006  0.2028712E+02  0.7546771E-02  0.1529691E+00
         21   -1    0    0  503  501  0.00000000000E+00  0.00000000000E+00  0.38217816914E+02  0.38217816914E+02  0.00000000000E+00 0. -1.
         21   -1    0    0  501  502 -0.00000000000E+00 -0.00000000000E+00 -0.11121255629E+03  0.11121255629E+03  0.00000000000E+00 0. -1.
         21    1    1    2  503  504  0.16156677999E+02 -0.12269021329E+02  0.34508302785E+02  0.40029864969E+02  0.00000000000E+00 0. -1.
         21    1    1    2  504  502 -0.16156677999E+02  0.12269021329E+02 -0.10750304216E+03  0.10940050824E+03  0.00000000000E+00 0. -1.
</event>
<event>
 4    1  0.1551744E+006  0.2019595E+02  0.7546771E-02  0.1531061E+00
         21   -1    0    0  503  501  0.00000000000E+00  0.00000000000E+00  0.21096816664E+02  0.21096816664E+02  0.00000000000E+00 0. -1.
         21   -1    0    0  504  502 -0.00000000000E+00 -0.00000000000E+00 -0.19421663245E+02  0.19421663245E+02  0.00000000000E+00 0. -1.
         21    1    1    2  503  502  0.12746223875E+02 -0.15665572036E+02 -0.52700426417E+00  0.20202824154E+02  0.00000000000E+00 0. -1.
         21    1    1    2  504  501 -0.12746223875E+02  0.15665572036E+02  0.22021576829E+01  0.20315655755E+02  0.00000000000E+00 0. -1.
</event>
<event>
 4    1  0.1551744E+006  0.3495915E+02  0.7546771E-02  0.1380851E+00
         21   -1    0    0  503  501  0.00000000000E+00  0.00000000000E+00  0.17920083799E+03  0.17920083799E+03  0.00000000000E+00 0. -1.
         21   -1    0    0  504  502 -0.00000000000E+00 -0.00000000000E+00 -0.26671297489E+02  0.26671297489E+02  0.00000000000E+00 0.  1.
         21    1    1    2  503  502 -0.30111540433E+02 -0.17760548766E+02  0.16507038485E+03  0.16873166245E+03  0.00000000000E+00 0. -1.
         21    1    1    2  504  501  0.30111540433E+02  0.17760548766E+02 -0.12540844348E+02  0.37140473027E+02  0.00000000000E+00 0.  1.
</event>
<event>
 4    1  0.1551744E+006  0.2157438E+02  0.7546771E-02  0.1511220E+00
         21   -1    0    0  503  501  0.00000000000E+00  0.00000000000E+00  0.10560479543E+03  0.10560479543E+03  0.00000000000E+00 0.  1.
         21   -1    0    0  504  502 -0.00000000000E+00 -0.00000000000E+00 -0.13308910359E+02  0.13308910359E+02  0.00000000000E+00 0.  1.
         21    1    1    2  503  502  0.13225465262E+02  0.17045264343E+02 -0.24770879979E+01  0.21716121497E+02  0.00000000000E+00 0.  1.
         21    1    1    2  504  501 -0.13225465262E+02 -0.17045264343E+02  0.94772973073E+02  0.97197584296E+02  0.00000000000E+00 0.  1.
</event>
<event>
 4    1  0.1551744E+006  0.2026048E+02  0.7546771E-02  0.1530090E+00
         21   -1    0    0  503  501  0.00000000000E+00  0.00000000000E+00  0.30797900739E+02  0.30797900739E+02  0.00000000000E+00 0. -1.
         21   -1    0    0  504  502 -0.00000000000E+00 -0.00000000000E+00 -0.13818118202E+02  0.13818118202E+02  0.00000000000E+00 0. -1.
         21    1    1    2  503  502  0.17698947531E+02 -0.98607535139E+01  0.42903406488E+01  0.20709761622E+02  0.00000000000E+00 0. -1.
         21    1    1    2  504  501 -0.17698947531E+02  0.98607535139E+01  0.12689441889E+02  0.23906257319E+02  0.00000000000E+00 0. -1.
</event>
<event>
 4    1  0.1551744E+006  0.2304696E+02  0.7546771E-02  0.1491909E+00
         21   -1    0    0  503  501  0.00000000000E+00  0.00000000000E+00  0.62893143075E+02  0.62893143075E+02  0.00000000000E+00 0. -1.
         21   -1    0    0  504  502 -0.00000000000E+00 -0.00000000000E+00 -0.21752407324E+03  0.21752407324E+03  0.00000000000E+00 0.  1.
         21    1    1    2  503  502  0.21067232383E+02 -0.93452788806E+01  0.60144365286E+02  0.64408906165E+02  0.00000000000E+00 0. -1.
         21    1    1    2  504  501 -0.21067232383E+02  0.93452788806E+01 -0.21477529545E+03  0.21600831015E+03  0.00000000000E+00 0.  1.
</event>
<event>
 4    1  0.1551744E+006  0.2752739E+02  0.7546771E-02  0.1442381E+00
         21   -1    0    0  504  501  0.00000000000E+00  0.00000000000E+00  0.37667430308E+02  0.37667430308E+02  0.00000000000E+00 0. -1.
         21   -1    0    0  503  502 -0.00000000000E+00 -0.00000000000E+00 -0.12878482049E+03  0.12878482049E+03  0.00000000000E+00 0. -1.
         21    1    1    2  503  501 -0.14730170054E+01 -0.27487951376E+02  0.30891347882E+02  0.41376715964E+02  0.00000000000E+00 0. -1.
         21    1    1    2  504  502  0.14730170054E+01  0.27487951376E+02 -0.12200873806E+03  0.12507553483E+03  0.00000000000E+00 0. -1.
</event>
<event>
 4    1  0.1551744E+006  0.2073014E+02  0.7546771E-02  0.1523153E+00
         21   -1    0    0  503  501  0.00000000000E+00  0.00000000000E+00  0.46387046082E+02  0.46387046082E+02  0.00000000000E+00 0. -1.
         21   -1    0    0  501  502 -0.00000000000E+00 -0.00000000000E+00 -0.23292602482E+02  0.23292602482E+02  0.00000000000E+00 0.  1.
         21    1    1    2  503  504 -0.18512513163E+02  0.93287483659E+01  0.38585007290E+02  0.43801158401E+02  0.00000000000E+00 0. -1.
         21    1    1    2  504  502  0.18512513163E+02 -0.93287483659E+01 -0.15490563690E+02  0.25878490163E+02  0.00000000000E+00 0.  1.
</event>
<event>
 4    1  0.1551744E+006  0.2384449E+02  0.7546771E-02  0.1482158E+00
         21   -1    0    0  503  501  0.00000000000E+00  0.00000000000E+00  0.14776502690E+02  0.14776502690E+02  0.00000000000E+00 0. -1.
         21   -1    0    0  501  502 -0.00000000000E+00 -0.00000000000E+00 -0.31527325205E+03  0.31527325205E+03  0.00000000000E+00 0.  1.
         21    1    1    2  503  504 -0.14985027491E+00 -0.23844017589E+02  0.43787707632E+01  0.24243210664E+02  0.00000000000E+00 0. -1.
         21    1    1    2  504  502  0.14985027491E+00  0.23844017589E+02 -0.30487552012E+03  0.30580654408E+03  0.00000000000E+00 0.  1.
</event>
<event>
 4    1  0.1551744E+006  0.3092330E+02  0.7546771E-02  0.1411739E+00
         21   -1    0    0  504  501  0.00000000000E+00  0.00000000000E+00  0.19712522323E+02  0.19712522323E+02  0.00000000000E+00 0. -1.
         21   -1    0    0  503  502 -0.00000000000E+00 -0.00000000000E+00 -0.11391930246E+03  0.11391930246E+03  0.00000000000E+00 0.  1.
         21    1    1    2  503  501 -0.27500250230E+02  0.14141670462E+02 -0.97732658516E+02  0.10250816137E+03  0.00000000000E+00 0.  1.
         21    1    1    2  504  502  0.27500250230E+02 -0.14141670462E+02  0.35258783785E+01  0.31123663417E+02  0.00000000000E+00 0. -1.
</event>
<event>
 4    1  0.1551744E+006  0.2452707E+02  0.7546771E-02  0.1474164E+00
         21   -1    0    0  503  501  0.00000000000E+00  0.00000000000E+00  0.26402219671E+02  0.26402219671E+02  0.00000000000E+00 0. -1.
         21   -1    0    0  504  502 -0.00000000000E+00 -0.00000000000E+00 -0.13112753293E+03  0.13112753293E+03  0.00000000000E+00 0. -1.
         21    1    1    2  503  502 -0.17386545574E+02 -0.17299856838E+02  0.19232716589E+02  0.31168484099E+02  0.00000000000E+00 0. -1.
         21    1    1    2  504  501  0.17386545574E+02  0.17299856838E+02 -0.12395802985E+03  0.12636126850E+03  0.00000000000E+00 0. -1.
</event>
<event>
 4    1  0.1551744E+006  0.2151716E+02  0.7546771E-02  0.1512008E+00
         21   -1    0    0  504  501  0.00000000000E+00  0.00000000000E+00  0.28159082039E+02  0.28159082039E+02  0.00000000000E+00 0. -1.
         21   -1    0    0  503  502 -0.00000000000E+00 -0.00000000000E+00 -0.10930177491E+03  0.10930177491E+03  0.00000000000E+00 0.  1.
         21    1    1    2  503  501 -0.15174151186E+02  0.15255604906E+02 -0.10392177104E+03  0.10612597628E+03  0.00000000000E+00 0.  1.
         21    1    1    2  504  502  0.15174151186E+02 -0.15255604906E+02  0.22779078160E+02  0.31334880678E+02  0.00000000000E+00 0. -1.
</event>
<event>
 4    1  0.1551744E+006  0.2711792E+02  0.7546771E-02  0.1446427E+00
         21   -1    0    0  504  501  0.00000000000E+00  0.00000000000E+00  0.26284625723E+02  0.26284625723E+02  0.00000000000E+00 0.  1.
         21   -1    0    0  503  502 -0.00000000000E+00 -0.00000000000E+00 -0.28073633212E+02  0.28073633212E+02  0.00000000000E+00 0.  1.
         21    1    1    2  503  501  0.26078149884E+02 -0.74371706726E+01 -0.24839278731E+01  0.27231439673E+02  0.00000000000E+00 0.  1.
         21    1    1    2  504  502 -0.26078149884E+02  0.74371706726E+01  0.69492038386E+00  0.27126819263E+02  0.00000000000E+00 0.  1.
</event>
<event>
 4    1  0.1551744E+006  0.2021311E+02  0.7546771E-02  0.1530803E+00
         21   -1    0    0  504  501  0.00000000000E+00  0.00000000000E+00  0.18784672632E+02  0.18784672632E+02  0.00000000000E+00 0.  1.
         21   -1    0    0  503  502 -0.00000000000E+00 -0.00000000000E+00 -0.21860116706E+02  0.21860116706E+02  0.00000000000E+00 0.  1.
         21    1    1    2  503  501 -0.16905728559E+02 -0.11079986030E+02 -0.29789994985E+01  0.20431450917E+02  0.00000000000E+00 0.  1.
         21    1    1    2  504  502  0.16905728559E+02  0.11079986030E+02 -0.96444575343E-01  0.20213338421E+02  0.00000000000E+00 0.  1.
</event>
<event>
 4    1  0.1551744E+006  0.2132340E+02  0.7546771E-02  0.1514697E+00
         21   -1    0    0  504  501  0.00000000000E+00  0.00000000000E+00  0.17990627331E+03  0.17990627331E+03  0.00000000000E+00 0.  1.
         21   -1    0    0  503  502 -0.00000000000E+00 -0.00000000000E+00 -0.79155135179E+01  0.79155135179E+01  0.00000000000E+00 0.  1.
         21    1    1    2  503  501  0.74127130037E+01  0.19993474877E+02  0.85141452813E+01  0.22960357610E+02  0.00000000000E+00 0.  1.
         21    1    1    2  504  502 -0.74127130037E+01 -0.19993474877E+02  0.16347661452E+03  0.16486142922E+03  0.00000000000E+00 0.  1.
</event>
<event>
 4    1  0.1551744E+006  0.2257274E+02  0.7546771E-02  0.1497934E+00
         21   -1    0    0  504  501  0.00000000000E+00  0.00000000000E+00  0.93578868951E+01  0.93578868951E+01  0.00000000000E+00 0.  1.
         21   -1    0    0  503  502 -0.00000000000E+00 -0.00000000000E+00 -0.56547932568E+02  0.56547932568E+02  0.00000000000E+00 0.  1.
         21    1    1    2  503  501  0.67692918333E+01  0.21533817639E+02 -0.17246491706E+02  0.28407218980E+02  0.00000000000E+00 0.  1.
         21    1    1    2  504  502 -0.67692918333E+01 -0.21533817639E+02 -0.29943553967E+02  0.37498600483E+02  0.00000000000E+00 0.  1.
</event>
<event>
 4    1  0.1551744E+006  0.3141782E+02  0.7546771E-02  0.1407663E+00
         21   -1    0    0  503  501  0.00000000000E+00  0.00000000000E+00  0.68177062670E+02  0.68177062670E+02  0.00000000000E+00 0.  1.
         21   -1    0    0  504  502 -0.00000000000E+00 -0.00000000000E+00 -0.22179924935E+02  0.22179924935E+02  0.00000000000E+00 0.  1.
         21    1    1    2  503  502  0.28152621296E+02 -0.13946667275E+02  0.49620916407E+02  0.58730868877E+02  0.00000000000E+00 0.  1.
         21    1    1    2  504  501 -0.28152621296E+02  0.13946667275E+02 -0.36237786724E+01  0.31626118728E+02  0.00000000000E+00 0.  1.
</event>
<event>
 4    1  0.1551744E+006  0.2167048E+02  0.7546771E-02  0.1509904E+00
         21   -1    0    0  504  501  0.00000000000E+00  0.00000000000E+00  0.23214344338E+02  0.23214344338E+02  0.00000000000E+00 0. -1.
         21   -1    0    0  503  502 -0.00000000000E+00 -0.00000000000E+00 -0.11157148444E+03  0.11157148444E+03  0.00000000000E+00 0. -1.
         21    1    1    2  503  501 -0.72324611757E+01 -0.20427947300E+02  0.16799457311E+02  0.27419542146E+02  0.00000000000E+00 0. -1.
         21    1    1    2  504  502  0.72324611757E+01  0.20427947300E+02 -0.10515659741E+03  0.10736628663E+03  0.00000000000E+00 0. -1.
</event>
<event>
 4    1  0.1551744E+006  0.2291779E+02  0.7546771E-02  0.1493533E+00
         21   -1    0    0  503  501  0.00000000000E+00  0.00000000000E+00  0.34515396385E+02  0.34515396385E+02  0.00000000000E+00 0. -1.
         21   -1    0    0  504  502 -0.00000000000E+00 -0.00000000000E+00 -0.15689962290E+02  0.15689962290E+02  0.00000000000E+00 0.  1.
         21    1    1    2  503  502  0.17954244586E+02  0.14243252206E+02  0.50549443060E+01  0.23468651304E+02  0.00000000000E+00 0.  1.
         21    1    1    2  504  501 -0.17954244586E+02 -0.14243252206E+02  0.13770489789E+02  0.26736707372E+02  0.00000000000E+00 0. -1.
</event>
<event>
 4    1  0.1551744E+006  0.2171542E+02  0.7546771E-02  0.1509291E+00
         21   -1    0    0  502  501  0.00000000000E+00  0.00000000000E+00  0.14504883319E+02  0.14504883319E+02  0.00000000000E+00 0. -1.
         21   -1    0    0  504  502 -0.00000000000E+00 -0.00000000000E+00 -0.12741422240E+03  0.12741422240E+03  0.00000000000E+00 0. -1.
         21    1    1    2  503  501  0.99858253121E+01  0.19283229410E+02  0.47865393586E+01  0.22236694959E+02  0.00000000000E+00 0. -1.
         21    1    1    2  504  503 -0.99858253121E+01 -0.19283229410E+02 -0.11769587844E+03  0.11968241076E+03  0.00000000000E+00 0. -1.
</event>
<event>
 4    1  0.1551744E+006  0.3126960E+02  0.7546771E-02  0.1408875E+00
         21   -1    0    0  503  501  0.00000000000E+00  0.00000000000E+00  0.41852640473E+03  0.41852640473E+03  0.00000000000E+00 0.  1.
         21   -1    0    0  504  502 -0.00000000000E+00 -0.00000000000E+00 -0.23904822272E+01  0.23904822272E+01  0.00000000000E+00 0.  1.
         21    1    1    2  503  502 -0.31207528660E+02  0.19693052226E+01  0.17637244549E+03  0.17912293972E+03  0.00000000000E+00 0.  1.
         21    1    1    2  504  501  0.31207528660E+02 -0.19693052226E+01  0.23976347701E+03  0.24179394723E+03  0.00000000000E+00 0.  1.
</event>
<event>
 4    1  0.1551744E+006  0.2958380E+02  0.7546771E-02  0.1423248E+00
         21   -1    0    0  503  501  0.00000000000E+00  0.00000000000E+00  0.29678114386E+01  0.29678114386E+01  0.00000000000E+00 0. -1.
         21   -1    0    0  501  502 -0.00000000000E+00 -0.00000000000E+00 -0.60988670325E+03  0.60988670325E+03  0.00000000000E+00 0. -1.
         21    1    1    2  503  504  0.27689817389E+02 -0.10415144466E+02 -0.83242668895E+02  0.88343325419E+02  0.00000000000E+00 0. -1.
         21    1    1    2  504  502 -0.27689817389E+02  0.10415144466E+02 -0.52367622291E+03  0.52451118927E+03  0.00000000000E+00 0. -1.
</event>
<event>
 4    1  0.1551744E+006  0.2126445E+02  0.7546771E-02  0.1515522E+00
         21   -1    0    0  502  501  0.00000000000E+00  0.00000000000E+00  0.14966472376E+03  0.14966472376E+03  0.00000000000E+00 0. -1.
         21   -1    0    0  504  502 -0.00000000000E+00 -0.00000000000E+00 -0.79652833438E+02  0.79652833438E+02  0.00000000000E+00 0. -1.
         21    1    1    2  503  501 -0.17712608262E+02  0.11766073562E+02  0.14746917456E+03  0.14899441072E+03  0.00000000000E+00 0. -1.
         21    1    1    2  504  503  0.17712608262E+02 -0.11766073562E+02 -0.77457284242E+02  0.80323146481E+02  0.00000000000E+00 0. -1.
</event>
<event>
 4    1  0.1551744E+006  0.2129353E+02  0.7546771E-02  0.1515115E+00
         21   -1    0    0  502  501  0.00000000000E+00  0.00000000000E+00  0.58424335842E+02  0.58424335842E+02  0.00000000000E+00 0.  1.
         21   -1    0    0  504  502 -0.00000000000E+00 -0.00000000000E+00 -0.19053449372E+02  0.19053449372E+02  0.00000000000E+00 0.  1.
         21    1    1    2  503  501  0.16803500114E+02 -0.13078872045E+02  0.49509037959E+02  0.53893963945E+02  0.00000000000E+00 0.  1.
         21    1    1    2  504  503 -0.16803500114E+02  0.13078872045E+02 -0.10138151489E+02  0.23583821269E+02  0.00000000000E+00 0.  1.
</event>
<event>
 4    1  0.1551744E+006  0.3514779E+02  0.7546771E-02  0.1379527E+00
         21   -1    0    0  503  501  0.00000000000E+00  0.00000000000E+00  0.14339588396E+02  0.14339588396E+02  0.00000000000E+00 0.  1.
         21   -1    0    0  501  502 -0.00000000000E+00 -0.00000000000E+00 -0.18119300901E+03  0.18119300901E+03  0.00000000000E+00 0. -1.
         21    1    1    2  503  504 -0.21788003154E+02 -0.27579884469E+02 -0.12619627762E+02  0.37344639691E+02  0.00000000000E+00 0.  1.
         21    1    1    2  504  502  0.21788003154E+02  0.27579884469E+02 -0.15423379285E+03  0.15818795771E+03  0.00000000000E+00 0. -1.
</event>
<event>
 4    1  0.1551744E+006  0.2762321E+02  0.7546771E-02  0.1441446E+00
         21   -1    0    0  504  501  0.00000000000E+00  0.00000000000E+00  0.52387935303E+03  0.52387935303E+03  0.00000000000E+00 0. -1.
         21   -1    0    0  501  502 -0.00000000000E+00 -0.00000000000E+00 -0.24488097928E+01  0.24488097928E+01  0.00000000000E+00 0.  1.
         21    1    1    2  503  502 -0.22703861924E+02 -0.15734563923E+02  0.93194798043E+02  0.97202429138E+02  0.00000000000E+00 0.  1.
         21    1    1    2  504  503  0.22703861924E+02  0.15734563923E+02  0.42823574519E+03  0.42912573368E+03  0.00000000000E+00 0. -1.
</event>
<event>
 4    1  0.1551744E+006  0.2128313E+02  0.7546771E-02  0.1515261E+00
         21   -1    0    0  503  501  0.00000000000E+00  0.00000000000E+00  0.13509384759E+02  0.13509384759E+02  0.00000000000E+00 0. -1.
         21   -1    0    0  504  502 -0.00000000000E+00 -0.00000000000E+00 -0.33553785243E+02  0.33553785243E+02  0.00000000000E+00 0. -1.
         21    1    1    2  503  502 -0.43919422944E+01  0.20825047359E+02 -0.10646684546E+02  0.23797555472E+02  0.00000000000E+00 0. -1.
         21    1    1    2  504  501  0.43919422944E+01 -0.20825047359E+02 -0.93977159378E+01  0.23265614530E+02  0.00000000000E+00 0. -1.
</event>
<event>
 4    1  0.1551744E+006  0.2111569E+02  0.7546771E-02  0.1517619E+00
         21   -1    0    0  504  501  0.00000000000E+00  0.00000000000E+00  0.12344693871E+03  0.12344693871E+03  0.00000000000E+00 0. -1.
         21   -1    0    0  503  502 -0.00000000000E+00 -0.00000000000E+00 -0.49402246571E+01  0.49402246571E+01  0.00000000000E+00 0. -1.
         21    1    1    2  503  501  0.26050229266E+01 -0.20954381011E+02  0.92540614573E+02  0.94919110687E+02  0.00000000000E+00 0. -1.
         21    1    1    2  504  502 -0.26050229266E+01  0.20954381011E+02  0.25966099477E+02  0.33468052678E+02  0.00000000000E+00 0. -1.
</event>
<event>
 4    1  0.1551744E+006  0.2040387E+02  0.7546771E-02  0.1527949E+00
         21   -1    0    0  503  501  0.00000000000E+00  0.00000000000E+00  0.17154134016E+02  0.17154134016E+02  0.00000000000E+00 0.  1.
         21   -1    0    0  504  502 -0.00000000000E+00 -0.00000000000E+00 -0.99360908993E+02  0.99360908993E+02  0.00000000000E+00 0. -1.
         21    1    1    2  503  502  0.17251286101E+02 -0.10895460813E+02  0.95420212643E+01  0.22524833146E+02  0.00000000000E+00 0.  1.
         21    1    1    2  504  501 -0.17251286101E+02  0.10895460813E+02 -0.91748796241E+02  0.93990209863E+02  0.00000000000E+00 0. -1.
</event>
<event>
 4    1  0.1551744E+006  0.2157462E+02  0.7546771E-02  0.1511217E+00
         21   -1    0    0  502  501  0.00000000000E+00  0.00000000000E+00  0.20269538722E+02  0.20269538722E+02  0.00000000000E+00 0.  1.
         21   -1    0    0  504  502 -0.00000000000E+00 -0.00000000000E+00 -0.17490925488E+03  0.17490925488E+03  0.00000000000E+00 0. -1.
         21    1    1    2  503  501 -0.20251782436E+02  0.74383694287E+01  0.13637996591E+02  0.25523694533E+02  0.00000000000E+00 0.  1.
         21    1    1    2  504  503  0.20251782436E+02 -0.74383694287E+01 -0.16827771275E+03  0.16965509907E+03  0.00000000000E+00 0. -1.
</event>
<event>
 4    1  0.1551744E+006  0.2463637E+02  0.7546771E-02  0.1472913E+00
         21   -1    0    0  503  501  0.00000000000E+00  0.00000000000E+00  0.22530527842E+03  0.22530527842E+03  0.00000000000E+00 0.  1.
         21   -1    0    0  504  502 -0.00000000000E+00 -0.00000000000E+00 -0.12861888123E+02  0.12861888123E+02  0.00000000000E+00 0. -1.
         21    1    1    2  503  502 -0.19973093953E+02 -0.14423111991E+02  0.21210243670E+03  0.21352843908E+03  0.00000000000E+00 0.  1.
         21    1    1    2  504  501  0.19973093953E+02  0.14423111991E+02  0.34095359361E+00  0.24638727461E+02  0.00000000000E+00 0. -1.
</event>
<event>
 4    1  0.1551744E+006  0.2360205E+02  0.7546771E-02  0.1485073E+00
         21   -1    0    0  502  501  0.00000000000E+00  0.00000000000E+00  0.25363390667E+02  0.25363390667E+02  0.00000000000E+00 0. -1.
         21   -1    0    0  504  502 -0.00000000000E+00 -0.00000000000E+00 -0.24912557956E+02  0.24912557956E+02  0.00000000000E+00 0. -1.
         21    1    1    2  503  501 -0.22425868856E+02 -0.73578046011E+01 -0.84242121589E+01  0.25060411668E+02  0.00000000000E+00 0. -1.
         21    1    1    2  504  503  0.22425868856E+02  0.73578046011E+01  0.88750448704E+01  0.25215536955E+02  0.00000000000E+00 0. -1.
</event>
<event>
 4    1  0.1551744E+006  0.2306573E+02  0.7546771E-02  0.1491674E+00
         21   -1    0    0  502  501  0.00000000000E+00  0.00000000000E+00  0.62849127853E+01  0.62849127853E+01  0.00000000000E+00 0. -1.
         21   -1    0    0  504  502 -0.00000000000E+00 -0.00000000000E+00 -0.84946428008E+02  0.84946428008E+02  0.00000000000E+00 0. -1.
         21    1    1    2  503  501  0.51342460508E+01  0.22487052028E+02 -0.42018068243E+02  0.47932724211E+02  0.00000000000E+00 0. -1.
         21    1    1    2  504  503 -0.51342460508E+01 -0.22487052028E+02 -0.36643446980E+02  0.43298616583E+02  0.00000000000E+00 0. -1.
</event>
<event>
 4    1  0.1551744E+006  0.2424492E+02  0.7546771E-02  0.1477431E+00
         21   -1    0    0  503  501  0.00000000000E+00  0.00000000000E+00  0.11865698933E+03  0.11865698933E+03  0.00000000000E+00 0.  1.
         21   -1    0    0  504  502 -0.00000000000E+00 -0.00000000000E+00 -0.49671897760E+01  0.49671897760E+01  0.00000000000E+00 0.  1.
         21    1    1    2  503  502 -0.23465138992E+02  0.60994696148E+01  0.53649085566E+02  0.58873089434E+02  0.00000000000E+00 0.  1.
         21    1    1    2  504  501  0.23465138992E+02 -0.60994696148E+01  0.60040713991E+02  0.64751089674E+02  0.00000000000E+00 0.  1.
</event>
<event>
 4    1  0.1551744E+006  0.2972323E+02  0.7546771E-02  0.1422017E+00
         21   -1    0    0  504  501  0.00000000000E+00  0.00000000000E+00  0.68008829966E+03  0.68008829966E+03  0.00000000000E+00 0.  1.
         21   -1    0    0  503  502 -0.00000000000E+00 -0.00000000000E+00 -0.61581046601E+01  0.61581046601E+01  0.00000000000E+00 0.  1.
         21    1    1    2  503  501  0.28053769793E+02  0.98212073777E+01  0.32173947093E+02  0.43802202976E+02  0.00000000000E+00 0.  1.
         21    1    1    2  504  502 -0.28053769793E+02 -0.98212073777E+01  0.64175624791E+03  0.64244420134E+03  0.00000000000E+00 0.  1.
</event>
<event>
 4    1  0.1551744E+006  0.3846459E+02  0.7546771E-02  0.1357726E+00
         21   -1    0    0  503  501  0.00000000000E+00  0.00000000000E+00  0.22853388615E+02  0.22853388615E+02  0.00000000000E+00 0.  1.
         21   -1    0    0  504  502 -0.00000000000E+00 -0.00000000000E+00 -0.76866788142E+02  0.76866788142E+02  0.00000000000E+00 0.  1.
         21    1    1    2  503  502 -0.23136552439E+02 -0.30728239704E+02 -0.72024043291E+01  0.39133098551E+02  0.00000000000E+00 0.  1.
         21    1    1    2  504  501  0.23136552439E+02  0.30728239704E+02 -0.46810995198E+02  0.60587078206E+02  0.00000000000E+00 0.  1.
</event>
<event>
 4    1  0.1551744E+006  0.3450019E+02  0.7546771E-02  0.1384111E+00
         21   -1    0    0  503  501  0.00000000000E+00  0.00000000000E+00  0.58798155562E+01  0.58798155562E+01  0.00000000000E+00 0.  1.
         21   -1    0    0  504  502 -0.00000000000E+00 -0.00000000000E+00 -0.19538614430E+04  0.19538614430E+04  0.00000000000E+00 0. -1.
         21    1    1    2  503  502  0.41120953254E+01  0.34254249026E+02 -0.46268119968E+02  0.57714831973E+02  0.00000000000E+00 0.  1.
         21    1    1    2  504  501 -0.41120953254E+01 -0.34254249026E+02 -0.19017135075E+04  0.19020264266E+04  0.00000000000E+00 0. -1.
</event>
<event>
 4    1  0.1551744E+006  0.2291724E+02  0.7546771E-02  0.1493540E+00
         21   -1    0    0  502  501  0.00000000000E+00  0.00000000000E+00  0.10766310167E+03  0.10766310167E+03  0.00000000000E+00 0. -1.
         21   -1    0    0  503  502 -0.00000000000E+00 -0.00000000000E+00 -0.12708806400E+02  0.12708806400E+02  0.00000000000E+00 0. -1.
         21    1    1    2  503  504 -0.11950771789E+01  0.22886055461E+02  0.23375446636E+00  0.22918428942E+02  0.00000000000E+00 0. -1.
         21    1    1    2  504  501  0.11950771789E+01 -0.22886055461E+02  0.94720540798E+02  0.97453479123E+02  0.00000000000E+00 0. -1.
</event>
<event>
 4    1  0.1551744E+006  0.2649423E+02  0.7546771E-02  0.1452756E+00
         21   -1    0    0  502  501  0.00000000000E+00  0.00000000000E+00  0.15945979948E+03  0.15945979948E+03  0.00000000000E+00 0.  1.
         21   -1    0    0  503  502 -0.00000000000E+00 -0.00000000000E+00 -0.31438125615E+02  0.31438125615E+02  0.00000000000E+00 0. -1.
         21    1    1    2  503  504 -0.19047614490E+02 -0.18415555884E+02 -0.24503781773E+02  0.36088497301E+02  0.00000000000E+00 0. -1.
         21    1    1    2  504  501  0.19047614490E+02  0.18415555884E+02  0.15252545564E+03  0.15480942780E+03  0.00000000000E+00 0.  1.
</event>
<event>
 4    1  0.1551744E+006  0.2123742E+02  0.7546771E-02  0.1515902E+00
         21   -1    0    0  504  501  0.00000000000E+00  0.00000000000E+00  0.23302479943E+01  0.23302479943E+01  0.00000000000E+00 0. -1.
         21   -1    0    0  503  502 -0.00000000000E+00 -0.00000000000E+00 -0.37760426860E+03  0.37760426860E+03  0.00000000000E+00 0.  1.
         21    1    1    2  503  501 -0.13241427320E+02  0.16603999895E+02 -0.55010957609E+02  0.58968073286E+02  0.00000000000E+00 0. -1.
         21    1    1    2  504  502  0.13241427320E+02 -0.16603999895E+02 -0.32026306300E+03  0.32096644331E+03  0.00000000000E+00 0.  1.
</event>
<event>
 4    1  0.1551744E+006  0.2321718E+02  0.7546771E-02  0.1489789E+00
         21   -1    0    0  504  501  0.00000000000E+00  0.00000000000E+00  0.18178526855E+02  0.18178526855E+02  0.00000000000E+00 0. -1.
         21   -1    0    0  503  502 -0.00000000000E+00 -0.00000000000E+00 -0.30369350170E+02  0.30369350170E+02  0.00000000000E+00 0. -1.
         21    1    1    2  503  501 -0.22538886058E+02  0.55710001208E+01 -0.23658393585E+01  0.23337408231E+02  0.00000000000E+00 0. -1.
         21    1    1    2  504  502  0.22538886058E+02 -0.55710001208E+01 -0.98249839567E+01  0.25210468794E+02  0.00000000000E+00 0. -1.
</event>
<event>
 4    1  0.1551744E+006  0.2098827E+02  0.7546771E-02  0.1519432E+00
         21   -1    0    0  504  501  0.00000000000E+00  0.00000000000E+00  0.31594522027E+02  0.31594522027E+02  0.00000000000E+00 0.  1.
         21   -1    0    0  503  502 -0.00000000000E+00 -0.00000000000E+00 -0.14894863835E+02  0.14894863835E+02  0.00000000000E+00 0.  1.
         21    1    1    2  503  501  0.13310059494E+02 -0.16228051616E+02  0.24722051121E+01  0.21133365589E+02  0.00000000000E+00 0.  1.
         21    1    1    2  504  502 -0.13310059494E+02  0.16228051616E+02  0.14227453080E+02  0.25356020274E+02  0.00000000000E+00 0.  1.
</event>
<event>
 4    1  0.1551744E+006  0.2103331E+02  0.7546771E-02  0.1518790E+00
         21   -1    0    0  504  501  0.00000000000E+00  0.00000000000E+00  0.21110048357E+02  0.21110048357E+02  0.00000000000E+00 0. -1.
         21   -1    0    0  503  502 -0.00000000000E+00 -0.00000000000E+00 -0.11413617690E+03  0.11413617690E+03  0.00000000000E+00 0. -1.
         21    1    1    2  503  501 -0.11696549460E+02 -0.17481154761E+02  0.14587228215E+02  0.25596626106E+02  0.00000000000E+00 0. -1.
         21    1    1    2  504  502  0.11696549460E+02  0.17481154761E+02 -0.10761335676E+03  0.10964959915E+03  0.00000000000E+00 0. -1.
</event>
<event>
 4    1  0.1551744E+006  0.3836403E+02  0.7546771E-02  0.1358349E+00
         21   -1    0    0  503  501  0.00000000000E+00  0.00000000000E+00  0.65573366300E+01  0.65573366300E+01  0.00000000000E+00 0. -1.
         21   -1    0    0  504  502 -0.00000000000E+00 -0.00000000000E+00 -0.28779936958E+03  0.28779936958E+03  0.00000000000E+00 0. -1.
         21    1    1    2  503  502 -0.34189290535E+02 -0.17403764608E+02 -0.71570351269E+02  0.81204148850E+02  0.00000000000E+00 0. -1.
         21    1    1    2  504  501  0.34189290535E+02  0.17403764608E+02 -0.20967168168E+03  0.21315255736E+03  0.00000000000E+00 0. -1.
</event>
<event>
 4    1  0.1551744E+006  0.2180723E+02  0.7546771E-02  0.1508045E+00
         21   -1    0    0  504  501  0.00000000000E+00  0.00000000000E+00  0.39950730504E+02  0.39950730504E+02  0.00000000000E+00 0. -1.
         21   -1    0    0  503  502 -0.00000000000E+00 -0.00000000000E+00 -0.12032597967E+02  0.12032597967E+02  0.00000000000E+00 0. -1.
         21    1    1    2  503  501  0.21518020943E+02  0.35397610583E+01  0.11267245379E+02  0.24545996661E+02  0.00000000000E+00 0. -1.
         21    1    1    2  504  502 -0.21518020943E+02 -0.35397610583E+01  0.16650887158E+02  0.27437331810E+02  0.00000000000E+00 0. -1.
</event>
<event>
 4    1  0.1551744E+006  0.2879477E+02  0.7546771E-02  0.1430367E+00
         21   -1    0    0  504  501  0.00000000000E+00  0.00000000000E+00  0.10256921789E+02  0.10256921789E+02  0.00000000000E+00 0. -1.
         21   -1    0    0  503  502 -0.00000000000E+00 -0.00000000000E+00 -0.84265575601E+02  0.84265575601E+02  0.00000000000E+00 0. -1.
         21    1    1    2  503  501 -0.12270381597E+02 -0.26049501495E+02 -0.27471165981E+02  0.39797031962E+02  0.00000000000E+00 0. -1.
         21    1    1    2  504  502  0.12270381597E+02  0.26049501495E+02 -0.46537487832E+02  0.54725465428E+02  0.00000000000E+00 0. -1.
</event>
<event>
 4    1  0.1551744E+006  0.2630427E+02  0.7546771E-02  0.1454725E+00
         21   -1    0    0  504  501  0.00000000000E+00  0.00000000000E+00  0.11850256866E+02  0.11850256866E+02  0.00000000000E+00 0. -1.
         21   -1    0    0  503  502 -0.00000000000E+00 -0.00000000000E+00 -0.62522122778E+02  0.62522122778E+02  0.00000000000E+00 0. -1.
         21    1    1    2  503  501  0.12234183722E+01 -0.26275802543E+02 -0.34897932868E+02  0.43701032828E+02  0.00000000000E+00 0. -1.
         21    1    1    2  504  502 -0.12234183722E+01  0.26275802543E+02 -0.15773933044E+02  0.30671346815E+02  0.00000000000E+00 0. -1.
</event>
<event>
 4    1  0.1551744E+006  0.2043174E+02  0.7546771E-02  0.1527535E+00
         21   -1    0    0  504  501  0.00000000000E+00  0.00000000000E+00  0.12486029457E+03  0.12486029457E+03  0.00000000000E+00 0.  1.
         21   -1    0    0  503  502 -0.00000000000E+00 -0.00000000000E+00 -0.33489283843E+01  0.33489283843E+01  0.00000000000E+00 0. -1.
         21    1    1    2  503  501 -0.70508746820E+01  0.19176575601E+02  0.63364064047E+02  0.66576726400E+02  0.00000000000E+00 0.  1.
         21    1    1    2  504  502  0.70508746820E+01 -0.19176575601E+02  0.58147302142E+02  0.61632496558E+02  0.00000000000E+00 0. -1.
</event>
<event>
 4    1  0.1551744E+006  0.3370941E+02  0.7546771E-02  0.1389871E+00
         21   -1    0    0  503  501  0.00000000000E+00  0.00000000000E+00  0.84100165818E+02  0.84100165818E+02  0.00000000000E+00 0. -1.
         21   -1    0    0  504  502 -0.00000000000E+00 -0.00000000000E+00 -0.14218029130E+02  0.14218029130E+02  0.00000000000E+00 0. -1.
         21    1    1    2  503  502 -0.30457217488E+02 -0.14445829384E+02  0.45899088255E+02  0.56947786492E+02  0.00000000000E+00 0. -1.
         21    1    1    2  504  501  0.30457217488E+02  0.14445829384E+02  0.23983048433E+02  0.41370408456E+02  0.00000000000E+00 0. -1.
</event>
<event>
 4    1  0.1551744E+006  0.2083253E+02  0.7546771E-02  0.1521669E+00
         21   -1    0    0  503  501  0.00000000000E+00  0.00000000000E+00  0.22077524493E+02  0.22077524493E+02  0.00000000000E+00 0. -1.
         21   -1    0    0  504  502 -0.00000000000E+00 -0.00000000000E+00 -0.34752941794E+02  0.34752941794E+02  0.00000000000E+00 0. -1.
         21    1    1    2  503  502  0.19449839875E+02  0.74631007891E+01 -0.25064999633E+02  0.32592151681E+02  0.00000000000E+00 0. -1.
         21    1    1    2  504  501 -0.19449839875E+02 -0.74631007891E+01  0.12389582332E+02  0.24238314606E+02  0.00000000000E+00 0. -1.
</event>
<event>
 4    1  0.1551744E+006  0.7780115E+02  0.7546771E-02  0.1209046E+00
         21   -1    0    0  504  501  0.00000000000E+00  0.00000000000E+00  0.52938021707E+02  0.52938021707E+02  0.00000000000E+00 0.  1.
         21   -1    0    0  503  502 -0.00000000000E+00 -0.00000000000E+00 -0.13004555751E+03  0.13004555751E+03  0.00000000000E+00 0.  1.
         21    1    1    2  503  501 -0.51267322210E+02 -0.58520770853E+02 -0.70347294060E+02  0.10488927843E+03  0.00000000000E+00 0.  1.
         21    1    1    2  504  502  0.51267322210E+02  0.58520770853E+02 -0.67602417476E+01  0.78094300793E+02  0.00000000000E+00 0.  1.
</event>
<event>
 4    1  0.1551744E+006  0.2554283E+02  0.7546771E-02  0.1462821E+00
         21   -1    0    0  504  501  0.00000000000E+00  0.00000000000E+00  0.26355808732E+03  0.26355808732E+03  0.00000000000E+00 0.  1.
         21   -1    0    0  503  502 -0.00000000000E+00 -0.00000000000E+00 -0.77263708098E+02  0.77263708098E+02  0.00000000000E+00 0.  1.
         21    1    1    2  503  501  0.14863031315E+02 -0.20773213158E+02 -0.74511541944E+02  0.78768051694E+02  0.00000000000E+00 0.  1.
         21    1    1    2  504  502 -0.14863031315E+02  0.20773213158E+02  0.26080592117E+03  0.26205374373E+03  0.00000000000E+00 0.  1.
</event>
<event>
 4    1  0.1551744E+006  0.2672583E+02  0.7546771E-02  0.1450382E+00
         21   -1    0    0  503  501  0.00000000000E+00  0.00000000000E+00  0.31357599055E+02  0.31357599055E+02  0.00000000000E+00 0.  1.
         21   -1    0    0  504  502 -0.00000000000E+00 -0.00000000000E+00 -0.67884575512E+02  0.67884575512E+02  0.00000000000E+00 0.  1.
         21    1    1    2  503  502 -0.10514535698E+02  0.24570601480E+02  0.22184753639E+02  0.34733747452E+02  0.00000000000E+00 0.  1.
         21    1    1    2  504  501  0.10514535698E+02 -0.24570601480E+02 -0.58711730096E+02  0.64508427115E+02  0.00000000000E+00 0.  1.
</event>
<event>
 4    1  0.1551744E+006  0.2760997E+02  0.7546771E-02  0.1441575E+00
         21   -1    0    0  504  501  0.00000000000E+00  0.00000000000E+00  0.12897330694E+02  0.12897330694E+02  0.00000000000E+00 0.  1.
         21   -1    0    0  503  502 -0.00000000000E+00 -0.00000000000E+00 -0.59544494995E+02  0.59544494995E+02  0.00000000000E+00 0.  1.
         21    1    1    2  503  501  0.24139913841E+02  0.13400549991E+02 -0.26431715880E+02  0.38222320503E+02  0.00000000000E+00 0.  1.
         21    1    1    2  504  502 -0.24139913841E+02 -0.13400549991E+02 -0.20215448420E+02  0.34219505185E+02  0.00000000000E+00 0.  1.
</event>
<event>
 4    1  0.1551744E+006  0.2603695E+02  0.7546771E-02  0.1457529E+00
         21   -1    0    0  504  501  0.00000000000E+00  0.00000000000E+00  0.62604139489E+02  0.62604139489E+02  0.00000000000E+00 0.  1.
         21   -1    0    0  503  502 -0.00000000000E+00 -0.00000000000E+00 -0.18069788090E+02  0.18069788090E+02  0.00000000000E+00 0.  1.
         21    1    1    2  503  501  0.20831700279E+02 -0.15619320686E+02  0.47801706780E+02  0.54432766660E+02  0.00000000000E+00 0.  1.
         21    1    1    2  504  502 -0.20831700279E+02  0.15619320686E+02 -0.32673553799E+01  0.26241160919E+02  0.00000000000E+00 0.  1.
</event>
<event>
 4    1  0.1551744E+006  0.2245266E+02  0.7546771E-02  0.1499488E+00
         21   -1    0    0  504  501  0.00000000000E+00  0.00000000000E+00  0.14709150512E+02  0.14709150512E+02  0.00000000000E+00 0. -1.
         21   -1    0    0  503  502 -0.00000000000E+00 -0.00000000000E+00 -0.35335225232E+02  0.35335225232E+02  0.00000000000E+00 0. -1.
         21    1    1    2  503  501  0.14507903314E+02 -0.17136004548E+02 -0.14652105052E+02  0.26810559354E+02  0.00000000000E+00 0. -1.
         21    1    1    2  504  502 -0.14507903314E+02  0.17136004548E+02 -0.59739696675E+01  0.23233816390E+02  0.00000000000E+00 0. -1.
</event>
<event>
 4    1  0.1551744E+006  0.2028208E+02  0.7546771E-02  0.1529766E+00
         21   -1    0    0  504  501  0.00000000000E+00  0.00000000000E+00  0.81903385858E+00  0.81903385858E+00  0.00000000000E+00 0. -1.
         21   -1    0    0  503  502 -0.00000000000E+00 -0.00000000000E+00 -0.51926455763E+03  0.51926455763E+03  0.00000000000E+00 0. -1.
         21    1    1    2  503  501 -0.89835757676E+01  0.18184011862E+02 -0.21215648818E+03  0.21312376310E+03  0.00000000000E+00 0. -1.
         21    1    1    2  504  502  0.89835757676E+01 -0.18184011862E+02 -0.30628903559E+03  0.30695982839E+03  0.00000000000E+00 0. -1.
</event>
<event>
 4    1  0.1551744E+006  0.2126099E+02  0.7546771E-02  0.1515571E+00
         21   -1    0    0  503  501  0.00000000000E+00  0.00000000000E+00  0.34035391816E+03  0.34035391816E+03  0.00000000000E+00 0. -1.
         21   -1    0    0  501  502 -0.00000000000E+00 -0.00000000000E+00 -0.64896942531E+02  0.64896942531E+02  0.00000000000E+00 0. -1.
         21    1    1    2  503  504 -0.17066462588E+02 -0.12679342750E+02  0.33826983370E+03  0.33893732499E+03  0.00000000000E+00 0. -1.
         21    1    1    2  504  502  0.17066462588E+02  0.12679342750E+02 -0.62812858074E+02  0.66313535702E+02  0.00000000000E+00 0. -1.
</event>
<event>
 4    1  0.1551744E+006  0.2058005E+02  0.7546771E-02  0.1525346E+00
         21   -1    0    0  503  501  0.00000000000E+00  0.00000000000E+00  0.16536467266E+02  0.16536467266E+02  0.00000000000E+00 0. -1.
         21   -1    0    0  504  502 -0.00000000000E+00 -0.00000000000E+00 -0.57172214216E+02  0.57172214216E+02  0.00000000000E+00 0. -1.
         21    1    1    2  503  502 -0.10780700065E+02 -0.17530396721E+02  0.70640207920E+01  0.21758646392E+02  0.00000000000E+00 0. -1.
         21    1    1    2  504  501  0.10780700065E+02  0.17530396721E+02 -0.47699767742E+02  0.51950035089E+02  0.00000000000E+00 0. -1.
</event>
<event>
 4    1  0.1551744E+006  0.2415916E+02  0.7546771E-02  0.1478434E+00
         21   -1    0    0  503  501  0.00000000000E+00  0.00000000000E+00  0.48233882743E+01  0.48233882743E+01  0.00000000000E+00 0.  1.
         21   -1    0    0  504  502 -0.00000000000E+00 -0.00000000000E+00 -0.15814156063E+03  0.15814156063E+03  0.00000000000E+00 0.  1.
         21    1    1    2  503  502  0.18311748498E+02 -0.15758956219E+02 -0.37174369752E+02  0.44335071903E+02  0.00000000000E+00 0.  1.
         21    1    1    2  504  501 -0.18311748498E+02  0.15758956219E+02 -0.11614380260E+03  0.11862987700E+03  0.00000000000E+00 0.  1.
</event>
<event>
 4    1  0.1551744E+006  0.2206624E+02  0.7546771E-02  0.1504569E+00
         21   -1    0    0  504  501  0.00000000000E+00  0.00000000000E+00  0.13143646220E+02  0.13143646220E+02  0.00000000000E+00 0.  1.
         21   -1    0    0  503  502 -0.00000000000E+00 -0.00000000000E+00 -0.37098340939E+02  0.37098340939E+02  0.00000000000E+00 0.  1.
         21    1    1    2  503  501  0.19446455166E+02 -0.10428528488E+02 -0.12921405903E+02  0.25571107826E+02  0.00000000000E+00 0.  1.
         21    1    1    2  504  502 -0.19446455166E+02  0.10428528488E+02 -0.11033288817E+02  0.24670879333E+02  0.00000000000E+00 0.  1.
</event>
<event>
 4    1  0.1551744E+006  0.2403685E+02  0.7546771E-02  0.1479873E+00
         21   -1    0    0  504  501  0.00000000000E+00  0.00000000000E+00  0.49330699093E+02  0.49330699093E+02  0.00000000000E+00 0. -1.
         21   -1    0    0  501  502 -0.00000000000E+00 -0.00000000000E+00 -0.71386066277E+02  0.71386066277E+02  0.00000000000E+00 0. -1.
         21    1    1    2  503  502  0.86217062539E+01  0.22437386674E+02 -0.66212934528E+02  0.70440917359E+02  0.00000000000E+00 0. -1.
         21    1    1    2  504  503 -0.86217062539E+01 -0.22437386674E+02  0.44157567344E+02  0.50275848011E+02  0.00000000000E+00 0. -1.
</event>
<event>
 4    1  0.1551744E+006  0.2940722E+02  0.7546771E-02  0.1424819E+00
         21   -1    0    0  504  501  0.00000000000E+00  0.00000000000E+00  0.17059597721E+03  0.17059597721E+03  0.00000000000E+00 0. -1.
         21   -1    0    0  501  502 -0.00000000000E+00 -0.00000000000E+00 -0.25052535743E+02  0.25052535743E+02  0.00000000000E+00 0. -1.
         21    1    1    2  503  502  0.60766296370E+01 -0.28772539704E+02 -0.14596752201E+02  0.32830620518E+02  0.00000000000E+00 0. -1.
         21    1    1    2  504  503 -0.60766296370E+01  0.28772539704E+02  0.16014019367E+03  0.16281789244E+03  0.00000000000E+00 0. -1.
</event>
<event>
 4    1  0.1551744E+006  0.3818973E+02  0.7546771E-02  0.1359433E+00
         21   -1    0    0  502  501  0.00000000000E+00  0.00000000000E+00  0.15534387838E+03  0.15534387838E+03  0.00000000000E+00 0.  1.
         21   -1    0    0  504  502 -0.00000000000E+00 -0.00000000000E+00 -0.18403043891E+02  0.18403043891E+02  0.00000000000E+00 0.  1.
         21    1    1    2  503  501  0.11994780823E+02  0.36257143862E+02  0.12927169956E+03  0.13479476086E+03  0.00000000000E+00 0.  1.
         21    1    1    2  504  503 -0.11994780823E+02 -0.36257143862E+02  0.76691349279E+01  0.38952161410E+02  0.00000000000E+00 0.  1.
</event>
<event>
 4    1  0.1551744E+006  0.2783047E+02  0.7546771E-02  0.1439440E+00
         21   -1    0    0  503  501  0.00000000000E+00  0.00000000000E+00  0.21664675233E+03  0.21664675233E+03  0.00000000000E+00 0. -1.
         21   -1    0    0  504  502 -0.00000000000E+00 -0.00000000000E+00 -0.44980063953E+01  0.44980063953E+01  0.00000000000E+00 0. -1.
         21    1    1    2  503  502 -0.59256825539E+01 -0.27192305410E+02  0.55988650056E+02  0.62524108329E+02  0.00000000000E+00 0. -1.
         21    1    1    2  504  501  0.59256825539E+01  0.27192305410E+02  0.15616009588E+03  0.15862065040E+03  0.00000000000E+00 0. -1.
</event>
<event>
 4    1  0.1551744E+006  0.2208378E+02  0.7546771E-02  0.1504335E+00
         21   -1    0    0  504  501  0.00000000000E+00  0.00000000000E+00  0.25670654915E+02  0.25670654915E+02  0.00000000000E+00 0.  1.
         21   -1    0    0  503  502 -0.00000000000E+00 -0.00000000000E+00 -0.20977388821E+02  0.20977388821E+02  0.00000000000E+00 0.  1.
         21    1    1    2  503  501  0.76979223386E+01 -0.20698681327E+02 -0.48178257515E+01  0.22603204684E+02  0.00000000000E+00 0.  1.
         21    1    1    2  504  502 -0.76979223386E+01  0.20698681327E+02  0.95110918454E+01  0.24044839053E+02  0.00000000000E+00 0.  1.
</event>
<event>
 4    1  0.1551744E+006  0.2371653E+02  0.7546771E-02  0.1483691E+00
         21   -1    0    0  502  501  0.00000000000E+00  0.00000000000E+00  0.11376688359E+02  0.11376688359E+02  0.00000000000E+00 0.  1.
         21   -1    0    0  504  502 -0.00000000000E+00 -0.00000000000E+00 -0.40178039364E+03  0.40178039364E+03  0.00000000000E+00 0.  1.
         21    1    1    2  503  501 -0.96278656572E+01  0.21674362341E+02 -0.17506227856E+01  0.23781052545E+02  0.00000000000E+00 0.  1.
         21    1    1    2  504  503  0.96278656572E+01 -0.21674362341E+02 -0.38865308250E+03  0.38937602946E+03  0.00000000000E+00 0.  1.
</event>
<event>
 4    1  0.1551744E+006  0.2671857E+02  0.7546771E-02  0.1450456E+00
         21   -1    0    0  503  501  0.00000000000E+00  0.00000000000E+00  0.63519353765E+02  0.63519353765E+02  0.00000000000E+00 0. -1.
         21   -1    0    0  504  502 -0.00000000000E+00 -0.00000000000E+00 -0.99826615589E+02  0.99826615589E+02  0.00000000000E+00 0. -1.
         21    1    1    2  503  502  0.18575134163E+02  0.19205379739E+02 -0.95091865093E+02  0.98774212358E+02  0.00000000000E+00 0. -1.
         21    1    1    2  504  501 -0.18575134163E+02 -0.19205379739E+02  0.58784603269E+02  0.64571756997E+02  0.00000000000E+00 0. -1.
</event>
<event>
 4    1  0.1551744E+006  0.2123212E+02  0.7546771E-02  0.1515976E+00
         21   -1    0    0  503  501  0.00000000000E+00  0.00000000000E+00  0.15925481080E+03  0.15925481080E+03  0.00000000000E+00 0. -1.
         21   -1    0    0  501  502 -0.00000000000E+00 -0.00000000000E+00 -0.38232229080E+01  0.38232229080E+01  0.00000000000E+00 0. -1.
         21    1    1    2  503  504 -0.20193081378E+02  0.65606819777E+01  0.11926093678E+03  0.12113618008E+03  0.00000000000E+00 0. -1.
         21    1    1    2  504  502  0.20193081378E+02 -0.65606819777E+01  0.36170651109E+02  0.41941853621E+02  0.00000000000E+00 0. -1.
</event>
<event>
 4    1  0.1551744E+006  0.3194724E+02  0.7546771E-02  0.1403397E+00
         21   -1    0    0  504  501  0.00000000000E+00  0.00000000000E+00  0.62773433231E+02  0.62773433231E+02  0.00000000000E+00 0. -1.
         21   -1    0    0  503  502 -0.00000000000E+00 -0.00000000000E+00 -0.53119852916E+03  0.53119852916E+03  0.00000000000E+00 0.  1.
         21    1    1    2  503  501  0.31941186295E+02 -0.62165434916E+00 -0.52661814627E+03  0.52758629418E+03  0.00000000000E+00 0.  1.
         21    1    1    2  504  502 -0.31941186295E+02  0.62165434916E+00  0.58193050335E+02  0.66385668207E+02  0.00000000000E+00 0. -1.
</event>
<event>
 4    1  0.1551744E+006  0.2848517E+02  0.7546771E-02  0.1433234E+00
         21   -1    0    0  502  501  0.00000000000E+00  0.00000000000E+00  0.37951773936E+03  0.37951773936E+03  0.00000000000E+00 0.  1.
         21   -1    0    0  504  502 -0.00000000000E+00 -0.00000000000E+00 -0.11873951744E+02  0.11873951744E+02  0.00000000000E+00 0.  1.
         21    1    1    2  503  501 -0.19914820073E+02 -0.20366761982E+02  0.36102584459E+03  0.36214785035E+03  0.00000000000E+00 0.  1.
         21    1    1    2  504  503  0.19914820073E+02  0.20366761982E+02  0.66179430277E+01  0.29243840755E+02  0.00000000000E+00 0.  1.
</event>
<event>
 4    1  0.1551744E+006  0.2261492E+02  0.7546771E-02  0.1497391E+00
         21   -1    0    0  504  501  0.00000000000E+00  0.00000000000E+00  0.27352101929E+01  0.27352101929E+01  0.00000000000E+00 0.  1.
         21   -1    0    0  503  502 -0.00000000000E+00 -0.00000000000E+00 -0.41032172197E+03  0.41032172197E+03  0.00000000000E+00 0.  1.
         21    1    1    2  503  501 -0.21812981599E+02  0.59689539745E+01 -0.51422779098E+02  0.56175944922E+02  0.00000000000E+00 0.  1.
         21    1    1    2  504  502  0.21812981599E+02 -0.59689539745E+01 -0.35616373268E+03  0.35688098724E+03  0.00000000000E+00 0.  1.
</event>
<event>
 4    1  0.1551744E+006  0.2273361E+02  0.7546771E-02  0.1495871E+00
         21   -1    0    0  504  501  0.00000000000E+00  0.00000000000E+00  0.10643886435E+03  0.10643886435E+03  0.00000000000E+00 0. -1.
         21   -1    0    0  503  502 -0.00000000000E+00 -0.00000000000E+00 -0.70048033921E+01  0.70048033921E+01  0.00000000000E+00 0. -1.
         21    1    1    2  503  501  0.18912023092E+02 -0.12615564892E+02  0.81136447560E+02  0.84261142988E+02  0.00000000000E+00 0. -1.
         21    1    1    2  504  502 -0.18912023092E+02  0.12615564892E+02  0.18297613397E+02  0.29182524753E+02  0.00000000000E+00 0. -1.
</event>
<event>
 4    1  0.1551744E+006  0.2486938E+02  0.7546771E-02  0.1470270E+00
         21   -1    0    0  504  501  0.00000000000E+00  0.00000000000E+00  0.14149823984E+04  0.14149823984E+04  0.00000000000E+00 0.  1.
         21   -1    0    0  503  502 -0.00000000000E+00 -0.00000000000E+00 -0.64269794046E+01  0.64269794046E+01  0.00000000000E+00 0.  1.
         21    1    1    2  503  501  0.12360627971E+02  0.21580108662E+02  0.13903894209E+04  0.13906118178E+04  0.00000000000E+00 0.  1.
         21    1    1    2  504  502 -0.12360627971E+02 -0.21580108662E+02  0.18165998167E+02  0.30797560018E+02  0.00000000000E+00 0.  1.
</event>
<event>
 4    1  0.1551744E+006  0.2196206E+02  0.7546771E-02  0.1505960E+00
         21   -1    0    0  504  501  0.00000000000E+00  0.00000000000E+00  0.49368309925E+02  0.49368309925E+02  0.00000000000E+00 0.  1.
         21   -1    0    0  503  502 -0.00000000000E+00 -0.00000000000E+00 -0.11198855151E+03  0.11198855151E+03  0.00000000000E+00 0.  1.
         21    1    1    2  503  501  0.21930309503E+02 -0.11804494364E+01  0.45768748828E+02  0.50765247021E+02  0.00000000000E+00 0.  1.
         21    1    1    2  504  502 -0.21930309503E+02  0.11804494364E+01 -0.10838899042E+03  0.11059161442E+03  0.00000000000E+00 0.  1.
</event>
<event>
 4    1  0.1551744E+006  0.2896854E+02  0.7546771E-02  0.1428777E+00
         21   -1    0    0  503  501  0.00000000000E+00  0.00000000000E+00  0.30088067567E+02  0.30088067567E+02  0.00000000000E+00 0. -1.
         21   -1    0    0  504  502 -0.00000000000E+00 -0.00000000000E+00 -0.64177814245E+02  0.64177814245E+02  0.00000000000E+00 0. -1.
         21    1    1    2  503  502 -0.27676917825E+02  0.85536329082E+01  0.18396330312E+02  0.34316197126E+02  0.00000000000E+00 0. -1.
         21    1    1    2  504  501  0.27676917825E+02 -0.85536329082E+01 -0.52486076990E+02  0.59949684686E+02  0.00000000000E+00 0. -1.
</event>
<event>
 4    1  0.1551744E+006  0.2369298E+02  0.7546771E-02  0.1483975E+00
         21   -1    0    0  503  501  0.00000000000E+00  0.00000000000E+00  0.77908955761E+02  0.77908955761E+02  0.00000000000E+00 0.  1.
         21   -1    0    0  504  502 -0.00000000000E+00 -0.00000000000E+00 -0.84048664000E+01  0.84048664000E+01  0.00000000000E+00 0.  1.
         21    1    1    2  503  502 -0.22199433920E+02  0.82790244737E+01  0.18447909885E+02  0.30028028436E+02  0.00000000000E+00 0.  1.
         21    1    1    2  504  501  0.22199433920E+02 -0.82790244737E+01  0.51056179476E+02  0.56285793726E+02  0.00000000000E+00 0.  1.
</event>
<event>
 4    1  0.1551744E+006  0.3115923E+02  0.7546771E-02  0.1409783E+00
         21   -1    0    0  503  501  0.00000000000E+00  0.00000000000E+00  0.13981998595E+03  0.13981998595E+03  0.00000000000E+00 0. -1.
         21   -1    0    0  504  502 -0.00000000000E+00 -0.00000000000E+00 -0.89317227055E+02  0.89317227055E+02  0.00000000000E+00 0.  1.
         21    1    1    2  503  502 -0.12456106709E+01  0.31134325628E+02 -0.84773597255E+02  0.90318661249E+02  0.00000000000E+00 0.  1.
         21    1    1    2  504  501  0.12456106709E+01 -0.31134325628E+02  0.13527635615E+03  0.13881855175E+03  0.00000000000E+00 0. -1.
</event>
<event>
 4    1  0.1551744E+006  0.2410480E+02  0.7546771E-02  0.1479072E+00
         21   -1    0    0  502  501  0.00000000000E+00  0.00000000000E+00  0.32113535368E+02  0.32113535368E+02  0.00000000000E+00 0. -1.
         21   -1    0    0  503  502 -0.00000000000E+00 -0.00000000000E+00 -0.31638628097E+02  0.31638628097E+02  0.00000000000E+00 0.  1.
         21    1    1    2  503  504 -0.62618802150E+01  0.23277244181E+02 -0.20619466113E+02  0.31720712843E+02  0.00000000000E+00 0.  1.
         21    1    1    2  504  501  0.62618802150E+01 -0.23277244181E+02  0.21094373384E+02  0.32031450622E+02  0.00000000000E+00 0. -1.
</event>
<event>
 4    1  0.1551744E+006  0.2735559E+02  0.7546771E-02  0.1444068E+00
         21   -1    0    0  503  501  0.00000000000E+00  0.00000000000E+00  0.12220599420E+03  0.12220599420E+03  0.00000000000E+00 0.  1.
         21   -1    0    0  504  502 -0.00000000000E+00 -0.00000000000E+00 -0.65175666773E+01  0.65175666773E+01  0.00000000000E+00 0.  1.
         21    1    1    2  503  502  0.25152776220E+02  0.10754832011E+02  0.73670151506E+02  0.78585111733E+02  0.00000000000E+00 0.  1.
         21    1    1    2  504  501 -0.25152776220E+02 -0.10754832011E+02  0.42018276015E+02  0.50138449143E+02  0.00000000000E+00 0.  1.
</event>
<event>
 4    1  0.1551744E+006  0.2364194E+02  0.7546771E-02  0.1484591E+00
         21   -1    0    0  503  501  0.00000000000E+00  0.00000000000E+00  0.26995602433E+03  0.26995602433E+03  0.00000000000E+00 0.  1.
         21   -1    0    0  504  502 -0.00000000000E+00 -0.00000000000E+00 -0.24151280118E+03  0.24151280118E+03  0.00000000000E+00 0. -1.
         21    1    1    2  503  502  0.23631994541E+02  0.68562554632E+00  0.26885745881E+03  0.26989493216E+03  0.00000000000E+00 0.  1.
         21    1    1    2  504  501 -0.23631994541E+02 -0.68562554632E+00 -0.24041423566E+03  0.24157389336E+03  0.00000000000E+00 0. -1.
</event>
<event>
 4    1  0.1551744E+006  0.2285936E+02  0.7546771E-02  0.1494272E+00
         21   -1    0    0  503  501  0.00000000000E+00  0.00000000000E+00  0.26216188045E+02  0.26216188045E+02  0.00000000000E+00 0.  1.
         21   -1    0    0  504  502 -0.00000000000E+00 -0.00000000000E+00 -0.23129431554E+02  0.23129431554E+02  0.00000000000E+00 0.  1.
         21    1    1    2  503  502 -0.18280599155E+02  0.13724795667E+02 -0.76296507497E+01  0.24099001890E+02  0.00000000000E+00 0.  1.
         21    1    1    2  504  501  0.18280599155E+02 -0.13724795667E+02  0.10716407240E+02  0.25246617708E+02  0.00000000000E+00 0.  1.
</event>
<event>
 4    1  0.1551744E+006  0.3125563E+02  0.7546771E-02  0.1408990E+00
         21   -1    0    0  502  501  0.00000000000E+00  0.00000000000E+00  0.84301039413E+02  0.84301039413E+02  0.00000000000E+00 0. -1.
         21   -1    0    0  503  502 -0.00000000000E+00 -0.00000000000E+00 -0.72604420483E+02  0.72604420483E+02  0.00000000000E+00 0.  1.
         21    1    1    2  503  504 -0.33779993205E+01 -0.31072557009E+02 -0.66071486519E+02  0.73091422269E+02  0.00000000000E+00 0.  1.
         21    1    1    2  504  501  0.33779993205E+01  0.31072557009E+02  0.77768105449E+02  0.83814037628E+02  0.00000000000E+00 0. -1.
</event>
<event>
 4    1  0.1551744E+006  0.2319315E+02  0.7546771E-02  0.1490087E+00
         21   -1    0    0  502  501  0.00000000000E+00  0.00000000000E+00  0.16734965415E+03  0.16734965415E+03  0.00000000000E+00 0. -1.
         21   -1    0    0  504  502 -0.00000000000E+00 -0.00000000000E+00 -0.32888893759E+01  0.32888893759E+01  0.00000000000E+00 0. -1.
         21    1    1    2  503  501 -0.12077243961E+01  0.23161688033E+02  0.69186981346E+02  0.72970958460E+02  0.00000000000E+00 0. -1.
         21    1    1    2  504  503  0.12077243961E+01 -0.23161688033E+02  0.94873783428E+02  0.97667585066E+02  0.00000000000E+00 0. -1.
</event>
<event>
 4    1  0.1551744E+006  0.2192565E+02  0.7546771E-02  0.1506448E+00
         21   -1    0    0  502  501  0.00000000000E+00  0.00000000000E+00  0.16916314493E+02  0.16916314493E+02  0.00000000000E+00 0.  1.
         21   -1    0    0  503  502 -0.00000000000E+00 -0.00000000000E+00 -0.37979837513E+02  0.37979837513E+02  0.00000000000E+00 0.  1.
         21    1    1    2  503  504  0.17602355573E+02 -0.13072543483E+02 -0.24303771333E+02  0.32732363432E+02  0.00000000000E+00 0.  1.
         21    1    1    2  504  501 -0.17602355573E+02  0.13072543483E+02  0.32402483128E+01  0.22163788574E+02  0.00000000000E+00 0.  1.
</event>
<event>
 4    1  0.1551744E+006  0.2217563E+02  0.7546771E-02  0.1503118E+00
         21   -1    0    0  504  501  0.00000000000E+00  0.00000000000E+00  0.32199820914E+02  0.32199820914E+02  0.00000000000E+00 0. -1.
         21   -1    0    0  503  502 -0.00000000000E+00 -0.00000000000E+00 -0.16046485050E+02  0.16046485050E+02  0.00000000000E+00 0. -1.
         21    1    1    2  503  501  0.19125673213E+02  0.11223511625E+02  0.27772866149E+01  0.22348868204E+02  0.00000000000E+00 0. -1.
         21    1    1    2  504  502 -0.19125673213E+02 -0.11223511625E+02  0.13376049248E+02  0.25897437760E+02  0.00000000000E+00 0. -1.
</event>
<event>
 4    1  0.1551744E+006  0.2663184E+02  0.7546771E-02  0.1451342E+00
         21   -1    0    0  504  501  0.00000000000E+00  0.00000000000E+00  0.61121792875E+02  0.61121792875E+02  0.00000000000E+00 0.  1.
         21   -1    0    0  501  502 -0.00000000000E+00 -0.00000000000E+00 -0.22110982109E+03  0.22110982109E+03  0.00000000000E+00 0.  1.
         21    1    1    2  503  502 -0.18643906536E+02 -0.19017352337E+02 -0.21735700358E+03  0.21898246950E+03  0.00000000000E+00 0.  1.
         21    1    1    2  504  503  0.18643906536E+02  0.19017352337E+02  0.57368975368E+02  0.63249144466E+02  0.00000000000E+00 0.  1.
</event>
<event>
 4    1  0.1551744E+006  0.2256009E+02  0.7546771E-02  0.1498097E+00
         21   -1    0    0  503  501  0.00000000000E+00  0.00000000000E+00  0.12616540810E+03  0.12616540810E+03  0.00000000000E+00 0. -1.
         21   -1    0    0  504  502 -0.00000000000E+00 -0.00000000000E+00 -0.44522071871E+02  0.44522071871E+02  0.00000000000E+00 0. -1.
         21    1    1    2  503  502  0.95925424307E+01  0.20419124922E+02  0.12220721168E+03  0.12427212125E+03  0.00000000000E+00 0. -1.
         21    1    1    2  504  501 -0.95925424307E+01 -0.20419124922E+02 -0.40563875456E+02  0.46415358718E+02  0.00000000000E+00 0. -1.
</event>
<event>
 4    1  0.1551744E+006  0.3998388E+02  0.7546771E-02  0.1348580E+00
         21   -1    0    0  503  501  0.00000000000E+00  0.00000000000E+00  0.12656634406E+04  0.12656634406E+04  0.00000000000E+00 0. -1.
         21   -1    0    0  504  502 -0.00000000000E+00 -0.00000000000E+00 -0.34575475087E+01  0.34575475087E+01  0.00000000000E+00 0. -1.
         21    1    1    2  503  502  0.39042549074E+01 -0.39792810492E+02  0.12557225664E+03  0.13178430336E+03  0.00000000000E+00 0. -1.
         21    1    1    2  504  501 -0.39042549074E+01  0.39792810492E+02  0.11366336365E+04  0.11373366848E+04  0.00000000000E+00 0. -1.
</event>
<event>
 4    1  0.1551744E+006  0.2169694E+02  0.7546771E-02  0.1509543E+00
         21   -1    0    0  504  501  0.00000000000E+00  0.00000000000E+00  0.12775957147E+01  0.12775957147E+01  0.00000000000E+00 0.  1.
         21   -1    0    0  503  502 -0.00000000000E+00 -0.00000000000E+00 -0.52313311457E+03  0.52313311457E+03  0.00000000000E+00 0.  1.
         21    1    1    2  503  501  0.17835171542E+02  0.12355725896E+02 -0.40349739980E+03  0.40408032488E+03  0.00000000000E+00 0.  1.
         21    1    1    2  504  502 -0.17835171542E+02 -0.12355725896E+02 -0.11835811906E+03  0.12033038541E+03  0.00000000000E+00 0.  1.
</event>
<event>
 4    1  0.1551744E+006  0.2601946E+02  0.7546771E-02  0.1457714E+00
         21   -1    0    0  504  501  0.00000000000E+00  0.00000000000E+00  0.95568839359E+01  0.95568839359E+01  0.00000000000E+00 0.  1.
         21   -1    0    0  503  502 -0.00000000000E+00 -0.00000000000E+00 -0.24376194395E+03  0.24376194395E+03  0.00000000000E+00 0.  1.
         21    1    1    2  503  501 -0.22475940047E+02 -0.13108952800E+02 -0.22378159481E+03  0.22528918017E+03  0.00000000000E+00 0.  1.
         21    1    1    2  504  502  0.22475940047E+02  0.13108952800E+02 -0.10423465207E+02  0.28029647722E+02  0.00000000000E+00 0.  1.
</event>
<event>
 4    1  0.1551744E+006  0.2403868E+02  0.7546771E-02  0.1479852E+00
         21   -1    0    0  503  501  0.00000000000E+00  0.00000000000E+00  0.15039849983E+03  0.15039849983E+03  0.00000000000E+00 0.  1.
         21   -1    0    0  501  502 -0.00000000000E+00 -0.00000000000E+00 -0.26312485730E+02  0.26312485730E+02  0.00000000000E+00 0.  1.
         21    1    1    2  503  504 -0.23996096255E+02  0.14301745907E+01  0.14369318019E+03  0.14569004107E+03  0.00000000000E+00 0.  1.
         21    1    1    2  504  502  0.23996096255E+02 -0.14301745907E+01 -0.19607166090E+02  0.31020944488E+02  0.00000000000E+00 0.  1.
</event>
<event>
 4    1  0.1551744E+006  0.2038649E+02  0.7546771E-02  0.1528207E+00
         21   -1    0    0  504  501  0.00000000000E+00  0.00000000000E+00  0.41277817662E+01  0.41277817662E+01  0.00000000000E+00 0.  1.
         21   -1    0    0  501  502 -0.00000000000E+00 -0.00000000000E+00 -0.14753227997E+03  0.14753227997E+03  0.00000000000E+00 0.  1.
         21    1    1    2  503  502  0.16215165429E+02  0.12356265018E+02 -0.11443258811E+03  0.11623435850E+03  0.00000000000E+00 0.  1.
         21    1    1    2  504  503 -0.16215165429E+02 -0.12356265018E+02 -0.28971910095E+02  0.35425703234E+02  0.00000000000E+00 0.  1.
</event>
<event>
 4    1  0.1551744E+006  0.4294513E+02  0.7546771E-02  0.1332041E+00
         21   -1    0    0  504  501  0.00000000000E+00  0.00000000000E+00  0.17262893139E+02  0.17262893139E+02  0.00000000000E+00 0. -1.
         21   -1    0    0  503  502 -0.00000000000E+00 -0.00000000000E+00 -0.13904387726E+03  0.13904387726E+03  0.00000000000E+00 0. -1.
         21    1    1    2  503  501  0.32233242525E+02  0.28377855619E+02 -0.23275730340E+02  0.48847151770E+02  0.00000000000E+00 0. -1.
         21    1    1    2  504  502 -0.32233242525E+02 -0.28377855619E+02 -0.98505253785E+02  0.10745961863E+03  0.00000000000E+00 0. -1.
</event>
<event>
 4    1  0.1551744E+006  0.3380819E+02  0.7546771E-02  0.1389141E+00
         21   -1    0    0  503  501  0.00000000000E+00  0.00000000000E+00  0.34667474271E+03  0.34667474271E+03  0.00000000000E+00 0.  1.
         21   -1    0    0  504  502 -0.00000000000E+00 -0.00000000000E+00 -0.34481958761E+01  0.34481958761E+01  0.00000000000E+00 0.  1.
         21    1    1    2  503  502 -0.12969764115E+02  0.31221448948E+02  0.20826846189E+03  0.21099465840E+03  0.00000000000E+00 0.  1.
         21    1    1    2  504  501  0.12969764115E+02 -0.31221448948E+02  0.13495808494E+03  0.13912828019E+03  0.00000000000E+00 0.  1.
</event>
<event>
 4    1  0.1551744E+006  0.2077645E+02  0.7546771E-02  0.1522481E+00
         21   -1    0    0  503  501  0.00000000000E+00  0.00000000000E+00  0.40801813306E+03  0.40801813306E+03  0.00000000000E+00 0.  1.
         21   -1    0    0  504  502 -0.00000000000E+00 -0.00000000000E+00 -0.55453352347E+01  0.55453352347E+01  0.00000000000E+00 0. -1.
         21    1    1    2  503  502 -0.19774161937E+02 -0.63752171304E+01  0.15222594978E+02  0.25756324886E+02  0.00000000000E+00 0. -1.
         21    1    1    2  504  501  0.19774161937E+02  0.63752171304E+01  0.38725020285E+03  0.38780714341E+03  0.00000000000E+00 0.  1.
</event>
<event>
 4    1  0.1551744E+006  0.3662061E+02  0.7546771E-02  0.1369514E+00
         21   -1    0    0  503  501  0.00000000000E+00  0.00000000000E+00  0.11832631979E+03  0.11832631979E+03  0.00000000000E+00 0.  1.
         21   -1    0    0  504  502 -0.00000000000E+00 -0.00000000000E+00 -0.30610412624E+02  0.30610412624E+02  0.00000000000E+00 0.  1.
         21    1    1    2  503  502  0.17755354278E+02 -0.32028375050E+02  0.10295343203E+03  0.10927249691E+03  0.00000000000E+00 0.  1.
         21    1    1    2  504  501 -0.17755354278E+02  0.32028375050E+02 -0.15237524867E+02  0.39664235502E+02  0.00000000000E+00 0.  1.
</event>
<event>
 4    1  0.1551744E+006  0.2409419E+02  0.7546771E-02  0.1479197E+00
         21   -1    0    0  503  501  0.00000000000E+00  0.00000000000E+00  0.14112722339E+03  0.14112722339E+03  0.00000000000E+00 0.  1.
         21   -1    0    0  504  502 -0.00000000000E+00 -0.00000000000E+00 -0.13322597530E+03  0.13322597530E+03  0.00000000000E+00 0.  1.
         21    1    1    2  503  502 -0.18090869627E+02  0.15913840299E+02  0.13899286793E+03  0.14106575492E+03  0.00000000000E+00 0.  1.
         21    1    1    2  504  501  0.18090869627E+02 -0.15913840299E+02 -0.13109161984E+03  0.13328744378E+03  0.00000000000E+00 0.  1.
</event>
<event>
 4    1  0.1551744E+006  0.2467932E+02  0.7546771E-02  0.1472423E+00
         21   -1    0    0  502  501  0.00000000000E+00  0.00000000000E+00  0.12135074254E+02  0.12135074254E+02  0.00000000000E+00 0.  1.
         21   -1    0    0  504  502 -0.00000000000E+00 -0.00000000000E+00 -0.16223099629E+03  0.16223099629E+03  0.00000000000E+00 0.  1.
         21    1    1    2  503  501  0.94830891056E+01  0.22784635581E+02 -0.25956778885E+01  0.24815441589E+02  0.00000000000E+00 0.  1.
         21    1    1    2  504  503 -0.94830891056E+01 -0.22784635581E+02 -0.14750024415E+03  0.14955062896E+03  0.00000000000E+00 0.  1.
</event>
<event>
 4    1  0.1551744E+006  0.2134254E+02  0.7546771E-02  0.1514430E+00
         21   -1    0    0  503  501  0.00000000000E+00  0.00000000000E+00  0.86534791191E+02  0.86534791191E+02  0.00000000000E+00 0.  1.
         21   -1    0    0  504  502 -0.00000000000E+00 -0.00000000000E+00 -0.52963039670E+01  0.52963039670E+01  0.00000000000E+00 0.  1.
         21    1    1    2  503  502  0.18497719441E+02 -0.10646058550E+02  0.37023739871E+02  0.42734780931E+02  0.00000000000E+00 0.  1.
         21    1    1    2  504  501 -0.18497719441E+02  0.10646058550E+02  0.44214747353E+02  0.49096314227E+02  0.00000000000E+00 0.  1.
</event>
<event>
 4    1  0.1551744E+006  0.3261948E+02  0.7546771E-02  0.1398119E+00
         21   -1    0    0  504  501  0.00000000000E+00  0.00000000000E+00  0.73687173456E+01  0.73687173456E+01  0.00000000000E+00 0. -1.
         21   -1    0    0  503  502 -0.00000000000E+00 -0.00000000000E+00 -0.14994136590E+03  0.14994136590E+03  0.00000000000E+00 0.  1.
         21    1    1    2  503  501 -0.25600419612E+01 -0.32518862665E+02 -0.56163220606E+02  0.64948730493E+02  0.00000000000E+00 0. -1.
         21    1    1    2  504  502  0.25600419612E+01  0.32518862665E+02 -0.86409427953E+02  0.92361352757E+02  0.00000000000E+00 0.  1.
</event>
<event>
 4    1  0.1551744E+006  0.2295528E+02  0.7546771E-02  0.1493060E+00
         21   -1    0    0  504  501  0.00000000000E+00  0.00000000000E+00  0.17424201764E+03  0.17424201764E+03  0.00000000000E+00 0.  1.
         21   -1    0    0  503  502 -0.00000000000E+00 -0.00000000000E+00 -0.32436187361E+01  0.32436187361E+01  0.00000000000E+00 0.  1.
         21    1    1    2  503  501  0.62329352758E+01 -0.22092885745E+02  0.62418886538E+02  0.66506108586E+02  0.00000000000E+00 0.  1.
         21    1    1    2  504  502 -0.62329352758E+01  0.22092885745E+02  0.10857951237E+03  0.11097952779E+03  0.00000000000E+00 0.  1.
</event>
<event>
 4    1  0.1551744E+006  0.2756053E+02  0.7546771E-02  0.1442057E+00
         21   -1    0    0  503  501  0.00000000000E+00  0.00000000000E+00  0.14317201253E+02  0.14317201253E+02  0.00000000000E+00 0. -1.
         21   -1    0    0  501  502 -0.00000000000E+00 -0.00000000000E+00 -0.78372381802E+02  0.78372381802E+02  0.00000000000E+00 0. -1.
         21    1    1    2  503  504  0.10772072736E+02  0.25368196069E+02 -0.56862114446E+01  0.28141000754E+02  0.00000000000E+00 0. -1.
         21    1    1    2  504  502 -0.10772072736E+02 -0.25368196069E+02 -0.58368969105E+02  0.64548582302E+02  0.00000000000E+00 0. -1.
</event>
<event>
 4    1  0.1551744E+006  0.2162894E+02  0.7546771E-02  0.1510472E+00
         21   -1    0    0  504  501  0.00000000000E+00  0.00000000000E+00  0.16731314989E+02  0.16731314989E+02  0.00000000000E+00 0.  1.
         21   -1    0    0  503  502 -0.00000000000E+00 -0.00000000000E+00 -0.28725017289E+02  0.28725017289E+02  0.00000000000E+00 0.  1.
         21    1    1    2  503  501 -0.19956789070E+02  0.83389291360E+01 -0.97054405637E+01  0.23706681456E+02  0.00000000000E+00 0.  1.
         21    1    1    2  504  502  0.19956789070E+02 -0.83389291360E+01 -0.22882617360E+01  0.21749650822E+02  0.00000000000E+00 0.  1.
</event>
<event>
 4    1  0.1551744E+006  0.3570582E+02  0.7546771E-02  0.1375668E+00
         21   -1    0    0  504  501  0.00000000000E+00  0.00000000000E+00  0.42165495997E+03  0.42165495997E+03  0.00000000000E+00 0. -1.
         21   -1    0    0  501  502 -0.00000000000E+00 -0.00000000000E+00 -0.48583330170E+01  0.48583330170E+01  0.00000000000E+00 0. -1.
         21    1    1    2  503  502 -0.58079893294E+01 -0.35230281882E+02  0.77344910453E+02  0.85188852994E+02  0.00000000000E+00 0. -1.
         21    1    1    2  504  503  0.58079893294E+01  0.35230281882E+02  0.33945171650E+03  0.34132444000E+03  0.00000000000E+00 0. -1.
</event>
<event>
 4    1  0.1551744E+006  0.2310315E+02  0.7546771E-02  0.1491207E+00
         21   -1    0    0  503  501  0.00000000000E+00  0.00000000000E+00  0.32914652341E+02  0.32914652341E+02  0.00000000000E+00 0. -1.
         21   -1    0    0  504  502 -0.00000000000E+00 -0.00000000000E+00 -0.18476027740E+02  0.18476027740E+02  0.00000000000E+00 0. -1.
         21    1    1    2  503  502 -0.20200053091E+02 -0.11212202723E+02  0.16205448410E+02  0.28220067203E+02  0.00000000000E+00 0. -1.
         21    1    1    2  504  501  0.20200053091E+02  0.11212202723E+02 -0.17668238095E+01  0.23170612878E+02  0.00000000000E+00 0. -1.
</event>
<event>
 4    1  0.1551744E+006  0.2167284E+02  0.7546771E-02  0.1509871E+00
         21   -1    0    0  502  501  0.00000000000E+00  0.00000000000E+00  0.68606095251E+02  0.68606095251E+02  0.00000000000E+00 0.  1.
         21   -1    0    0  503  502 -0.00000000000E+00 -0.00000000000E+00 -0.91535875083E+01  0.91535875083E+01  0.00000000000E+00 0.  1.
         21    1    1    2  503  504 -0.12287279684E+02 -0.17853149622E+02  0.10207140886E+02  0.23956166607E+02  0.00000000000E+00 0.  1.
         21    1    1    2  504  501  0.12287279684E+02  0.17853149622E+02  0.49245366858E+02  0.53803516153E+02  0.00000000000E+00 0.  1.
</event>
<event>
 4    1  0.1551744E+006  0.3406715E+02  0.7546771E-02  0.1387243E+00
         21   -1    0    0  502  501  0.00000000000E+00  0.00000000000E+00  0.52457088305E+02  0.52457088305E+02  0.00000000000E+00 0.  1.
         21   -1    0    0  504  502 -0.00000000000E+00 -0.00000000000E+00 -0.65383337952E+02  0.65383337952E+02  0.00000000000E+00 0.  1.
         21    1    1    2  503  501  0.34057866044E+02  0.79511307251E+00  0.41462718019E+02  0.53663091877E+02  0.00000000000E+00 0.  1.
         21    1    1    2  504  503 -0.34057866044E+02 -0.79511307251E+00 -0.54388967667E+02  0.64177334380E+02  0.00000000000E+00 0.  1.
</event>
<event>
 4    1  0.1551744E+006  0.2303038E+02  0.7546771E-02  0.1492117E+00
         21   -1    0    0  503  501  0.00000000000E+00  0.00000000000E+00  0.10794518028E+03  0.10794518028E+03  0.00000000000E+00 0. -1.
         21   -1    0    0  504  502 -0.00000000000E+00 -0.00000000000E+00 -0.17855068590E+02  0.17855068590E+02  0.00000000000E+00 0. -1.
         21    1    1    2  503  502 -0.60413437661E+01 -0.22223871612E+02  0.98595453574E+02  0.10124950256E+03  0.00000000000E+00 0. -1.
         21    1    1    2  504  501  0.60413437661E+01  0.22223871612E+02 -0.85053418796E+01  0.24550746311E+02  0.00000000000E+00 0. -1.
</event>
<event>
 4    1  0.1551744E+006  0.2229425E+02  0.7546771E-02  0.1501556E+00
         21   -1    0    0  504  501  0.00000000000E+00  0.00000000000E+00  0.14946250550E+02  0.14946250550E+02  0.00000000000E+00 0. -1.
         21   -1    0    0  503  502 -0.00000000000E+00 -0.00000000000E+00 -0.11093614246E+04  0.11093614246E+04  0.00000000000E+00 0. -1.
         21    1    1    2  503  501  0.19038616044E+02  0.11600209641E+02 -0.11008716215E+04  0.11010973439E+04  0.00000000000E+00 0. -1.
         21    1    1    2  504  502 -0.19038616044E+02 -0.11600209641E+02  0.64564474078E+01  0.23210331271E+02  0.00000000000E+00 0. -1.
</event>
<event>
 4    1  0.1551744E+006  0.2438148E+02  0.7546771E-02  0.1475843E+00
         21   -1    0    0  504  501  0.00000000000E+00  0.00000000000E+00  0.28311308831E+03  0.28311308831E+03  0.00000000000E+00 0. -1.
         21   -1    0    0  501  502 -0.00000000000E+00 -0.00000000000E+00 -0.63386442431E+02  0.63386442431E+02  0.00000000000E+00 0.  1.
         21    1    1    2  503  502  0.24296894796E+02  0.20291933773E+01 -0.60492774692E+02  0.65221411457E+02  0.00000000000E+00 0.  1.
         21    1    1    2  504  503 -0.24296894796E+02 -0.20291933773E+01  0.28021942057E+03  0.28127811928E+03  0.00000000000E+00 0. -1.
</event>
<event>
 4    1  0.1551744E+006  0.2425738E+02  0.7546771E-02  0.1477285E+00
         21   -1    0    0  503  501  0.00000000000E+00  0.00000000000E+00  0.75266509568E+02  0.75266509568E+02  0.00000000000E+00 0. -1.
         21   -1    0    0  501  502 -0.00000000000E+00 -0.00000000000E+00 -0.29734938610E+02  0.29734938610E+02  0.00000000000E+00 0.  1.
         21    1    1    2  503  504  0.48243224866E+01  0.23772811637E+02  0.67839506804E+02  0.72045953002E+02  0.00000000000E+00 0. -1.
         21    1    1    2  504  502 -0.48243224866E+01 -0.23772811637E+02 -0.22307935846E+02  0.32955495176E+02  0.00000000000E+00 0.  1.
</event>
<event>
 4    1  0.1551744E+006  0.2021299E+02  0.7546771E-02  0.1530804E+00
         21   -1    0    0  504  501  0.00000000000E+00  0.00000000000E+00  0.10597775040E+01  0.10597775040E+01  0.00000000000E+00 0.  1.
         21   -1    0    0  503  502 -0.00000000000E+00 -0.00000000000E+00 -0.38623793599E+03  0.38623793599E+03  0.00000000000E+00 0.  1.
         21    1    1    2  503  501 -0.74308519199E+01  0.18797536501E+02 -0.20094065830E+03  0.20195473031E+03  0.00000000000E+00 0.  1.
         21    1    1    2  504  502  0.74308519199E+01 -0.18797536501E+02 -0.18423750019E+03  0.18534298318E+03  0.00000000000E+00 0.  1.
</event>
<event>
 4    1  0.1551744E+006  0.2022864E+02  0.7546771E-02  0.1530569E+00
         21   -1    0    0  503  501  0.00000000000E+00  0.00000000000E+00  0.87682068504E+03  0.87682068504E+03  0.00000000000E+00 0.  1.
         21   -1    0    0  504  502 -0.00000000000E+00 -0.00000000000E+00 -0.58795459824E+00  0.58795459824E+00  0.00000000000E+00 0.  1.
         21    1    1    2  503  502  0.19206075634E+02 -0.63501553696E+01  0.23887544862E+03  0.23973042729E+03  0.00000000000E+00 0.  1.
         21    1    1    2  504  501 -0.19206075634E+02  0.63501553696E+01  0.63735728182E+03  0.63767821235E+03  0.00000000000E+00 0.  1.
</event>
<event>
 4    1  0.1551744E+006  0.2200096E+02  0.7546771E-02  0.1505439E+00
         21   -1    0    0  503  501  0.00000000000E+00  0.00000000000E+00  0.44797990527E+01  0.44797990527E+01  0.00000000000E+00 0.  1.
         21   -1    0    0  504  502 -0.00000000000E+00 -0.00000000000E+00 -0.17004914131E+03  0.17004914131E+03  0.00000000000E+00 0.  1.
         21    1    1    2  503  502  0.18661558941E+02  0.11652825089E+02 -0.13547649205E+03  0.13725130970E+03  0.00000000000E+00 0.  1.
         21    1    1    2  504  501 -0.18661558941E+02 -0.11652825089E+02 -0.30092850210E+02  0.37277630671E+02  0.00000000000E+00 0.  1.
</event>
<event>
 4    1  0.1551744E+006  0.2693373E+02  0.7546771E-02  0.1448275E+00
         21   -1    0    0  502  501  0.00000000000E+00  0.00000000000E+00  0.13828515226E+03  0.13828515226E+03  0.00000000000E+00 0. -1.
         21   -1    0    0  504  502 -0.00000000000E+00 -0.00000000000E+00 -0.11558663403E+02  0.11558663403E+02  0.00000000000E+00 0. -1.
         21    1    1    2  503  501 -0.57505018592E+01  0.26312686913E+02  0.11873213853E+03  0.12174870218E+03  0.00000000000E+00 0. -1.
         21    1    1    2  504  503  0.57505018592E+01 -0.26312686913E+02  0.79943503307E+01  0.28095113479E+02  0.00000000000E+00 0. -1.
</event>
<event>
 4    1  0.1551744E+006  0.4833635E+02  0.7546771E-02  0.1305551E+00
         21   -1    0    0  504  501  0.00000000000E+00  0.00000000000E+00  0.49779049643E+03  0.49779049643E+03  0.00000000000E+00 0.  1.
         21   -1    0    0  503  502 -0.00000000000E+00 -0.00000000000E+00 -0.22964306017E+02  0.22964306017E+02  0.00000000000E+00 0.  1.
         21    1    1    2  503  501 -0.47412524018E+02  0.94050723883E+01  0.51635209653E+01  0.48611364609E+02  0.00000000000E+00 0.  1.
         21    1    1    2  504  502  0.47412524018E+02 -0.94050723883E+01  0.46966266945E+03  0.47214343784E+03  0.00000000000E+00 0.  1.
</event>
<event>
 4    1  0.1551744E+006  0.2930700E+02  0.7546771E-02  0.1425716E+00
         21   -1    0    0  502  501  0.00000000000E+00  0.00000000000E+00  0.44930991018E+02  0.44930991018E+02  0.00000000000E+00 0.  1.
         21   -1    0    0  503  502 -0.00000000000E+00 -0.00000000000E+00 -0.19456319878E+03  0.19456319878E+03  0.00000000000E+00 0.  1.
         21    1    1    2  503  504  0.15739347454E+02  0.24721915582E+02 -0.18852851665E+03  0.19079282418E+03  0.00000000000E+00 0.  1.
         21    1    1    2  504  501 -0.15739347454E+02 -0.24721915582E+02  0.38896308886E+02  0.48701365620E+02  0.00000000000E+00 0.  1.
</event>
<event>
 4    1  0.1551744E+006  0.3505603E+02  0.7546771E-02  0.1380170E+00
         21   -1    0    0  504  501  0.00000000000E+00  0.00000000000E+00  0.21486951984E+03  0.21486951984E+03  0.00000000000E+00 0. -1.
         21   -1    0    0  503  502 -0.00000000000E+00 -0.00000000000E+00 -0.16570916717E+02  0.16570916717E+02  0.00000000000E+00 0. -1.
         21    1    1    2  503  501 -0.31338193483E+02 -0.15711244483E+02  0.19279355255E+03  0.19595478938E+03  0.00000000000E+00 0. -1.
         21    1    1    2  504  502  0.31338193483E+02  0.15711244483E+02  0.55050505702E+01  0.35485647179E+02  0.00000000000E+00 0. -1.
</event>
<event>
 4    1  0.1551744E+006  0.5011979E+02  0.7546771E-02  0.1297654E+00
         21   -1    0    0  504  501  0.00000000000E+00  0.00000000000E+00  0.20120125321E+03  0.20120125321E+03  0.00000000000E+00 0. -1.
         21   -1    0    0  503  502 -0.00000000000E+00 -0.00000000000E+00 -0.12514207365E+02  0.12514207365E+02  0.00000000000E+00 0. -1.
         21    1    1    2  503  501 -0.46886274562E+02  0.17710741601E+02  0.89179145038E+02  0.10229815746E+03  0.00000000000E+00 0. -1.
         21    1    1    2  504  502  0.46886274562E+02 -0.17710741601E+02  0.99507900810E+02  0.11141730312E+03  0.00000000000E+00 0. -1.
</event>
<event>
 4    1  0.1551744E+006  0.2021347E+02  0.7546771E-02  0.1530797E+00
         21   -1    0    0  504  501  0.00000000000E+00  0.00000000000E+00  0.69828232201E+01  0.69828232201E+01  0.00000000000E+00 0.  1.
         21   -1    0    0  503  502 -0.00000000000E+00 -0.00000000000E+00 -0.15325641936E+03  0.15325641936E+03  0.00000000000E+00 0.  1.
         21    1    1    2  503  501 -0.19336560218E+02  0.58891241103E+01 -0.10142012767E+02  0.22615144634E+02  0.00000000000E+00 0.  1.
         21    1    1    2  504  502  0.19336560218E+02 -0.58891241103E+01 -0.13613158337E+03  0.13762409794E+03  0.00000000000E+00 0.  1.
</event>
<event>
 4    1  0.1551744E+006  0.2239101E+02  0.7546771E-02  0.1500290E+00
         21   -1    0    0  503  501  0.00000000000E+00  0.00000000000E+00  0.11393319366E+02  0.11393319366E+02  0.00000000000E+00 0. -1.
         21   -1    0    0  504  502 -0.00000000000E+00 -0.00000000000E+00 -0.13435472812E+03  0.13435472812E+03  0.00000000000E+00 0. -1.
         21    1    1    2  503  502  0.22390936050E+02 -0.57686378428E-01 -0.17206623202E+01  0.22457026156E+02  0.00000000000E+00 0. -1.
         21    1    1    2  504  501 -0.22390936050E+02  0.57686378428E-01 -0.12124074643E+03  0.12329102133E+03  0.00000000000E+00 0. -1.
</event>
<event>
 4    1  0.1551744E+006  0.2191733E+02  0.7546771E-02  0.1506560E+00
         21   -1    0    0  504  501  0.00000000000E+00  0.00000000000E+00  0.44953722924E+01  0.44953722924E+01  0.00000000000E+00 0. -1.
         21   -1    0    0  503  502 -0.00000000000E+00 -0.00000000000E+00 -0.75187874295E+03  0.75187874295E+03  0.00000000000E+00 0. -1.
         21    1    1    2  503  501 -0.20860478998E+02 -0.67238219687E+01 -0.72397494645E+03  0.72430662875E+03  0.00000000000E+00 0. -1.
         21    1    1    2  504  502  0.20860478998E+02  0.67238219687E+01 -0.23408424202E+02  0.32067486486E+02  0.00000000000E+00 0. -1.
</event>
<event>
 4    1  0.1551744E+006  0.4170525E+02  0.7546771E-02  0.1338773E+00
         21   -1    0    0  504  501  0.00000000000E+00  0.00000000000E+00  0.17997131172E+02  0.17997131172E+02  0.00000000000E+00 0.  1.
         21   -1    0    0  503  502 -0.00000000000E+00 -0.00000000000E+00 -0.38408669106E+03  0.38408669106E+03  0.00000000000E+00 0.  1.
         21    1    1    2  503  501  0.30234583133E+02 -0.28726261979E+02 -0.35696378700E+03  0.35939181039E+03  0.00000000000E+00 0.  1.
         21    1    1    2  504  502 -0.30234583133E+02  0.28726261979E+02 -0.91257728890E+01  0.42692011845E+02  0.00000000000E+00 0.  1.
</event>
<event>
 4    1  0.1551744E+006  0.4761776E+02  0.7546771E-02  0.1308845E+00
         21   -1    0    0  503  501  0.00000000000E+00  0.00000000000E+00  0.33396499573E+02  0.33396499573E+02  0.00000000000E+00 0.  1.
         21   -1    0    0  504  502 -0.00000000000E+00 -0.00000000000E+00 -0.11785822481E+03  0.11785822481E+03  0.00000000000E+00 0.  1.
         21    1    1    2  503  502 -0.36495999406E+02  0.30585826951E+02 -0.91471631854E+02  0.10312376165E+03  0.00000000000E+00 0.  1.
         21    1    1    2  504  501  0.36495999406E+02 -0.30585826951E+02  0.70099066157E+01  0.48130962734E+02  0.00000000000E+00 0.  1.
</event>
<event>
 4    1  0.1551744E+006  0.2095622E+02  0.7546771E-02  0.1519891E+00
         21   -1    0    0  504  501  0.00000000000E+00  0.00000000000E+00  0.14474121298E+03  0.14474121298E+03  0.00000000000E+00 0.  1.
         21   -1    0    0  503  502 -0.00000000000E+00 -0.00000000000E+00 -0.29343072420E+02  0.29343072420E+02  0.00000000000E+00 0. -1.
         21    1    1    2  503  501  0.20572798441E+02 -0.39903959544E+01 -0.24720149032E+02  0.32407546400E+02  0.00000000000E+00 0. -1.
         21    1    1    2  504  502 -0.20572798441E+02  0.39903959544E+01  0.14011828959E+03  0.14167673900E+03  0.00000000000E+00 0.  1.
</event>
<event>
 4    1  0.1551744E+006  0.2069432E+02  0.7546771E-02  0.1523674E+00
         21   -1    0    0  503  501  0.00000000000E+00  0.00000000000E+00  0.94505170525E+01  0.94505170525E+01  0.00000000000E+00 0.  1.
         21   -1    0    0  504  502 -0.00000000000E+00 -0.00000000000E+00 -0.69680586318E+02  0.69680586318E+02  0.00000000000E+00 0.  1.
         21    1    1    2  503  502  0.12069622633E+01  0.20659093767E+02 -0.53511233138E+02  0.57373399630E+02  0.00000000000E+00 0.  1.
         21    1    1    2  504  501 -0.12069622633E+01 -0.20659093767E+02 -0.67188361278E+01  0.21757703741E+02  0.00000000000E+00 0.  1.
</event>
<event>
 4    1  0.1551744E+006  0.2249990E+02  0.7546771E-02  0.1498875E+00
         21   -1    0    0  504  501  0.00000000000E+00  0.00000000000E+00  0.76011465649E+02  0.76011465649E+02  0.00000000000E+00 0. -1.
         21   -1    0    0  503  502 -0.00000000000E+00 -0.00000000000E+00 -0.19362280609E+02  0.19362280609E+02  0.00000000000E+00 0. -1.
         21    1    1    2  503  501  0.41806824784E+01 -0.22108083155E+02 -0.10299598768E+02  0.24745245636E+02  0.00000000000E+00 0. -1.
         21    1    1    2  504  502 -0.41806824784E+01  0.22108083155E+02  0.66948783808E+02  0.70628500623E+02  0.00000000000E+00 0. -1.
</event>
<event>
 4    1  0.1551744E+006  0.3636036E+02  0.7546771E-02  0.1371244E+00
         21   -1    0    0  502  501  0.00000000000E+00  0.00000000000E+00  0.13644920663E+02  0.13644920663E+02  0.00000000000E+00 0.  1.
         21   -1    0    0  503  502 -0.00000000000E+00 -0.00000000000E+00 -0.16639766750E+03  0.16639766750E+03  0.00000000000E+00 0.  1.
         21    1    1    2  503  504 -0.63358579644E+01  0.35804085502E+02 -0.13455769469E+03  0.13938381842E+03  0.00000000000E+00 0.  1.
         21    1    1    2  504  501  0.63358579644E+01 -0.35804085502E+02 -0.18195052141E+02  0.40658769745E+02  0.00000000000E+00 0.  1.
</event>
<event>
 4    1  0.1551744E+006  0.2101072E+02  0.7546771E-02  0.1519112E+00
         21   -1    0    0  503  501  0.00000000000E+00  0.00000000000E+00  0.59667062970E+03  0.59667062970E+03  0.00000000000E+00 0. -1.
         21   -1    0    0  504  502 -0.00000000000E+00 -0.00000000000E+00 -0.23239758021E+02  0.23239758021E+02  0.00000000000E+00 0. -1.
         21    1    1    2  503  502  0.25522285353E+01 -0.20855131862E+02 -0.18266017686E+02  0.27840578255E+02  0.00000000000E+00 0. -1.
         21    1    1    2  504  501 -0.25522285353E+01  0.20855131862E+02  0.59169688937E+03  0.59206980947E+03  0.00000000000E+00 0. -1.
</event>
<event>
 4    1  0.1551744E+006  0.2763173E+02  0.7546771E-02  0.1441363E+00
         21   -1    0    0  503  501  0.00000000000E+00  0.00000000000E+00  0.53704746682E+03  0.53704746682E+03  0.00000000000E+00 0. -1.
         21   -1    0    0  501  502 -0.00000000000E+00 -0.00000000000E+00 -0.16997546882E+01  0.16997546882E+01  0.00000000000E+00 0. -1.
         21    1    1    2  503  504  0.27579853173E+02 -0.16923679503E+01  0.37662671456E+03  0.37763897379E+03  0.00000000000E+00 0. -1.
         21    1    1    2  504  502 -0.27579853173E+02  0.16923679503E+01  0.15872099758E+03  0.16110824772E+03  0.00000000000E+00 0. -1.
</event>
<event>
 4    1  0.1551744E+006  0.5336066E+02  0.7546771E-02  0.1284224E+00
         21   -1    0    0  503  501  0.00000000000E+00  0.00000000000E+00  0.25935897693E+02  0.25935897693E+02  0.00000000000E+00 0.  1.
         21   -1    0    0  504  502 -0.00000000000E+00 -0.00000000000E+00 -0.11116804806E+03  0.11116804806E+03  0.00000000000E+00 0.  1.
         21    1    1    2  503  502  0.21324649934E+02  0.48914412255E+02 -0.50263617402E+02  0.73306150188E+02  0.00000000000E+00 0.  1.
         21    1    1    2  504  501 -0.21324649934E+02 -0.48914412255E+02 -0.34968532964E+02  0.63797795563E+02  0.00000000000E+00 0.  1.
</event>
<event>
 4    1  0.1551744E+006  0.2368780E+02  0.7546771E-02  0.1484037E+00
         21   -1    0    0  504  501  0.00000000000E+00  0.00000000000E+00  0.47538713637E+01  0.47538713637E+01  0.00000000000E+00 0.  1.
         21   -1    0    0  503  502 -0.00000000000E+00 -0.00000000000E+00 -0.18120218686E+03  0.18120218686E+03  0.00000000000E+00 0.  1.
         21    1    1    2  503  501  0.20541498312E+02 -0.11796550657E+02 -0.33326645588E+02  0.40887370501E+02  0.00000000000E+00 0.  1.
         21    1    1    2  504  502 -0.20541498312E+02  0.11796550657E+02 -0.14312166991E+03  0.14506868772E+03  0.00000000000E+00 0.  1.
</event>
<event>
 4    1  0.1551744E+006  0.3873714E+02  0.7546771E-02  0.1356049E+00
         21   -1    0    0  502  501  0.00000000000E+00  0.00000000000E+00  0.81869942869E+02  0.81869942869E+02  0.00000000000E+00 0. -1.
         21   -1    0    0  503  502 -0.00000000000E+00 -0.00000000000E+00 -0.93005826939E+02  0.93005826939E+02  0.00000000000E+00 0.  1.
         21    1    1    2  503  504 -0.32316503902E+02 -0.21359060492E+02 -0.83917851214E+02  0.92427115296E+02  0.00000000000E+00 0.  1.
         21    1    1    2  504  501  0.32316503902E+02  0.21359060492E+02  0.72781967143E+02  0.82448654512E+02  0.00000000000E+00 0. -1.
</event>
<event>
 4    1  0.1551744E+006  0.2300318E+02  0.7546771E-02  0.1492458E+00
         21   -1    0    0  503  501  0.00000000000E+00  0.00000000000E+00  0.77749161988E+01  0.77749161988E+01  0.00000000000E+00 0. -1.
         21   -1    0    0  504  502 -0.00000000000E+00 -0.00000000000E+00 -0.90818685038E+02  0.90818685038E+02  0.00000000000E+00 0. -1.
         21    1    1    2  503  502  0.23003068992E+02 -0.72408808113E-01 -0.66200588296E+02  0.70083267025E+02  0.00000000000E+00 0. -1.
         21    1    1    2  504  501 -0.23003068992E+02  0.72408808113E-01 -0.16843180543E+02  0.28510334212E+02  0.00000000000E+00 0. -1.
</event>
<event>
 4    1  0.1551744E+006  0.2066797E+02  0.7546771E-02  0.1524059E+00
         21   -1    0    0  502  501  0.00000000000E+00  0.00000000000E+00  0.12660864752E+02  0.12660864752E+02  0.00000000000E+00 0.  1.
         21   -1    0    0  503  502 -0.00000000000E+00 -0.00000000000E+00 -0.39825376358E+02  0.39825376358E+02  0.00000000000E+00 0.  1.
         21    1    1    2  503  504 -0.15096651091E+02 -0.14115812874E+02 -0.23841480999E+02  0.31552832891E+02  0.00000000000E+00 0.  1.
         21    1    1    2  504  501  0.15096651091E+02  0.14115812874E+02 -0.33230306079E+01  0.20933408219E+02  0.00000000000E+00 0.  1.
</event>
<event>
 4    1  0.1551744E+006  0.2168349E+02  0.7546771E-02  0.1509726E+00
         21   -1    0    0  504  501  0.00000000000E+00  0.00000000000E+00  0.18357856607E+04  0.18357856607E+04  0.00000000000E+00 0. -1.
         21   -1    0    0  503  502 -0.00000000000E+00 -0.00000000000E+00 -0.29338671334E+00  0.29338671334E+00  0.00000000000E+00 0. -1.
         21    1    1    2  503  501 -0.12290179365E+02  0.17864077088E+02  0.59053654225E+03  0.59093449848E+03  0.00000000000E+00 0. -1.
         21    1    1    2  504  502  0.12290179365E+02 -0.17864077088E+02  0.12449557317E+04  0.12451445489E+04  0.00000000000E+00 0. -1.
</event>
<event>
 4    1  0.1551744E+006  0.3801012E+02  0.7546771E-02  0.1360558E+00
         21   -1    0    0  503  501  0.00000000000E+00  0.00000000000E+00  0.72139442540E+02  0.72139442540E+02  0.00000000000E+00 0. -1.
         21   -1    0    0  504  502 -0.00000000000E+00 -0.00000000000E+00 -0.26467259933E+02  0.26467259933E+02  0.00000000000E+00 0. -1.
         21    1    1    2  503  502 -0.37949142266E+02 -0.21522037213E+01 -0.14836153887E+01  0.38039065370E+02  0.00000000000E+00 0. -1.
         21    1    1    2  504  501  0.37949142266E+02  0.21522037213E+01  0.47155797995E+02  0.60567637103E+02  0.00000000000E+00 0. -1.
</event>
<event>
 4    1  0.1551744E+006  0.3975269E+02  0.7546771E-02  0.1349941E+00
         21   -1    0    0  502  501  0.00000000000E+00  0.00000000000E+00  0.40191632484E+02  0.40191632484E+02  0.00000000000E+00 0. -1.
         21   -1    0    0  503  502 -0.00000000000E+00 -0.00000000000E+00 -0.53683749867E+02  0.53683749867E+02  0.00000000000E+00 0. -1.
         21    1    1    2  503  504 -0.33580757468E+02 -0.21274607410E+02 -0.31026486398E+02  0.50427364107E+02  0.00000000000E+00 0. -1.
         21    1    1    2  504  501  0.33580757468E+02  0.21274607410E+02  0.17534369015E+02  0.43448018244E+02  0.00000000000E+00 0. -1.
</event>
<event>
 4    1  0.1551744E+006  0.3094650E+02  0.7546771E-02  0.1411546E+00
         21   -1    0    0  503  501  0.00000000000E+00  0.00000000000E+00  0.50564915906E+02  0.50564915906E+02  0.00000000000E+00 0. -1.
         21   -1    0    0  504  502 -0.00000000000E+00 -0.00000000000E+00 -0.20761125003E+03  0.20761125003E+03  0.00000000000E+00 0.  1.
         21    1    1    2  503  502  0.18360173460E+02 -0.24911644541E+02  0.44535974287E+02  0.54232269074E+02  0.00000000000E+00 0. -1.
         21    1    1    2  504  501 -0.18360173460E+02  0.24911644541E+02 -0.20158230841E+03  0.20394389686E+03  0.00000000000E+00 0.  1.
</event>
<event>
 4    1  0.1551744E+006  0.2357145E+02  0.7546771E-02  0.1485444E+00
         21   -1    0    0  504  501  0.00000000000E+00  0.00000000000E+00  0.20703732259E+02  0.20703732259E+02  0.00000000000E+00 0. -1.
         21   -1    0    0  501  502 -0.00000000000E+00 -0.00000000000E+00 -0.52847631643E+03  0.52847631643E+03  0.00000000000E+00 0. -1.
         21    1    1    2  503  502  0.83341914751E+01 -0.22048908824E+02 -0.52141355426E+03  0.52194607738E+03  0.00000000000E+00 0. -1.
         21    1    1    2  504  503 -0.83341914751E+01  0.22048908824E+02  0.13640970092E+02  0.27233971303E+02  0.00000000000E+00 0. -1.
</event>
<event>
 4    1  0.1551744E+006  0.3172861E+02  0.7546771E-02  0.1405147E+00
         21   -1    0    0  504  501  0.00000000000E+00  0.00000000000E+00  0.31783605890E+02  0.31783605890E+02  0.00000000000E+00 0. -1.
         21   -1    0    0  503  502 -0.00000000000E+00 -0.00000000000E+00 -0.44693140140E+02  0.44693140140E+02  0.00000000000E+00 0.  1.
         21    1    1    2  503  501 -0.84307297608E+01  0.30588027657E+02 -0.27093118310E+02  0.41722196731E+02  0.00000000000E+00 0.  1.
         21    1    1    2  504  502  0.84307297608E+01 -0.30588027657E+02  0.14183584059E+02  0.34754549300E+02  0.00000000000E+00 0. -1.
</event>
<event>
 4    1  0.1551744E+006  0.3540895E+02  0.7546771E-02  0.1377711E+00
         21   -1    0    0  503  501  0.00000000000E+00  0.00000000000E+00  0.62275462788E+02  0.62275462788E+02  0.00000000000E+00 0. -1.
         21   -1    0    0  504  502 -0.00000000000E+00 -0.00000000000E+00 -0.96738029681E+02  0.96738029681E+02  0.00000000000E+00 0.  1.
         21    1    1    2  503  502  0.14332426090E+01  0.35379934568E+02  0.53519932884E+02  0.64173025255E+02  0.00000000000E+00 0. -1.
         21    1    1    2  504  501 -0.14332426090E+01 -0.35379934568E+02 -0.87982499777E+02  0.94840467215E+02  0.00000000000E+00 0.  1.
</event>
<event>
 4    1  0.1551744E+006  0.4127820E+02  0.7546771E-02  0.1341154E+00
         21   -1    0    0  503  501  0.00000000000E+00  0.00000000000E+00  0.10297564214E+03  0.10297564214E+03  0.00000000000E+00 0. -1.
         21   -1    0    0  504  502 -0.00000000000E+00 -0.00000000000E+00 -0.44673538855E+02  0.44673538855E+02  0.00000000000E+00 0. -1.
         21    1    1    2  503  502 -0.95188346678E+01  0.40165671876E+02  0.87729471672E+02  0.96955400110E+02  0.00000000000E+00 0. -1.
         21    1    1    2  504  501  0.95188346678E+01 -0.40165671876E+02 -0.29427368384E+02  0.50693780888E+02  0.00000000000E+00 0. -1.
</event>
<event>
 4    1  0.1551744E+006  0.8191121E+02  0.7546771E-02  0.1199479E+00
         21   -1    0    0  504  501  0.00000000000E+00  0.00000000000E+00  0.22932691807E+03  0.22932691807E+03  0.00000000000E+00 0. -1.
         21   -1    0    0  503  502 -0.00000000000E+00 -0.00000000000E+00 -0.14515585765E+03  0.14515585765E+03  0.00000000000E+00 0. -1.
         21    1    1    2  503  501  0.18589052667E+02 -0.79774009950E+02 -0.12522524759E+03  0.14963558460E+03  0.00000000000E+00 0. -1.
         21    1    1    2  504  502 -0.18589052667E+02  0.79774009950E+02  0.20939630802E+03  0.22484719112E+03  0.00000000000E+00 0. -1.
</event>
<event>
 4    1  0.1551744E+006  0.2201981E+02  0.7546771E-02  0.1505187E+00
         21   -1    0    0  502  501  0.00000000000E+00  0.00000000000E+00  0.51628616513E+02  0.51628616513E+02  0.00000000000E+00 0.  1.
         21   -1    0    0  504  502 -0.00000000000E+00 -0.00000000000E+00 -0.24394346955E+02  0.24394346955E+02  0.00000000000E+00 0.  1.
         21    1    1    2  503  501  0.18252540529E+02  0.12317332978E+02  0.43426761846E+02  0.48690405337E+02  0.00000000000E+00 0.  1.
         21    1    1    2  504  503 -0.18252540529E+02 -0.12317332978E+02 -0.16192492288E+02  0.27332558130E+02  0.00000000000E+00 0.  1.
</event>
<event>
 4    1  0.1551744E+006  0.2008854E+02  0.7546771E-02  0.1532687E+00
         21   -1    0    0  504  501  0.00000000000E+00  0.00000000000E+00  0.48443769185E+02  0.48443769185E+02  0.00000000000E+00 0. -1.
         21   -1    0    0  503  502 -0.00000000000E+00 -0.00000000000E+00 -0.17859859549E+02  0.17859859549E+02  0.00000000000E+00 0. -1.
         21    1    1    2  503  501  0.10057925373E+02 -0.17389291296E+02 -0.89242204118E+01  0.21981606505E+02  0.00000000000E+00 0. -1.
         21    1    1    2  504  502 -0.10057925373E+02  0.17389291296E+02  0.39508130048E+02  0.44322022229E+02  0.00000000000E+00 0. -1.
</event>
<event>
 4    1  0.1551744E+006  0.2087645E+02  0.7546771E-02  0.1521036E+00
         21   -1    0    0  502  501  0.00000000000E+00  0.00000000000E+00  0.57604595225E+02  0.57604595225E+02  0.00000000000E+00 0.  1.
         21   -1    0    0  504  502 -0.00000000000E+00 -0.00000000000E+00 -0.14605250858E+02  0.14605250858E+02  0.00000000000E+00 0. -1.
         21    1    1    2  503  501 -0.20695992625E+02  0.27390202413E+01  0.46565410586E+02  0.51031008276E+02  0.00000000000E+00 0.  1.
         21    1    1    2  504  503  0.20695992625E+02 -0.27390202413E+01 -0.35660662196E+01  0.21178837808E+02  0.00000000000E+00 0. -1.
</event>
<event>
 4    1  0.1551744E+006  0.2350535E+02  0.7546771E-02  0.1486248E+00
         21   -1    0    0  503  501  0.00000000000E+00  0.00000000000E+00  0.29855375754E+01  0.29855375754E+01  0.00000000000E+00 0.  1.
         21   -1    0    0  504  502 -0.00000000000E+00 -0.00000000000E+00 -0.18569977426E+03  0.18569977426E+03  0.00000000000E+00 0.  1.
         21    1    1    2  503  502 -0.11083928896E+02  0.20727949562E+02 -0.85816388256E+02  0.88977266007E+02  0.00000000000E+00 0.  1.
         21    1    1    2  504  501  0.11083928896E+02 -0.20727949562E+02 -0.96897848429E+02  0.99708045828E+02  0.00000000000E+00 0.  1.
</event>
<event>
 4    1  0.1551744E+006  0.3019243E+02  0.7546771E-02  0.1417931E+00
         21   -1    0    0  504  501  0.00000000000E+00  0.00000000000E+00  0.89852244189E+01  0.89852244189E+01  0.00000000000E+00 0.  1.
         21   -1    0    0  503  502 -0.00000000000E+00 -0.00000000000E+00 -0.11463656924E+03  0.11463656924E+03  0.00000000000E+00 0.  1.
         21    1    1    2  503  501 -0.18397583748E+02  0.23939750472E+02 -0.73786634735E+02  0.79724840583E+02  0.00000000000E+00 0.  1.
         21    1    1    2  504  502  0.18397583748E+02 -0.23939750472E+02 -0.31864710083E+02  0.43896953073E+02  0.00000000000E+00 0.  1.
</event>
<event>
 4    1  0.1551744E+006  0.2158379E+02  0.7546771E-02  0.1511091E+00
         21   -1    0    0  503  501  0.00000000000E+00  0.00000000000E+00  0.52154163291E+01  0.52154163291E+01  0.00000000000E+00 0. -1.
         21   -1    0    0  504  502 -0.00000000000E+00 -0.00000000000E+00 -0.14940019313E+03  0.14940019313E+03  0.00000000000E+00 0. -1.
         21    1    1    2  503  502 -0.20092520943E+02 -0.78835767442E+01 -0.12111541496E+03  0.12302359092E+03  0.00000000000E+00 0. -1.
         21    1    1    2  504  501  0.20092520943E+02  0.78835767442E+01 -0.23069361842E+02  0.31592018548E+02  0.00000000000E+00 0. -1.
</event>
<event>
 4    1  0.1551744E+006  0.2674368E+02  0.7546771E-02  0.1450200E+00
         21   -1    0    0  502  501  0.00000000000E+00  0.00000000000E+00  0.11598523071E+03  0.11598523071E+03  0.00000000000E+00 0.  1.
         21   -1    0    0  503  502 -0.00000000000E+00 -0.00000000000E+00 -0.12474743247E+02  0.12474743247E+02  0.00000000000E+00 0. -1.
         21    1    1    2  503  504  0.20413712785E+02  0.17277283119E+02  0.60805263390E+01  0.27426209768E+02  0.00000000000E+00 0. -1.
         21    1    1    2  504  501 -0.20413712785E+02 -0.17277283119E+02  0.97429961122E+02  0.10103376419E+03  0.00000000000E+00 0.  1.
</event>
<event>
 4    1  0.1551744E+006  0.2840748E+02  0.7546771E-02  0.1433960E+00
         21   -1    0    0  503  501  0.00000000000E+00  0.00000000000E+00  0.81357197765E+02  0.81357197765E+02  0.00000000000E+00 0.  1.
         21   -1    0    0  504  502 -0.00000000000E+00 -0.00000000000E+00 -0.13626790558E+02  0.13626790558E+02  0.00000000000E+00 0.  1.
         21    1    1    2  503  502  0.28383450323E+02 -0.11682226540E+01  0.90921759476E+01  0.29827045779E+02  0.00000000000E+00 0.  1.
         21    1    1    2  504  501 -0.28383450323E+02  0.11682226540E+01  0.58638231259E+02  0.65156942544E+02  0.00000000000E+00 0.  1.
</event>
<event>
 4    1  0.1551744E+006  0.2025944E+02  0.7546771E-02  0.1530106E+00
         21   -1    0    0  503  501  0.00000000000E+00  0.00000000000E+00  0.33797287139E+02  0.33797287139E+02  0.00000000000E+00 0.  1.
         21   -1    0    0  504  502 -0.00000000000E+00 -0.00000000000E+00 -0.18913373628E+03  0.18913373628E+03  0.00000000000E+00 0. -1.
         21    1    1    2  503  502 -0.31827231846E+01 -0.20007878500E+02  0.30159307846E+02  0.36332200301E+02  0.00000000000E+00 0.  1.
         21    1    1    2  504  501  0.31827231846E+01  0.20007878500E+02 -0.18549575699E+03  0.18659882312E+03  0.00000000000E+00 0. -1.
</event>
<event>
 4    1  0.1551744E+006  0.3625674E+02  0.7546771E-02  0.1371937E+00
         21   -1    0    0  502  501  0.00000000000E+00  0.00000000000E+00  0.11302347292E+03  0.11302347292E+03  0.00000000000E+00 0. -1.
         21   -1    0    0  503  502 -0.00000000000E+00 -0.00000000000E+00 -0.48197098220E+02  0.48197098220E+02  0.00000000000E+00 0.  1.
         21    1    1    2  503  504 -0.15964233005E+02 -0.32552943264E+02 -0.37800316601E+02  0.52377617220E+02  0.00000000000E+00 0.  1.
         21    1    1    2  504  501  0.15964233005E+02  0.32552943264E+02  0.10262669130E+03  0.10884295392E+03  0.00000000000E+00 0. -1.
</event>
<event>
 4    1  0.1551744E+006  0.2219373E+02  0.7546771E-02  0.1502879E+00
         21   -1    0    0  504  501  0.00000000000E+00  0.00000000000E+00  0.97577238483E+01  0.97577238483E+01  0.00000000000E+00 0. -1.
         21   -1    0    0  503  502 -0.00000000000E+00 -0.00000000000E+00 -0.24274584430E+03  0.24274584430E+03  0.00000000000E+00 0. -1.
         21    1    1    2  503  501  0.17359629574E+02 -0.13827682975E+02 -0.22885455879E+03  0.22992818582E+03  0.00000000000E+00 0. -1.
         21    1    1    2  504  502 -0.17359629574E+02  0.13827682975E+02 -0.41335616654E+01  0.22575382332E+02  0.00000000000E+00 0. -1.
</event>
<event>
 4    1  0.1551744E+006  0.2162026E+02  0.7546771E-02  0.1510590E+00
         21   -1    0    0  503  501  0.00000000000E+00  0.00000000000E+00  0.32708547610E+02  0.32708547610E+02  0.00000000000E+00 0.  1.
         21   -1    0    0  504  502 -0.00000000000E+00 -0.00000000000E+00 -0.22775941751E+02  0.22775941751E+02  0.00000000000E+00 0.  1.
         21    1    1    2  503  502 -0.80232313208E+01  0.20076443172E+02 -0.11966523509E+02  0.24710999498E+02  0.00000000000E+00 0.  1.
         21    1    1    2  504  501  0.80232313208E+01 -0.20076443172E+02  0.21899129368E+02  0.30773489863E+02  0.00000000000E+00 0.  1.
</event>
<event>
 4    1  0.1551744E+006  0.2630392E+02  0.7546771E-02  0.1454728E+00
         21   -1    0    0  503  501  0.00000000000E+00  0.00000000000E+00  0.47777563154E+03  0.47777563154E+03  0.00000000000E+00 0. -1.
         21   -1    0    0  504  502 -0.00000000000E+00 -0.00000000000E+00 -0.14500822112E+01  0.14500822112E+01  0.00000000000E+00 0. -1.
         21    1    1    2  503  502  0.25289168687E+02  0.72356204827E+01  0.24688343252E+03  0.24828073931E+03  0.00000000000E+00 0. -1.
         21    1    1    2  504  501 -0.25289168687E+02 -0.72356204827E+01  0.22944211681E+03  0.23094497445E+03  0.00000000000E+00 0. -1.
</event>
<event>
 4    1  0.1551744E+006  0.2121909E+02  0.7546771E-02  0.1516160E+00
         21   -1    0    0  502  501  0.00000000000E+00  0.00000000000E+00  0.74610584531E+01  0.74610584531E+01  0.00000000000E+00 0. -1.
         21   -1    0    0  503  502 -0.00000000000E+00 -0.00000000000E+00 -0.13323454632E+03  0.13323454632E+03  0.00000000000E+00 0.  1.
         21    1    1    2  503  504  0.21193482646E+02 -0.10421064600E+01 -0.11491866914E+03  0.11686124340E+03  0.00000000000E+00 0.  1.
         21    1    1    2  504  501 -0.21193482646E+02  0.10421064600E+01 -0.10854818734E+02  0.23834361378E+02  0.00000000000E+00 0. -1.
</event>
<event>
 4    1  0.1551744E+006  0.2261950E+02  0.7546771E-02  0.1497332E+00
         21   -1    0    0  504  501  0.00000000000E+00  0.00000000000E+00  0.29602355910E+02  0.29602355910E+02  0.00000000000E+00 0. -1.
         21   -1    0    0  501  502 -0.00000000000E+00 -0.00000000000E+00 -0.29662097767E+02  0.29662097767E+02  0.00000000000E+00 0.  1.
         21    1    1    2  503  502 -0.15808108002E+02 -0.16178553137E+02 -0.19172140577E+02  0.29651523308E+02  0.00000000000E+00 0.  1.
         21    1    1    2  504  503  0.15808108002E+02  0.16178553137E+02  0.19112398719E+02  0.29612930369E+02  0.00000000000E+00 0. -1.
</event>
<event>
 4    1  0.1551744E+006  0.2147943E+02  0.7546771E-02  0.1512529E+00
         21   -1    0    0  502  501  0.00000000000E+00  0.00000000000E+00  0.92029746127E+01  0.92029746127E+01  0.00000000000E+00 0. -1.
         21   -1    0    0  504  502 -0.00000000000E+00 -0.00000000000E+00 -0.74876507355E+03  0.74876507355E+03  0.00000000000E+00 0.  1.
         21    1    1    2  503  501 -0.19631409108E+02 -0.87162791113E+01 -0.37039098791E+01  0.21796437633E+02  0.00000000000E+00 0. -1.
         21    1    1    2  504  503  0.19631409108E+02  0.87162791113E+01 -0.73585818906E+03  0.73617161053E+03  0.00000000000E+00 0.  1.
</event>
<event>
 4    1  0.1551744E+006  0.2136571E+02  0.7546771E-02  0.1514107E+00
         21   -1    0    0  502  501  0.00000000000E+00  0.00000000000E+00  0.20880006193E+02  0.20880006193E+02  0.00000000000E+00 0.  1.
         21   -1    0    0  503  502 -0.00000000000E+00 -0.00000000000E+00 -0.15599431527E+04  0.15599431527E+04  0.00000000000E+00 0. -1.
         21    1    1    2  503  504 -0.20270788180E+01 -0.21269333704E+02 -0.15543847715E+04  0.15545316051E+04  0.00000000000E+00 0. -1.
         21    1    1    2  504  501  0.20270788180E+01  0.21269333704E+02  0.15321624992E+02  0.26291553723E+02  0.00000000000E+00 0.  1.
</event>
<event>
 4    1  0.1551744E+006  0.2407314E+02  0.7546771E-02  0.1479445E+00
         21   -1    0    0  503  501  0.00000000000E+00  0.00000000000E+00  0.85035220294E+01  0.85035220294E+01  0.00000000000E+00 0. -1.
         21   -1    0    0  504  502 -0.00000000000E+00 -0.00000000000E+00 -0.35333498692E+03  0.35333498692E+03  0.00000000000E+00 0.  1.
         21    1    1    2  503  502  0.13183125645E+02  0.20142525983E+02 -0.98778129460E+01  0.26020902047E+02  0.00000000000E+00 0. -1.
         21    1    1    2  504  501 -0.13183125645E+02 -0.20142525983E+02 -0.33495365195E+03  0.33581760691E+03  0.00000000000E+00 0.  1.
</event>
<event>
 4    1  0.1551744E+006  0.2127585E+02  0.7546771E-02  0.1515363E+00
         21   -1    0    0  503  501  0.00000000000E+00  0.00000000000E+00  0.63793422316E+02  0.63793422316E+02  0.00000000000E+00 0. -1.
         21   -1    0    0  504  502 -0.00000000000E+00 -0.00000000000E+00 -0.62158846516E+02  0.62158846516E+02  0.00000000000E+00 0.  1.
         21    1    1    2  503  502  0.15831228914E+02  0.14213860267E+02 -0.58455434515E+02  0.62206908434E+02  0.00000000000E+00 0.  1.
         21    1    1    2  504  501 -0.15831228914E+02 -0.14213860267E+02  0.60090010315E+02  0.63745360398E+02  0.00000000000E+00 0. -1.
</event>
<event>
 4    1  0.1551744E+006  0.2513896E+02  0.7546771E-02  0.1467255E+00
         21   -1    0    0  504  501  0.00000000000E+00  0.00000000000E+00  0.46618192288E+02  0.46618192288E+02  0.00000000000E+00 0.  1.
         21   -1    0    0  503  502 -0.00000000000E+00 -0.00000000000E+00 -0.29202975571E+03  0.29202975571E+03  0.00000000000E+00 0. -1.
         21    1    1    2  503  501  0.24671682283E+02  0.48244393219E+01 -0.28805298507E+03  0.28914786758E+03  0.00000000000E+00 0. -1.
         21    1    1    2  504  502 -0.24671682283E+02 -0.48244393219E+01  0.42641421644E+02  0.49500080417E+02  0.00000000000E+00 0.  1.
</event>
<event>
 4    1  0.1551744E+006  0.2225784E+02  0.7546771E-02  0.1502034E+00
         21   -1    0    0  503  501  0.00000000000E+00  0.00000000000E+00  0.12992424783E+01  0.12992424783E+01  0.00000000000E+00 0.  1.
         21   -1    0    0  504  502 -0.00000000000E+00 -0.00000000000E+00 -0.38293762904E+03  0.38293762904E+03  0.00000000000E+00 0. -1.
         21    1    1    2  503  502 -0.12919412193E+02  0.18124570142E+02 -0.20335290846E+03  0.20456738898E+03  0.00000000000E+00 0. -1.
         21    1    1    2  504  501  0.12919412193E+02 -0.18124570142E+02 -0.17828547810E+03  0.17966948254E+03  0.00000000000E+00 0.  1.
</event>
<event>
 4    1  0.1551744E+006  0.2266482E+02  0.7546771E-02  0.1496750E+00
         21   -1    0    0  503  501  0.00000000000E+00  0.00000000000E+00  0.17627815467E+03  0.17627815467E+03  0.00000000000E+00 0. -1.
         21   -1    0    0  504  502 -0.00000000000E+00 -0.00000000000E+00 -0.29332861865E+01  0.29332861865E+01  0.00000000000E+00 0.  1.
         21    1    1    2  503  502  0.21769028656E+02  0.63090082937E+01  0.93917175402E+02  0.96613301515E+02  0.00000000000E+00 0.  1.
         21    1    1    2  504  501 -0.21769028656E+02 -0.63090082937E+01  0.79427693079E+02  0.82598139338E+02  0.00000000000E+00 0. -1.
</event>
