<event>
 4    1  0.7060698E+001  0.3117379E+02  0.7546771E-02  0.1409663E+00
          2   -1    0    0  502    0  0.00000000000E+00  0.00000000000E+00  0.78235302776E+03  0.78235302776E+03  0.00000000000E+00 0.  1.
         -2   -1    0    0    0  501 -0.00000000000E+00 -0.00000000000E+00 -0.14061189505E+01  0.14061189505E+01  0.00000000000E+00 0. -1.
          1    1    1    2  502    0  0.30799133222E+02 -0.48185408820E+01  0.52429120345E+03  0.52521716552E+03  0.00000000000E+00 0.  1.
         -1    1    1    2    0  501 -0.30799133222E+02  0.48185408820E+01  0.25665570536E+03  0.25854198119E+03  0.00000000000E+00 0. -1.
</event>
<event>
 4    1  0.7060698E+001  0.2070230E+02  0.7546771E-02  0.1523558E+00
          2   -1    0    0  502    0  0.00000000000E+00  0.00000000000E+00  0.15491811666E+04  0.15491811666E+04  0.00000000000E+00 0. -1.
         -2   -1    0    0    0  501 -0.00000000000E+00 -0.00000000000E+00 -0.30128133048E+00  0.30128133048E+00  0.00000000000E+00 0.  1.
          1    1    1    2  502    0  0.18844417269E+02 -0.85716578222E+01  0.99594793036E+03  0.99616307167E+03  0.00000000000E+00 0. -1.
         -1    1    1    2    0  501 -0.18844417269E+02  0.85716578222E+01  0.55293195492E+03  0.55331937627E+03  0.00000000000E+00 0.  1.
</event>
<event>
 4    1  0.7060698E+001  0.2425455E+02  0.7546771E-02  0.1477318E+00
          2   -1    0    0  502    0  0.00000000000E+00  0.00000000000E+00  0.50406755535E+03  0.50406755535E+03  0.00000000000E+00 0. -1.
         -2   -1    0    0    0  501 -0.00000000000E+00 -0.00000000000E+00 -0.13212352314E+01  0.13212352314E+01  0.00000000000E+00 0.  1.
          1    1    1    2  502    0  0.15654060299E+02  0.18526562012E+02  0.33769009531E+03  0.33856001473E+03  0.00000000000E+00 0. -1.
         -1    1    1    2    0  501 -0.15654060299E+02 -0.18526562012E+02  0.16505622481E+03  0.16682877585E+03  0.00000000000E+00 0.  1.
</event>
<event>
 4    1  0.7060698E+001  0.8167033E+02  0.7546771E-02  0.1200022E+00
          2   -1    0    0  502    0  0.00000000000E+00  0.00000000000E+00  0.48906102978E+03  0.48906102978E+03  0.00000000000E+00 0. -1.
         -2   -1    0    0    0  501 -0.00000000000E+00 -0.00000000000E+00 -0.16991872904E+02  0.16991872904E+02  0.00000000000E+00 0.  1.
          1    1    1    2  502    0  0.78468873757E+02  0.22642407452E+02  0.34844028375E+03  0.35788360413E+03  0.00000000000E+00 0. -1.
         -1    1    1    2    0  501 -0.78468873757E+02 -0.22642407452E+02  0.12362887312E+03  0.14816929855E+03  0.00000000000E+00 0.  1.
</event>
<event>
 4    1  0.7060698E+001  0.3182362E+02  0.7546771E-02  0.1404384E+00
          2   -1    0    0  502    0  0.00000000000E+00  0.00000000000E+00  0.21854052335E+03  0.21854052335E+03  0.00000000000E+00 0. -1.
         -2   -1    0    0    0  501 -0.00000000000E+00 -0.00000000000E+00 -0.46750006821E+01  0.46750006821E+01  0.00000000000E+00 0.  1.
          1    1    1    2  502    0 -0.21179113431E+02  0.23752642626E+02  0.11736952503E+03  0.12160735291E+03  0.00000000000E+00 0. -1.
         -1    1    1    2    0  501  0.21179113431E+02 -0.23752642626E+02  0.96495997646E+02  0.10160817112E+03  0.00000000000E+00 0.  1.
</event>
<event>
 4    1  0.7060698E+001  0.2089982E+02  0.7546771E-02  0.1520700E+00
          2   -1    0    0  502    0  0.00000000000E+00  0.00000000000E+00  0.80270698828E+03  0.80270698828E+03  0.00000000000E+00 0.  1.
         -2   -1    0    0    0  501 -0.00000000000E+00 -0.00000000000E+00 -0.61893379999E+00  0.61893379999E+00  0.00000000000E+00 0. -1.
          1    1    1    2  502    0 -0.11914761212E+02 -0.17170937840E+02  0.54065147899E+03  0.54105528773E+03  0.00000000000E+00 0.  1.
         -1    1    1    2    0  501  0.11914761212E+02  0.17170937840E+02  0.26143657549E+03  0.26227063435E+03  0.00000000000E+00 0. -1.
</event>
<event>
 4    1  0.7060698E+001  0.3366387E+02  0.7546771E-02  0.1390208E+00
          2   -1    0    0  502    0  0.00000000000E+00  0.00000000000E+00  0.13622842861E+04  0.13622842861E+04  0.00000000000E+00 0.  1.
         -2   -1    0    0    0  501 -0.00000000000E+00 -0.00000000000E+00 -0.16512739095E+01  0.16512739095E+01  0.00000000000E+00 0. -1.
          1    1    1    2  502    0  0.24651454564E+02  0.22925141016E+02  0.19991892867E+03  0.20273340708E+03  0.00000000000E+00 0. -1.
         -1    1    1    2    0  501 -0.24651454564E+02 -0.22925141016E+02  0.11607140835E+04  0.11612021529E+04  0.00000000000E+00 0.  1.
</event>
<event>
 4    1  0.7060698E+001  0.3655330E+02  0.7546771E-02  0.1369960E+00
          2   -1    0    0  502    0  0.00000000000E+00  0.00000000000E+00  0.16713092243E+04  0.16713092243E+04  0.00000000000E+00 0. -1.
         -2   -1    0    0    0  501 -0.00000000000E+00 -0.00000000000E+00 -0.79948111778E+00  0.79948111778E+00  0.00000000000E+00 0.  1.
          1    1    1    2  502    0 -0.34398437517E+02  0.12364918690E+02  0.83088825860E+03  0.83169191532E+03  0.00000000000E+00 0.  1.
         -1    1    1    2    0  501  0.34398437517E+02 -0.12364918690E+02  0.83962148461E+03  0.84041679013E+03  0.00000000000E+00 0. -1.
</event>
<event>
 4    1  0.7060698E+001  0.2101725E+02  0.7546771E-02  0.1519019E+00
          2   -1    0    0  502    0  0.00000000000E+00  0.00000000000E+00  0.18715427788E+04  0.18715427788E+04  0.00000000000E+00 0. -1.
         -2   -1    0    0    0  501 -0.00000000000E+00 -0.00000000000E+00 -0.23625755862E+00  0.23625755862E+00  0.00000000000E+00 0.  1.
          1    1    1    2  502    0  0.20053943103E+02  0.62900118974E+01  0.96521781333E+03  0.96544660756E+03  0.00000000000E+00 0. -1.
         -1    1    1    2    0  501 -0.20053943103E+02 -0.62900118974E+01  0.90608870791E+03  0.90633242879E+03  0.00000000000E+00 0.  1.
</event>
<event>
 4    1  0.7060698E+001  0.2980895E+02  0.7546771E-02  0.1421264E+00
          2   -1    0    0  502    0  0.00000000000E+00  0.00000000000E+00  0.31271761552E+02  0.31271761552E+02  0.00000000000E+00 0. -1.
         -2   -1    0    0    0  501 -0.00000000000E+00 -0.00000000000E+00 -0.28715488162E+02  0.28715488162E+02  0.00000000000E+00 0.  1.
          1    1    1    2  502    0  0.23623560391E+02 -0.18179688085E+02  0.43485362737E+01  0.30124465674E+02  0.00000000000E+00 0. -1.
         -1    1    1    2    0  501 -0.23623560391E+02  0.18179688085E+02 -0.17922628841E+01  0.29862784041E+02  0.00000000000E+00 0.  1.
</event>
<event>
 4    1  0.7060698E+001  0.2588529E+02  0.7546771E-02  0.1459139E+00
          2   -1    0    0  502    0  0.00000000000E+00  0.00000000000E+00  0.79524912427E+03  0.79524912427E+03  0.00000000000E+00 0.  1.
         -2   -1    0    0    0  501 -0.00000000000E+00 -0.00000000000E+00 -0.18250704229E+01  0.18250704229E+01  0.00000000000E+00 0. -1.
          1    1    1    2  502    0 -0.11737061398E+02  0.23071408341E+02  0.10429909143E+03  0.10746324472E+03  0.00000000000E+00 0. -1.
         -1    1    1    2    0  501  0.11737061398E+02 -0.23071408341E+02  0.68912496242E+03  0.68961094997E+03  0.00000000000E+00 0.  1.
</event>
<event>
 4    1  0.7060698E+001  0.2253643E+02  0.7546771E-02  0.1498403E+00
          2   -1    0    0  502    0  0.00000000000E+00  0.00000000000E+00  0.12932425304E+04  0.12932425304E+04  0.00000000000E+00 0.  1.
         -2   -1    0    0    0  501 -0.00000000000E+00 -0.00000000000E+00 -0.40091150427E+00  0.40091150427E+00  0.00000000000E+00 0. -1.
          1    1    1    2  502    0 -0.21193489701E+02 -0.76633208979E+01  0.55399947237E+03  0.55445766824E+03  0.00000000000E+00 0. -1.
         -1    1    1    2    0  501  0.21193489701E+02  0.76633208979E+01  0.73884214652E+03  0.73918577365E+03  0.00000000000E+00 0.  1.
</event>
<event>
 4    1  0.7060698E+001  0.4681008E+02  0.7546771E-02  0.1312629E+00
          2   -1    0    0  502    0  0.00000000000E+00  0.00000000000E+00  0.24498812261E+04  0.24498812261E+04  0.00000000000E+00 0. -1.
         -2   -1    0    0    0  501 -0.00000000000E+00 -0.00000000000E+00 -0.89472694865E+00  0.89472694865E+00  0.00000000000E+00 0.  1.
          1    1    1    2  502    0 -0.26748169658E+02  0.38415089901E+02  0.12477717801E+04  0.12486495101E+04  0.00000000000E+00 0.  1.
         -1    1    1    2    0  501  0.26748169658E+02 -0.38415089901E+02  0.12012147191E+04  0.12021264430E+04  0.00000000000E+00 0. -1.
</event>
<event>
 4    1  0.7060698E+001  0.2367623E+02  0.7546771E-02  0.1484177E+00
          2   -1    0    0  502    0  0.00000000000E+00  0.00000000000E+00  0.15429647272E+02  0.15429647272E+02  0.00000000000E+00 0. -1.
         -2   -1    0    0    0  501 -0.00000000000E+00 -0.00000000000E+00 -0.50200309920E+02  0.50200309920E+02  0.00000000000E+00 0.  1.
          1    1    1    2  502    0 -0.51903133993E+01  0.23100310467E+02 -0.34634069489E+02  0.41953336771E+02  0.00000000000E+00 0.  1.
         -1    1    1    2    0  501  0.51903133993E+01 -0.23100310467E+02 -0.13659315953E+00  0.23676620421E+02  0.00000000000E+00 0. -1.
</event>
<event>
 4    1  0.7060698E+001  0.3537505E+02  0.7546771E-02  0.1377946E+00
          2   -1    0    0  502    0  0.00000000000E+00  0.00000000000E+00  0.18668658345E+04  0.18668658345E+04  0.00000000000E+00 0. -1.
         -2   -1    0    0    0  501 -0.00000000000E+00 -0.00000000000E+00 -0.78968378997E+00  0.78968378997E+00  0.00000000000E+00 0.  1.
          1    1    1    2  502    0 -0.21910494942E+02  0.27772724797E+02  0.12960992883E+04  0.12965819524E+04  0.00000000000E+00 0. -1.
         -1    1    1    2    0  501  0.21910494942E+02 -0.27772724797E+02  0.56997686242E+03  0.57107356595E+03  0.00000000000E+00 0.  1.
</event>
<event>
 4    1  0.7060698E+001  0.2165720E+02  0.7546771E-02  0.1510085E+00
          2   -1    0    0  502    0  0.00000000000E+00  0.00000000000E+00  0.13059944101E+04  0.13059944101E+04  0.00000000000E+00 0.  1.
         -2   -1    0    0    0  501 -0.00000000000E+00 -0.00000000000E+00 -0.36252516785E+00  0.36252516785E+00  0.00000000000E+00 0. -1.
          1    1    1    2  502    0 -0.15707344090E+02  0.14910187387E+02  0.71593736234E+03  0.71626485405E+03  0.00000000000E+00 0.  1.
         -1    1    1    2    0  501  0.15707344090E+02 -0.14910187387E+02  0.58969452257E+03  0.59009208120E+03  0.00000000000E+00 0. -1.
</event>
<event>
 4    1  0.7060698E+001  0.3076618E+02  0.7546771E-02  0.1413053E+00
          2   -1    0    0  502    0  0.00000000000E+00  0.00000000000E+00  0.34636544544E+02  0.34636544544E+02  0.00000000000E+00 0. -1.
         -2   -1    0    0    0  501 -0.00000000000E+00 -0.00000000000E+00 -0.27380117473E+02  0.27380117473E+02  0.00000000000E+00 0.  1.
          1    1    1    2  502    0  0.85444119234E+00  0.30754316348E+02  0.22793156686E+01  0.30850499569E+02  0.00000000000E+00 0. -1.
         -1    1    1    2    0  501 -0.85444119234E+00 -0.30754316348E+02  0.49771114026E+01  0.31166162447E+02  0.00000000000E+00 0.  1.
</event>
<event>
 4    1  0.7060698E+001  0.2155462E+02  0.7546771E-02  0.1511492E+00
          2   -1    0    0  502    0  0.00000000000E+00  0.00000000000E+00  0.35452515681E+01  0.35452515681E+01  0.00000000000E+00 0. -1.
         -2   -1    0    0    0  501 -0.00000000000E+00 -0.00000000000E+00 -0.14428507401E+03  0.14428507401E+03  0.00000000000E+00 0.  1.
          1    1    1    2  502    0  0.14892167715E+02 -0.15582848731E+02 -0.92757209338E+02  0.95228681173E+02  0.00000000000E+00 0.  1.
         -1    1    1    2    0  501 -0.14892167715E+02  0.15582848731E+02 -0.47982613104E+02  0.52601644405E+02  0.00000000000E+00 0. -1.
</event>
<event>
 4    1  0.7060698E+001  0.3605158E+02  0.7546771E-02  0.1373317E+00
          2   -1    0    0  502    0  0.00000000000E+00  0.00000000000E+00  0.28910877082E+01  0.28910877082E+01  0.00000000000E+00 0.  1.
         -2   -1    0    0    0  501 -0.00000000000E+00 -0.00000000000E+00 -0.61286484887E+03  0.61286484887E+03  0.00000000000E+00 0. -1.
          1    1    1    2  502    0 -0.19341640089E+02  0.30423962584E+02 -0.14606042922E+03  0.15044389494E+03  0.00000000000E+00 0.  1.
         -1    1    1    2    0  501  0.19341640089E+02 -0.30423962584E+02 -0.46391333195E+03  0.46531204164E+03  0.00000000000E+00 0. -1.
</event>
<event>
 4    1  0.7060698E+001  0.7640165E+02  0.7546771E-02  0.1212457E+00
          2   -1    0    0  502    0  0.00000000000E+00  0.00000000000E+00  0.15342127873E+04  0.15342127873E+04  0.00000000000E+00 0.  1.
         -2   -1    0    0    0  501 -0.00000000000E+00 -0.00000000000E+00 -0.40750309652E+01  0.40750309652E+01  0.00000000000E+00 0. -1.
          1    1    1    2  502    0 -0.60849250175E+02 -0.46201519107E+02  0.56696447982E+03  0.57208909533E+03  0.00000000000E+00 0. -1.
         -1    1    1    2    0  501  0.60849250175E+02  0.46201519107E+02  0.96317327647E+03  0.96619872290E+03  0.00000000000E+00 0.  1.
</event>
<event>
 4    1  0.7060698E+001  0.4002261E+02  0.7546771E-02  0.1348353E+00
          2   -1    0    0  502    0  0.00000000000E+00  0.00000000000E+00  0.16925392565E+02  0.16925392565E+02  0.00000000000E+00 0.  1.
         -2   -1    0    0    0  501 -0.00000000000E+00 -0.00000000000E+00 -0.21322697099E+03  0.21322697099E+03  0.00000000000E+00 0. -1.
          1    1    1    2  502    0 -0.18870382515E+02 -0.35294725480E+02 -0.18396989068E+03  0.18827301893E+03  0.00000000000E+00 0. -1.
         -1    1    1    2    0  501  0.18870382515E+02  0.35294725480E+02 -0.12331687745E+02  0.41879344618E+02  0.00000000000E+00 0.  1.
</event>
<event>
 4    1  0.7060698E+001  0.2028041E+02  0.7546771E-02  0.1529791E+00
          2   -1    0    0  502    0  0.00000000000E+00  0.00000000000E+00  0.77252653942E+01  0.77252653942E+01  0.00000000000E+00 0.  1.
         -2   -1    0    0    0  501 -0.00000000000E+00 -0.00000000000E+00 -0.53324082336E+02  0.53324082336E+02  0.00000000000E+00 0. -1.
          1    1    1    2  502    0  0.19830910749E+02 -0.42461869507E+01 -0.21589162306E+02  0.29620720008E+02  0.00000000000E+00 0.  1.
         -1    1    1    2    0  501 -0.19830910749E+02  0.42461869507E+01 -0.24009654636E+02  0.31428627722E+02  0.00000000000E+00 0. -1.
</event>
<event>
 4    1  0.7060698E+001  0.2341226E+02  0.7546771E-02  0.1487385E+00
          2   -1    0    0  502    0  0.00000000000E+00  0.00000000000E+00  0.37966638869E+02  0.37966638869E+02  0.00000000000E+00 0. -1.
         -2   -1    0    0    0  501 -0.00000000000E+00 -0.00000000000E+00 -0.15534031900E+02  0.15534031900E+02  0.00000000000E+00 0.  1.
          1    1    1    2  502    0 -0.20600861269E+01  0.23321445907E+02  0.41083005089E+01  0.23769979535E+02  0.00000000000E+00 0. -1.
         -1    1    1    2    0  501  0.20600861269E+01 -0.23321445907E+02  0.18324306460E+02  0.29730691234E+02  0.00000000000E+00 0.  1.
</event>
<event>
 4    1  0.7060698E+001  0.2551749E+02  0.7546771E-02  0.1463097E+00
          2   -1    0    0  502    0  0.00000000000E+00  0.00000000000E+00  0.72597077170E+03  0.72597077170E+03  0.00000000000E+00 0.  1.
         -2   -1    0    0    0  501 -0.00000000000E+00 -0.00000000000E+00 -0.89969893349E+00  0.89969893349E+00  0.00000000000E+00 0. -1.
          1    1    1    2  502    0 -0.91770142776E+01  0.23810184479E+02  0.38271006152E+03  0.38355981759E+03  0.00000000000E+00 0.  1.
         -1    1    1    2    0  501  0.91770142776E+01 -0.23810184479E+02  0.34236101125E+03  0.34331065305E+03  0.00000000000E+00 0. -1.
</event>
<event>
 4    1  0.7060698E+001  0.2519770E+02  0.7546771E-02  0.1466604E+00
          2   -1    0    0  502    0  0.00000000000E+00  0.00000000000E+00  0.37146442517E+03  0.37146442517E+03  0.00000000000E+00 0. -1.
         -2   -1    0    0    0  501 -0.00000000000E+00 -0.00000000000E+00 -0.18228693781E+01  0.18228693781E+01  0.00000000000E+00 0.  1.
          1    1    1    2  502    0  0.24517753612E+02  0.58141067549E+01  0.23141899534E+03  0.23278675968E+03  0.00000000000E+00 0. -1.
         -1    1    1    2    0  501 -0.24517753612E+02 -0.58141067549E+01  0.13822256046E+03  0.14050053487E+03  0.00000000000E+00 0.  1.
</event>
<event>
 4    1  0.7060698E+001  0.5050233E+02  0.7546771E-02  0.1296009E+00
          2   -1    0    0  502    0  0.00000000000E+00  0.00000000000E+00  0.58087583218E+02  0.58087583218E+02  0.00000000000E+00 0. -1.
         -2   -1    0    0    0  501 -0.00000000000E+00 -0.00000000000E+00 -0.10434016842E+03  0.10434016842E+03  0.00000000000E+00 0.  1.
          1    1    1    2  502    0 -0.25436345388E+02  0.43628866485E+02 -0.84933630793E+02  0.98814003548E+02  0.00000000000E+00 0.  1.
         -1    1    1    2    0  501  0.25436345388E+02 -0.43628866485E+02  0.38681045594E+02  0.63613748087E+02  0.00000000000E+00 0. -1.
</event>
<event>
 4    1  0.7060698E+001  0.3492327E+02  0.7546771E-02  0.1381103E+00
          2   -1    0    0  502    0  0.00000000000E+00  0.00000000000E+00  0.29138202141E+03  0.29138202141E+03  0.00000000000E+00 0.  1.
         -2   -1    0    0    0  501 -0.00000000000E+00 -0.00000000000E+00 -0.64410991078E+01  0.64410991078E+01  0.00000000000E+00 0. -1.
          1    1    1    2  502    0  0.30113188609E+02 -0.17687022709E+02  0.23058773638E+03  0.23321736443E+03  0.00000000000E+00 0.  1.
         -1    1    1    2    0  501 -0.30113188609E+02  0.17687022709E+02  0.54353185926E+02  0.64605756096E+02  0.00000000000E+00 0. -1.
</event>
<event>
 4    1  0.7060698E+001  0.2331344E+02  0.7546771E-02  0.1488599E+00
          2   -1    0    0  502    0  0.00000000000E+00  0.00000000000E+00  0.56227230000E+03  0.56227230000E+03  0.00000000000E+00 0.  1.
         -2   -1    0    0    0  501 -0.00000000000E+00 -0.00000000000E+00 -0.11419731516E+01  0.11419731516E+01  0.00000000000E+00 0. -1.
          1    1    1    2  502    0  0.22725522837E+02 -0.52025957345E+01  0.39094725785E+03  0.39164176847E+03  0.00000000000E+00 0.  1.
         -1    1    1    2    0  501 -0.22725522837E+02  0.52025957345E+01  0.17018306900E+03  0.17177250468E+03  0.00000000000E+00 0. -1.
</event>
<event>
 4    1  0.7060698E+001  0.2130347E+02  0.7546771E-02  0.1514976E+00
          2   -1    0    0  502    0  0.00000000000E+00  0.00000000000E+00  0.20563843601E+02  0.20563843601E+02  0.00000000000E+00 0.  1.
         -2   -1    0    0    0  501 -0.00000000000E+00 -0.00000000000E+00 -0.22526411339E+02  0.22526411339E+02  0.00000000000E+00 0. -1.
          1    1    1    2  502    0 -0.20242407676E+02 -0.66394796212E+01 -0.40490785811E+01  0.21684851752E+02  0.00000000000E+00 0. -1.
         -1    1    1    2    0  501  0.20242407676E+02  0.66394796212E+01  0.20865108427E+01  0.21405403188E+02  0.00000000000E+00 0.  1.
</event>
<event>
 4    1  0.7060698E+001  0.2044975E+02  0.7546771E-02  0.1527268E+00
          2   -1    0    0  502    0  0.00000000000E+00  0.00000000000E+00  0.17032126328E+01  0.17032126328E+01  0.00000000000E+00 0. -1.
         -2   -1    0    0    0  501 -0.00000000000E+00 -0.00000000000E+00 -0.61285679043E+03  0.61285679043E+03  0.00000000000E+00 0.  1.
          1    1    1    2  502    0 -0.49252599766E+01  0.19847775162E+02 -0.54346899086E+03  0.54385359830E+03  0.00000000000E+00 0.  1.
         -1    1    1    2    0  501  0.49252599766E+01 -0.19847775162E+02 -0.67684586944E+02  0.70706404763E+02  0.00000000000E+00 0. -1.
</event>
<event>
 4    1  0.7060698E+001  0.4923985E+02  0.7546771E-02  0.1301502E+00
          2   -1    0    0  502    0  0.00000000000E+00  0.00000000000E+00  0.57495603767E+02  0.57495603767E+02  0.00000000000E+00 0.  1.
         -2   -1    0    0    0  501 -0.00000000000E+00 -0.00000000000E+00 -0.42196827059E+02  0.42196827059E+02  0.00000000000E+00 0. -1.
          1    1    1    2  502    0  0.49122083354E+02 -0.34034448777E+01  0.89172182449E+01  0.50040776286E+02  0.00000000000E+00 0.  1.
         -1    1    1    2    0  501 -0.49122083354E+02  0.34034448777E+01  0.63815584632E+01  0.49651654539E+02  0.00000000000E+00 0. -1.
</event>
<event>
 4    1  0.7060698E+001  0.2951269E+02  0.7546771E-02  0.1423879E+00
          2   -1    0    0  502    0  0.00000000000E+00  0.00000000000E+00  0.31882228006E+02  0.31882228006E+02  0.00000000000E+00 0. -1.
         -2   -1    0    0    0  501 -0.00000000000E+00 -0.00000000000E+00 -0.27356248945E+02  0.27356248945E+02  0.00000000000E+00 0.  1.
          1    1    1    2  502    0  0.17394226008E+02  0.23841980045E+02  0.33520158438E+01  0.29702443016E+02  0.00000000000E+00 0. -1.
         -1    1    1    2    0  501 -0.17394226008E+02 -0.23841980045E+02  0.11739632174E+01  0.29536033934E+02  0.00000000000E+00 0.  1.
</event>
<event>
 4    1  0.7060698E+001  0.3610898E+02  0.7546771E-02  0.1372930E+00
          2   -1    0    0  502    0  0.00000000000E+00  0.00000000000E+00  0.21084854962E+04  0.21084854962E+04  0.00000000000E+00 0. -1.
         -2   -1    0    0    0  501 -0.00000000000E+00 -0.00000000000E+00 -0.62498680528E+00  0.62498680528E+00  0.00000000000E+00 0.  1.
          1    1    1    2  502    0  0.30545951662E+02 -0.19256244578E+02  0.11623052657E+04  0.11628660236E+04  0.00000000000E+00 0. -1.
         -1    1    1    2    0  501 -0.30545951662E+02  0.19256244578E+02  0.94555524368E+03  0.94624445941E+03  0.00000000000E+00 0.  1.
</event>
<event>
 4    1  0.7060698E+001  0.7824537E+02  0.7546771E-02  0.1207981E+00
          2   -1    0    0  502    0  0.00000000000E+00  0.00000000000E+00  0.29206409981E+04  0.29206409981E+04  0.00000000000E+00 0. -1.
         -2   -1    0    0    0  501 -0.00000000000E+00 -0.00000000000E+00 -0.47215660033E+01  0.47215660033E+01  0.00000000000E+00 0.  1.
          1    1    1    2  502    0 -0.76968750656E+02 -0.14076539502E+02  0.36727543446E+03  0.37551775231E+03  0.00000000000E+00 0.  1.
         -1    1    1    2    0  501  0.76968750656E+02  0.14076539502E+02  0.25486439977E+04  0.25498448118E+04  0.00000000000E+00 0. -1.
</event>
<event>
 4    1  0.7060698E+001  0.2788965E+02  0.7546771E-02  0.1438870E+00
          2   -1    0    0  502    0  0.00000000000E+00  0.00000000000E+00  0.17977549992E+02  0.17977549992E+02  0.00000000000E+00 0. -1.
         -2   -1    0    0    0  501 -0.00000000000E+00 -0.00000000000E+00 -0.49968586921E+02  0.49968586921E+02  0.00000000000E+00 0.  1.
          1    1    1    2  502    0  0.25279983554E+02 -0.11779422581E+02 -0.28437203311E+02  0.39830979112E+02  0.00000000000E+00 0. -1.
         -1    1    1    2    0  501 -0.25279983554E+02  0.11779422581E+02 -0.35538336182E+01  0.28115157802E+02  0.00000000000E+00 0.  1.
</event>
<event>
 4    1  0.7060698E+001  0.2266972E+02  0.7546771E-02  0.1496688E+00
          2   -1    0    0  502    0  0.00000000000E+00  0.00000000000E+00  0.23938437233E+04  0.23938437233E+04  0.00000000000E+00 0. -1.
         -2   -1    0    0    0  501 -0.00000000000E+00 -0.00000000000E+00 -0.23098700185E+00  0.23098700185E+00  0.00000000000E+00 0.  1.
          1    1    1    2  502    0  0.17957487296E+02 -0.13836362255E+02  0.15148364279E+04  0.15150060461E+04  0.00000000000E+00 0. -1.
         -1    1    1    2    0  501 -0.17957487296E+02  0.13836362255E+02  0.87877630837E+03  0.87906866423E+03  0.00000000000E+00 0.  1.
</event>
<event>
 4    1  0.7060698E+001  0.3469745E+02  0.7546771E-02  0.1382703E+00
          2   -1    0    0  502    0  0.00000000000E+00  0.00000000000E+00  0.11951753483E+02  0.11951753483E+02  0.00000000000E+00 0.  1.
         -2   -1    0    0    0  501 -0.00000000000E+00 -0.00000000000E+00 -0.11861838615E+03  0.11861838615E+03  0.00000000000E+00 0. -1.
          1    1    1    2  502    0  0.33716096843E+02 -0.81937523852E+01 -0.27981410470E+02  0.44574343476E+02  0.00000000000E+00 0.  1.
         -1    1    1    2    0  501 -0.33716096843E+02  0.81937523852E+01 -0.78685222196E+02  0.85995796156E+02  0.00000000000E+00 0. -1.
</event>
<event>
 4    1  0.7060698E+001  0.2104719E+02  0.7546771E-02  0.1518592E+00
          2   -1    0    0  502    0  0.00000000000E+00  0.00000000000E+00  0.66706026381E+03  0.66706026381E+03  0.00000000000E+00 0. -1.
         -2   -1    0    0    0  501 -0.00000000000E+00 -0.00000000000E+00 -0.13965320270E+01  0.13965320270E+01  0.00000000000E+00 0.  1.
          1    1    1    2  502    0  0.20560945292E+02  0.44979850816E+01  0.57488247164E+03  0.57526762515E+03  0.00000000000E+00 0. -1.
         -1    1    1    2    0  501 -0.20560945292E+02 -0.44979850816E+01  0.90781260142E+02  0.93189170691E+02  0.00000000000E+00 0.  1.
</event>
<event>
 4    1  0.7060698E+001  0.3566971E+02  0.7546771E-02  0.1375915E+00
          2   -1    0    0  502    0  0.00000000000E+00  0.00000000000E+00  0.70028614744E+02  0.70028614744E+02  0.00000000000E+00 0. -1.
         -2   -1    0    0    0  501 -0.00000000000E+00 -0.00000000000E+00 -0.12980804928E+03  0.12980804928E+03  0.00000000000E+00 0.  1.
          1    1    1    2  502    0 -0.15746011532E+02  0.32006118468E+02  0.62772571460E+02  0.72199198238E+02  0.00000000000E+00 0. -1.
         -1    1    1    2    0  501  0.15746011532E+02 -0.32006118468E+02 -0.12255200600E+03  0.12763746579E+03  0.00000000000E+00 0.  1.
</event>
<event>
 4    1  0.7060698E+001  0.2147543E+02  0.7546771E-02  0.1512584E+00
          2   -1    0    0  502    0  0.00000000000E+00  0.00000000000E+00  0.58436007311E+02  0.58436007311E+02  0.00000000000E+00 0. -1.
         -2   -1    0    0    0  501 -0.00000000000E+00 -0.00000000000E+00 -0.88414445863E+01  0.88414445863E+01  0.00000000000E+00 0.  1.
          1    1    1    2  502    0 -0.17732706266E+02 -0.12113835559E+02  0.35818929120E+02  0.41763495625E+02  0.00000000000E+00 0.  1.
         -1    1    1    2    0  501  0.17732706266E+02  0.12113835559E+02  0.13775633605E+02  0.25513956273E+02  0.00000000000E+00 0. -1.
</event>
<event>
 4    1  0.7060698E+001  0.6104429E+02  0.7546771E-02  0.1256325E+00
          2   -1    0    0  502    0  0.00000000000E+00  0.00000000000E+00  0.50972735621E+01  0.50972735621E+01  0.00000000000E+00 0.  1.
         -2   -1    0    0    0  501 -0.00000000000E+00 -0.00000000000E+00 -0.11261638331E+04  0.11261638331E+04  0.00000000000E+00 0. -1.
          1    1    1    2  502    0  0.22549229376E+02  0.56726873320E+02 -0.89556693761E+03  0.89764499979E+03  0.00000000000E+00 0. -1.
         -1    1    1    2    0  501 -0.22549229376E+02 -0.56726873320E+02 -0.22549962193E+03  0.23361610688E+03  0.00000000000E+00 0.  1.
</event>
<event>
 4    1  0.7060698E+001  0.3242018E+02  0.7546771E-02  0.1399668E+00
          2   -1    0    0  502    0  0.00000000000E+00  0.00000000000E+00  0.23753995349E+04  0.23753995349E+04  0.00000000000E+00 0.  1.
         -2   -1    0    0    0  501 -0.00000000000E+00 -0.00000000000E+00 -0.26814191279E+01  0.26814191279E+01  0.00000000000E+00 0. -1.
          1    1    1    2  502    0 -0.32296273028E+02 -0.28317025000E+01  0.99844900617E+02  0.10497653057E+03  0.00000000000E+00 0. -1.
         -1    1    1    2    0  501  0.32296273028E+02  0.28317025000E+01  0.22728732151E+04  0.22731044234E+04  0.00000000000E+00 0.  1.
</event>
<event>
 4    1  0.7060698E+001  0.2091690E+02  0.7546771E-02  0.1520455E+00
          2   -1    0    0  502    0  0.00000000000E+00  0.00000000000E+00  0.34442932989E+01  0.34442932989E+01  0.00000000000E+00 0. -1.
         -2   -1    0    0    0  501 -0.00000000000E+00 -0.00000000000E+00 -0.12915176466E+03  0.12915176466E+03  0.00000000000E+00 0.  1.
          1    1    1    2  502    0  0.13816143282E+02  0.15704486221E+02 -0.71358291157E+02  0.74360758599E+02  0.00000000000E+00 0.  1.
         -1    1    1    2    0  501 -0.13816143282E+02 -0.15704486221E+02 -0.54349180207E+02  0.58235299362E+02  0.00000000000E+00 0. -1.
</event>
<event>
 4    1  0.7060698E+001  0.5698125E+02  0.7546771E-02  0.1270449E+00
          2   -1    0    0  502    0  0.00000000000E+00  0.00000000000E+00  0.14517274067E+03  0.14517274067E+03  0.00000000000E+00 0. -1.
         -2   -1    0    0    0  501 -0.00000000000E+00 -0.00000000000E+00 -0.22935691303E+02  0.22935691303E+02  0.00000000000E+00 0.  1.
          1    1    1    2  502    0 -0.48316165069E+02 -0.30206134854E+02  0.47865651181E+02  0.74417625283E+02  0.00000000000E+00 0. -1.
         -1    1    1    2    0  501  0.48316165069E+02  0.30206134854E+02  0.74371398184E+02  0.93690806687E+02  0.00000000000E+00 0.  1.
</event>
<event>
 4    1  0.7060698E+001  0.2290574E+02  0.7546771E-02  0.1493685E+00
          2   -1    0    0  502    0  0.00000000000E+00  0.00000000000E+00  0.12303562043E+02  0.12303562043E+02  0.00000000000E+00 0.  1.
         -2   -1    0    0    0  501 -0.00000000000E+00 -0.00000000000E+00 -0.45918209749E+02  0.45918209749E+02  0.00000000000E+00 0. -1.
          1    1    1    2  502    0 -0.22854895291E+02 -0.15253316460E+01 -0.24580838233E+02  0.33598965515E+02  0.00000000000E+00 0.  1.
         -1    1    1    2    0  501  0.22854895291E+02  0.15253316460E+01 -0.90338094725E+01  0.24622806278E+02  0.00000000000E+00 0. -1.
</event>
<event>
 4    1  0.7060698E+001  0.3370215E+02  0.7546771E-02  0.1389924E+00
          2   -1    0    0  502    0  0.00000000000E+00  0.00000000000E+00  0.13686245475E+04  0.13686245475E+04  0.00000000000E+00 0.  1.
         -2   -1    0    0    0  501 -0.00000000000E+00 -0.00000000000E+00 -0.83696059265E+00  0.83696059265E+00  0.00000000000E+00 0. -1.
          1    1    1    2  502    0  0.93055374761E+00 -0.33689305525E+02  0.62104755809E+03  0.62196133694E+03  0.00000000000E+00 0. -1.
         -1    1    1    2    0  501 -0.93055374761E+00  0.33689305525E+02  0.74674002878E+03  0.74750017112E+03  0.00000000000E+00 0.  1.
</event>
<event>
 4    1  0.7060698E+001  0.2025867E+02  0.7546771E-02  0.1530118E+00
          2   -1    0    0  502    0  0.00000000000E+00  0.00000000000E+00  0.18132012131E+02  0.18132012131E+02  0.00000000000E+00 0. -1.
         -2   -1    0    0    0  501 -0.00000000000E+00 -0.00000000000E+00 -0.23389885228E+02  0.23389885228E+02  0.00000000000E+00 0.  1.
          1    1    1    2  502    0  0.80762966021E+01  0.18579207819E+02  0.11013828301E+01  0.20288582358E+02  0.00000000000E+00 0. -1.
         -1    1    1    2    0  501 -0.80762966021E+01 -0.18579207819E+02 -0.63592559266E+01  0.21233315001E+02  0.00000000000E+00 0.  1.
</event>
<event>
 4    1  0.7060698E+001  0.2703613E+02  0.7546771E-02  0.1447246E+00
          2   -1    0    0  502    0  0.00000000000E+00  0.00000000000E+00  0.14197927915E+01  0.14197927915E+01  0.00000000000E+00 0. -1.
         -2   -1    0    0    0  501 -0.00000000000E+00 -0.00000000000E+00 -0.68220958663E+03  0.68220958663E+03  0.00000000000E+00 0.  1.
          1    1    1    2  502    0 -0.11510261367E+02  0.24463564139E+02 -0.50970501369E+03  0.51042154448E+03  0.00000000000E+00 0. -1.
         -1    1    1    2    0  501  0.11510261367E+02 -0.24463564139E+02 -0.17108478014E+03  0.17320783494E+03  0.00000000000E+00 0.  1.
</event>
<event>
 4    1  0.7060698E+001  0.3026924E+02  0.7546771E-02  0.1417271E+00
          2   -1    0    0  502    0  0.00000000000E+00  0.00000000000E+00  0.29078818804E+03  0.29078818804E+03  0.00000000000E+00 0. -1.
         -2   -1    0    0    0  501 -0.00000000000E+00 -0.00000000000E+00 -0.39839053442E+01  0.39839053442E+01  0.00000000000E+00 0.  1.
          1    1    1    2  502    0 -0.25084018307E+02 -0.16941630479E+02  0.21079930353E+03  0.21296143592E+03  0.00000000000E+00 0. -1.
         -1    1    1    2    0  501  0.25084018307E+02  0.16941630479E+02  0.76004979163E+02  0.81810657467E+02  0.00000000000E+00 0.  1.
</event>
<event>
 4    1  0.7060698E+001  0.3153287E+02  0.7546771E-02  0.1406728E+00
          2   -1    0    0  502    0  0.00000000000E+00  0.00000000000E+00  0.13242158022E+04  0.13242158022E+04  0.00000000000E+00 0.  1.
         -2   -1    0    0    0  501 -0.00000000000E+00 -0.00000000000E+00 -0.75127738535E+00  0.75127738535E+00  0.00000000000E+00 0. -1.
          1    1    1    2  502    0 -0.21543962520E+01  0.31459188547E+02  0.64642090106E+03  0.64718954201E+03  0.00000000000E+00 0. -1.
         -1    1    1    2    0  501  0.21543962520E+01 -0.31459188547E+02  0.67704362378E+03  0.67777753760E+03  0.00000000000E+00 0.  1.
</event>
<event>
 4    1  0.7060698E+001  0.4797119E+02  0.7546771E-02  0.1307217E+00
          2   -1    0    0  502    0  0.00000000000E+00  0.00000000000E+00  0.15509608445E+02  0.15509608445E+02  0.00000000000E+00 0. -1.
         -2   -1    0    0    0  501 -0.00000000000E+00 -0.00000000000E+00 -0.18721966073E+03  0.18721966073E+03  0.00000000000E+00 0.  1.
          1    1    1    2  502    0 -0.17106514015E+02  0.44817436356E+02 -0.39683164841E+02  0.62257441283E+02  0.00000000000E+00 0. -1.
         -1    1    1    2    0  501  0.17106514015E+02 -0.44817436356E+02 -0.13202688744E+03  0.14047182789E+03  0.00000000000E+00 0.  1.
</event>
<event>
 4    1  0.7060698E+001  0.2049693E+02  0.7546771E-02  0.1526570E+00
          2   -1    0    0  502    0  0.00000000000E+00  0.00000000000E+00  0.27265295441E+03  0.27265295441E+03  0.00000000000E+00 0.  1.
         -2   -1    0    0    0  501 -0.00000000000E+00 -0.00000000000E+00 -0.23947738023E+01  0.23947738023E+01  0.00000000000E+00 0. -1.
          1    1    1    2  502    0  0.20485853629E+02 -0.67372218373E+00  0.53009071771E+02  0.56833843707E+02  0.00000000000E+00 0. -1.
         -1    1    1    2    0  501 -0.20485853629E+02  0.67372218373E+00  0.21724910884E+03  0.21821388450E+03  0.00000000000E+00 0.  1.
</event>
<event>
 4    1  0.7060698E+001  0.2207636E+02  0.7546771E-02  0.1504434E+00
          2   -1    0    0  502    0  0.00000000000E+00  0.00000000000E+00  0.32143133599E+03  0.32143133599E+03  0.00000000000E+00 0.  1.
         -2   -1    0    0    0  501 -0.00000000000E+00 -0.00000000000E+00 -0.15364351357E+01  0.15364351357E+01  0.00000000000E+00 0. -1.
          1    1    1    2  502    0 -0.18191082109E+02  0.12508002580E+02  0.14143158431E+03  0.14314418827E+03  0.00000000000E+00 0. -1.
         -1    1    1    2    0  501  0.18191082109E+02 -0.12508002580E+02  0.17846331655E+03  0.17982358286E+03  0.00000000000E+00 0.  1.
</event>
<event>
 4    1  0.7060698E+001  0.5445187E+02  0.7546771E-02  0.1279945E+00
          2   -1    0    0  502    0  0.00000000000E+00  0.00000000000E+00  0.66332114688E+02  0.66332114688E+02  0.00000000000E+00 0.  1.
         -2   -1    0    0    0  501 -0.00000000000E+00 -0.00000000000E+00 -0.55554164768E+02  0.55554164768E+02  0.00000000000E+00 0. -1.
          1    1    1    2  502    0  0.35627277097E+02  0.41178923267E+02  0.32327664187E+02  0.63325227726E+02  0.00000000000E+00 0.  1.
         -1    1    1    2    0  501 -0.35627277097E+02 -0.41178923267E+02 -0.21549714267E+02  0.58561051730E+02  0.00000000000E+00 0. -1.
</event>
<event>
 4    1  0.7060698E+001  0.2163075E+02  0.7546771E-02  0.1510447E+00
          2   -1    0    0  502    0  0.00000000000E+00  0.00000000000E+00  0.77923343629E+03  0.77923343629E+03  0.00000000000E+00 0.  1.
         -2   -1    0    0    0  501 -0.00000000000E+00 -0.00000000000E+00 -0.87117871918E+00  0.87117871918E+00  0.00000000000E+00 0. -1.
          1    1    1    2  502    0 -0.16971014168E+02  0.13411716625E+02  0.60662024569E+03  0.60700577587E+03  0.00000000000E+00 0. -1.
         -1    1    1    2    0  501  0.16971014168E+02 -0.13411716625E+02  0.17174201189E+03  0.17309883914E+03  0.00000000000E+00 0.  1.
</event>
<event>
 4    1  0.7060698E+001  0.3140535E+02  0.7546771E-02  0.1407765E+00
          2   -1    0    0  502    0  0.00000000000E+00  0.00000000000E+00  0.89561956887E+03  0.89561956887E+03  0.00000000000E+00 0.  1.
         -2   -1    0    0    0  501 -0.00000000000E+00 -0.00000000000E+00 -0.12075265721E+01  0.12075265721E+01  0.00000000000E+00 0. -1.
          1    1    1    2  502    0 -0.28647576172E+02 -0.12869038884E+02  0.58023956605E+03  0.58108884845E+03  0.00000000000E+00 0.  1.
         -1    1    1    2    0  501  0.28647576172E+02  0.12869038884E+02  0.31417247625E+03  0.31573824700E+03  0.00000000000E+00 0. -1.
</event>
<event>
 4    1  0.7060698E+001  0.2219729E+02  0.7546771E-02  0.1502832E+00
          2   -1    0    0  502    0  0.00000000000E+00  0.00000000000E+00  0.41486716283E+01  0.41486716283E+01  0.00000000000E+00 0. -1.
         -2   -1    0    0    0  501 -0.00000000000E+00 -0.00000000000E+00 -0.12615340738E+03  0.12615340738E+03  0.00000000000E+00 0.  1.
          1    1    1    2  502    0  0.19752891949E+02 -0.10126339131E+02 -0.76768660111E+02  0.79913369719E+02  0.00000000000E+00 0.  1.
         -1    1    1    2    0  501 -0.19752891949E+02  0.10126339131E+02 -0.45236075641E+02  0.50388709290E+02  0.00000000000E+00 0. -1.
</event>
<event>
 4    1  0.7060698E+001  0.2889164E+02  0.7546771E-02  0.1429479E+00
          2   -1    0    0  502    0  0.00000000000E+00  0.00000000000E+00  0.11771022863E+04  0.11771022863E+04  0.00000000000E+00 0. -1.
         -2   -1    0    0    0  501 -0.00000000000E+00 -0.00000000000E+00 -0.24997034570E+01  0.24997034570E+01  0.00000000000E+00 0.  1.
          1    1    1    2  502    0 -0.74044497767E+01 -0.27926712548E+02  0.10864804445E+04  0.10868645194E+04  0.00000000000E+00 0. -1.
         -1    1    1    2    0  501  0.74044497767E+01  0.27926712548E+02  0.88122138310E+02  0.92737470370E+02  0.00000000000E+00 0.  1.
</event>
<event>
 4    1  0.7060698E+001  0.4517802E+02  0.7546771E-02  0.1320552E+00
          2   -1    0    0  502    0  0.00000000000E+00  0.00000000000E+00  0.30497328463E+04  0.30497328463E+04  0.00000000000E+00 0. -1.
         -2   -1    0    0    0  501 -0.00000000000E+00 -0.00000000000E+00 -0.74100169437E+00  0.74100169437E+00  0.00000000000E+00 0.  1.
          1    1    1    2  502    0  0.21403910293E+02  0.39786001996E+02  0.19990921879E+04  0.19996026178E+04  0.00000000000E+00 0. -1.
         -1    1    1    2    0  501 -0.21403910293E+02 -0.39786001996E+02  0.10498996566E+04  0.10508712301E+04  0.00000000000E+00 0.  1.
</event>
<event>
 4    1  0.7060698E+001  0.2066675E+02  0.7546771E-02  0.1524076E+00
          2   -1    0    0  502    0  0.00000000000E+00  0.00000000000E+00  0.17958401437E+04  0.17958401437E+04  0.00000000000E+00 0.  1.
         -2   -1    0    0    0  501 -0.00000000000E+00 -0.00000000000E+00 -0.25959503652E+00  0.25959503652E+00  0.00000000000E+00 0. -1.
          1    1    1    2  502    0  0.12492677072E+02  0.16463521924E+02  0.11577925229E+04  0.11579769603E+04  0.00000000000E+00 0. -1.
         -1    1    1    2    0  501 -0.12492677072E+02 -0.16463521924E+02  0.63778802573E+03  0.63812277838E+03  0.00000000000E+00 0.  1.
</event>
<event>
 4    1  0.7060698E+001  0.5071132E+02  0.7546771E-02  0.1295118E+00
          2   -1    0    0  502    0  0.00000000000E+00  0.00000000000E+00  0.30411808720E+02  0.30411808720E+02  0.00000000000E+00 0. -1.
         -2   -1    0    0    0  501 -0.00000000000E+00 -0.00000000000E+00 -0.89639604752E+02  0.89639604752E+02  0.00000000000E+00 0.  1.
          1    1    1    2  502    0  0.43170690150E+02  0.26606937575E+02 -0.15325580523E+02  0.52976513981E+02  0.00000000000E+00 0. -1.
         -1    1    1    2    0  501 -0.43170690150E+02 -0.26606937575E+02 -0.43902215508E+02  0.67074899491E+02  0.00000000000E+00 0.  1.
</event>
<event>
 4    1  0.7060698E+001  0.2046733E+02  0.7546771E-02  0.1527008E+00
          2   -1    0    0  502    0  0.00000000000E+00  0.00000000000E+00  0.23982553040E+03  0.23982553040E+03  0.00000000000E+00 0. -1.
         -2   -1    0    0    0  501 -0.00000000000E+00 -0.00000000000E+00 -0.41963934509E+01  0.41963934509E+01  0.00000000000E+00 0.  1.
          1    1    1    2  502    0 -0.13318409004E+01  0.20423955774E+02  0.24593629339E+02  0.31996224367E+02  0.00000000000E+00 0.  1.
         -1    1    1    2    0  501  0.13318409004E+01 -0.20423955774E+02  0.21103550761E+03  0.21202569949E+03  0.00000000000E+00 0. -1.
</event>
<event>
 4    1  0.7060698E+001  0.3465091E+02  0.7546771E-02  0.1383034E+00
          2   -1    0    0  502    0  0.00000000000E+00  0.00000000000E+00  0.98028915282E+03  0.98028915282E+03  0.00000000000E+00 0.  1.
         -2   -1    0    0    0  501 -0.00000000000E+00 -0.00000000000E+00 -0.15895485854E+01  0.15895485854E+01  0.00000000000E+00 0. -1.
          1    1    1    2  502    0 -0.20520783111E+02  0.27921009801E+02  0.25418558188E+03  0.25653653807E+03  0.00000000000E+00 0. -1.
         -1    1    1    2    0  501  0.20520783111E+02 -0.27921009801E+02  0.72451402235E+03  0.72534216334E+03  0.00000000000E+00 0.  1.
</event>
<event>
 4    1  0.7060698E+001  0.2650613E+02  0.7546771E-02  0.1452633E+00
          2   -1    0    0  502    0  0.00000000000E+00  0.00000000000E+00  0.15912154699E+03  0.15912154699E+03  0.00000000000E+00 0.  1.
         -2   -1    0    0    0  501 -0.00000000000E+00 -0.00000000000E+00 -0.63139618705E+01  0.63139618705E+01  0.00000000000E+00 0. -1.
          1    1    1    2  502    0  0.65047393022E+01 -0.25695584046E+02  0.31044344758E+02  0.40820656711E+02  0.00000000000E+00 0. -1.
         -1    1    1    2    0  501 -0.65047393022E+01  0.25695584046E+02  0.12176324036E+03  0.12461485215E+03  0.00000000000E+00 0.  1.
</event>
<event>
 4    1  0.7060698E+001  0.2032544E+02  0.7546771E-02  0.1529118E+00
          2   -1    0    0  502    0  0.00000000000E+00  0.00000000000E+00  0.19613888554E+04  0.19613888554E+04  0.00000000000E+00 0. -1.
         -2   -1    0    0    0  501 -0.00000000000E+00 -0.00000000000E+00 -0.21062813018E+00  0.21062813018E+00  0.00000000000E+00 0.  1.
          1    1    1    2  502    0 -0.76608661391E+01 -0.18826434064E+02  0.97994604486E+03  0.98015681109E+03  0.00000000000E+00 0. -1.
         -1    1    1    2    0  501  0.76608661391E+01  0.18826434064E+02  0.98123218239E+03  0.98144267242E+03  0.00000000000E+00 0.  1.
</event>
<event>
 4    1  0.7060698E+001  0.2380779E+02  0.7546771E-02  0.1482596E+00
          2   -1    0    0  502    0  0.00000000000E+00  0.00000000000E+00  0.55745543888E+03  0.55745543888E+03  0.00000000000E+00 0. -1.
         -2   -1    0    0    0  501 -0.00000000000E+00 -0.00000000000E+00 -0.10169279754E+01  0.10169279754E+01  0.00000000000E+00 0.  1.
          1    1    1    2  502    0 -0.17080527901E+02 -0.16585129471E+02  0.28155868922E+03  0.28256345558E+03  0.00000000000E+00 0.  1.
         -1    1    1    2    0  501  0.17080527901E+02  0.16585129471E+02  0.27487982169E+03  0.27590891128E+03  0.00000000000E+00 0. -1.
</event>
<event>
 4    1  0.7060698E+001  0.2970362E+02  0.7546771E-02  0.1422190E+00
          2   -1    0    0  502    0  0.00000000000E+00  0.00000000000E+00  0.33943619227E+02  0.33943619227E+02  0.00000000000E+00 0.  1.
         -2   -1    0    0    0  501 -0.00000000000E+00 -0.00000000000E+00 -0.29749669107E+02  0.29749669107E+02  0.00000000000E+00 0. -1.
          1    1    1    2  502    0 -0.70361606981E+01 -0.28858228922E+02 -0.92194618194E+01  0.31101501735E+02  0.00000000000E+00 0. -1.
         -1    1    1    2    0  501  0.70361606981E+01  0.28858228922E+02  0.13413411939E+02  0.32591786600E+02  0.00000000000E+00 0.  1.
</event>
<event>
 4    1  0.7060698E+001  0.5669445E+02  0.7546771E-02  0.1271497E+00
          2   -1    0    0  502    0  0.00000000000E+00  0.00000000000E+00  0.15698355194E+04  0.15698355194E+04  0.00000000000E+00 0. -1.
         -2   -1    0    0    0  501 -0.00000000000E+00 -0.00000000000E+00 -0.22885456037E+01  0.22885456037E+01  0.00000000000E+00 0.  1.
          1    1    1    2  502    0 -0.53925280450E+02  0.17502145627E+02  0.10388753251E+04  0.10404211657E+04  0.00000000000E+00 0. -1.
         -1    1    1    2    0  501  0.53925280450E+02 -0.17502145627E+02  0.52867164869E+03  0.53170289928E+03  0.00000000000E+00 0.  1.
</event>
<event>
 4    1  0.7060698E+001  0.2187499E+02  0.7546771E-02  0.1507130E+00
          2   -1    0    0  502    0  0.00000000000E+00  0.00000000000E+00  0.39010482549E+01  0.39010482549E+01  0.00000000000E+00 0. -1.
         -2   -1    0    0    0  501 -0.00000000000E+00 -0.00000000000E+00 -0.12292340783E+03  0.12292340783E+03  0.00000000000E+00 0.  1.
          1    1    1    2  502    0 -0.12800058079E+02  0.17739043991E+02 -0.62428560944E+02  0.66150135224E+02  0.00000000000E+00 0.  1.
         -1    1    1    2    0  501  0.12800058079E+02 -0.17739043991E+02 -0.56593798636E+02  0.60674320866E+02  0.00000000000E+00 0. -1.
</event>
<event>
 4    1  0.7060698E+001  0.3152440E+02  0.7546771E-02  0.1406796E+00
          2   -1    0    0  502    0  0.00000000000E+00  0.00000000000E+00  0.28749573188E+01  0.28749573188E+01  0.00000000000E+00 0. -1.
         -2   -1    0    0    0  501 -0.00000000000E+00 -0.00000000000E+00 -0.34658176198E+03  0.34658176198E+03  0.00000000000E+00 0.  1.
          1    1    1    2  502    0 -0.29742818622E+02  0.10447595744E+02 -0.16289322151E+03  0.16591560846E+03  0.00000000000E+00 0.  1.
         -1    1    1    2    0  501  0.29742818622E+02 -0.10447595744E+02 -0.18081358315E+03  0.18354111084E+03  0.00000000000E+00 0. -1.
</event>
<event>
 4    1  0.7060698E+001  0.3170577E+02  0.7546771E-02  0.1405331E+00
          2   -1    0    0  502    0  0.00000000000E+00  0.00000000000E+00  0.11609376911E+03  0.11609376911E+03  0.00000000000E+00 0.  1.
         -2   -1    0    0    0  501 -0.00000000000E+00 -0.00000000000E+00 -0.13372059079E+02  0.13372059079E+02  0.00000000000E+00 0. -1.
          1    1    1    2  502    0 -0.31121863224E+02  0.60568486993E+01  0.12930223576E+02  0.34241005657E+02  0.00000000000E+00 0. -1.
         -1    1    1    2    0  501  0.31121863224E+02 -0.60568486993E+01  0.89791486454E+02  0.95224822532E+02  0.00000000000E+00 0.  1.
</event>
<event>
 4    1  0.7060698E+001  0.2021944E+02  0.7546771E-02  0.1530707E+00
          2   -1    0    0  502    0  0.00000000000E+00  0.00000000000E+00  0.61952505469E+03  0.61952505469E+03  0.00000000000E+00 0.  1.
         -2   -1    0    0    0  501 -0.00000000000E+00 -0.00000000000E+00 -0.11535799121E+01  0.11535799121E+01  0.00000000000E+00 0. -1.
          1    1    1    2  502    0  0.18018026907E+02 -0.91747807588E+01  0.51220383530E+03  0.51260276511E+03  0.00000000000E+00 0.  1.
         -1    1    1    2    0  501 -0.18018026907E+02  0.91747807588E+01  0.10616763948E+03  0.10807586950E+03  0.00000000000E+00 0. -1.
</event>
<event>
 4    1  0.7060698E+001  0.6971644E+02  0.7546771E-02  0.1229972E+00
          2   -1    0    0  502    0  0.00000000000E+00  0.00000000000E+00  0.12148140713E+02  0.12148140713E+02  0.00000000000E+00 0. -1.
         -2   -1    0    0    0  501 -0.00000000000E+00 -0.00000000000E+00 -0.41334792682E+03  0.41334792682E+03  0.00000000000E+00 0.  1.
          1    1    1    2  502    0 -0.58616686571E+02 -0.37742094980E+02 -0.16250188643E+03  0.17682546415E+03  0.00000000000E+00 0.  1.
         -1    1    1    2    0  501  0.58616686571E+02  0.37742094980E+02 -0.23869789968E+03  0.24867060339E+03  0.00000000000E+00 0. -1.
</event>
<event>
 4    1  0.7060698E+001  0.3113113E+02  0.7546771E-02  0.1410015E+00
          2   -1    0    0  502    0  0.00000000000E+00  0.00000000000E+00  0.22623634976E+02  0.22623634976E+02  0.00000000000E+00 0. -1.
         -2   -1    0    0    0  501 -0.00000000000E+00 -0.00000000000E+00 -0.48931559975E+02  0.48931559975E+02  0.00000000000E+00 0.  1.
          1    1    1    2  502    0  0.27283692826E+02  0.14991572017E+02 -0.52816779099E+00  0.31135608023E+02  0.00000000000E+00 0. -1.
         -1    1    1    2    0  501 -0.27283692826E+02 -0.14991572017E+02 -0.25779757208E+02  0.40419586928E+02  0.00000000000E+00 0.  1.
</event>
<event>
 4    1  0.7060698E+001  0.4551130E+02  0.7546771E-02  0.1318902E+00
          2   -1    0    0  502    0  0.00000000000E+00  0.00000000000E+00  0.59852589511E+03  0.59852589511E+03  0.00000000000E+00 0.  1.
         -2   -1    0    0    0  501 -0.00000000000E+00 -0.00000000000E+00 -0.51239786994E+01  0.51239786994E+01  0.00000000000E+00 0. -1.
          1    1    1    2  502    0 -0.35943635720E+02  0.27916550573E+02  0.12473493058E+03  0.13277831770E+03  0.00000000000E+00 0. -1.
         -1    1    1    2    0  501  0.35943635720E+02 -0.27916550573E+02  0.46866698583E+03  0.47087155611E+03  0.00000000000E+00 0.  1.
</event>
<event>
 4    1  0.7060698E+001  0.2055503E+02  0.7546771E-02  0.1525714E+00
          2   -1    0    0  502    0  0.00000000000E+00  0.00000000000E+00  0.11459646990E+03  0.11459646990E+03  0.00000000000E+00 0. -1.
         -2   -1    0    0    0  501 -0.00000000000E+00 -0.00000000000E+00 -0.36957769566E+01  0.36957769566E+01  0.00000000000E+00 0.  1.
          1    1    1    2  502    0  0.16060221381E+02 -0.12828810160E+02  0.52556417431E+02  0.56433023081E+02  0.00000000000E+00 0.  1.
         -1    1    1    2    0  501 -0.16060221381E+02  0.12828810160E+02  0.58344275508E+02  0.61859223770E+02  0.00000000000E+00 0. -1.
</event>
<event>
 4    1  0.7060698E+001  0.5970076E+02  0.7546771E-02  0.1260853E+00
          2   -1    0    0  502    0  0.00000000000E+00  0.00000000000E+00  0.33335131025E+02  0.33335131025E+02  0.00000000000E+00 0.  1.
         -2   -1    0    0    0  501 -0.00000000000E+00 -0.00000000000E+00 -0.15108909160E+03  0.15108909160E+03  0.00000000000E+00 0. -1.
          1    1    1    2  502    0 -0.32116832220E+02 -0.50325842021E+02 -0.10873468204E+03  0.12404600907E+03  0.00000000000E+00 0. -1.
         -1    1    1    2    0  501  0.32116832220E+02  0.50325842021E+02 -0.90192785324E+01  0.60378213556E+02  0.00000000000E+00 0.  1.
</event>
<event>
 4    1  0.7060698E+001  0.3303493E+02  0.7546771E-02  0.1394931E+00
          2   -1    0    0  502    0  0.00000000000E+00  0.00000000000E+00  0.44994184334E+03  0.44994184334E+03  0.00000000000E+00 0.  1.
         -2   -1    0    0    0  501 -0.00000000000E+00 -0.00000000000E+00 -0.27157456978E+01  0.27157456978E+01  0.00000000000E+00 0. -1.
          1    1    1    2  502    0  0.26913816866E+02  0.19156018008E+02  0.29761167761E+03  0.29943950510E+03  0.00000000000E+00 0.  1.
         -1    1    1    2    0  501 -0.26913816866E+02 -0.19156018008E+02  0.14961442003E+03  0.15321808393E+03  0.00000000000E+00 0. -1.
</event>
<event>
 4    1  0.7060698E+001  0.2012299E+02  0.7546771E-02  0.1532164E+00
          2   -1    0    0  502    0  0.00000000000E+00  0.00000000000E+00  0.40399548774E+01  0.40399548774E+01  0.00000000000E+00 0. -1.
         -2   -1    0    0    0  501 -0.00000000000E+00 -0.00000000000E+00 -0.13238874945E+03  0.13238874945E+03  0.00000000000E+00 0.  1.
          1    1    1    2  502    0 -0.18973804695E+02 -0.67029476859E+01 -0.97793252581E+02  0.99842150531E+02  0.00000000000E+00 0.  1.
         -1    1    1    2    0  501  0.18973804695E+02  0.67029476859E+01 -0.30555541993E+02  0.36586553797E+02  0.00000000000E+00 0. -1.
</event>
<event>
 4    1  0.7060698E+001  0.2235889E+02  0.7546771E-02  0.1500709E+00
          2   -1    0    0  502    0  0.00000000000E+00  0.00000000000E+00  0.19626449745E+04  0.19626449745E+04  0.00000000000E+00 0. -1.
         -2   -1    0    0    0  501 -0.00000000000E+00 -0.00000000000E+00 -0.29748809295E+00  0.29748809295E+00  0.00000000000E+00 0.  1.
          1    1    1    2  502    0  0.20439050787E+02 -0.90644972398E+01  0.13533217616E+04  0.13535064501E+04  0.00000000000E+00 0. -1.
         -1    1    1    2    0  501 -0.20439050787E+02  0.90644972398E+01  0.60902572475E+03  0.60943601249E+03  0.00000000000E+00 0.  1.
</event>
<event>
 4    1  0.7060698E+001  0.2596692E+02  0.7546771E-02  0.1458271E+00
          2   -1    0    0  502    0  0.00000000000E+00  0.00000000000E+00  0.68028501532E+02  0.68028501532E+02  0.00000000000E+00 0.  1.
         -2   -1    0    0    0  501 -0.00000000000E+00 -0.00000000000E+00 -0.12620331760E+02  0.12620331760E+02  0.00000000000E+00 0. -1.
          1    1    1    2  502    0  0.21152089806E+02  0.15062206963E+02  0.90229053967E+01  0.27489885477E+02  0.00000000000E+00 0. -1.
         -1    1    1    2    0  501 -0.21152089806E+02 -0.15062206963E+02  0.46385264375E+02  0.53158947815E+02  0.00000000000E+00 0.  1.
</event>
<event>
 4    1  0.7060698E+001  0.2060002E+02  0.7546771E-02  0.1525053E+00
          2   -1    0    0  502    0  0.00000000000E+00  0.00000000000E+00  0.23361893830E+01  0.23361893830E+01  0.00000000000E+00 0.  1.
         -2   -1    0    0    0  501 -0.00000000000E+00 -0.00000000000E+00 -0.19871010479E+03  0.19871010479E+03  0.00000000000E+00 0. -1.
          1    1    1    2  502    0 -0.18773743307E+02 -0.84798252522E+01 -0.12764406755E+03  0.12929566448E+03  0.00000000000E+00 0.  1.
         -1    1    1    2    0  501  0.18773743307E+02  0.84798252522E+01 -0.68729847854E+02  0.71750629685E+02  0.00000000000E+00 0. -1.
</event>
<event>
 4    1  0.7060698E+001  0.3062784E+02  0.7546771E-02  0.1414217E+00
          2   -1    0    0  502    0  0.00000000000E+00  0.00000000000E+00  0.19815390549E+04  0.19815390549E+04  0.00000000000E+00 0.  1.
         -2   -1    0    0    0  501 -0.00000000000E+00 -0.00000000000E+00 -0.57628902830E+00  0.57628902830E+00  0.00000000000E+00 0. -1.
          1    1    1    2  502    0 -0.12760588862E+02  0.27842986317E+02  0.57172725340E+03  0.57254704330E+03  0.00000000000E+00 0. -1.
         -1    1    1    2    0  501  0.12760588862E+02 -0.27842986317E+02  0.14092355125E+04  0.14095683007E+04  0.00000000000E+00 0.  1.
</event>
<event>
 4    1  0.7060698E+001  0.2058063E+02  0.7546771E-02  0.1525337E+00
          2   -1    0    0  502    0  0.00000000000E+00  0.00000000000E+00  0.18800850661E+01  0.18800850661E+01  0.00000000000E+00 0.  1.
         -2   -1    0    0    0  501 -0.00000000000E+00 -0.00000000000E+00 -0.23475749876E+03  0.23475749876E+03  0.00000000000E+00 0. -1.
          1    1    1    2  502    0 -0.66235939258E+01  0.19485640073E+02 -0.14020100512E+03  0.14170350738E+03  0.00000000000E+00 0. -1.
         -1    1    1    2    0  501  0.66235939258E+01 -0.19485640073E+02 -0.92676408575E+02  0.94934076453E+02  0.00000000000E+00 0.  1.
</event>
<event>
 4    1  0.7060698E+001  0.2511206E+02  0.7546771E-02  0.1467554E+00
          2   -1    0    0  502    0  0.00000000000E+00  0.00000000000E+00  0.91451716112E+03  0.91451716112E+03  0.00000000000E+00 0.  1.
         -2   -1    0    0    0  501 -0.00000000000E+00 -0.00000000000E+00 -0.69712297852E+00  0.69712297852E+00  0.00000000000E+00 0. -1.
          1    1    1    2  502    0 -0.23743262777E+02 -0.81775898956E+01  0.40925029163E+03  0.41002001988E+03  0.00000000000E+00 0.  1.
         -1    1    1    2    0  501  0.23743262777E+02  0.81775898956E+01  0.50456974651E+03  0.50519426422E+03  0.00000000000E+00 0. -1.
</event>
<event>
 4    1  0.7060698E+001  0.2014161E+02  0.7546771E-02  0.1531882E+00
          2   -1    0    0  502    0  0.00000000000E+00  0.00000000000E+00  0.10836136367E+02  0.10836136367E+02  0.00000000000E+00 0.  1.
         -2   -1    0    0    0  501 -0.00000000000E+00 -0.00000000000E+00 -0.38982548116E+02  0.38982548116E+02  0.00000000000E+00 0. -1.
          1    1    1    2  502    0  0.16307446945E+02  0.11821659635E+02 -0.19031273441E+02  0.27710536465E+02  0.00000000000E+00 0. -1.
         -1    1    1    2    0  501 -0.16307446945E+02 -0.11821659635E+02 -0.91151383076E+01  0.22108148018E+02  0.00000000000E+00 0.  1.
</event>
<event>
 4    1  0.7060698E+001  0.3313712E+02  0.7546771E-02  0.1394155E+00
          2   -1    0    0  502    0  0.00000000000E+00  0.00000000000E+00  0.35914194945E+03  0.35914194945E+03  0.00000000000E+00 0.  1.
         -2   -1    0    0    0  501 -0.00000000000E+00 -0.00000000000E+00 -0.32606746581E+01  0.32606746581E+01  0.00000000000E+00 0. -1.
          1    1    1    2  502    0  0.32975851762E+02  0.32652227428E+01  0.13270650422E+03  0.13678115639E+03  0.00000000000E+00 0. -1.
         -1    1    1    2    0  501 -0.32975851762E+02 -0.32652227428E+01  0.22317477056E+03  0.22562146772E+03  0.00000000000E+00 0.  1.
</event>
<event>
 4    1  0.7060698E+001  0.2099557E+02  0.7546771E-02  0.1519328E+00
          2   -1    0    0  502    0  0.00000000000E+00  0.00000000000E+00  0.11525624821E+03  0.11525624821E+03  0.00000000000E+00 0.  1.
         -2   -1    0    0    0  501 -0.00000000000E+00 -0.00000000000E+00 -0.44006733649E+01  0.44006733649E+01  0.00000000000E+00 0. -1.
          1    1    1    2  502    0  0.10959683096E+02  0.17908084250E+02  0.77073431804E+02  0.79881963077E+02  0.00000000000E+00 0.  1.
         -1    1    1    2    0  501 -0.10959683096E+02 -0.17908084250E+02  0.33782143045E+02  0.39774958502E+02  0.00000000000E+00 0. -1.
</event>
<event>
 4    1  0.7060698E+001  0.2289106E+02  0.7546771E-02  0.1493871E+00
          2   -1    0    0  502    0  0.00000000000E+00  0.00000000000E+00  0.72062322150E+03  0.72062322150E+03  0.00000000000E+00 0. -1.
         -2   -1    0    0    0  501 -0.00000000000E+00 -0.00000000000E+00 -0.74619929643E+00  0.74619929643E+00  0.00000000000E+00 0.  1.
          1    1    1    2  502    0 -0.22041399750E+02 -0.61787926054E+01  0.30230885534E+03  0.30317428122E+03  0.00000000000E+00 0.  1.
         -1    1    1    2    0  501  0.22041399750E+02  0.61787926054E+01  0.41756816687E+03  0.41819513957E+03  0.00000000000E+00 0. -1.
</event>
<event>
 4    1  0.7060698E+001  0.2205615E+02  0.7546771E-02  0.1504703E+00
          2   -1    0    0  502    0  0.00000000000E+00  0.00000000000E+00  0.55904756991E+01  0.55904756991E+01  0.00000000000E+00 0.  1.
         -2   -1    0    0    0  501 -0.00000000000E+00 -0.00000000000E+00 -0.96450336432E+02  0.96450336432E+02  0.00000000000E+00 0. -1.
          1    1    1    2  502    0  0.18635719363E+02  0.11797607290E+02 -0.29474987391E+02  0.36813699294E+02  0.00000000000E+00 0.  1.
         -1    1    1    2    0  501 -0.18635719363E+02 -0.11797607290E+02 -0.61384873342E+02  0.65227112838E+02  0.00000000000E+00 0. -1.
</event>
<event>
 4    1  0.7060698E+001  0.2953472E+02  0.7546771E-02  0.1423683E+00
          2   -1    0    0  502    0  0.00000000000E+00  0.00000000000E+00  0.94152241877E+01  0.94152241877E+01  0.00000000000E+00 0. -1.
         -2   -1    0    0    0  501 -0.00000000000E+00 -0.00000000000E+00 -0.94411692879E+02  0.94411692879E+02  0.00000000000E+00 0.  1.
          1    1    1    2  502    0 -0.99374250530E+00 -0.29518002048E+02 -0.35402439328E+02  0.46104584148E+02  0.00000000000E+00 0.  1.
         -1    1    1    2    0  501  0.99374250530E+00  0.29518002048E+02 -0.49594029363E+02  0.57722332919E+02  0.00000000000E+00 0. -1.
</event>
<event>
 4    1  0.7060698E+001  0.2049003E+02  0.7546771E-02  0.1526672E+00
          2   -1    0    0  502    0  0.00000000000E+00  0.00000000000E+00  0.45387844114E+01  0.45387844114E+01  0.00000000000E+00 0.  1.
         -2   -1    0    0    0  501 -0.00000000000E+00 -0.00000000000E+00 -0.95561446044E+02  0.95561446044E+02  0.00000000000E+00 0. -1.
          1    1    1    2  502    0 -0.18743100404E+02 -0.82787362236E+01 -0.36554203220E+02  0.41905262907E+02  0.00000000000E+00 0.  1.
         -1    1    1    2    0  501  0.18743100404E+02  0.82787362236E+01 -0.54468458412E+02  0.58194967549E+02  0.00000000000E+00 0. -1.
</event>
<event>
 4    1  0.7060698E+001  0.2273562E+02  0.7546771E-02  0.1495845E+00
          2   -1    0    0  502    0  0.00000000000E+00  0.00000000000E+00  0.32394328541E+01  0.32394328541E+01  0.00000000000E+00 0.  1.
         -2   -1    0    0    0  501 -0.00000000000E+00 -0.00000000000E+00 -0.18190658502E+03  0.18190658502E+03  0.00000000000E+00 0. -1.
          1    1    1    2  502    0 -0.11469836561E+02 -0.19630369307E+02 -0.56892756619E+02  0.61267400024E+02  0.00000000000E+00 0.  1.
         -1    1    1    2    0  501  0.11469836561E+02  0.19630369307E+02 -0.12177439555E+03  0.12387861785E+03  0.00000000000E+00 0. -1.
</event>
<event>
 4    1  0.7060698E+001  0.2801048E+02  0.7546771E-02  0.1437713E+00
          2   -1    0    0  502    0  0.00000000000E+00  0.00000000000E+00  0.22643611603E+03  0.22643611603E+03  0.00000000000E+00 0.  1.
         -2   -1    0    0    0  501 -0.00000000000E+00 -0.00000000000E+00 -0.35363037556E+01  0.35363037556E+01  0.00000000000E+00 0. -1.
          1    1    1    2  502    0 -0.16648972012E+02 -0.22525517277E+02  0.95115075333E+02  0.99153743011E+02  0.00000000000E+00 0. -1.
         -1    1    1    2    0  501  0.16648972012E+02  0.22525517277E+02  0.12778473694E+03  0.13081867677E+03  0.00000000000E+00 0.  1.
</event>
<event>
 4    1  0.7060698E+001  0.2736361E+02  0.7546771E-02  0.1443989E+00
          2   -1    0    0  502    0  0.00000000000E+00  0.00000000000E+00  0.52321416961E+02  0.52321416961E+02  0.00000000000E+00 0.  1.
         -2   -1    0    0    0  501 -0.00000000000E+00 -0.00000000000E+00 -0.17673585532E+02  0.17673585532E+02  0.00000000000E+00 0. -1.
          1    1    1    2  502    0 -0.16563991928E+02  0.21780752294E+02  0.20581955262E+01  0.27440903191E+02  0.00000000000E+00 0.  1.
         -1    1    1    2    0  501  0.16563991928E+02 -0.21780752294E+02  0.32589635903E+02  0.42554099302E+02  0.00000000000E+00 0. -1.
</event>
<event>
 4    1  0.7060698E+001  0.3273582E+02  0.7546771E-02  0.1397220E+00
          2   -1    0    0  502    0  0.00000000000E+00  0.00000000000E+00  0.97883229091E+02  0.97883229091E+02  0.00000000000E+00 0. -1.
         -2   -1    0    0    0  501 -0.00000000000E+00 -0.00000000000E+00 -0.12669108157E+02  0.12669108157E+02  0.00000000000E+00 0.  1.
          1    1    1    2  502    0 -0.12362863377E+02  0.30311603974E+02  0.62980225709E+02  0.70979874307E+02  0.00000000000E+00 0. -1.
         -1    1    1    2    0  501  0.12362863377E+02 -0.30311603974E+02  0.22233895225E+02  0.39572462941E+02  0.00000000000E+00 0.  1.
</event>
<event>
 4    1  0.7060698E+001  0.2033576E+02  0.7546771E-02  0.1528963E+00
          2   -1    0    0  502    0  0.00000000000E+00  0.00000000000E+00  0.98946182168E+02  0.98946182168E+02  0.00000000000E+00 0. -1.
         -2   -1    0    0    0  501 -0.00000000000E+00 -0.00000000000E+00 -0.42041194698E+01  0.42041194698E+01  0.00000000000E+00 0.  1.
          1    1    1    2  502    0 -0.15435331760E+02  0.13239845041E+02  0.43422146881E+02  0.47948157451E+02  0.00000000000E+00 0.  1.
         -1    1    1    2    0  501  0.15435331760E+02 -0.13239845041E+02  0.51319915818E+02  0.55202144187E+02  0.00000000000E+00 0. -1.
</event>
<event>
 4    1  0.7060698E+001  0.2177339E+02  0.7546771E-02  0.1508503E+00
          2   -1    0    0  502    0  0.00000000000E+00  0.00000000000E+00  0.96636152273E+03  0.96636152273E+03  0.00000000000E+00 0.  1.
         -2   -1    0    0    0  501 -0.00000000000E+00 -0.00000000000E+00 -0.52352288697E+00  0.52352288697E+00  0.00000000000E+00 0. -1.
          1    1    1    2  502    0  0.21280273436E+02  0.46076643681E+01  0.36165341613E+03  0.36230825826E+03  0.00000000000E+00 0. -1.
         -1    1    1    2    0  501 -0.21280273436E+02 -0.46076643681E+01  0.60418458371E+03  0.60457678735E+03  0.00000000000E+00 0.  1.
</event>
<event>
 4    1  0.7060698E+001  0.2397759E+02  0.7546771E-02  0.1480574E+00
          2   -1    0    0  502    0  0.00000000000E+00  0.00000000000E+00  0.73950534937E+02  0.73950534937E+02  0.00000000000E+00 0.  1.
         -2   -1    0    0    0  501 -0.00000000000E+00 -0.00000000000E+00 -0.16031715303E+02  0.16031715303E+02  0.00000000000E+00 0. -1.
          1    1    1    2  502    0 -0.16487152926E+02  0.17409730335E+02  0.61248433333E+02  0.65774581015E+02  0.00000000000E+00 0.  1.
         -1    1    1    2    0  501  0.16487152926E+02 -0.17409730335E+02 -0.33296136996E+01  0.24207669225E+02  0.00000000000E+00 0. -1.
</event>
<event>
 4    1  0.7060698E+001  0.3260425E+02  0.7546771E-02  0.1398236E+00
          2   -1    0    0  502    0  0.00000000000E+00  0.00000000000E+00  0.49957799213E+03  0.49957799213E+03  0.00000000000E+00 0.  1.
         -2   -1    0    0    0  501 -0.00000000000E+00 -0.00000000000E+00 -0.62487179453E+01  0.62487179453E+01  0.00000000000E+00 0. -1.
          1    1    1    2  502    0 -0.32074853512E+02  0.58515665049E+01  0.41279225386E+02  0.52602390695E+02  0.00000000000E+00 0. -1.
         -1    1    1    2    0  501  0.32074853512E+02 -0.58515665049E+01  0.45205004880E+03  0.45322431938E+03  0.00000000000E+00 0.  1.
</event>
<event>
 4    1  0.7060698E+001  0.2234024E+02  0.7546771E-02  0.1500953E+00
          2   -1    0    0  502    0  0.00000000000E+00  0.00000000000E+00  0.28570159624E+04  0.28570159624E+04  0.00000000000E+00 0. -1.
         -2   -1    0    0    0  501 -0.00000000000E+00 -0.00000000000E+00 -0.17810591812E+00  0.17810591812E+00  0.00000000000E+00 0.  1.
          1    1    1    2  502    0  0.20305334311E+02 -0.93155520704E+01  0.12305134110E+04  0.12307161902E+04  0.00000000000E+00 0. -1.
         -1    1    1    2    0  501 -0.20305334311E+02  0.93155520704E+01  0.16263244455E+04  0.16264778781E+04  0.00000000000E+00 0.  1.
</event>
<event>
 4    1  0.7060698E+001  0.2467803E+02  0.7546771E-02  0.1472438E+00
          2   -1    0    0  502    0  0.00000000000E+00  0.00000000000E+00  0.37160198051E+03  0.37160198051E+03  0.00000000000E+00 0.  1.
         -2   -1    0    0    0  501 -0.00000000000E+00 -0.00000000000E+00 -0.16470703293E+01  0.16470703293E+01  0.00000000000E+00 0. -1.
          1    1    1    2  502    0 -0.14612872159E+02 -0.19886399587E+02  0.19815093228E+03  0.19968173899E+03  0.00000000000E+00 0. -1.
         -1    1    1    2    0  501  0.14612872159E+02  0.19886399587E+02  0.17180397790E+03  0.17356731185E+03  0.00000000000E+00 0.  1.
</event>
<event>
 4    1  0.7060698E+001  0.2265494E+02  0.7546771E-02  0.1496877E+00
          2   -1    0    0  502    0  0.00000000000E+00  0.00000000000E+00  0.25678192924E+01  0.25678192924E+01  0.00000000000E+00 0.  1.
         -2   -1    0    0    0  501 -0.00000000000E+00 -0.00000000000E+00 -0.31693747574E+03  0.31693747574E+03  0.00000000000E+00 0. -1.
          1    1    1    2  502    0  0.17755137836E+02 -0.14071291647E+02 -0.60096338653E+02  0.64224731122E+02  0.00000000000E+00 0. -1.
         -1    1    1    2    0  501 -0.17755137836E+02  0.14071291647E+02 -0.25427331779E+03  0.25528056391E+03  0.00000000000E+00 0.  1.
</event>
<event>
 4    1  0.7060698E+001  0.2187554E+02  0.7546771E-02  0.1507122E+00
          2   -1    0    0  502    0  0.00000000000E+00  0.00000000000E+00  0.50312000635E+03  0.50312000635E+03  0.00000000000E+00 0.  1.
         -2   -1    0    0    0  501 -0.00000000000E+00 -0.00000000000E+00 -0.11486302653E+01  0.11486302653E+01  0.00000000000E+00 0. -1.
          1    1    1    2  502    0 -0.55766314181E+01  0.21152791177E+02  0.14643890299E+03  0.14806380957E+03  0.00000000000E+00 0. -1.
         -1    1    1    2    0  501  0.55766314181E+01 -0.21152791177E+02  0.35553247309E+03  0.35620482705E+03  0.00000000000E+00 0.  1.
</event>
<event>
 4    1  0.7060698E+001  0.2738673E+02  0.7546771E-02  0.1443762E+00
          2   -1    0    0  502    0  0.00000000000E+00  0.00000000000E+00  0.15814429052E+03  0.15814429052E+03  0.00000000000E+00 0. -1.
         -2   -1    0    0    0  501 -0.00000000000E+00 -0.00000000000E+00 -0.75512907459E+01  0.75512907459E+01  0.00000000000E+00 0.  1.
          1    1    1    2  502    0  0.27010931507E+02  0.45213484326E+01  0.12582234026E+03  0.12876837469E+03  0.00000000000E+00 0.  1.
         -1    1    1    2    0  501 -0.27010931507E+02 -0.45213484326E+01  0.24770659513E+02  0.36927206572E+02  0.00000000000E+00 0. -1.
</event>
<event>
 4    1  0.7060698E+001  0.3146823E+02  0.7546771E-02  0.1407253E+00
          2   -1    0    0  502    0  0.00000000000E+00  0.00000000000E+00  0.50292748404E+03  0.50292748404E+03  0.00000000000E+00 0.  1.
         -2   -1    0    0    0  501 -0.00000000000E+00 -0.00000000000E+00 -0.19925879422E+01  0.19925879422E+01  0.00000000000E+00 0. -1.
          1    1    1    2  502    0 -0.17360479291E+02  0.26246203541E+02  0.22298222970E+03  0.22519174985E+03  0.00000000000E+00 0.  1.
         -1    1    1    2    0  501  0.17360479291E+02 -0.26246203541E+02  0.27795266641E+03  0.27972832213E+03  0.00000000000E+00 0. -1.
</event>
<event>
 4    1  0.7060698E+001  0.2907470E+02  0.7546771E-02  0.1427811E+00
          2   -1    0    0  502    0  0.00000000000E+00  0.00000000000E+00  0.36723173331E+03  0.36723173331E+03  0.00000000000E+00 0. -1.
         -2   -1    0    0    0  501 -0.00000000000E+00 -0.00000000000E+00 -0.47266184109E+01  0.47266184109E+01  0.00000000000E+00 0.  1.
          1    1    1    2  502    0  0.21028959921E+02  0.20077879121E+02  0.48048383051E+02  0.56160355226E+02  0.00000000000E+00 0.  1.
         -1    1    1    2    0  501 -0.21028959921E+02 -0.20077879121E+02  0.31445673185E+03  0.31579799650E+03  0.00000000000E+00 0. -1.
</event>
<event>
 4    1  0.7060698E+001  0.2149013E+02  0.7546771E-02  0.1512381E+00
          2   -1    0    0  502    0  0.00000000000E+00  0.00000000000E+00  0.39140820804E+02  0.39140820804E+02  0.00000000000E+00 0.  1.
         -2   -1    0    0    0  501 -0.00000000000E+00 -0.00000000000E+00 -0.19417931184E+02  0.19417931184E+02  0.00000000000E+00 0. -1.
          1    1    1    2  502    0  0.12154787964E+02 -0.17722495018E+02  0.28201686970E+02  0.35456464123E+02  0.00000000000E+00 0.  1.
         -1    1    1    2    0  501 -0.12154787964E+02  0.17722495018E+02 -0.84787973504E+01  0.23102287866E+02  0.00000000000E+00 0. -1.
</event>
<event>
 4    1  0.7060698E+001  0.2005246E+02  0.7546771E-02  0.1533235E+00
          2   -1    0    0  502    0  0.00000000000E+00  0.00000000000E+00  0.17646244404E+01  0.17646244404E+01  0.00000000000E+00 0. -1.
         -2   -1    0    0    0  501 -0.00000000000E+00 -0.00000000000E+00 -0.29288736173E+03  0.29288736173E+03  0.00000000000E+00 0.  1.
          1    1    1    2  502    0 -0.18972058185E+02 -0.64932297063E+01 -0.76146708189E+02  0.78742759615E+02  0.00000000000E+00 0. -1.
         -1    1    1    2    0  501  0.18972058185E+02  0.64932297063E+01 -0.21497602910E+03  0.21590922656E+03  0.00000000000E+00 0.  1.
</event>
<event>
 4    1  0.7060698E+001  0.2029483E+02  0.7546771E-02  0.1529575E+00
          2   -1    0    0  502    0  0.00000000000E+00  0.00000000000E+00  0.12398848565E+01  0.12398848565E+01  0.00000000000E+00 0. -1.
         -2   -1    0    0    0  501 -0.00000000000E+00 -0.00000000000E+00 -0.33286497773E+03  0.33286497773E+03  0.00000000000E+00 0.  1.
          1    1    1    2  502    0 -0.67449217669E+01  0.19141214241E+02 -0.15830217683E+03  0.15959780463E+03  0.00000000000E+00 0.  1.
         -1    1    1    2    0  501  0.67449217669E+01 -0.19141214241E+02 -0.17332291604E+03  0.17450705796E+03  0.00000000000E+00 0. -1.
</event>
<event>
 4    1  0.7060698E+001  0.2696980E+02  0.7546771E-02  0.1447912E+00
          2   -1    0    0  502    0  0.00000000000E+00  0.00000000000E+00  0.32988374349E+01  0.32988374349E+01  0.00000000000E+00 0. -1.
         -2   -1    0    0    0  501 -0.00000000000E+00 -0.00000000000E+00 -0.28424164064E+03  0.28424164064E+03  0.00000000000E+00 0.  1.
          1    1    1    2  502    0  0.15865306734E+02  0.21809674759E+02 -0.20855795065E+03  0.21029452834E+03  0.00000000000E+00 0.  1.
         -1    1    1    2    0  501 -0.15865306734E+02 -0.21809674759E+02 -0.72384852554E+02  0.77245949732E+02  0.00000000000E+00 0. -1.
</event>
<event>
 4    1  0.7060698E+001  0.2554581E+02  0.7546771E-02  0.1462789E+00
          2   -1    0    0  502    0  0.00000000000E+00  0.00000000000E+00  0.28761034841E+03  0.28761034841E+03  0.00000000000E+00 0. -1.
         -2   -1    0    0    0  501 -0.00000000000E+00 -0.00000000000E+00 -0.41839260280E+01  0.41839260280E+01  0.00000000000E+00 0.  1.
          1    1    1    2  502    0  0.47307740190E+01  0.25103950945E+02  0.43010178114E+02  0.50024633904E+02  0.00000000000E+00 0.  1.
         -1    1    1    2    0  501 -0.47307740190E+01 -0.25103950945E+02  0.24041624426E+03  0.24176964053E+03  0.00000000000E+00 0. -1.
</event>
<event>
 4    1  0.7060698E+001  0.2800542E+02  0.7546771E-02  0.1437762E+00
          2   -1    0    0  502    0  0.00000000000E+00  0.00000000000E+00  0.12436590125E+04  0.12436590125E+04  0.00000000000E+00 0.  1.
         -2   -1    0    0    0  501 -0.00000000000E+00 -0.00000000000E+00 -0.63517598061E+00  0.63517598061E+00  0.00000000000E+00 0. -1.
          1    1    1    2  502    0 -0.64921058518E+00  0.27997897403E+02  0.56894881405E+03  0.56963765390E+03  0.00000000000E+00 0. -1.
         -1    1    1    2    0  501  0.64921058518E+00 -0.27997897403E+02  0.67407502248E+03  0.67465653459E+03  0.00000000000E+00 0.  1.
</event>
<event>
 4    1  0.7060698E+001  0.4058844E+02  0.7546771E-02  0.1345072E+00
          2   -1    0    0  502    0  0.00000000000E+00  0.00000000000E+00  0.39624903765E+03  0.39624903765E+03  0.00000000000E+00 0.  1.
         -2   -1    0    0    0  501 -0.00000000000E+00 -0.00000000000E+00 -0.44582677377E+01  0.44582677377E+01  0.00000000000E+00 0. -1.
          1    1    1    2  502    0 -0.37548704479E+02 -0.15411571096E+02  0.14385985166E+03  0.14947601363E+03  0.00000000000E+00 0.  1.
         -1    1    1    2    0  501  0.37548704479E+02  0.15411571096E+02  0.24793091826E+03  0.25123129176E+03  0.00000000000E+00 0. -1.
</event>
<event>
 4    1  0.7060698E+001  0.2346577E+02  0.7546771E-02  0.1486731E+00
          2   -1    0    0  502    0  0.00000000000E+00  0.00000000000E+00  0.11931054703E+04  0.11931054703E+04  0.00000000000E+00 0. -1.
         -2   -1    0    0    0  501 -0.00000000000E+00 -0.00000000000E+00 -0.46156049511E+00  0.46156049511E+00  0.00000000000E+00 0.  1.
          1    1    1    2  502    0  0.22723002146E+02 -0.58572498011E+01  0.59074161876E+03  0.59120749516E+03  0.00000000000E+00 0.  1.
         -1    1    1    2    0  501 -0.22723002146E+02  0.58572498011E+01  0.60190229102E+03  0.60235953560E+03  0.00000000000E+00 0. -1.
</event>
<event>
 4    1  0.7060698E+001  0.2030670E+02  0.7546771E-02  0.1529398E+00
          2   -1    0    0  502    0  0.00000000000E+00  0.00000000000E+00  0.32110828757E+03  0.32110828757E+03  0.00000000000E+00 0.  1.
         -2   -1    0    0    0  501 -0.00000000000E+00 -0.00000000000E+00 -0.13857065264E+01  0.13857065264E+01  0.00000000000E+00 0. -1.
          1    1    1    2  502    0  0.40977608162E+01  0.19888950397E+02  0.20350665276E+03  0.20451728462E+03  0.00000000000E+00 0.  1.
         -1    1    1    2    0  501 -0.40977608162E+01 -0.19888950397E+02  0.11621592829E+03  0.11797670948E+03  0.00000000000E+00 0. -1.
</event>
<event>
 4    1  0.7060698E+001  0.2146947E+02  0.7546771E-02  0.1512667E+00
          2   -1    0    0  502    0  0.00000000000E+00  0.00000000000E+00  0.84110745682E+03  0.84110745682E+03  0.00000000000E+00 0. -1.
         -2   -1    0    0    0  501 -0.00000000000E+00 -0.00000000000E+00 -0.73496431609E+00  0.73496431609E+00  0.00000000000E+00 0.  1.
          1    1    1    2  502    0  0.17225889964E+02  0.12814317353E+02  0.20789519873E+03  0.20900084131E+03  0.00000000000E+00 0.  1.
         -1    1    1    2    0  501 -0.17225889964E+02 -0.12814317353E+02  0.63247729377E+03  0.63284157982E+03  0.00000000000E+00 0. -1.
</event>
<event>
 4    1  0.7060698E+001  0.3247988E+02  0.7546771E-02  0.1399202E+00
          2   -1    0    0  502    0  0.00000000000E+00  0.00000000000E+00  0.11881727520E+01  0.11881727520E+01  0.00000000000E+00 0.  1.
         -2   -1    0    0    0  501 -0.00000000000E+00 -0.00000000000E+00 -0.18688833956E+04  0.18688833956E+04  0.00000000000E+00 0. -1.
          1    1    1    2  502    0 -0.32370121842E+02  0.26679202588E+01 -0.16112935820E+04  0.16116209077E+04  0.00000000000E+00 0. -1.
         -1    1    1    2    0  501  0.32370121842E+02 -0.26679202588E+01 -0.25640164081E+03  0.25845066066E+03  0.00000000000E+00 0.  1.
</event>
<event>
 4    1  0.7060698E+001  0.2360943E+02  0.7546771E-02  0.1484984E+00
          2   -1    0    0  502    0  0.00000000000E+00  0.00000000000E+00  0.39749239667E+02  0.39749239667E+02  0.00000000000E+00 0.  1.
         -2   -1    0    0    0  501 -0.00000000000E+00 -0.00000000000E+00 -0.14794099549E+02  0.14794099549E+02  0.00000000000E+00 0. -1.
          1    1    1    2  502    0  0.96831778173E+01  0.21532329087E+02  0.18703608069E+02  0.30120260346E+02  0.00000000000E+00 0.  1.
         -1    1    1    2    0  501 -0.96831778173E+01 -0.21532329087E+02  0.62515320489E+01  0.24423078870E+02  0.00000000000E+00 0. -1.
</event>
<event>
 4    1  0.7060698E+001  0.2060619E+02  0.7546771E-02  0.1524962E+00
          2   -1    0    0  502    0  0.00000000000E+00  0.00000000000E+00  0.30365334258E+03  0.30365334258E+03  0.00000000000E+00 0. -1.
         -2   -1    0    0    0  501 -0.00000000000E+00 -0.00000000000E+00 -0.19837098843E+01  0.19837098843E+01  0.00000000000E+00 0.  1.
          1    1    1    2  502    0 -0.19547257754E+02 -0.65207323703E+01  0.23384788542E+03  0.23475401754E+03  0.00000000000E+00 0. -1.
         -1    1    1    2    0  501  0.19547257754E+02  0.65207323703E+01  0.67821747272E+02  0.70883034919E+02  0.00000000000E+00 0.  1.
</event>
<event>
 4    1  0.7060698E+001  0.2205580E+02  0.7546771E-02  0.1504708E+00
          2   -1    0    0  502    0  0.00000000000E+00  0.00000000000E+00  0.44990718280E+01  0.44990718280E+01  0.00000000000E+00 0.  1.
         -2   -1    0    0    0  501 -0.00000000000E+00 -0.00000000000E+00 -0.16016327804E+03  0.16016327804E+03  0.00000000000E+00 0. -1.
          1    1    1    2  502    0  0.13594571078E+02 -0.17367952652E+02 -0.30902378399E+02  0.37965973356E+02  0.00000000000E+00 0.  1.
         -1    1    1    2    0  501 -0.13594571078E+02  0.17367952652E+02 -0.12476182781E+03  0.12669637651E+03  0.00000000000E+00 0. -1.
</event>
<event>
 4    1  0.7060698E+001  0.9463751E+02  0.7546771E-02  0.1173439E+00
          2   -1    0    0  502    0  0.00000000000E+00  0.00000000000E+00  0.97661581959E+03  0.97661581959E+03  0.00000000000E+00 0.  1.
         -2   -1    0    0    0  501 -0.00000000000E+00 -0.00000000000E+00 -0.92073429788E+01  0.92073429788E+01  0.00000000000E+00 0. -1.
          1    1    1    2  502    0 -0.10839219712E+02 -0.94014727745E+02  0.51479666686E+03  0.52342321875E+03  0.00000000000E+00 0.  1.
         -1    1    1    2    0  501  0.10839219712E+02  0.94014727745E+02  0.45261180975E+03  0.46239994382E+03  0.00000000000E+00 0. -1.
</event>
<event>
 4    1  0.7060698E+001  0.2956279E+02  0.7546771E-02  0.1423434E+00
          2   -1    0    0  502    0  0.00000000000E+00  0.00000000000E+00  0.14366151840E+04  0.14366151840E+04  0.00000000000E+00 0. -1.
         -2   -1    0    0    0  501 -0.00000000000E+00 -0.00000000000E+00 -0.99141968955E+00  0.99141968955E+00  0.00000000000E+00 0.  1.
          1    1    1    2  502    0 -0.18388499213E+02  0.23147817236E+02  0.11646217476E+04  0.11649968984E+04  0.00000000000E+00 0. -1.
         -1    1    1    2    0  501  0.18388499213E+02 -0.23147817236E+02  0.27100201679E+03  0.27260970535E+03  0.00000000000E+00 0.  1.
</event>
<event>
 4    1  0.7060698E+001  0.3073318E+02  0.7546771E-02  0.1413330E+00
          2   -1    0    0  502    0  0.00000000000E+00  0.00000000000E+00  0.12824307295E+03  0.12824307295E+03  0.00000000000E+00 0. -1.
         -2   -1    0    0    0  501 -0.00000000000E+00 -0.00000000000E+00 -0.83320858517E+01  0.83320858517E+01  0.00000000000E+00 0.  1.
          1    1    1    2  502    0 -0.22556268825E+02 -0.20874462342E+02  0.83218480716E+02  0.88712141075E+02  0.00000000000E+00 0. -1.
         -1    1    1    2    0  501  0.22556268825E+02  0.20874462342E+02  0.36692506386E+02  0.47863017731E+02  0.00000000000E+00 0.  1.
</event>
<event>
 4    1  0.7060698E+001  0.2364549E+02  0.7546771E-02  0.1484548E+00
          2   -1    0    0  502    0  0.00000000000E+00  0.00000000000E+00  0.87177306259E+03  0.87177306259E+03  0.00000000000E+00 0.  1.
         -2   -1    0    0    0  501 -0.00000000000E+00 -0.00000000000E+00 -0.74368796157E+00  0.74368796157E+00  0.00000000000E+00 0. -1.
          1    1    1    2  502    0  0.52062170154E+01  0.23065227279E+02  0.27367976038E+03  0.27469932771E+03  0.00000000000E+00 0. -1.
         -1    1    1    2    0  501 -0.52062170154E+01 -0.23065227279E+02  0.59734961425E+03  0.59781742284E+03  0.00000000000E+00 0.  1.
</event>
<event>
 4    1  0.7060698E+001  0.2170044E+02  0.7546771E-02  0.1509495E+00
          2   -1    0    0  502    0  0.00000000000E+00  0.00000000000E+00  0.70148743167E+03  0.70148743167E+03  0.00000000000E+00 0. -1.
         -2   -1    0    0    0  501 -0.00000000000E+00 -0.00000000000E+00 -0.67404020483E+00  0.67404020483E+00  0.00000000000E+00 0.  1.
          1    1    1    2  502    0  0.20442549106E+02  0.72808936481E+01  0.32802592656E+03  0.32874293563E+03  0.00000000000E+00 0.  1.
         -1    1    1    2    0  501 -0.20442549106E+02 -0.72808936481E+01  0.37278746491E+03  0.37341853625E+03  0.00000000000E+00 0. -1.
</event>
<event>
 4    1  0.7060698E+001  0.2132713E+02  0.7546771E-02  0.1514645E+00
          2   -1    0    0  502    0  0.00000000000E+00  0.00000000000E+00  0.39090150780E+01  0.39090150780E+01  0.00000000000E+00 0. -1.
         -2   -1    0    0    0  501 -0.00000000000E+00 -0.00000000000E+00 -0.13742633452E+03  0.13742633452E+03  0.00000000000E+00 0.  1.
          1    1    1    2  502    0  0.19785521274E+02 -0.79611450736E+01 -0.94427881903E+02  0.96806361174E+02  0.00000000000E+00 0.  1.
         -1    1    1    2    0  501 -0.19785521274E+02  0.79611450736E+01 -0.39089437539E+02  0.44528988424E+02  0.00000000000E+00 0. -1.
</event>
<event>
 4    1  0.7060698E+001  0.2579094E+02  0.7546771E-02  0.1460146E+00
          2   -1    0    0  502    0  0.00000000000E+00  0.00000000000E+00  0.42812860232E+02  0.42812860232E+02  0.00000000000E+00 0. -1.
         -2   -1    0    0    0  501 -0.00000000000E+00 -0.00000000000E+00 -0.15853154714E+02  0.15853154714E+02  0.00000000000E+00 0.  1.
          1    1    1    2  502    0 -0.22906489324E+02  0.11851812904E+02  0.93358507367E+01  0.27428649826E+02  0.00000000000E+00 0.  1.
         -1    1    1    2    0  501  0.22906489324E+02 -0.11851812904E+02  0.17623854781E+02  0.31237365120E+02  0.00000000000E+00 0. -1.
</event>
<event>
 4    1  0.7060698E+001  0.3369298E+02  0.7546771E-02  0.1389992E+00
          2   -1    0    0  502    0  0.00000000000E+00  0.00000000000E+00  0.93648127012E+03  0.93648127012E+03  0.00000000000E+00 0. -1.
         -2   -1    0    0    0  501 -0.00000000000E+00 -0.00000000000E+00 -0.12958643383E+01  0.12958643383E+01  0.00000000000E+00 0.  1.
          1    1    1    2  502    0 -0.19546408349E+02 -0.27443667391E+02  0.34846294688E+03  0.35008804936E+03  0.00000000000E+00 0. -1.
         -1    1    1    2    0  501  0.19546408349E+02  0.27443667391E+02  0.58672245890E+03  0.58768908510E+03  0.00000000000E+00 0.  1.
</event>
<event>
 4    1  0.7060698E+001  0.3803598E+02  0.7546771E-02  0.1360396E+00
          2   -1    0    0  502    0  0.00000000000E+00  0.00000000000E+00  0.94565520993E+02  0.94565520993E+02  0.00000000000E+00 0.  1.
         -2   -1    0    0    0  501 -0.00000000000E+00 -0.00000000000E+00 -0.26583264327E+02  0.26583264327E+02  0.00000000000E+00 0. -1.
          1    1    1    2  502    0  0.11306708918E+02  0.36316577114E+02  0.73457400863E+02  0.82720766325E+02  0.00000000000E+00 0.  1.
         -1    1    1    2    0  501 -0.11306708918E+02 -0.36316577114E+02 -0.54751441974E+01  0.38428018994E+02  0.00000000000E+00 0. -1.
</event>
<event>
 4    1  0.7060698E+001  0.3742848E+02  0.7546771E-02  0.1364251E+00
          2   -1    0    0  502    0  0.00000000000E+00  0.00000000000E+00  0.23396091116E+02  0.23396091116E+02  0.00000000000E+00 0.  1.
         -2   -1    0    0    0  501 -0.00000000000E+00 -0.00000000000E+00 -0.23113892216E+03  0.23113892216E+03  0.00000000000E+00 0. -1.
          1    1    1    2  502    0 -0.34116294170E+02 -0.15393813518E+02 -0.21342112329E+03  0.21667825661E+03  0.00000000000E+00 0. -1.
         -1    1    1    2    0  501  0.34116294170E+02  0.15393813518E+02  0.56782922417E+01  0.37856756666E+02  0.00000000000E+00 0.  1.
</event>
<event>
 4    1  0.7060698E+001  0.2962014E+02  0.7546771E-02  0.1422927E+00
          2   -1    0    0  502    0  0.00000000000E+00  0.00000000000E+00  0.24018463807E+04  0.24018463807E+04  0.00000000000E+00 0.  1.
         -2   -1    0    0    0  501 -0.00000000000E+00 -0.00000000000E+00 -0.36906364888E+00  0.36906364888E+00  0.00000000000E+00 0. -1.
          1    1    1    2  502    0 -0.28647232801E+02  0.75291800437E+01  0.13223130339E+04  0.13226447415E+04  0.00000000000E+00 0.  1.
         -1    1    1    2    0  501  0.28647232801E+02 -0.75291800437E+01  0.10791642831E+04  0.10795707029E+04  0.00000000000E+00 0. -1.
</event>
<event>
 4    1  0.7060698E+001  0.3761132E+02  0.7546771E-02  0.1363082E+00
          2   -1    0    0  502    0  0.00000000000E+00  0.00000000000E+00  0.47261570990E+03  0.47261570990E+03  0.00000000000E+00 0.  1.
         -2   -1    0    0    0  501 -0.00000000000E+00 -0.00000000000E+00 -0.11475486684E+02  0.11475486684E+02  0.00000000000E+00 0. -1.
          1    1    1    2  502    0 -0.28218753275E+02 -0.24865904078E+02  0.22471441844E+02  0.43812976623E+02  0.00000000000E+00 0. -1.
         -1    1    1    2    0  501  0.28218753275E+02  0.24865904078E+02  0.43866878137E+03  0.44027821996E+03  0.00000000000E+00 0.  1.
</event>
<event>
 4    1  0.7060698E+001  0.2545213E+02  0.7546771E-02  0.1463808E+00
          2   -1    0    0  502    0  0.00000000000E+00  0.00000000000E+00  0.77236421222E+03  0.77236421222E+03  0.00000000000E+00 0.  1.
         -2   -1    0    0    0  501 -0.00000000000E+00 -0.00000000000E+00 -0.88690132196E+00  0.88690132196E+00  0.00000000000E+00 0. -1.
          1    1    1    2  502    0  0.20786031450E+02 -0.14688487367E+02  0.29564094577E+03  0.29673452711E+03  0.00000000000E+00 0. -1.
         -1    1    1    2    0  501 -0.20786031450E+02  0.14688487367E+02  0.47583636513E+03  0.47651658643E+03  0.00000000000E+00 0.  1.
</event>
<event>
 4    1  0.7060698E+001  0.2480151E+02  0.7546771E-02  0.1471036E+00
          2   -1    0    0  502    0  0.00000000000E+00  0.00000000000E+00  0.10820105568E+02  0.10820105568E+02  0.00000000000E+00 0.  1.
         -2   -1    0    0    0  501 -0.00000000000E+00 -0.00000000000E+00 -0.57562748290E+02  0.57562748290E+02  0.00000000000E+00 0. -1.
          1    1    1    2  502    0 -0.15526935261E+02  0.19339828666E+02 -0.19564623404E+02  0.31589383982E+02  0.00000000000E+00 0.  1.
         -1    1    1    2    0  501  0.15526935261E+02 -0.19339828666E+02 -0.27178019318E+02  0.36793469875E+02  0.00000000000E+00 0. -1.
</event>
<event>
 4    1  0.7060698E+001  0.2794105E+02  0.7546771E-02  0.1438377E+00
          2   -1    0    0  502    0  0.00000000000E+00  0.00000000000E+00  0.11028615163E+01  0.11028615163E+01  0.00000000000E+00 0.  1.
         -2   -1    0    0    0  501 -0.00000000000E+00 -0.00000000000E+00 -0.75509346698E+03  0.75509346698E+03  0.00000000000E+00 0. -1.
          1    1    1    2  502    0 -0.23174206273E+02 -0.15609563733E+02 -0.28245851343E+03  0.28383712606E+03  0.00000000000E+00 0.  1.
         -1    1    1    2    0  501  0.23174206273E+02  0.15609563733E+02 -0.47153209203E+03  0.47235920244E+03  0.00000000000E+00 0. -1.
</event>
<event>
 4    1  0.7060698E+001  0.2414577E+02  0.7546771E-02  0.1478591E+00
          2   -1    0    0  502    0  0.00000000000E+00  0.00000000000E+00  0.17749935428E+04  0.17749935428E+04  0.00000000000E+00 0. -1.
         -2   -1    0    0    0  501 -0.00000000000E+00 -0.00000000000E+00 -0.39022878032E+00  0.39022878032E+00  0.00000000000E+00 0.  1.
          1    1    1    2  502    0 -0.22305267922E+02  0.92462479447E+01  0.53413492353E+03  0.53468040418E+03  0.00000000000E+00 0.  1.
         -1    1    1    2    0  501  0.22305267922E+02 -0.92462479447E+01  0.12404683905E+04  0.12407033674E+04  0.00000000000E+00 0. -1.
</event>
<event>
 4    1  0.7060698E+001  0.9361736E+02  0.7546771E-02  0.1175352E+00
          2   -1    0    0  502    0  0.00000000000E+00  0.00000000000E+00  0.29680128575E+02  0.29680128575E+02  0.00000000000E+00 0.  1.
         -2   -1    0    0    0  501 -0.00000000000E+00 -0.00000000000E+00 -0.47790202969E+03  0.47790202969E+03  0.00000000000E+00 0. -1.
          1    1    1    2  502    0 -0.18663020623E+02 -0.91738229083E+02 -0.38099289916E+03  0.39232614012E+03  0.00000000000E+00 0. -1.
         -1    1    1    2    0  501  0.18663020623E+02  0.91738229083E+02 -0.67229001954E+02  0.11525601814E+03  0.00000000000E+00 0.  1.
</event>
<event>
 4    1  0.7060698E+001  0.2571547E+02  0.7546771E-02  0.1460956E+00
          2   -1    0    0  502    0  0.00000000000E+00  0.00000000000E+00  0.43208472751E+02  0.43208472751E+02  0.00000000000E+00 0. -1.
         -2   -1    0    0    0  501 -0.00000000000E+00 -0.00000000000E+00 -0.15390070069E+02  0.15390070069E+02  0.00000000000E+00 0.  1.
          1    1    1    2  502    0  0.25692582094E+02  0.10847123062E+01  0.16093544423E+02  0.30336241487E+02  0.00000000000E+00 0.  1.
         -1    1    1    2    0  501 -0.25692582094E+02 -0.10847123062E+01  0.11724858259E+02  0.28262301333E+02  0.00000000000E+00 0. -1.
</event>
<event>
 4    1  0.7060698E+001  0.2018234E+02  0.7546771E-02  0.1531266E+00
          2   -1    0    0  502    0  0.00000000000E+00  0.00000000000E+00  0.16995237386E+01  0.16995237386E+01  0.00000000000E+00 0.  1.
         -2   -1    0    0    0  501 -0.00000000000E+00 -0.00000000000E+00 -0.25396303444E+03  0.25396303444E+03  0.00000000000E+00 0. -1.
          1    1    1    2  502    0 -0.14525153952E+02  0.14012385539E+02 -0.15645631552E+03  0.15775267260E+03  0.00000000000E+00 0. -1.
         -1    1    1    2    0  501  0.14525153952E+02 -0.14012385539E+02 -0.95807195185E+02  0.97909885584E+02  0.00000000000E+00 0.  1.
</event>
<event>
 4    1  0.7060698E+001  0.4524663E+02  0.7546771E-02  0.1320211E+00
          2   -1    0    0  502    0  0.00000000000E+00  0.00000000000E+00  0.19030476854E+03  0.19030476854E+03  0.00000000000E+00 0.  1.
         -2   -1    0    0    0  501 -0.00000000000E+00 -0.00000000000E+00 -0.37442102982E+02  0.37442102982E+02  0.00000000000E+00 0. -1.
          1    1    1    2  502    0 -0.25122920793E+02  0.37631054108E+02  0.17256386416E+03  0.17839715411E+03  0.00000000000E+00 0.  1.
         -1    1    1    2    0  501  0.25122920793E+02 -0.37631054108E+02 -0.19701198598E+02  0.49349717412E+02  0.00000000000E+00 0. -1.
</event>
<event>
 4    1  0.7060698E+001  0.2368930E+02  0.7546771E-02  0.1484019E+00
          2   -1    0    0  502    0  0.00000000000E+00  0.00000000000E+00  0.23313924872E+03  0.23313924872E+03  0.00000000000E+00 0. -1.
         -2   -1    0    0    0  501 -0.00000000000E+00 -0.00000000000E+00 -0.36771300794E+01  0.36771300794E+01  0.00000000000E+00 0.  1.
          1    1    1    2  502    0 -0.21860806140E+01  0.23588218077E+02  0.18431980646E+03  0.18583587930E+03  0.00000000000E+00 0.  1.
         -1    1    1    2    0  501  0.21860806140E+01 -0.23588218077E+02  0.45142312175E+02  0.50980499497E+02  0.00000000000E+00 0. -1.
</event>
<event>
 4    1  0.7060698E+001  0.2253764E+02  0.7546771E-02  0.1498387E+00
          2   -1    0    0  502    0  0.00000000000E+00  0.00000000000E+00  0.34248860943E+02  0.34248860943E+02  0.00000000000E+00 0.  1.
         -2   -1    0    0    0  501 -0.00000000000E+00 -0.00000000000E+00 -0.16382857393E+02  0.16382857393E+02  0.00000000000E+00 0. -1.
          1    1    1    2  502    0  0.13455368313E+02  0.18080323351E+02  0.16724537144E+02  0.28065195021E+02  0.00000000000E+00 0.  1.
         -1    1    1    2    0  501 -0.13455368313E+02 -0.18080323351E+02  0.11414664068E+01  0.22566523314E+02  0.00000000000E+00 0. -1.
</event>
<event>
 4    1  0.7060698E+001  0.3261059E+02  0.7546771E-02  0.1398187E+00
          2   -1    0    0  502    0  0.00000000000E+00  0.00000000000E+00  0.32370770617E+01  0.32370770617E+01  0.00000000000E+00 0.  1.
         -2   -1    0    0    0  501 -0.00000000000E+00 -0.00000000000E+00 -0.39436669685E+03  0.39436669685E+03  0.00000000000E+00 0. -1.
          1    1    1    2  502    0 -0.91616963928E+01  0.31297188151E+02 -0.11433205959E+03  0.11889184378E+03  0.00000000000E+00 0. -1.
         -1    1    1    2    0  501  0.91616963928E+01 -0.31297188151E+02 -0.27679756019E+03  0.27871193013E+03  0.00000000000E+00 0.  1.
</event>
<event>
 4    1  0.7060698E+001  0.2003992E+02  0.7546771E-02  0.1533426E+00
          2   -1    0    0  502    0  0.00000000000E+00  0.00000000000E+00  0.60837399578E+03  0.60837399578E+03  0.00000000000E+00 0.  1.
         -2   -1    0    0    0  501 -0.00000000000E+00 -0.00000000000E+00 -0.67268038154E+00  0.67268038154E+00  0.00000000000E+00 0. -1.
          1    1    1    2  502    0  0.19844864748E+02 -0.27892323243E+01  0.34546628978E+03  0.34604704282E+03  0.00000000000E+00 0.  1.
         -1    1    1    2    0  501 -0.19844864748E+02  0.27892323243E+01  0.26223502562E+03  0.26299963334E+03  0.00000000000E+00 0. -1.
</event>
<event>
 4    1  0.7060698E+001  0.2898060E+02  0.7546771E-02  0.1428667E+00
          2   -1    0    0  502    0  0.00000000000E+00  0.00000000000E+00  0.39487757442E+03  0.39487757442E+03  0.00000000000E+00 0.  1.
         -2   -1    0    0    0  501 -0.00000000000E+00 -0.00000000000E+00 -0.66313442979E+01  0.66313442979E+01  0.00000000000E+00 0. -1.
          1    1    1    2  502    0 -0.28394105284E+02  0.58008606971E+01  0.35957959919E+03  0.36074556595E+03  0.00000000000E+00 0.  1.
         -1    1    1    2    0  501  0.28394105284E+02 -0.58008606971E+01  0.28666630928E+02  0.40763352763E+02  0.00000000000E+00 0. -1.
</event>
<event>
 4    1  0.7060698E+001  0.2083382E+02  0.7546771E-02  0.1521651E+00
          2   -1    0    0  502    0  0.00000000000E+00  0.00000000000E+00  0.10650413946E+03  0.10650413946E+03  0.00000000000E+00 0. -1.
         -2   -1    0    0    0  501 -0.00000000000E+00 -0.00000000000E+00 -0.41388674795E+01  0.41388674795E+01  0.00000000000E+00 0.  1.
          1    1    1    2  502    0 -0.13161848782E+02 -0.16149733233E+02  0.58032643199E+02  0.61659028726E+02  0.00000000000E+00 0. -1.
         -1    1    1    2    0  501  0.13161848782E+02  0.16149733233E+02  0.44332628779E+02  0.48983978210E+02  0.00000000000E+00 0.  1.
</event>
<event>
 4    1  0.7060698E+001  0.2062538E+02  0.7546771E-02  0.1524681E+00
          2   -1    0    0  502    0  0.00000000000E+00  0.00000000000E+00  0.11978530399E+04  0.11978530399E+04  0.00000000000E+00 0.  1.
         -2   -1    0    0    0  501 -0.00000000000E+00 -0.00000000000E+00 -0.80521236429E+00  0.80521236429E+00  0.00000000000E+00 0. -1.
          1    1    1    2  502    0  0.20625175431E+02 -0.91554507733E-01  0.15044856463E+03  0.15185577645E+03  0.00000000000E+00 0.  1.
         -1    1    1    2    0  501 -0.20625175431E+02  0.91554507733E-01  0.10465992629E+04  0.10468024758E+04  0.00000000000E+00 0. -1.
</event>
<event>
 4    1  0.7060698E+001  0.2208759E+02  0.7546771E-02  0.1504285E+00
          2   -1    0    0  502    0  0.00000000000E+00  0.00000000000E+00  0.13354800728E+02  0.13354800728E+02  0.00000000000E+00 0. -1.
         -2   -1    0    0    0  501 -0.00000000000E+00 -0.00000000000E+00 -0.37744774370E+02  0.37744774370E+02  0.00000000000E+00 0.  1.
          1    1    1    2  502    0  0.22087435106E+02 -0.82246947708E-01 -0.16777077081E+02  0.27736832362E+02  0.00000000000E+00 0. -1.
         -1    1    1    2    0  501 -0.22087435106E+02  0.82246947708E-01 -0.76128965605E+01  0.23362742736E+02  0.00000000000E+00 0.  1.
</event>
<event>
 4    1  0.7060698E+001  0.4544532E+02  0.7546771E-02  0.1319228E+00
          2   -1    0    0  502    0  0.00000000000E+00  0.00000000000E+00  0.59793983696E+01  0.59793983696E+01  0.00000000000E+00 0.  1.
         -2   -1    0    0    0  501 -0.00000000000E+00 -0.00000000000E+00 -0.35826676918E+03  0.35826676918E+03  0.00000000000E+00 0. -1.
          1    1    1    2  502    0  0.37330598091E+02  0.25917235846E+02 -0.14162790190E+03  0.14874050983E+03  0.00000000000E+00 0. -1.
         -1    1    1    2    0  501 -0.37330598091E+02 -0.25917235846E+02 -0.21065946891E+03  0.21550565772E+03  0.00000000000E+00 0.  1.
</event>
<event>
 4    1  0.7060698E+001  0.1012804E+03  0.7546771E-02  0.1161608E+00
          2   -1    0    0  502    0  0.00000000000E+00  0.00000000000E+00  0.10779817850E+04  0.10779817850E+04  0.00000000000E+00 0.  1.
         -2   -1    0    0    0  501 -0.00000000000E+00 -0.00000000000E+00 -0.10244371592E+02  0.10244371592E+02  0.00000000000E+00 0. -1.
          1    1    1    2  502    0 -0.88781390131E+02  0.48740021797E+02  0.67898617618E+03  0.68649832658E+03  0.00000000000E+00 0.  1.
         -1    1    1    2    0  501  0.88781390131E+02 -0.48740021797E+02  0.38875123727E+03  0.40172783005E+03  0.00000000000E+00 0. -1.
</event>
<event>
 4    1  0.7060698E+001  0.2530899E+02  0.7546771E-02  0.1465376E+00
          2   -1    0    0  502    0  0.00000000000E+00  0.00000000000E+00  0.12070641548E+03  0.12070641548E+03  0.00000000000E+00 0.  1.
         -2   -1    0    0    0  501 -0.00000000000E+00 -0.00000000000E+00 -0.78382938670E+01  0.78382938670E+01  0.00000000000E+00 0. -1.
          1    1    1    2  502    0 -0.20261935168E+02  0.15165712601E+02  0.19906888207E+02  0.32199830024E+02  0.00000000000E+00 0. -1.
         -1    1    1    2    0  501  0.20261935168E+02 -0.15165712601E+02  0.92961233405E+02  0.96344879322E+02  0.00000000000E+00 0.  1.
</event>
<event>
 4    1  0.7060698E+001  0.2056398E+02  0.7546771E-02  0.1525582E+00
          2   -1    0    0  502    0  0.00000000000E+00  0.00000000000E+00  0.52437623538E+03  0.52437623538E+03  0.00000000000E+00 0.  1.
         -2   -1    0    0    0  501 -0.00000000000E+00 -0.00000000000E+00 -0.86803185449E+00  0.86803185449E+00  0.00000000000E+00 0. -1.
          1    1    1    2  502    0  0.17275123243E+02  0.11155600531E+02  0.19179735498E+03  0.19289661138E+03  0.00000000000E+00 0.  1.
         -1    1    1    2    0  501 -0.17275123243E+02 -0.11155600531E+02  0.33171084855E+03  0.33234765585E+03  0.00000000000E+00 0. -1.
</event>
<event>
 4    1  0.7060698E+001  0.2884153E+02  0.7546771E-02  0.1429938E+00
          2   -1    0    0  502    0  0.00000000000E+00  0.00000000000E+00  0.81475872605E+02  0.81475872605E+02  0.00000000000E+00 0.  1.
         -2   -1    0    0    0  501 -0.00000000000E+00 -0.00000000000E+00 -0.15798306062E+02  0.15798306062E+02  0.00000000000E+00 0. -1.
          1    1    1    2  502    0  0.11801785132E+02  0.26316377440E+02  0.61766823043E+02  0.68168719239E+02  0.00000000000E+00 0.  1.
         -1    1    1    2    0  501 -0.11801785132E+02 -0.26316377440E+02  0.39107435003E+01  0.29105459429E+02  0.00000000000E+00 0. -1.
</event>
<event>
 4    1  0.7060698E+001  0.2639920E+02  0.7546771E-02  0.1453738E+00
          2   -1    0    0  502    0  0.00000000000E+00  0.00000000000E+00  0.89502841823E+01  0.89502841823E+01  0.00000000000E+00 0. -1.
         -2   -1    0    0    0  501 -0.00000000000E+00 -0.00000000000E+00 -0.77972463767E+02  0.77972463767E+02  0.00000000000E+00 0.  1.
          1    1    1    2  502    0  0.35122089428E+01  0.26164517463E+02 -0.32900721803E+02  0.42182639568E+02  0.00000000000E+00 0.  1.
         -1    1    1    2    0  501 -0.35122089428E+01 -0.26164517463E+02 -0.36121457782E+02  0.44740108382E+02  0.00000000000E+00 0. -1.
</event>
<event>
 4    1  0.7060698E+001  0.2428833E+02  0.7546771E-02  0.1476925E+00
          2   -1    0    0  502    0  0.00000000000E+00  0.00000000000E+00  0.28476600391E+03  0.28476600391E+03  0.00000000000E+00 0. -1.
         -2   -1    0    0    0  501 -0.00000000000E+00 -0.00000000000E+00 -0.28007171324E+01  0.28007171324E+01  0.00000000000E+00 0.  1.
          1    1    1    2  502    0  0.24257816427E+02 -0.12170404828E+01  0.67620672088E+02  0.71850387187E+02  0.00000000000E+00 0. -1.
         -1    1    1    2    0  501 -0.24257816427E+02  0.12170404828E+01  0.21434461469E+03  0.21571633385E+03  0.00000000000E+00 0.  1.
</event>
<event>
 4    1  0.7060698E+001  0.4431899E+02  0.7546771E-02  0.1324880E+00
          2   -1    0    0  502    0  0.00000000000E+00  0.00000000000E+00  0.98247875258E+03  0.98247875258E+03  0.00000000000E+00 0. -1.
         -2   -1    0    0    0  501 -0.00000000000E+00 -0.00000000000E+00 -0.28514820401E+01  0.28514820401E+01  0.00000000000E+00 0.  1.
          1    1    1    2  502    0 -0.39032468829E+02  0.20991405570E+02  0.22046929866E+03  0.22487971092E+03  0.00000000000E+00 0.  1.
         -1    1    1    2    0  501  0.39032468829E+02 -0.20991405570E+02  0.75915797188E+03  0.76045052370E+03  0.00000000000E+00 0. -1.
</event>
<event>
 4    1  0.7060698E+001  0.2149721E+02  0.7546771E-02  0.1512283E+00
          2   -1    0    0  502    0  0.00000000000E+00  0.00000000000E+00  0.59199259957E+01  0.59199259957E+01  0.00000000000E+00 0. -1.
         -2   -1    0    0    0  501 -0.00000000000E+00 -0.00000000000E+00 -0.78226806332E+02  0.78226806332E+02  0.00000000000E+00 0.  1.
          1    1    1    2  502    0  0.20500683644E+02  0.64692992319E+01 -0.38076062475E+02  0.43725466218E+02  0.00000000000E+00 0.  1.
         -1    1    1    2    0  501 -0.20500683644E+02 -0.64692992319E+01 -0.34230817861E+02  0.40421266109E+02  0.00000000000E+00 0. -1.
</event>
<event>
 4    1  0.7060698E+001  0.2024157E+02  0.7546771E-02  0.1530374E+00
          2   -1    0    0  502    0  0.00000000000E+00  0.00000000000E+00  0.18620839227E+04  0.18620839227E+04  0.00000000000E+00 0. -1.
         -2   -1    0    0    0  501 -0.00000000000E+00 -0.00000000000E+00 -0.25741660836E+00  0.25741660836E+00  0.00000000000E+00 0.  1.
          1    1    1    2  502    0 -0.60547876743E+01  0.19314775991E+02  0.12857659753E+04  0.12859252950E+04  0.00000000000E+00 0. -1.
         -1    1    1    2    0  501  0.60547876743E+01 -0.19314775991E+02  0.57606053076E+03  0.57641604430E+03  0.00000000000E+00 0.  1.
</event>
<event>
 4    1  0.7060698E+001  0.2197133E+02  0.7546771E-02  0.1505836E+00
          2   -1    0    0  502    0  0.00000000000E+00  0.00000000000E+00  0.84035789107E+02  0.84035789107E+02  0.00000000000E+00 0.  1.
         -2   -1    0    0    0  501 -0.00000000000E+00 -0.00000000000E+00 -0.69565772184E+01  0.69565772184E+01  0.00000000000E+00 0. -1.
          1    1    1    2  502    0 -0.32897370520E+01 -0.21723648995E+02  0.57530764470E+02  0.61583505551E+02  0.00000000000E+00 0.  1.
         -1    1    1    2    0  501  0.32897370520E+01  0.21723648995E+02  0.19548447419E+02  0.29408860774E+02  0.00000000000E+00 0. -1.
</event>
<event>
 4    1  0.7060698E+001  0.2563885E+02  0.7546771E-02  0.1461782E+00
          2   -1    0    0  502    0  0.00000000000E+00  0.00000000000E+00  0.29000840948E+02  0.29000840948E+02  0.00000000000E+00 0. -1.
         -2   -1    0    0    0  501 -0.00000000000E+00 -0.00000000000E+00 -0.43983318971E+02  0.43983318971E+02  0.00000000000E+00 0.  1.
          1    1    1    2  502    0 -0.93094745100E+01 -0.23888997300E+02  0.17913502617E+02  0.31276893766E+02  0.00000000000E+00 0. -1.
         -1    1    1    2    0  501  0.93094745100E+01  0.23888997300E+02 -0.32895980641E+02  0.41707266153E+02  0.00000000000E+00 0.  1.
</event>
<event>
 4    1  0.7060698E+001  0.2242158E+02  0.7546771E-02  0.1499892E+00
          2   -1    0    0  502    0  0.00000000000E+00  0.00000000000E+00  0.13311759148E+02  0.13311759148E+02  0.00000000000E+00 0.  1.
         -2   -1    0    0    0  501 -0.00000000000E+00 -0.00000000000E+00 -0.43488733633E+02  0.43488733633E+02  0.00000000000E+00 0. -1.
          1    1    1    2  502    0  0.45674979052E+01 -0.21951428808E+02 -0.47858431663E+01  0.22926656072E+02  0.00000000000E+00 0. -1.
         -1    1    1    2    0  501 -0.45674979052E+01  0.21951428808E+02 -0.25391131318E+02  0.33873836710E+02  0.00000000000E+00 0.  1.
</event>
<event>
 4    1  0.7060698E+001  0.3598458E+02  0.7546771E-02  0.1373770E+00
          2   -1    0    0  502    0  0.00000000000E+00  0.00000000000E+00  0.32323282860E+02  0.32323282860E+02  0.00000000000E+00 0. -1.
         -2   -1    0    0    0  501 -0.00000000000E+00 -0.00000000000E+00 -0.43085638160E+02  0.43085638160E+02  0.00000000000E+00 0.  1.
          1    1    1    2  502    0  0.30361344682E+02  0.19315246990E+02  0.46094342992E+01  0.36278601155E+02  0.00000000000E+00 0. -1.
         -1    1    1    2    0  501 -0.30361344682E+02 -0.19315246990E+02 -0.15371789599E+02  0.39130319864E+02  0.00000000000E+00 0.  1.
</event>
<event>
 4    1  0.7060698E+001  0.3566006E+02  0.7546771E-02  0.1375981E+00
          2   -1    0    0  502    0  0.00000000000E+00  0.00000000000E+00  0.36000561114E+01  0.36000561114E+01  0.00000000000E+00 0. -1.
         -2   -1    0    0    0  501 -0.00000000000E+00 -0.00000000000E+00 -0.48554776176E+03  0.48554776176E+03  0.00000000000E+00 0.  1.
          1    1    1    2  502    0  0.35476932396E+02  0.36093001837E+01 -0.11329855353E+03  0.11877795255E+03  0.00000000000E+00 0. -1.
         -1    1    1    2    0  501 -0.35476932396E+02 -0.36093001837E+01 -0.36864915212E+03  0.37036986532E+03  0.00000000000E+00 0.  1.
</event>
<event>
 4    1  0.7060698E+001  0.2408255E+02  0.7546771E-02  0.1479334E+00
          2   -1    0    0  502    0  0.00000000000E+00  0.00000000000E+00  0.55551895248E+02  0.55551895248E+02  0.00000000000E+00 0.  1.
         -2   -1    0    0    0  501 -0.00000000000E+00 -0.00000000000E+00 -0.16393961720E+02  0.16393961720E+02  0.00000000000E+00 0. -1.
          1    1    1    2  502    0 -0.23793929071E+02 -0.37172894857E+01  0.41257601149E+02  0.47771947357E+02  0.00000000000E+00 0.  1.
         -1    1    1    2    0  501  0.23793929071E+02  0.37172894857E+01 -0.20996676208E+01  0.24173909610E+02  0.00000000000E+00 0. -1.
</event>
<event>
 4    1  0.7060698E+001  0.2270915E+02  0.7546771E-02  0.1496183E+00
          2   -1    0    0  502    0  0.00000000000E+00  0.00000000000E+00  0.18211903236E+03  0.18211903236E+03  0.00000000000E+00 0. -1.
         -2   -1    0    0    0  501 -0.00000000000E+00 -0.00000000000E+00 -0.49972038726E+01  0.49972038726E+01  0.00000000000E+00 0.  1.
          1    1    1    2  502    0 -0.21968997220E+02  0.57505435760E+01  0.15014917034E+03  0.15185677115E+03  0.00000000000E+00 0. -1.
         -1    1    1    2    0  501  0.21968997220E+02 -0.57505435760E+01  0.26972658142E+02  0.35259465077E+02  0.00000000000E+00 0.  1.
</event>
<event>
 4    1  0.7060698E+001  0.2042445E+02  0.7546771E-02  0.1527643E+00
          2   -1    0    0  502    0  0.00000000000E+00  0.00000000000E+00  0.23566293167E+02  0.23566293167E+02  0.00000000000E+00 0. -1.
         -2   -1    0    0    0  501 -0.00000000000E+00 -0.00000000000E+00 -0.17930320626E+02  0.17930320626E+02  0.00000000000E+00 0.  1.
          1    1    1    2  502    0 -0.18997435302E+02 -0.75003854010E+01  0.51619597842E+01  0.21066659869E+02  0.00000000000E+00 0. -1.
         -1    1    1    2    0  501  0.18997435302E+02  0.75003854010E+01  0.47401275705E+00  0.20429953924E+02  0.00000000000E+00 0.  1.
</event>
<event>
 4    1  0.7060698E+001  0.2135594E+02  0.7546771E-02  0.1514243E+00
          2   -1    0    0  502    0  0.00000000000E+00  0.00000000000E+00  0.79548678944E+03  0.79548678944E+03  0.00000000000E+00 0.  1.
         -2   -1    0    0    0  501 -0.00000000000E+00 -0.00000000000E+00 -0.15540092442E+01  0.15540092442E+01  0.00000000000E+00 0. -1.
          1    1    1    2  502    0 -0.14867689473E+02  0.15330627435E+02  0.71354916484E+03  0.71386867628E+03  0.00000000000E+00 0.  1.
         -1    1    1    2    0  501  0.14867689473E+02 -0.15330627435E+02  0.80383615361E+02  0.83172122411E+02  0.00000000000E+00 0. -1.
</event>
<event>
 4    1  0.7060698E+001  0.2036034E+02  0.7546771E-02  0.1528597E+00
          2   -1    0    0  502    0  0.00000000000E+00  0.00000000000E+00  0.49593088539E+02  0.49593088539E+02  0.00000000000E+00 0.  1.
         -2   -1    0    0    0  501 -0.00000000000E+00 -0.00000000000E+00 -0.30801238732E+02  0.30801238732E+02  0.00000000000E+00 0. -1.
          1    1    1    2  502    0 -0.79631185706E+00  0.20344763874E+02 -0.24916025212E+02  0.32176883660E+02  0.00000000000E+00 0. -1.
         -1    1    1    2    0  501  0.79631185706E+00 -0.20344763874E+02  0.43707875019E+02  0.48217443611E+02  0.00000000000E+00 0.  1.
</event>
<event>
 4    1  0.7060698E+001  0.2153173E+02  0.7546771E-02  0.1511807E+00
          2   -1    0    0  502    0  0.00000000000E+00  0.00000000000E+00  0.10349300360E+04  0.10349300360E+04  0.00000000000E+00 0.  1.
         -2   -1    0    0    0  501 -0.00000000000E+00 -0.00000000000E+00 -0.90116335020E+00  0.90116335020E+00  0.00000000000E+00 0. -1.
          1    1    1    2  502    0 -0.13289330260E+02 -0.16941338572E+02  0.88429681069E+03  0.88455890965E+03  0.00000000000E+00 0.  1.
         -1    1    1    2    0  501  0.13289330260E+02  0.16941338572E+02  0.14973206199E+03  0.15127228972E+03  0.00000000000E+00 0. -1.
</event>
<event>
 4    1  0.7060698E+001  0.2115662E+02  0.7546771E-02  0.1517040E+00
          2   -1    0    0  502    0  0.00000000000E+00  0.00000000000E+00  0.58038508622E+03  0.58038508622E+03  0.00000000000E+00 0. -1.
         -2   -1    0    0    0  501 -0.00000000000E+00 -0.00000000000E+00 -0.77137493643E+00  0.77137493643E+00  0.00000000000E+00 0.  1.
          1    1    1    2  502    0 -0.15690657796E+02 -0.14191750463E+02  0.29397202184E+03  0.29473233984E+03  0.00000000000E+00 0. -1.
         -1    1    1    2    0  501  0.15690657796E+02  0.14191750463E+02  0.28564168944E+03  0.28642412131E+03  0.00000000000E+00 0.  1.
</event>
<event>
 4    1  0.7060698E+001  0.2658385E+02  0.7546771E-02  0.1451834E+00
          2   -1    0    0  502    0  0.00000000000E+00  0.00000000000E+00  0.23010542287E+04  0.23010542287E+04  0.00000000000E+00 0.  1.
         -2   -1    0    0    0  501 -0.00000000000E+00 -0.00000000000E+00 -0.61083947071E+00  0.61083947071E+00  0.00000000000E+00 0. -1.
          1    1    1    2  502    0 -0.19254605882E+02 -0.18329243500E+02  0.33872918279E+03  0.33977074666E+03  0.00000000000E+00 0. -1.
         -1    1    1    2    0  501  0.19254605882E+02  0.18329243500E+02  0.19617142065E+04  0.19618943215E+04  0.00000000000E+00 0.  1.
</event>
<event>
 4    1  0.7060698E+001  0.2495855E+02  0.7546771E-02  0.1469268E+00
          2   -1    0    0  502    0  0.00000000000E+00  0.00000000000E+00  0.76080783028E+03  0.76080783028E+03  0.00000000000E+00 0. -1.
         -2   -1    0    0    0  501 -0.00000000000E+00 -0.00000000000E+00 -0.16723521980E+01  0.16723521980E+01  0.00000000000E+00 0.  1.
          1    1    1    2  502    0 -0.74098685631E+01  0.23833229640E+02  0.65193604994E+03  0.65241362815E+03  0.00000000000E+00 0. -1.
         -1    1    1    2    0  501  0.74098685631E+01 -0.23833229640E+02  0.10719942814E+03  0.11006655432E+03  0.00000000000E+00 0.  1.
</event>
<event>
 4    1  0.7060698E+001  0.2389091E+02  0.7546771E-02  0.1481604E+00
          2   -1    0    0  502    0  0.00000000000E+00  0.00000000000E+00  0.72775956760E+02  0.72775956760E+02  0.00000000000E+00 0.  1.
         -2   -1    0    0    0  501 -0.00000000000E+00 -0.00000000000E+00 -0.88161029099E+01  0.88161029099E+01  0.00000000000E+00 0. -1.
          1    1    1    2  502    0  0.11888538538E+02  0.20722890816E+02  0.45534261619E+02  0.51421245935E+02  0.00000000000E+00 0.  1.
         -1    1    1    2    0  501 -0.11888538538E+02 -0.20722890816E+02  0.18425592231E+02  0.30170813734E+02  0.00000000000E+00 0. -1.
</event>
<event>
 4    1  0.7060698E+001  0.2100567E+02  0.7546771E-02  0.1519184E+00
          2   -1    0    0  502    0  0.00000000000E+00  0.00000000000E+00  0.39285527491E+02  0.39285527491E+02  0.00000000000E+00 0.  1.
         -2   -1    0    0    0  501 -0.00000000000E+00 -0.00000000000E+00 -0.12537032685E+02  0.12537032685E+02  0.00000000000E+00 0. -1.
          1    1    1    2  502    0  0.15487033259E+02 -0.14191196764E+02  0.50129582298E+01  0.21595555445E+02  0.00000000000E+00 0. -1.
         -1    1    1    2    0  501 -0.15487033259E+02  0.14191196764E+02  0.21735536576E+02  0.30227004731E+02  0.00000000000E+00 0.  1.
</event>
<event>
 4    1  0.7060698E+001  0.2004152E+02  0.7546771E-02  0.1533402E+00
          2   -1    0    0  502    0  0.00000000000E+00  0.00000000000E+00  0.84940332877E+02  0.84940332877E+02  0.00000000000E+00 0.  1.
         -2   -1    0    0    0  501 -0.00000000000E+00 -0.00000000000E+00 -0.47493491768E+01  0.47493491768E+01  0.00000000000E+00 0. -1.
          1    1    1    2  502    0 -0.19733074533E+02 -0.35025849524E+01  0.37142723286E+02  0.42204789123E+02  0.00000000000E+00 0. -1.
         -1    1    1    2    0  501  0.19733074533E+02  0.35025849524E+01  0.43048260415E+02  0.47484892931E+02  0.00000000000E+00 0.  1.
</event>
<event>
 4    1  0.7060698E+001  0.2237021E+02  0.7546771E-02  0.1500562E+00
          2   -1    0    0  502    0  0.00000000000E+00  0.00000000000E+00  0.55697118397E+02  0.55697118397E+02  0.00000000000E+00 0. -1.
         -2   -1    0    0    0  501 -0.00000000000E+00 -0.00000000000E+00 -0.11134110009E+02  0.11134110009E+02  0.00000000000E+00 0.  1.
          1    1    1    2  502    0 -0.32976809894E+01 -0.22125809093E+02  0.36963113338E+02  0.43205299161E+02  0.00000000000E+00 0. -1.
         -1    1    1    2    0  501  0.32976809894E+01  0.22125809093E+02  0.75998950506E+01  0.23625929245E+02  0.00000000000E+00 0.  1.
</event>
<event>
 4    1  0.7060698E+001  0.3085015E+02  0.7546771E-02  0.1412349E+00
          2   -1    0    0  502    0  0.00000000000E+00  0.00000000000E+00  0.15681619309E+02  0.15681619309E+02  0.00000000000E+00 0. -1.
         -2   -1    0    0    0  501 -0.00000000000E+00 -0.00000000000E+00 -0.62372427117E+02  0.62372427117E+02  0.00000000000E+00 0.  1.
          1    1    1    2  502    0 -0.19133826089E+02  0.24199765678E+02 -0.29753337351E+02  0.42860156826E+02  0.00000000000E+00 0.  1.
         -1    1    1    2    0  501  0.19133826089E+02 -0.24199765678E+02 -0.16937470457E+02  0.35193889599E+02  0.00000000000E+00 0. -1.
</event>
<event>
 4    1  0.7060698E+001  0.2622850E+02  0.7546771E-02  0.1455516E+00
          2   -1    0    0  502    0  0.00000000000E+00  0.00000000000E+00  0.57792805539E+02  0.57792805539E+02  0.00000000000E+00 0. -1.
         -2   -1    0    0    0  501 -0.00000000000E+00 -0.00000000000E+00 -0.12254376383E+02  0.12254376383E+02  0.00000000000E+00 0.  1.
          1    1    1    2  502    0  0.51576513521E+01  0.25716388980E+02  0.16842414107E+02  0.31170513993E+02  0.00000000000E+00 0.  1.
         -1    1    1    2    0  501 -0.51576513521E+01 -0.25716388980E+02  0.28696015048E+02  0.38876667929E+02  0.00000000000E+00 0. -1.
</event>
<event>
 4    1  0.7060698E+001  0.2125566E+02  0.7546771E-02  0.1515646E+00
          2   -1    0    0  502    0  0.00000000000E+00  0.00000000000E+00  0.12180864512E+04  0.12180864512E+04  0.00000000000E+00 0. -1.
         -2   -1    0    0    0  501 -0.00000000000E+00 -0.00000000000E+00 -0.43843226670E+00  0.43843226670E+00  0.00000000000E+00 0.  1.
          1    1    1    2  502    0  0.14155007857E+02 -0.15856826971E+02  0.84791838656E+03  0.84818476376E+03  0.00000000000E+00 0. -1.
         -1    1    1    2    0  501 -0.14155007857E+02  0.15856826971E+02  0.36972963233E+03  0.37034011966E+03  0.00000000000E+00 0.  1.
</event>
<event>
 4    1  0.7060698E+001  0.2346345E+02  0.7546771E-02  0.1486759E+00
          2   -1    0    0  502    0  0.00000000000E+00  0.00000000000E+00  0.17705002734E+01  0.17705002734E+01  0.00000000000E+00 0.  1.
         -2   -1    0    0    0  501 -0.00000000000E+00 -0.00000000000E+00 -0.85305270635E+03  0.85305270635E+03  0.00000000000E+00 0. -1.
          1    1    1    2  502    0  0.11444021381E+02 -0.20483352626E+02 -0.76636296498E+03  0.76672206663E+03  0.00000000000E+00 0. -1.
         -1    1    1    2    0  501 -0.11444021381E+02  0.20483352626E+02 -0.84919241090E+02  0.88101139990E+02  0.00000000000E+00 0.  1.
</event>
<event>
 4    1  0.7060698E+001  0.2249066E+02  0.7546771E-02  0.1498995E+00
          2   -1    0    0  502    0  0.00000000000E+00  0.00000000000E+00  0.13757139429E+04  0.13757139429E+04  0.00000000000E+00 0. -1.
         -2   -1    0    0    0  501 -0.00000000000E+00 -0.00000000000E+00 -0.82233692053E+00  0.82233692053E+00  0.00000000000E+00 0.  1.
          1    1    1    2  502    0 -0.18469531426E+02  0.12833794648E+02  0.11992126107E+04  0.11994234930E+04  0.00000000000E+00 0. -1.
         -1    1    1    2    0  501  0.18469531426E+02 -0.12833794648E+02  0.17567899526E+03  0.17711278681E+03  0.00000000000E+00 0.  1.
</event>
<event>
 4    1  0.7060698E+001  0.2138115E+02  0.7546771E-02  0.1513892E+00
          2   -1    0    0  502    0  0.00000000000E+00  0.00000000000E+00  0.18813974151E+03  0.18813974151E+03  0.00000000000E+00 0. -1.
         -2   -1    0    0    0  501 -0.00000000000E+00 -0.00000000000E+00 -0.24367341137E+01  0.24367341137E+01  0.00000000000E+00 0.  1.
          1    1    1    2  502    0 -0.32981104937E+01  0.21125246437E+02  0.97911927579E+02  0.10021925530E+03  0.00000000000E+00 0.  1.
         -1    1    1    2    0  501  0.32981104937E+01 -0.21125246437E+02  0.87791079821E+02  0.90357220331E+02  0.00000000000E+00 0. -1.
</event>
<event>
 4    1  0.7060698E+001  0.2587737E+02  0.7546771E-02  0.1459223E+00
          2   -1    0    0  502    0  0.00000000000E+00  0.00000000000E+00  0.11559805303E+04  0.11559805303E+04  0.00000000000E+00 0. -1.
         -2   -1    0    0    0  501 -0.00000000000E+00 -0.00000000000E+00 -0.11520065834E+01  0.11520065834E+01  0.00000000000E+00 0.  1.
          1    1    1    2  502    0  0.22979592529E+02 -0.11898601744E+02  0.98535647336E+03  0.98569620979E+03  0.00000000000E+00 0. -1.
         -1    1    1    2    0  501 -0.22979592529E+02  0.11898601744E+02  0.16947205037E+03  0.17143632711E+03  0.00000000000E+00 0.  1.
</event>
<event>
 4    1  0.7060698E+001  0.2078704E+02  0.7546771E-02  0.1522327E+00
          2   -1    0    0  502    0  0.00000000000E+00  0.00000000000E+00  0.21214841489E+02  0.21214841489E+02  0.00000000000E+00 0.  1.
         -2   -1    0    0    0  501 -0.00000000000E+00 -0.00000000000E+00 -0.21517574113E+02  0.21517574113E+02  0.00000000000E+00 0. -1.
          1    1    1    2  502    0  0.15123465920E+02 -0.14261199667E+02 -0.50902033067E+01  0.21401196394E+02  0.00000000000E+00 0. -1.
         -1    1    1    2    0  501 -0.15123465920E+02  0.14261199667E+02  0.47874706830E+01  0.21331219208E+02  0.00000000000E+00 0.  1.
</event>
<event>
 4    1  0.7060698E+001  0.2096403E+02  0.7546771E-02  0.1519779E+00
          2   -1    0    0  502    0  0.00000000000E+00  0.00000000000E+00  0.18725272521E+02  0.18725272521E+02  0.00000000000E+00 0.  1.
         -2   -1    0    0    0  501 -0.00000000000E+00 -0.00000000000E+00 -0.41003828668E+02  0.41003828668E+02  0.00000000000E+00 0. -1.
          1    1    1    2  502    0 -0.72660263586E+01  0.19664569317E+02 -0.30668128635E+02  0.37148681530E+02  0.00000000000E+00 0. -1.
         -1    1    1    2    0  501  0.72660263586E+01 -0.19664569317E+02  0.83895724882E+01  0.22580419659E+02  0.00000000000E+00 0.  1.
</event>
<event>
 4    1  0.7060698E+001  0.4295290E+02  0.7546771E-02  0.1332000E+00
          2   -1    0    0  502    0  0.00000000000E+00  0.00000000000E+00  0.70132405141E+03  0.70132405141E+03  0.00000000000E+00 0. -1.
         -2   -1    0    0    0  501 -0.00000000000E+00 -0.00000000000E+00 -0.42817418314E+01  0.42817418314E+01  0.00000000000E+00 0.  1.
          1    1    1    2  502    0 -0.14503345366E+01 -0.42928408948E+02  0.12944003200E+03  0.13638062051E+03  0.00000000000E+00 0.  1.
         -1    1    1    2    0  501  0.14503345366E+01  0.42928408948E+02  0.56760227758E+03  0.56922517274E+03  0.00000000000E+00 0. -1.
</event>
<event>
 4    1  0.7060698E+001  0.3841063E+02  0.7546771E-02  0.1358060E+00
          2   -1    0    0  502    0  0.00000000000E+00  0.00000000000E+00  0.53784687983E+03  0.53784687983E+03  0.00000000000E+00 0.  1.
         -2   -1    0    0    0  501 -0.00000000000E+00 -0.00000000000E+00 -0.36889790431E+01  0.36889790431E+01  0.00000000000E+00 0. -1.
          1    1    1    2  502    0 -0.36328677116E+02 -0.12474121069E+02  0.40418550502E+03  0.40600652574E+03  0.00000000000E+00 0.  1.
         -1    1    1    2    0  501  0.36328677116E+02  0.12474121069E+02  0.12997239578E+03  0.13552933314E+03  0.00000000000E+00 0. -1.
</event>
<event>
 4    1  0.7060698E+001  0.2585403E+02  0.7546771E-02  0.1459472E+00
          2   -1    0    0  502    0  0.00000000000E+00  0.00000000000E+00  0.13765279766E+03  0.13765279766E+03  0.00000000000E+00 0.  1.
         -2   -1    0    0    0  501 -0.00000000000E+00 -0.00000000000E+00 -0.53687222414E+01  0.53687222414E+01  0.00000000000E+00 0. -1.
          1    1    1    2  502    0 -0.25782926897E+02 -0.19161826873E+01  0.44041106728E+02  0.51069072415E+02  0.00000000000E+00 0. -1.
         -1    1    1    2    0  501  0.25782926897E+02  0.19161826873E+01  0.88242968692E+02  0.91952447488E+02  0.00000000000E+00 0.  1.
</event>
<event>
 4    1  0.7060698E+001  0.2442988E+02  0.7546771E-02  0.1475283E+00
          2   -1    0    0  502    0  0.00000000000E+00  0.00000000000E+00  0.15811149218E+03  0.15811149218E+03  0.00000000000E+00 0.  1.
         -2   -1    0    0    0  501 -0.00000000000E+00 -0.00000000000E+00 -0.10686289518E+02  0.10686289518E+02  0.00000000000E+00 0. -1.
          1    1    1    2  502    0  0.31376855725E+01  0.24227545010E+02  0.58370887303E+01  0.25117535962E+02  0.00000000000E+00 0. -1.
         -1    1    1    2    0  501 -0.31376855725E+01 -0.24227545010E+02  0.14158811393E+03  0.14368024573E+03  0.00000000000E+00 0.  1.
</event>
<event>
 4    1  0.7060698E+001  0.3084699E+02  0.7546771E-02  0.1412376E+00
          2   -1    0    0  502    0  0.00000000000E+00  0.00000000000E+00  0.49641657949E+03  0.49641657949E+03  0.00000000000E+00 0. -1.
         -2   -1    0    0    0  501 -0.00000000000E+00 -0.00000000000E+00 -0.27998818795E+01  0.27998818795E+01  0.00000000000E+00 0.  1.
          1    1    1    2  502    0  0.23798127860E+02 -0.19626160680E+02  0.38698854835E+03  0.38821601413E+03  0.00000000000E+00 0. -1.
         -1    1    1    2    0  501 -0.23798127860E+02  0.19626160680E+02  0.10662814925E+03  0.11100044723E+03  0.00000000000E+00 0.  1.
</event>
<event>
 4    1  0.7060698E+001  0.2624507E+02  0.7546771E-02  0.1455343E+00
          2   -1    0    0  502    0  0.00000000000E+00  0.00000000000E+00  0.44419813767E+03  0.44419813767E+03  0.00000000000E+00 0.  1.
         -2   -1    0    0    0  501 -0.00000000000E+00 -0.00000000000E+00 -0.16408248161E+01  0.16408248161E+01  0.00000000000E+00 0. -1.
          1    1    1    2  502    0  0.20510262853E+02  0.16374760122E+02  0.16902493693E+03  0.17105038134E+03  0.00000000000E+00 0. -1.
         -1    1    1    2    0  501 -0.20510262853E+02 -0.16374760122E+02  0.27353237593E+03  0.27478858115E+03  0.00000000000E+00 0.  1.
</event>
<event>
 4    1  0.7060698E+001  0.2627704E+02  0.7546771E-02  0.1455009E+00
          2   -1    0    0  502    0  0.00000000000E+00  0.00000000000E+00  0.38165055254E+03  0.38165055254E+03  0.00000000000E+00 0. -1.
         -2   -1    0    0    0  501 -0.00000000000E+00 -0.00000000000E+00 -0.20891490638E+01  0.20891490638E+01  0.00000000000E+00 0.  1.
          1    1    1    2  502    0 -0.22717804502E+02  0.13205469338E+02  0.26001669692E+03  0.26134109080E+03  0.00000000000E+00 0. -1.
         -1    1    1    2    0  501  0.22717804502E+02 -0.13205469338E+02  0.11954470656E+03  0.12239861081E+03  0.00000000000E+00 0.  1.
</event>
<event>
 4    1  0.7060698E+001  0.3206604E+02  0.7546771E-02  0.1402453E+00
          2   -1    0    0  502    0  0.00000000000E+00  0.00000000000E+00  0.48605788938E+02  0.48605788938E+02  0.00000000000E+00 0.  1.
         -2   -1    0    0    0  501 -0.00000000000E+00 -0.00000000000E+00 -0.43398323962E+02  0.43398323962E+02  0.00000000000E+00 0. -1.
          1    1    1    2  502    0  0.30818846560E+02 -0.88560478679E+01  0.35537813374E+02  0.47866136950E+02  0.00000000000E+00 0.  1.
         -1    1    1    2    0  501 -0.30818846560E+02  0.88560478679E+01 -0.30330348397E+02  0.44137975951E+02  0.00000000000E+00 0. -1.
</event>
<event>
 4    1  0.7060698E+001  0.2257212E+02  0.7546771E-02  0.1497942E+00
          2   -1    0    0  502    0  0.00000000000E+00  0.00000000000E+00  0.26631195822E+02  0.26631195822E+02  0.00000000000E+00 0. -1.
         -2   -1    0    0    0  501 -0.00000000000E+00 -0.00000000000E+00 -0.27307323024E+02  0.27307323024E+02  0.00000000000E+00 0.  1.
          1    1    1    2  502    0 -0.13394531891E+02 -0.18168297323E+02 -0.15094769578E+02  0.27154236885E+02  0.00000000000E+00 0.  1.
         -1    1    1    2    0  501  0.13394531891E+02  0.18168297323E+02  0.14418642376E+02  0.26784281961E+02  0.00000000000E+00 0. -1.
</event>
<event>
 4    1  0.7060698E+001  0.2086400E+02  0.7546771E-02  0.1521216E+00
          2   -1    0    0  502    0  0.00000000000E+00  0.00000000000E+00  0.12575414202E+03  0.12575414202E+03  0.00000000000E+00 0. -1.
         -2   -1    0    0    0  501 -0.00000000000E+00 -0.00000000000E+00 -0.38080103241E+01  0.38080103241E+01  0.00000000000E+00 0.  1.
          1    1    1    2  502    0 -0.20742504109E+02 -0.22483023543E+01  0.41433476270E+02  0.46390077560E+02  0.00000000000E+00 0.  1.
         -1    1    1    2    0  501  0.20742504109E+02  0.22483023543E+01  0.80512655429E+02  0.83172074787E+02  0.00000000000E+00 0. -1.
</event>
<event>
 4    1  0.7060698E+001  0.2595829E+02  0.7546771E-02  0.1458362E+00
          2   -1    0    0  502    0  0.00000000000E+00  0.00000000000E+00  0.18510902753E+04  0.18510902753E+04  0.00000000000E+00 0.  1.
         -2   -1    0    0    0  501 -0.00000000000E+00 -0.00000000000E+00 -0.67145433185E+00  0.67145433185E+00  0.00000000000E+00 0. -1.
          1    1    1    2  502    0 -0.21812203937E+02  0.14073407281E+02  0.15517127276E+04  0.15519298380E+04  0.00000000000E+00 0.  1.
         -1    1    1    2    0  501  0.21812203937E+02 -0.14073407281E+02  0.29870609337E+03  0.29983189165E+03  0.00000000000E+00 0. -1.
</event>
<event>
 4    1  0.7060698E+001  0.2131285E+02  0.7546771E-02  0.1514845E+00
          2   -1    0    0  502    0  0.00000000000E+00  0.00000000000E+00  0.17053609065E+04  0.17053609065E+04  0.00000000000E+00 0.  1.
         -2   -1    0    0    0  501 -0.00000000000E+00 -0.00000000000E+00 -0.34970902939E+00  0.34970902939E+00  0.00000000000E+00 0. -1.
          1    1    1    2  502    0  0.18419157741E+02 -0.10722506658E+02  0.43613899400E+03  0.43665943206E+03  0.00000000000E+00 0. -1.
         -1    1    1    2    0  501 -0.18419157741E+02  0.10722506658E+02  0.12688722035E+04  0.12690511835E+04  0.00000000000E+00 0.  1.
</event>
<event>
 4    1  0.7060698E+001  0.2370498E+02  0.7546771E-02  0.1483830E+00
          2   -1    0    0  502    0  0.00000000000E+00  0.00000000000E+00  0.35823523672E+01  0.35823523672E+01  0.00000000000E+00 0. -1.
         -2   -1    0    0    0  501 -0.00000000000E+00 -0.00000000000E+00 -0.16020141768E+03  0.16020141768E+03  0.00000000000E+00 0.  1.
          1    1    1    2  502    0 -0.12738278630E+02 -0.19991555297E+02 -0.66481701396E+02  0.70581461065E+02  0.00000000000E+00 0.  1.
         -1    1    1    2    0  501  0.12738278630E+02  0.19991555297E+02 -0.90137363919E+02  0.93202308984E+02  0.00000000000E+00 0. -1.
</event>
<event>
 4    1  0.7060698E+001  0.3249406E+02  0.7546771E-02  0.1399092E+00
          2   -1    0    0  502    0  0.00000000000E+00  0.00000000000E+00  0.36780882376E+02  0.36780882376E+02  0.00000000000E+00 0. -1.
         -2   -1    0    0    0  501 -0.00000000000E+00 -0.00000000000E+00 -0.28842139982E+02  0.28842139982E+02  0.00000000000E+00 0.  1.
          1    1    1    2  502    0  0.31014292598E+02  0.96941946756E+01  0.62164807825E+01  0.33083355167E+02  0.00000000000E+00 0.  1.
         -1    1    1    2    0  501 -0.31014292598E+02 -0.96941946756E+01  0.17222616115E+01  0.32539667190E+02  0.00000000000E+00 0. -1.
</event>
<event>
 4    1  0.7060698E+001  0.2004458E+02  0.7546771E-02  0.1533355E+00
          2   -1    0    0  502    0  0.00000000000E+00  0.00000000000E+00  0.12279238232E+02  0.12279238232E+02  0.00000000000E+00 0.  1.
         -2   -1    0    0    0  501 -0.00000000000E+00 -0.00000000000E+00 -0.65430740018E+02  0.65430740018E+02  0.00000000000E+00 0. -1.
          1    1    1    2  502    0  0.13407632227E+02 -0.14900349182E+02  0.89664621142E+00  0.20064620158E+02  0.00000000000E+00 0.  1.
         -1    1    1    2    0  501 -0.13407632227E+02  0.14900349182E+02 -0.54048147998E+02  0.57645358093E+02  0.00000000000E+00 0. -1.
</event>
<event>
 4    1  0.7060698E+001  0.2054440E+02  0.7546771E-02  0.1525870E+00
          2   -1    0    0  502    0  0.00000000000E+00  0.00000000000E+00  0.72549913855E+03  0.72549913855E+03  0.00000000000E+00 0.  1.
         -2   -1    0    0    0  501 -0.00000000000E+00 -0.00000000000E+00 -0.77388448544E+00  0.77388448544E+00  0.00000000000E+00 0. -1.
          1    1    1    2  502    0  0.15618979869E+02  0.13346155032E+02  0.54329398664E+03  0.54368228618E+03  0.00000000000E+00 0.  1.
         -1    1    1    2    0  501 -0.15618979869E+02 -0.13346155032E+02  0.18143126742E+03  0.18259073686E+03  0.00000000000E+00 0. -1.
</event>
<event>
 4    1  0.7060698E+001  0.2358814E+02  0.7546771E-02  0.1485242E+00
          2   -1    0    0  502    0  0.00000000000E+00  0.00000000000E+00  0.17694319615E+03  0.17694319615E+03  0.00000000000E+00 0. -1.
         -2   -1    0    0    0  501 -0.00000000000E+00 -0.00000000000E+00 -0.34644072780E+01  0.34644072780E+01  0.00000000000E+00 0.  1.
          1    1    1    2  502    0  0.15249991634E+02  0.17995500600E+02  0.11414965723E+03  0.11656133378E+03  0.00000000000E+00 0.  1.
         -1    1    1    2    0  501 -0.15249991634E+02 -0.17995500600E+02  0.59329131644E+02  0.63846269650E+02  0.00000000000E+00 0. -1.
</event>
<event>
 4    1  0.7060698E+001  0.2483077E+02  0.7546771E-02  0.1470705E+00
          2   -1    0    0  502    0  0.00000000000E+00  0.00000000000E+00  0.38615776556E+01  0.38615776556E+01  0.00000000000E+00 0. -1.
         -2   -1    0    0    0  501 -0.00000000000E+00 -0.00000000000E+00 -0.16109948279E+03  0.16109948279E+03  0.00000000000E+00 0.  1.
          1    1    1    2  502    0  0.17249399499E+02  0.17861283858E+02 -0.70841799788E+02  0.75067488578E+02  0.00000000000E+00 0.  1.
         -1    1    1    2    0  501 -0.17249399499E+02 -0.17861283858E+02 -0.86396105343E+02  0.89893571864E+02  0.00000000000E+00 0. -1.
</event>
<event>
 4    1  0.7060698E+001  0.2579466E+02  0.7546771E-02  0.1460107E+00
          2   -1    0    0  502    0  0.00000000000E+00  0.00000000000E+00  0.35035480077E+01  0.35035480077E+01  0.00000000000E+00 0. -1.
         -2   -1    0    0    0  501 -0.00000000000E+00 -0.00000000000E+00 -0.26842889059E+03  0.26842889059E+03  0.00000000000E+00 0.  1.
          1    1    1    2  502    0 -0.15362272338E+02 -0.20721123387E+02 -0.20599851490E+03  0.20760720726E+03  0.00000000000E+00 0.  1.
         -1    1    1    2    0  501  0.15362272338E+02  0.20721123387E+02 -0.58926827686E+02  0.64325231340E+02  0.00000000000E+00 0. -1.
</event>
<event>
 4    1  0.7060698E+001  0.2137504E+02  0.7546771E-02  0.1513977E+00
          2   -1    0    0  502    0  0.00000000000E+00  0.00000000000E+00  0.13666325772E+04  0.13666325772E+04  0.00000000000E+00 0.  1.
         -2   -1    0    0    0  501 -0.00000000000E+00 -0.00000000000E+00 -0.39823600259E+00  0.39823600259E+00  0.00000000000E+00 0. -1.
          1    1    1    2  502    0  0.31970552308E+00 -0.21372646165E+02  0.95694892844E+03  0.95718762208E+03  0.00000000000E+00 0.  1.
         -1    1    1    2    0  501 -0.31970552308E+00  0.21372646165E+02  0.40928541276E+03  0.40984319113E+03  0.00000000000E+00 0. -1.
</event>
<event>
 4    1  0.7060698E+001  0.4286085E+02  0.7546771E-02  0.1332490E+00
          2   -1    0    0  502    0  0.00000000000E+00  0.00000000000E+00  0.15792523077E+02  0.15792523077E+02  0.00000000000E+00 0.  1.
         -2   -1    0    0    0  501 -0.00000000000E+00 -0.00000000000E+00 -0.13184692995E+03  0.13184692995E+03  0.00000000000E+00 0. -1.
          1    1    1    2  502    0  0.12241807128E+02 -0.41075422606E+02 -0.83356425531E+02  0.93730175831E+02  0.00000000000E+00 0.  1.
         -1    1    1    2    0  501 -0.12241807128E+02  0.41075422606E+02 -0.32697981344E+02  0.53909277198E+02  0.00000000000E+00 0. -1.
</event>
<event>
 4    1  0.7060698E+001  0.3571399E+02  0.7546771E-02  0.1375612E+00
          2   -1    0    0  502    0  0.00000000000E+00  0.00000000000E+00  0.28502285222E+03  0.28502285222E+03  0.00000000000E+00 0. -1.
         -2   -1    0    0    0  501 -0.00000000000E+00 -0.00000000000E+00 -0.60267444917E+01  0.60267444917E+01  0.00000000000E+00 0.  1.
          1    1    1    2  502    0  0.69984365124E+01  0.35021579825E+02  0.21333944642E+03  0.21630813338E+03  0.00000000000E+00 0. -1.
         -1    1    1    2    0  501 -0.69984365124E+01 -0.35021579825E+02  0.65656661313E+02  0.74741463338E+02  0.00000000000E+00 0.  1.
</event>
<event>
 4    1  0.7060698E+001  0.4186737E+02  0.7546771E-02  0.1337877E+00
          2   -1    0    0  502    0  0.00000000000E+00  0.00000000000E+00  0.41728335522E+03  0.41728335522E+03  0.00000000000E+00 0.  1.
         -2   -1    0    0    0  501 -0.00000000000E+00 -0.00000000000E+00 -0.45002104667E+01  0.45002104667E+01  0.00000000000E+00 0. -1.
          1    1    1    2  502    0 -0.53809106169E+00  0.41863916089E+02  0.15198413838E+03  0.15764534669E+03  0.00000000000E+00 0.  1.
         -1    1    1    2    0  501  0.53809106169E+00 -0.41863916089E+02  0.26079900637E+03  0.26413821900E+03  0.00000000000E+00 0. -1.
</event>
<event>
 4    1  0.7060698E+001  0.2127923E+02  0.7546771E-02  0.1515315E+00
          2   -1    0    0  502    0  0.00000000000E+00  0.00000000000E+00  0.65103063245E+02  0.65103063245E+02  0.00000000000E+00 0. -1.
         -2   -1    0    0    0  501 -0.00000000000E+00 -0.00000000000E+00 -0.85283295403E+01  0.85283295403E+01  0.00000000000E+00 0.  1.
          1    1    1    2  502    0 -0.19316914701E+02 -0.89253730949E+01  0.44099187947E+02  0.48964720525E+02  0.00000000000E+00 0. -1.
         -1    1    1    2    0  501  0.19316914701E+02  0.89253730949E+01  0.12475545757E+02  0.24666672260E+02  0.00000000000E+00 0.  1.
</event>
<event>
 4    1  0.7060698E+001  0.2702909E+02  0.7546771E-02  0.1447316E+00
          2   -1    0    0  502    0  0.00000000000E+00  0.00000000000E+00  0.51415161598E+03  0.51415161598E+03  0.00000000000E+00 0. -1.
         -2   -1    0    0    0  501 -0.00000000000E+00 -0.00000000000E+00 -0.14527723867E+01  0.14527723867E+01  0.00000000000E+00 0.  1.
          1    1    1    2  502    0 -0.46023323535E+01 -0.26634380839E+02  0.21818015336E+03  0.21984801802E+03  0.00000000000E+00 0.  1.
         -1    1    1    2    0  501  0.46023323535E+01  0.26634380839E+02  0.29451869024E+03  0.29575637036E+03  0.00000000000E+00 0. -1.
</event>
<event>
 4    1  0.7060698E+001  0.2603328E+02  0.7546771E-02  0.1457568E+00
          2   -1    0    0  502    0  0.00000000000E+00  0.00000000000E+00  0.23273477678E+03  0.23273477678E+03  0.00000000000E+00 0. -1.
         -2   -1    0    0    0  501 -0.00000000000E+00 -0.00000000000E+00 -0.37258577301E+01  0.37258577301E+01  0.00000000000E+00 0.  1.
          1    1    1    2  502    0 -0.15242174155E+02  0.21104689302E+02  0.59248303938E+02  0.64715479624E+02  0.00000000000E+00 0.  1.
         -1    1    1    2    0  501  0.15242174155E+02 -0.21104689302E+02  0.16976061512E+03  0.17174515489E+03  0.00000000000E+00 0. -1.
</event>
<event>
 4    1  0.7060698E+001  0.2719100E+02  0.7546771E-02  0.1445699E+00
          2   -1    0    0  502    0  0.00000000000E+00  0.00000000000E+00  0.46348413311E+03  0.46348413311E+03  0.00000000000E+00 0. -1.
         -2   -1    0    0    0  501 -0.00000000000E+00 -0.00000000000E+00 -0.16359165327E+01  0.16359165327E+01  0.00000000000E+00 0.  1.
          1    1    1    2  502    0 -0.25700860527E+02  0.88778519602E+01  0.19423535065E+03  0.19612934999E+03  0.00000000000E+00 0. -1.
         -1    1    1    2    0  501  0.25700860527E+02 -0.88778519602E+01  0.26761286593E+03  0.26899069965E+03  0.00000000000E+00 0.  1.
</event>
<event>
 4    1  0.7060698E+001  0.2081710E+02  0.7546771E-02  0.1521892E+00
          2   -1    0    0  502    0  0.00000000000E+00  0.00000000000E+00  0.15634029626E+02  0.15634029626E+02  0.00000000000E+00 0.  1.
         -2   -1    0    0    0  501 -0.00000000000E+00 -0.00000000000E+00 -0.27968427323E+02  0.27968427323E+02  0.00000000000E+00 0. -1.
          1    1    1    2  502    0 -0.19850658339E+02 -0.62692245982E+01 -0.82280937631E+01  0.22384220793E+02  0.00000000000E+00 0.  1.
         -1    1    1    2    0  501  0.19850658339E+02  0.62692245982E+01 -0.41063039344E+01  0.21218236156E+02  0.00000000000E+00 0. -1.
</event>
<event>
 4    1  0.7060698E+001  0.2292500E+02  0.7546771E-02  0.1493442E+00
          2   -1    0    0  502    0  0.00000000000E+00  0.00000000000E+00  0.19076500653E+04  0.19076500653E+04  0.00000000000E+00 0.  1.
         -2   -1    0    0    0  501 -0.00000000000E+00 -0.00000000000E+00 -0.60670870189E+00  0.60670870189E+00  0.00000000000E+00 0. -1.
          1    1    1    2  502    0 -0.18353836547E+02  0.13736527612E+02  0.24855548428E+03  0.24961046507E+03  0.00000000000E+00 0. -1.
         -1    1    1    2    0  501  0.18353836547E+02 -0.13736527612E+02  0.16584878723E+04  0.16586463090E+04  0.00000000000E+00 0.  1.
</event>
<event>
 4    1  0.7060698E+001  0.2941761E+02  0.7546771E-02  0.1424726E+00
          2   -1    0    0  502    0  0.00000000000E+00  0.00000000000E+00  0.29439387125E+04  0.29439387125E+04  0.00000000000E+00 0. -1.
         -2   -1    0    0    0  501 -0.00000000000E+00 -0.00000000000E+00 -0.29635922437E+00  0.29635922437E+00  0.00000000000E+00 0.  1.
          1    1    1    2  502    0  0.12535491140E+02 -0.26613098566E+02  0.13393222886E+04  0.13396453219E+04  0.00000000000E+00 0.  1.
         -1    1    1    2    0  501 -0.12535491140E+02  0.26613098566E+02  0.16043200646E+04  0.16045897498E+04  0.00000000000E+00 0. -1.
</event>
<event>
 4    1  0.7060698E+001  0.3253066E+02  0.7546771E-02  0.1398807E+00
          2   -1    0    0  502    0  0.00000000000E+00  0.00000000000E+00  0.11325216503E+01  0.11325216503E+01  0.00000000000E+00 0.  1.
         -2   -1    0    0    0  501 -0.00000000000E+00 -0.00000000000E+00 -0.93595837514E+03  0.93595837514E+03  0.00000000000E+00 0. -1.
          1    1    1    2  502    0 -0.22869855236E+02  0.23134679046E+02 -0.44837789883E+03  0.44955643006E+03  0.00000000000E+00 0. -1.
         -1    1    1    2    0  501  0.22869855236E+02 -0.23134679046E+02 -0.48644795466E+03  0.48753446673E+03  0.00000000000E+00 0.  1.
</event>
<event>
 4    1  0.7060698E+001  0.2237093E+02  0.7546771E-02  0.1500552E+00
          2   -1    0    0  502    0  0.00000000000E+00  0.00000000000E+00  0.29004552962E+02  0.29004552962E+02  0.00000000000E+00 0.  1.
         -2   -1    0    0    0  501 -0.00000000000E+00 -0.00000000000E+00 -0.17267780004E+02  0.17267780004E+02  0.00000000000E+00 0. -1.
          1    1    1    2  502    0 -0.22370927075E+02  0.81020544224E-02  0.52262625734E+01  0.22973294590E+02  0.00000000000E+00 0. -1.
         -1    1    1    2    0  501  0.22370927075E+02 -0.81020544224E-02  0.65105103845E+01  0.23299038377E+02  0.00000000000E+00 0.  1.
</event>
<event>
 4    1  0.7060698E+001  0.2769255E+02  0.7546771E-02  0.1440773E+00
          2   -1    0    0  502    0  0.00000000000E+00  0.00000000000E+00  0.84784350007E+01  0.84784350007E+01  0.00000000000E+00 0.  1.
         -2   -1    0    0    0  501 -0.00000000000E+00 -0.00000000000E+00 -0.90718691807E+02  0.90718691807E+02  0.00000000000E+00 0. -1.
          1    1    1    2  502    0 -0.27678527735E+02 -0.88103975845E+00 -0.43817818413E+02  0.51835107206E+02  0.00000000000E+00 0. -1.
         -1    1    1    2    0  501  0.27678527735E+02  0.88103975845E+00 -0.38422438393E+02  0.47362019601E+02  0.00000000000E+00 0.  1.
</event>
<event>
 4    1  0.7060698E+001  0.2532665E+02  0.7546771E-02  0.1465182E+00
          2   -1    0    0  502    0  0.00000000000E+00  0.00000000000E+00  0.87283930715E+03  0.87283930715E+03  0.00000000000E+00 0.  1.
         -2   -1    0    0    0  501 -0.00000000000E+00 -0.00000000000E+00 -0.82834196751E+00  0.82834196751E+00  0.00000000000E+00 0. -1.
          1    1    1    2  502    0  0.24816537376E+02 -0.50575444652E+01  0.58273243507E+03  0.58328254746E+03  0.00000000000E+00 0.  1.
         -1    1    1    2    0  501 -0.24816537376E+02  0.50575444652E+01  0.28927853011E+03  0.29038510166E+03  0.00000000000E+00 0. -1.
</event>
<event>
 4    1  0.7060698E+001  0.6861426E+02  0.7546771E-02  0.1233075E+00
          2   -1    0    0  502    0  0.00000000000E+00  0.00000000000E+00  0.10879755286E+04  0.10879755286E+04  0.00000000000E+00 0.  1.
         -2   -1    0    0    0  501 -0.00000000000E+00 -0.00000000000E+00 -0.76279005626E+01  0.76279005626E+01  0.00000000000E+00 0. -1.
          1    1    1    2  502    0 -0.16383596154E+02 -0.66629535398E+02  0.90052184665E+03  0.90313205762E+03  0.00000000000E+00 0.  1.
         -1    1    1    2    0  501  0.16383596154E+02  0.66629535398E+02  0.17982578135E+03  0.19247137151E+03  0.00000000000E+00 0. -1.
</event>
<event>
 4    1  0.7060698E+001  0.3540181E+02  0.7546771E-02  0.1377760E+00
          2   -1    0    0  502    0  0.00000000000E+00  0.00000000000E+00  0.12933387768E+01  0.12933387768E+01  0.00000000000E+00 0.  1.
         -2   -1    0    0    0  501 -0.00000000000E+00 -0.00000000000E+00 -0.98546274644E+03  0.98546274644E+03  0.00000000000E+00 0. -1.
          1    1    1    2  502    0  0.23580758140E+02 -0.26405230967E+02 -0.55578930919E+03  0.55691565303E+03  0.00000000000E+00 0. -1.
         -1    1    1    2    0  501 -0.23580758140E+02  0.26405230967E+02 -0.42838009848E+03  0.42984043219E+03  0.00000000000E+00 0.  1.
</event>
<event>
 4    1  0.7060698E+001  0.2174807E+02  0.7546771E-02  0.1508847E+00
          2   -1    0    0  502    0  0.00000000000E+00  0.00000000000E+00  0.54087270519E+03  0.54087270519E+03  0.00000000000E+00 0. -1.
         -2   -1    0    0    0  501 -0.00000000000E+00 -0.00000000000E+00 -0.98330258976E+00  0.98330258976E+00  0.00000000000E+00 0.  1.
          1    1    1    2  502    0  0.21337881364E+02 -0.42039735147E+01  0.36007769826E+03  0.36073387332E+03  0.00000000000E+00 0. -1.
         -1    1    1    2    0  501 -0.21337881364E+02  0.42039735147E+01  0.17981170433E+03  0.18112213446E+03  0.00000000000E+00 0.  1.
</event>
<event>
 4    1  0.7060698E+001  0.3623189E+02  0.7546771E-02  0.1372103E+00
          2   -1    0    0  502    0  0.00000000000E+00  0.00000000000E+00  0.56578422418E+03  0.56578422418E+03  0.00000000000E+00 0. -1.
         -2   -1    0    0    0  501 -0.00000000000E+00 -0.00000000000E+00 -0.23355041370E+01  0.23355041370E+01  0.00000000000E+00 0.  1.
          1    1    1    2  502    0 -0.24105435938E+02  0.27049550264E+02  0.30469540692E+03  0.30684204602E+03  0.00000000000E+00 0.  1.
         -1    1    1    2    0  501  0.24105435938E+02 -0.27049550264E+02  0.25875331312E+03  0.26127768229E+03  0.00000000000E+00 0. -1.
</event>
<event>
 4    1  0.7060698E+001  0.2987201E+02  0.7546771E-02  0.1420712E+00
          2   -1    0    0  502    0  0.00000000000E+00  0.00000000000E+00  0.13099193756E+04  0.13099193756E+04  0.00000000000E+00 0. -1.
         -2   -1    0    0    0  501 -0.00000000000E+00 -0.00000000000E+00 -0.78461377051E+00  0.78461377051E+00  0.00000000000E+00 0.  1.
          1    1    1    2  502    0 -0.79646361666E+01  0.28790654543E+02  0.41666238455E+03  0.41773182775E+03  0.00000000000E+00 0.  1.
         -1    1    1    2    0  501  0.79646361666E+01 -0.28790654543E+02  0.89247237725E+03  0.89297216159E+03  0.00000000000E+00 0. -1.
</event>
<event>
 4    1  0.7060698E+001  0.2999888E+02  0.7546771E-02  0.1419606E+00
          2   -1    0    0  502    0  0.00000000000E+00  0.00000000000E+00  0.32524296703E+02  0.32524296703E+02  0.00000000000E+00 0. -1.
         -2   -1    0    0    0  501 -0.00000000000E+00 -0.00000000000E+00 -0.29899394419E+02  0.29899394419E+02  0.00000000000E+00 0.  1.
          1    1    1    2  502    0 -0.30802892753E+01  0.29840316734E+02 -0.72111955889E+01  0.30853428118E+02  0.00000000000E+00 0.  1.
         -1    1    1    2    0  501  0.30802892753E+01 -0.29840316734E+02  0.98360978734E+01  0.31570263004E+02  0.00000000000E+00 0. -1.
</event>
<event>
 4    1  0.7060698E+001  0.2023074E+02  0.7546771E-02  0.1530537E+00
          2   -1    0    0  502    0  0.00000000000E+00  0.00000000000E+00  0.61319140747E+02  0.61319140747E+02  0.00000000000E+00 0. -1.
         -2   -1    0    0    0  501 -0.00000000000E+00 -0.00000000000E+00 -0.15657269876E+02  0.15657269876E+02  0.00000000000E+00 0.  1.
          1    1    1    2  502    0 -0.84723407196E+01 -0.18371231248E+02  0.51983152538E+02  0.55781097539E+02  0.00000000000E+00 0. -1.
         -1    1    1    2    0  501  0.84723407196E+01  0.18371231248E+02 -0.63212816678E+01  0.21195313084E+02  0.00000000000E+00 0.  1.
</event>
<event>
 4    1  0.7060698E+001  0.2712948E+02  0.7546771E-02  0.1446312E+00
          2   -1    0    0  502    0  0.00000000000E+00  0.00000000000E+00  0.19535174157E+04  0.19535174157E+04  0.00000000000E+00 0. -1.
         -2   -1    0    0    0  501 -0.00000000000E+00 -0.00000000000E+00 -0.40648000466E+00  0.40648000466E+00  0.00000000000E+00 0.  1.
          1    1    1    2  502    0 -0.18208287836E+02  0.20111363289E+02  0.71238939519E+03  0.71290578554E+03  0.00000000000E+00 0. -1.
         -1    1    1    2    0  501  0.18208287836E+02 -0.20111363289E+02  0.12407215406E+04  0.12410181102E+04  0.00000000000E+00 0.  1.
</event>
<event>
 4    1  0.7060698E+001  0.2107814E+02  0.7546771E-02  0.1518152E+00
          2   -1    0    0  502    0  0.00000000000E+00  0.00000000000E+00  0.33181090023E+02  0.33181090023E+02  0.00000000000E+00 0. -1.
         -2   -1    0    0    0  501 -0.00000000000E+00 -0.00000000000E+00 -0.13426799446E+02  0.13426799446E+02  0.00000000000E+00 0.  1.
          1    1    1    2  502    0 -0.10916622235E+02 -0.18030952165E+02  0.11100607923E+02  0.23822497208E+02  0.00000000000E+00 0.  1.
         -1    1    1    2    0  501  0.10916622235E+02  0.18030952165E+02  0.86536826548E+01  0.22785392261E+02  0.00000000000E+00 0. -1.
</event>
<event>
 4    1  0.7060698E+001  0.2536170E+02  0.7546771E-02  0.1464797E+00
          2   -1    0    0  502    0  0.00000000000E+00  0.00000000000E+00  0.71263667674E+03  0.71263667674E+03  0.00000000000E+00 0. -1.
         -2   -1    0    0    0  501 -0.00000000000E+00 -0.00000000000E+00 -0.98675633258E+00  0.98675633258E+00  0.00000000000E+00 0.  1.
          1    1    1    2  502    0 -0.14506681007E+02 -0.20803172227E+02  0.25161383195E+03  0.25288878226E+03  0.00000000000E+00 0.  1.
         -1    1    1    2    0  501  0.14506681007E+02  0.20803172227E+02  0.46003608846E+03  0.46073465081E+03  0.00000000000E+00 0. -1.
</event>
<event>
 4    1  0.7060698E+001  0.4120151E+02  0.7546771E-02  0.1341585E+00
          2   -1    0    0  502    0  0.00000000000E+00  0.00000000000E+00  0.41063965566E+01  0.41063965566E+01  0.00000000000E+00 0.  1.
         -2   -1    0    0    0  501 -0.00000000000E+00 -0.00000000000E+00 -0.49708113667E+03  0.49708113667E+03  0.00000000000E+00 0. -1.
          1    1    1    2  502    0 -0.38627505474E+02 -0.14334570842E+02 -0.34930869488E+03  0.35173019264E+03  0.00000000000E+00 0. -1.
         -1    1    1    2    0  501  0.38627505474E+02  0.14334570842E+02 -0.14366604524E+03  0.14945734059E+03  0.00000000000E+00 0.  1.
</event>
<event>
 4    1  0.7060698E+001  0.2052479E+02  0.7546771E-02  0.1526159E+00
          2   -1    0    0  502    0  0.00000000000E+00  0.00000000000E+00  0.19567908573E+04  0.19567908573E+04  0.00000000000E+00 0. -1.
         -2   -1    0    0    0  501 -0.00000000000E+00 -0.00000000000E+00 -0.23828038622E+00  0.23828038622E+00  0.00000000000E+00 0.  1.
          1    1    1    2  502    0  0.64039421667E+01  0.19500169656E+02  0.12822573536E+04  0.12824216109E+04  0.00000000000E+00 0. -1.
         -1    1    1    2    0  501 -0.64039421667E+01 -0.19500169656E+02  0.67429522332E+03  0.67460752685E+03  0.00000000000E+00 0.  1.
</event>
<event>
 4    1  0.7060698E+001  0.5116239E+02  0.7546771E-02  0.1293210E+00
          2   -1    0    0  502    0  0.00000000000E+00  0.00000000000E+00  0.11173418607E+04  0.11173418607E+04  0.00000000000E+00 0.  1.
         -2   -1    0    0    0  501 -0.00000000000E+00 -0.00000000000E+00 -0.35211465685E+01  0.35211465685E+01  0.00000000000E+00 0. -1.
          1    1    1    2  502    0  0.36960539111E+02  0.35376668225E+02  0.23269279407E+03  0.23825097381E+03  0.00000000000E+00 0. -1.
         -1    1    1    2    0  501 -0.36960539111E+02 -0.35376668225E+02  0.88112792006E+03  0.88261203347E+03  0.00000000000E+00 0.  1.
</event>
<event>
 4    1  0.7060698E+001  0.2687104E+02  0.7546771E-02  0.1448908E+00
          2   -1    0    0  502    0  0.00000000000E+00  0.00000000000E+00  0.12690880215E+04  0.12690880215E+04  0.00000000000E+00 0.  1.
         -2   -1    0    0    0  501 -0.00000000000E+00 -0.00000000000E+00 -0.85034178204E+00  0.85034178204E+00  0.00000000000E+00 0. -1.
          1    1    1    2  502    0 -0.26908272790E+01  0.26735971310E+02  0.99938421146E+03  0.99974539501E+03  0.00000000000E+00 0.  1.
         -1    1    1    2    0  501  0.26908272790E+01 -0.26735971310E+02  0.26885346825E+03  0.27019296827E+03  0.00000000000E+00 0. -1.
</event>
<event>
 4    1  0.7060698E+001  0.2645077E+02  0.7546771E-02  0.1453205E+00
          2   -1    0    0  502    0  0.00000000000E+00  0.00000000000E+00  0.48305403010E+02  0.48305403010E+02  0.00000000000E+00 0.  1.
         -2   -1    0    0    0  501 -0.00000000000E+00 -0.00000000000E+00 -0.14523183658E+02  0.14523183658E+02  0.00000000000E+00 0. -1.
          1    1    1    2  502    0  0.23566708998E+02 -0.12010563944E+02  0.18528022436E+02  0.32294442783E+02  0.00000000000E+00 0.  1.
         -1    1    1    2    0  501 -0.23566708998E+02  0.12010563944E+02  0.15254196917E+02  0.30534143886E+02  0.00000000000E+00 0. -1.
</event>
<event>
 4    1  0.7060698E+001  0.3010739E+02  0.7546771E-02  0.1418665E+00
          2   -1    0    0  502    0  0.00000000000E+00  0.00000000000E+00  0.30807600663E+01  0.30807600663E+01  0.00000000000E+00 0. -1.
         -2   -1    0    0    0  501 -0.00000000000E+00 -0.00000000000E+00 -0.32181639498E+03  0.32181639498E+03  0.00000000000E+00 0.  1.
          1    1    1    2  502    0  0.54554779494E+01 -0.29608999184E+02 -0.20692887937E+03  0.20910766650E+03  0.00000000000E+00 0.  1.
         -1    1    1    2    0  501 -0.54554779494E+01  0.29608999184E+02 -0.11180675555E+03  0.11578948855E+03  0.00000000000E+00 0. -1.
</event>
<event>
 4    1  0.7060698E+001  0.3439385E+02  0.7546771E-02  0.1384875E+00
          2   -1    0    0  502    0  0.00000000000E+00  0.00000000000E+00  0.27137862044E+03  0.27137862044E+03  0.00000000000E+00 0. -1.
         -2   -1    0    0    0  501 -0.00000000000E+00 -0.00000000000E+00 -0.67754064412E+01  0.67754064412E+01  0.00000000000E+00 0.  1.
          1    1    1    2  502    0 -0.22709160061E+02 -0.25830807959E+02  0.49245111103E+02  0.60066775825E+02  0.00000000000E+00 0. -1.
         -1    1    1    2    0  501  0.22709160061E+02  0.25830807959E+02  0.21535810290E+03  0.21808725106E+03  0.00000000000E+00 0.  1.
</event>
<event>
 4    1  0.7060698E+001  0.2124507E+02  0.7546771E-02  0.1515795E+00
          2   -1    0    0  502    0  0.00000000000E+00  0.00000000000E+00  0.10899946574E+03  0.10899946574E+03  0.00000000000E+00 0.  1.
         -2   -1    0    0    0  501 -0.00000000000E+00 -0.00000000000E+00 -0.43152167214E+01  0.43152167214E+01  0.00000000000E+00 0. -1.
          1    1    1    2  502    0  0.17054885293E+02  0.12668218565E+02  0.40953825829E+02  0.46136414294E+02  0.00000000000E+00 0.  1.
         -1    1    1    2    0  501 -0.17054885293E+02 -0.12668218565E+02  0.63730423193E+02  0.67178268170E+02  0.00000000000E+00 0. -1.
</event>
<event>
 4    1  0.7060698E+001  0.4261361E+02  0.7546771E-02  0.1333815E+00
          2   -1    0    0  502    0  0.00000000000E+00  0.00000000000E+00  0.78873575833E+02  0.78873575833E+02  0.00000000000E+00 0.  1.
         -2   -1    0    0    0  501 -0.00000000000E+00 -0.00000000000E+00 -0.23281685824E+02  0.23281685824E+02  0.00000000000E+00 0. -1.
          1    1    1    2  502    0  0.30692572735E+02  0.29561551430E+02  0.22413602037E+02  0.48148612652E+02  0.00000000000E+00 0.  1.
         -1    1    1    2    0  501 -0.30692572735E+02 -0.29561551430E+02  0.33178287972E+02  0.54006649005E+02  0.00000000000E+00 0. -1.
</event>
<event>
 4    1  0.7060698E+001  0.2079705E+02  0.7546771E-02  0.1522182E+00
          2   -1    0    0  502    0  0.00000000000E+00  0.00000000000E+00  0.59854090326E+03  0.59854090326E+03  0.00000000000E+00 0. -1.
         -2   -1    0    0    0  501 -0.00000000000E+00 -0.00000000000E+00 -0.72280347364E+00  0.72280347364E+00  0.00000000000E+00 0.  1.
          1    1    1    2  502    0 -0.88718092345E+01 -0.18809787574E+02  0.30369414089E+03  0.30440540126E+03  0.00000000000E+00 0.  1.
         -1    1    1    2    0  501  0.88718092345E+01  0.18809787574E+02  0.29412395890E+03  0.29485830547E+03  0.00000000000E+00 0. -1.
</event>
<event>
 4    1  0.7060698E+001  0.9216978E+02  0.7546771E-02  0.1178115E+00
          2   -1    0    0  502    0  0.00000000000E+00  0.00000000000E+00  0.13550857202E+04  0.13550857202E+04  0.00000000000E+00 0.  1.
         -2   -1    0    0    0  501 -0.00000000000E+00 -0.00000000000E+00 -0.62827352930E+01  0.62827352930E+01  0.00000000000E+00 0. -1.
          1    1    1    2  502    0 -0.63090254197E+02  0.67192919716E+02  0.70602545619E+03  0.71201630137E+03  0.00000000000E+00 0.  1.
         -1    1    1    2    0  501  0.63090254197E+02 -0.67192919716E+02  0.64277752869E+03  0.64935215409E+03  0.00000000000E+00 0. -1.
</event>
<event>
 4    1  0.7060698E+001  0.2879606E+02  0.7546771E-02  0.1430355E+00
          2   -1    0    0  502    0  0.00000000000E+00  0.00000000000E+00  0.18737496406E+04  0.18737496406E+04  0.00000000000E+00 0.  1.
         -2   -1    0    0    0  501 -0.00000000000E+00 -0.00000000000E+00 -0.86205909970E+00  0.86205909970E+00  0.00000000000E+00 0. -1.
          1    1    1    2  502    0  0.21168588871E+02 -0.19521883554E+02  0.15903080388E+04  0.15905687257E+04  0.00000000000E+00 0.  1.
         -1    1    1    2    0  501 -0.21168588871E+02  0.19521883554E+02  0.28257954276E+03  0.28404297400E+03  0.00000000000E+00 0. -1.
</event>
<event>
 4    1  0.7060698E+001  0.2748352E+02  0.7546771E-02  0.1442811E+00
          2   -1    0    0  502    0  0.00000000000E+00  0.00000000000E+00  0.24034292564E+03  0.24034292564E+03  0.00000000000E+00 0.  1.
         -2   -1    0    0    0  501 -0.00000000000E+00 -0.00000000000E+00 -0.13551675831E+02  0.13551675831E+02  0.00000000000E+00 0. -1.
          1    1    1    2  502    0 -0.24144780600E+02 -0.13129105057E+02  0.22465315034E+03  0.22632804022E+03  0.00000000000E+00 0.  1.
         -1    1    1    2    0  501  0.24144780600E+02  0.13129105057E+02  0.21380994630E+01  0.27566561250E+02  0.00000000000E+00 0. -1.
</event>
<event>
 4    1  0.7060698E+001  0.2280137E+02  0.7546771E-02  0.1495007E+00
          2   -1    0    0  502    0  0.00000000000E+00  0.00000000000E+00  0.17461506966E+03  0.17461506966E+03  0.00000000000E+00 0. -1.
         -2   -1    0    0    0  501 -0.00000000000E+00 -0.00000000000E+00 -0.33494725863E+01  0.33494725863E+01  0.00000000000E+00 0.  1.
          1    1    1    2  502    0 -0.87241236480E+01 -0.21066377538E+02  0.11528908605E+03  0.11752223602E+03  0.00000000000E+00 0.  1.
         -1    1    1    2    0  501  0.87241236480E+01  0.21066377538E+02  0.55976511024E+02  0.60442306230E+02  0.00000000000E+00 0. -1.
</event>
<event>
 4    1  0.7060698E+001  0.2999374E+02  0.7546771E-02  0.1419651E+00
          2   -1    0    0  502    0  0.00000000000E+00  0.00000000000E+00  0.16748799922E+04  0.16748799922E+04  0.00000000000E+00 0. -1.
         -2   -1    0    0    0  501 -0.00000000000E+00 -0.00000000000E+00 -0.19080000011E+01  0.19080000011E+01  0.00000000000E+00 0.  1.
          1    1    1    2  502    0 -0.13605006146E+02  0.26730658792E+02  0.12583317084E+03  0.12935846009E+03  0.00000000000E+00 0.  1.
         -1    1    1    2    0  501  0.13605006146E+02 -0.26730658792E+02  0.15471388213E+04  0.15474295321E+04  0.00000000000E+00 0. -1.
</event>
<event>
 4    1  0.7060698E+001  0.3217891E+02  0.7546771E-02  0.1401561E+00
          2   -1    0    0  502    0  0.00000000000E+00  0.00000000000E+00  0.30631556102E+01  0.30631556102E+01  0.00000000000E+00 0.  1.
         -2   -1    0    0    0  501 -0.00000000000E+00 -0.00000000000E+00 -0.34550258063E+03  0.34550258063E+03  0.00000000000E+00 0. -1.
          1    1    1    2  502    0  0.29584056828E+02 -0.12659626833E+02 -0.14561347388E+03  0.14912667885E+03  0.00000000000E+00 0.  1.
         -1    1    1    2    0  501 -0.29584056828E+02  0.12659626833E+02 -0.19682595114E+03  0.19943905739E+03  0.00000000000E+00 0. -1.
</event>
<event>
 4    1  0.7060698E+001  0.2807929E+02  0.7546771E-02  0.1437058E+00
          2   -1    0    0  502    0  0.00000000000E+00  0.00000000000E+00  0.23506242799E+03  0.23506242799E+03  0.00000000000E+00 0.  1.
         -2   -1    0    0    0  501 -0.00000000000E+00 -0.00000000000E+00 -0.47039791157E+01  0.47039791157E+01  0.00000000000E+00 0. -1.
          1    1    1    2  502    0 -0.13062377700E+02  0.24856004072E+02  0.50961217035E+02  0.58184983383E+02  0.00000000000E+00 0. -1.
         -1    1    1    2    0  501  0.13062377700E+02 -0.24856004072E+02  0.17939723184E+03  0.18158142372E+03  0.00000000000E+00 0.  1.
</event>
<event>
 4    1  0.7060698E+001  0.3852434E+02  0.7546771E-02  0.1357357E+00
          2   -1    0    0  502    0  0.00000000000E+00  0.00000000000E+00  0.19511047520E+03  0.19511047520E+03  0.00000000000E+00 0. -1.
         -2   -1    0    0    0  501 -0.00000000000E+00 -0.00000000000E+00 -0.85879432054E+01  0.85879432054E+01  0.00000000000E+00 0.  1.
          1    1    1    2  502    0 -0.37518335653E+02 -0.87463826086E+01  0.58832099197E+02  0.70323115793E+02  0.00000000000E+00 0.  1.
         -1    1    1    2    0  501  0.37518335653E+02  0.87463826086E+01  0.12769043280E+03  0.13337530261E+03  0.00000000000E+00 0. -1.
</event>
<event>
 4    1  0.7060698E+001  0.2188733E+02  0.7546771E-02  0.1506963E+00
          2   -1    0    0  502    0  0.00000000000E+00  0.00000000000E+00  0.79505005811E+02  0.79505005811E+02  0.00000000000E+00 0.  1.
         -2   -1    0    0    0  501 -0.00000000000E+00 -0.00000000000E+00 -0.76775257624E+01  0.76775257624E+01  0.00000000000E+00 0. -1.
          1    1    1    2  502    0 -0.21877248407E+02  0.66425397673E+00  0.56134657321E+02  0.60250767495E+02  0.00000000000E+00 0.  1.
         -1    1    1    2    0  501  0.21877248407E+02 -0.66425397673E+00  0.15692822727E+02  0.26931764078E+02  0.00000000000E+00 0. -1.
</event>
<event>
 4    1  0.7060698E+001  0.4065669E+02  0.7546771E-02  0.1344680E+00
          2   -1    0    0  502    0  0.00000000000E+00  0.00000000000E+00  0.42800866182E+03  0.42800866182E+03  0.00000000000E+00 0.  1.
         -2   -1    0    0    0  501 -0.00000000000E+00 -0.00000000000E+00 -0.38690595930E+01  0.38690595930E+01  0.00000000000E+00 0. -1.
          1    1    1    2  502    0  0.54353170708E-01  0.40656654398E+02  0.20284132724E+03  0.20687573694E+03  0.00000000000E+00 0. -1.
         -1    1    1    2    0  501 -0.54353170708E-01 -0.40656654398E+02  0.22129827499E+03  0.22500198447E+03  0.00000000000E+00 0.  1.
</event>
<event>
 4    1  0.7060698E+001  0.2221468E+02  0.7546771E-02  0.1502602E+00
          2   -1    0    0  502    0  0.00000000000E+00  0.00000000000E+00  0.15866524701E+02  0.15866524701E+02  0.00000000000E+00 0.  1.
         -2   -1    0    0    0  501 -0.00000000000E+00 -0.00000000000E+00 -0.31978749117E+02  0.31978749117E+02  0.00000000000E+00 0. -1.
          1    1    1    2  502    0 -0.14157574095E+02  0.17118856938E+02 -0.12015573912E+02  0.25256012820E+02  0.00000000000E+00 0.  1.
         -1    1    1    2    0  501  0.14157574095E+02 -0.17118856938E+02 -0.40966505037E+01  0.22589260999E+02  0.00000000000E+00 0. -1.
</event>
<event>
 4    1  0.7060698E+001  0.2180986E+02  0.7546771E-02  0.1508009E+00
          2   -1    0    0  502    0  0.00000000000E+00  0.00000000000E+00  0.85759632721E+03  0.85759632721E+03  0.00000000000E+00 0.  1.
         -2   -1    0    0    0  501 -0.00000000000E+00 -0.00000000000E+00 -0.79902710632E+00  0.79902710632E+00  0.00000000000E+00 0. -1.
          1    1    1    2  502    0  0.11616315807E+02  0.18458901558E+02  0.66575599913E+03  0.66611314371E+03  0.00000000000E+00 0.  1.
         -1    1    1    2    0  501 -0.11616315807E+02 -0.18458901558E+02  0.19104130097E+03  0.19228221060E+03  0.00000000000E+00 0. -1.
</event>
<event>
 4    1  0.7060698E+001  0.2023266E+02  0.7546771E-02  0.1530508E+00
          2   -1    0    0  502    0  0.00000000000E+00  0.00000000000E+00  0.57253240131E+02  0.57253240131E+02  0.00000000000E+00 0.  1.
         -2   -1    0    0    0  501 -0.00000000000E+00 -0.00000000000E+00 -0.71524429821E+01  0.71524429821E+01  0.00000000000E+00 0. -1.
          1    1    1    2  502    0  0.33228407275E+01  0.19957933484E+02  0.25646160821E+02  0.32666281459E+02  0.00000000000E+00 0. -1.
         -1    1    1    2    0  501 -0.33228407275E+01 -0.19957933484E+02  0.24454636327E+02  0.31739401654E+02  0.00000000000E+00 0.  1.
</event>
<event>
 4    1  0.7060698E+001  0.2619472E+02  0.7546771E-02  0.1455869E+00
          2   -1    0    0  502    0  0.00000000000E+00  0.00000000000E+00  0.10170885739E+02  0.10170885739E+02  0.00000000000E+00 0. -1.
         -2   -1    0    0    0  501 -0.00000000000E+00 -0.00000000000E+00 -0.94797729016E+02  0.94797729016E+02  0.00000000000E+00 0.  1.
          1    1    1    2  502    0  0.52865567886E+01  0.25655713791E+02 -0.70496218328E+02  0.75205585772E+02  0.00000000000E+00 0.  1.
         -1    1    1    2    0  501 -0.52865567886E+01 -0.25655713791E+02 -0.14130624949E+02  0.29763028983E+02  0.00000000000E+00 0. -1.
</event>
<event>
 4    1  0.7060698E+001  0.2178801E+02  0.7546771E-02  0.1508305E+00
          2   -1    0    0  502    0  0.00000000000E+00  0.00000000000E+00  0.53303602162E+01  0.53303602162E+01  0.00000000000E+00 0. -1.
         -2   -1    0    0    0  501 -0.00000000000E+00 -0.00000000000E+00 -0.93384071070E+02  0.93384071070E+02  0.00000000000E+00 0.  1.
          1    1    1    2  502    0  0.24306658201E+01 -0.21651998729E+02 -0.33404889705E+02  0.39882375073E+02  0.00000000000E+00 0. -1.
         -1    1    1    2    0  501 -0.24306658201E+01  0.21651998729E+02 -0.54648821149E+02  0.58832056213E+02  0.00000000000E+00 0.  1.
</event>
<event>
 4    1  0.7060698E+001  0.2459884E+02  0.7546771E-02  0.1473341E+00
          2   -1    0    0  502    0  0.00000000000E+00  0.00000000000E+00  0.43948460048E+03  0.43948460048E+03  0.00000000000E+00 0.  1.
         -2   -1    0    0    0  501 -0.00000000000E+00 -0.00000000000E+00 -0.14651820534E+01  0.14651820534E+01  0.00000000000E+00 0. -1.
          1    1    1    2  502    0  0.18938689603E+02  0.15698058089E+02  0.27314496922E+03  0.27425039143E+03  0.00000000000E+00 0. -1.
         -1    1    1    2    0  501 -0.18938689603E+02 -0.15698058089E+02  0.16487444921E+03  0.16669939110E+03  0.00000000000E+00 0.  1.
</event>
<event>
 4    1  0.7060698E+001  0.4633066E+02  0.7546771E-02  0.1314917E+00
          2   -1    0    0  502    0  0.00000000000E+00  0.00000000000E+00  0.14955933060E+04  0.14955933060E+04  0.00000000000E+00 0.  1.
         -2   -1    0    0    0  501 -0.00000000000E+00 -0.00000000000E+00 -0.15366155177E+01  0.15366155177E+01  0.00000000000E+00 0. -1.
          1    1    1    2  502    0 -0.19006078725E+02  0.42252799142E+02  0.93930253113E+03  0.94044445612E+03  0.00000000000E+00 0.  1.
         -1    1    1    2    0  501  0.19006078725E+02 -0.42252799142E+02  0.55475415931E+03  0.55668546535E+03  0.00000000000E+00 0. -1.
</event>
<event>
 4    1  0.7060698E+001  0.2449301E+02  0.7546771E-02  0.1474556E+00
          2   -1    0    0  502    0  0.00000000000E+00  0.00000000000E+00  0.11642543110E+02  0.11642543110E+02  0.00000000000E+00 0. -1.
         -2   -1    0    0    0  501 -0.00000000000E+00 -0.00000000000E+00 -0.83013973990E+02  0.83013973990E+02  0.00000000000E+00 0.  1.
          1    1    1    2  502    0 -0.61332121726E+01 -0.23712681666E+02 -0.65376956516E+01  0.25350523225E+02  0.00000000000E+00 0. -1.
         -1    1    1    2    0  501  0.61332121726E+01  0.23712681666E+02 -0.64833735228E+02  0.69305993875E+02  0.00000000000E+00 0.  1.
</event>
<event>
 4    1  0.7060698E+001  0.3883659E+02  0.7546771E-02  0.1355442E+00
          2   -1    0    0  502    0  0.00000000000E+00  0.00000000000E+00  0.18413564430E+03  0.18413564430E+03  0.00000000000E+00 0.  1.
         -2   -1    0    0    0  501 -0.00000000000E+00 -0.00000000000E+00 -0.82055503808E+01  0.82055503808E+01  0.00000000000E+00 0. -1.
          1    1    1    2  502    0  0.31470577547E+01 -0.38708867471E+02  0.83934510578E+02  0.92483957849E+02  0.00000000000E+00 0.  1.
         -1    1    1    2    0  501 -0.31470577547E+01  0.38708867471E+02  0.91995583341E+02  0.99857236832E+02  0.00000000000E+00 0. -1.
</event>
<event>
 4    1  0.7060698E+001  0.3030244E+02  0.7546771E-02  0.1416986E+00
          2   -1    0    0  502    0  0.00000000000E+00  0.00000000000E+00  0.19285236937E+04  0.19285236937E+04  0.00000000000E+00 0.  1.
         -2   -1    0    0    0  501 -0.00000000000E+00 -0.00000000000E+00 -0.53596987628E+00  0.53596987628E+00  0.00000000000E+00 0. -1.
          1    1    1    2  502    0 -0.27368766003E+02 -0.13007237446E+02  0.12862660052E+04  0.12866228949E+04  0.00000000000E+00 0.  1.
         -1    1    1    2    0  501  0.27368766003E+02  0.13007237446E+02  0.64172171870E+03  0.64243676874E+03  0.00000000000E+00 0. -1.
</event>
<event>
 4    1  0.7060698E+001  0.2098651E+02  0.7546771E-02  0.1519457E+00
          2   -1    0    0  502    0  0.00000000000E+00  0.00000000000E+00  0.40743201617E+02  0.40743201617E+02  0.00000000000E+00 0.  1.
         -2   -1    0    0    0  501 -0.00000000000E+00 -0.00000000000E+00 -0.14879342385E+02  0.14879342385E+02  0.00000000000E+00 0. -1.
          1    1    1    2  502    0  0.97687417121E+00 -0.20963758982E+02 -0.16123361384E+01  0.21048351518E+02  0.00000000000E+00 0. -1.
         -1    1    1    2    0  501 -0.97687417121E+00  0.20963758982E+02  0.27476195370E+02  0.34574192483E+02  0.00000000000E+00 0.  1.
</event>
<event>
 4    1  0.7060698E+001  0.3240930E+02  0.7546771E-02  0.1399753E+00
          2   -1    0    0  502    0  0.00000000000E+00  0.00000000000E+00  0.11829239483E+02  0.11829239483E+02  0.00000000000E+00 0. -1.
         -2   -1    0    0    0  501 -0.00000000000E+00 -0.00000000000E+00 -0.17583200482E+03  0.17583200482E+03  0.00000000000E+00 0.  1.
          1    1    1    2  502    0  0.32298569669E+02  0.26767144551E+01 -0.15985148502E+02  0.36137063738E+02  0.00000000000E+00 0. -1.
         -1    1    1    2    0  501 -0.32298569669E+02 -0.26767144551E+01 -0.14801761684E+03  0.15152418057E+03  0.00000000000E+00 0.  1.
</event>
<event>
 4    1  0.7060698E+001  0.3345358E+02  0.7546771E-02  0.1391773E+00
          2   -1    0    0  502    0  0.00000000000E+00  0.00000000000E+00  0.49207827966E+03  0.49207827966E+03  0.00000000000E+00 0.  1.
         -2   -1    0    0    0  501 -0.00000000000E+00 -0.00000000000E+00 -0.48721023200E+01  0.48721023200E+01  0.00000000000E+00 0. -1.
          1    1    1    2  502    0  0.28805058243E+02  0.17012081264E+02  0.62165856401E+02  0.70595580537E+02  0.00000000000E+00 0. -1.
         -1    1    1    2    0  501 -0.28805058243E+02 -0.17012081264E+02  0.42504032094E+03  0.42635480144E+03  0.00000000000E+00 0.  1.
</event>
<event>
 4    1  0.7060698E+001  0.2761148E+03  0.7546771E-02  0.1011337E+00
          2   -1    0    0  502    0  0.00000000000E+00  0.00000000000E+00  0.12207436377E+04  0.12207436377E+04  0.00000000000E+00 0.  1.
         -2   -1    0    0    0  501 -0.00000000000E+00 -0.00000000000E+00 -0.80625839087E+02  0.80625839087E+02  0.00000000000E+00 0. -1.
          1    1    1    2  502    0  0.61385630724E+02 -0.26920468248E+03  0.26114148004E+03  0.38004503592E+03  0.00000000000E+00 0. -1.
         -1    1    1    2    0  501 -0.61385630724E+02  0.26920468248E+03  0.87897631854E+03  0.92132444084E+03  0.00000000000E+00 0.  1.
</event>
<event>
 4    1  0.7060698E+001  0.2120419E+02  0.7546771E-02  0.1516369E+00
          2   -1    0    0  502    0  0.00000000000E+00  0.00000000000E+00  0.16619926597E+01  0.16619926597E+01  0.00000000000E+00 0. -1.
         -2   -1    0    0    0  501 -0.00000000000E+00 -0.00000000000E+00 -0.39908378864E+03  0.39908378864E+03  0.00000000000E+00 0.  1.
          1    1    1    2  502    0 -0.16419018724E+02  0.13417660963E+02 -0.84987336880E+02  0.87592609457E+02  0.00000000000E+00 0. -1.
         -1    1    1    2    0  501  0.16419018724E+02 -0.13417660963E+02 -0.31243445910E+03  0.31315317184E+03  0.00000000000E+00 0.  1.
</event>
<event>
 4    1  0.7060698E+001  0.2829902E+02  0.7546771E-02  0.1434978E+00
          2   -1    0    0  502    0  0.00000000000E+00  0.00000000000E+00  0.82808435326E+03  0.82808435326E+03  0.00000000000E+00 0. -1.
         -2   -1    0    0    0  501 -0.00000000000E+00 -0.00000000000E+00 -0.97107011622E+00  0.97107011622E+00  0.00000000000E+00 0.  1.
          1    1    1    2  502    0 -0.27598120301E+02  0.62592640277E+01  0.44008492759E+03  0.44099385270E+03  0.00000000000E+00 0.  1.
         -1    1    1    2    0  501  0.27598120301E+02 -0.62592640277E+01  0.38702835555E+03  0.38806157067E+03  0.00000000000E+00 0. -1.
</event>
<event>
 4    1  0.7060698E+001  0.2096063E+02  0.7546771E-02  0.1519828E+00
          2   -1    0    0  502    0  0.00000000000E+00  0.00000000000E+00  0.15689655772E+01  0.15689655772E+01  0.00000000000E+00 0.  1.
         -2   -1    0    0    0  501 -0.00000000000E+00 -0.00000000000E+00 -0.31327628878E+03  0.31327628878E+03  0.00000000000E+00 0. -1.
          1    1    1    2  502    0 -0.20777759183E+02  0.27627374841E+01 -0.10456583974E+03  0.10664596962E+03  0.00000000000E+00 0.  1.
         -1    1    1    2    0  501  0.20777759183E+02 -0.27627374841E+01 -0.20714148346E+03  0.20819928473E+03  0.00000000000E+00 0. -1.
</event>
<event>
 4    1  0.7060698E+001  0.2129055E+02  0.7546771E-02  0.1515157E+00
          2   -1    0    0  502    0  0.00000000000E+00  0.00000000000E+00  0.13703696703E+04  0.13703696703E+04  0.00000000000E+00 0.  1.
         -2   -1    0    0    0  501 -0.00000000000E+00 -0.00000000000E+00 -0.44810639157E+00  0.44810639157E+00  0.00000000000E+00 0. -1.
          1    1    1    2  502    0  0.17465596026E+02  0.12175400356E+02  0.33423984369E+03  0.33491724430E+03  0.00000000000E+00 0. -1.
         -1    1    1    2    0  501 -0.17465596026E+02 -0.12175400356E+02  0.10356817202E+04  0.10359005324E+04  0.00000000000E+00 0.  1.
</event>
<event>
 4    1  0.7060698E+001  0.2166070E+02  0.7546771E-02  0.1510037E+00
          2   -1    0    0  502    0  0.00000000000E+00  0.00000000000E+00  0.40882392477E+03  0.40882392477E+03  0.00000000000E+00 0. -1.
         -2   -1    0    0    0  501 -0.00000000000E+00 -0.00000000000E+00 -0.70679369036E+01  0.70679369036E+01  0.00000000000E+00 0.  1.
          1    1    1    2  502    0 -0.11060819945E+02 -0.18623751125E+02  0.10561882751E+02  0.24098531305E+02  0.00000000000E+00 0.  1.
         -1    1    1    2    0  501  0.11060819945E+02  0.18623751125E+02  0.39119410511E+03  0.39179333037E+03  0.00000000000E+00 0. -1.
</event>
<event>
 4    1  0.7060698E+001  0.4165116E+02  0.7546771E-02  0.1339073E+00
          2   -1    0    0  502    0  0.00000000000E+00  0.00000000000E+00  0.25916119730E+04  0.25916119730E+04  0.00000000000E+00 0.  1.
         -2   -1    0    0    0  501 -0.00000000000E+00 -0.00000000000E+00 -0.70121537465E+00  0.70121537465E+00  0.00000000000E+00 0. -1.
          1    1    1    2  502    0 -0.18155882551E+02  0.37485771197E+02  0.10193556844E+04  0.10202062686E+04  0.00000000000E+00 0.  1.
         -1    1    1    2    0  501  0.18155882551E+02 -0.37485771197E+02  0.15715550731E+04  0.15721069197E+04  0.00000000000E+00 0. -1.
</event>
<event>
 4    1  0.7060698E+001  0.2182518E+02  0.7546771E-02  0.1507802E+00
          2   -1    0    0  502    0  0.00000000000E+00  0.00000000000E+00  0.15411129895E+04  0.15411129895E+04  0.00000000000E+00 0.  1.
         -2   -1    0    0    0  501 -0.00000000000E+00 -0.00000000000E+00 -0.44205908511E+00  0.44205908511E+00  0.00000000000E+00 0. -1.
          1    1    1    2  502    0 -0.17603788772E+02 -0.12901353202E+02  0.11930710434E+04  0.11932706537E+04  0.00000000000E+00 0.  1.
         -1    1    1    2    0  501  0.17603788772E+02  0.12901353202E+02  0.34759988704E+03  0.34828439495E+03  0.00000000000E+00 0. -1.
</event>
<event>
 4    1  0.7060698E+001  0.2221989E+02  0.7546771E-02  0.1502533E+00
          2   -1    0    0  502    0  0.00000000000E+00  0.00000000000E+00  0.76316991600E+01  0.76316991600E+01  0.00000000000E+00 0.  1.
         -2   -1    0    0    0  501 -0.00000000000E+00 -0.00000000000E+00 -0.75775797316E+02  0.75775797316E+02  0.00000000000E+00 0. -1.
          1    1    1    2  502    0  0.15111123687E+02 -0.16290411044E+02 -0.18123579005E+02  0.28673815007E+02  0.00000000000E+00 0. -1.
         -1    1    1    2    0  501 -0.15111123687E+02  0.16290411044E+02 -0.50020519151E+02  0.54733681469E+02  0.00000000000E+00 0.  1.
</event>
<event>
 4    1  0.7060698E+001  0.2113395E+02  0.7546771E-02  0.1517361E+00
          2   -1    0    0  502    0  0.00000000000E+00  0.00000000000E+00  0.13317418572E+04  0.13317418572E+04  0.00000000000E+00 0.  1.
         -2   -1    0    0    0  501 -0.00000000000E+00 -0.00000000000E+00 -0.40133205602E+00  0.40133205602E+00  0.00000000000E+00 0. -1.
          1    1    1    2  502    0  0.21133610826E+02  0.12019325062E+00  0.93567560411E+03  0.93591424825E+03  0.00000000000E+00 0.  1.
         -1    1    1    2    0  501 -0.21133610826E+02 -0.12019325062E+00  0.39566492102E+03  0.39622894099E+03  0.00000000000E+00 0. -1.
</event>
<event>
 4    1  0.7060698E+001  0.3974232E+02  0.7546771E-02  0.1350002E+00
          2   -1    0    0  502    0  0.00000000000E+00  0.00000000000E+00  0.25643202891E+01  0.25643202891E+01  0.00000000000E+00 0. -1.
         -2   -1    0    0    0  501 -0.00000000000E+00 -0.00000000000E+00 -0.66960896220E+03  0.66960896220E+03  0.00000000000E+00 0.  1.
          1    1    1    2  502    0  0.30089882346E+02 -0.25962490892E+02 -0.42867623408E+03  0.43051453590E+03  0.00000000000E+00 0.  1.
         -1    1    1    2    0  501 -0.30089882346E+02  0.25962490892E+02 -0.23836840783E+03  0.24165874659E+03  0.00000000000E+00 0. -1.
</event>
<event>
 4    1  0.7060698E+001  0.2009943E+02  0.7546771E-02  0.1532521E+00
          2   -1    0    0  502    0  0.00000000000E+00  0.00000000000E+00  0.13255681906E+04  0.13255681906E+04  0.00000000000E+00 0. -1.
         -2   -1    0    0    0  501 -0.00000000000E+00 -0.00000000000E+00 -0.44293813812E+00  0.44293813812E+00  0.00000000000E+00 0.  1.
          1    1    1    2  502    0  0.16871511473E+02 -0.10924251966E+02  0.29225983752E+03  0.29295016608E+03  0.00000000000E+00 0.  1.
         -1    1    1    2    0  501 -0.16871511473E+02  0.10924251966E+02  0.10328654150E+04  0.10330609627E+04  0.00000000000E+00 0. -1.
</event>
<event>
 4    1  0.7060698E+001  0.2408469E+02  0.7546771E-02  0.1479309E+00
          2   -1    0    0  502    0  0.00000000000E+00  0.00000000000E+00  0.14599270129E+02  0.14599270129E+02  0.00000000000E+00 0. -1.
         -2   -1    0    0    0  501 -0.00000000000E+00 -0.00000000000E+00 -0.82491154143E+02  0.82491154143E+02  0.00000000000E+00 0.  1.
          1    1    1    2  502    0  0.24040345919E+02 -0.14608869370E+01  0.10044715421E+01  0.24105629749E+02  0.00000000000E+00 0. -1.
         -1    1    1    2    0  501 -0.24040345919E+02  0.14608869370E+01 -0.68896355557E+02  0.72984794523E+02  0.00000000000E+00 0.  1.
</event>
<event>
 4    1  0.7060698E+001  0.2244975E+02  0.7546771E-02  0.1499526E+00
          2   -1    0    0  502    0  0.00000000000E+00  0.00000000000E+00  0.50467948582E+02  0.50467948582E+02  0.00000000000E+00 0. -1.
         -2   -1    0    0    0  501 -0.00000000000E+00 -0.00000000000E+00 -0.22983154511E+02  0.22983154511E+02  0.00000000000E+00 0.  1.
          1    1    1    2  502    0  0.74551445386E+01  0.21175741826E+02 -0.13874926980E+02  0.26391377771E+02  0.00000000000E+00 0.  1.
         -1    1    1    2    0  501 -0.74551445386E+01 -0.21175741826E+02  0.41359721051E+02  0.47059725322E+02  0.00000000000E+00 0. -1.
</event>
<event>
 4    1  0.7060698E+001  0.2673772E+02  0.7546771E-02  0.1450261E+00
          2   -1    0    0  502    0  0.00000000000E+00  0.00000000000E+00  0.18488895152E+04  0.18488895152E+04  0.00000000000E+00 0. -1.
         -2   -1    0    0    0  501 -0.00000000000E+00 -0.00000000000E+00 -0.39257348133E+00  0.39257348133E+00  0.00000000000E+00 0.  1.
          1    1    1    2  502    0 -0.22465761999E+02  0.14498119447E+02  0.81083884659E+03  0.81127957023E+03  0.00000000000E+00 0. -1.
         -1    1    1    2    0  501  0.22465761999E+02 -0.14498119447E+02  0.10376580951E+04  0.10380025184E+04  0.00000000000E+00 0.  1.
</event>
<event>
 4    1  0.7060698E+001  0.3829873E+02  0.7546771E-02  0.1358754E+00
          2   -1    0    0  502    0  0.00000000000E+00  0.00000000000E+00  0.17542537628E+03  0.17542537628E+03  0.00000000000E+00 0. -1.
         -2   -1    0    0    0  501 -0.00000000000E+00 -0.00000000000E+00 -0.23371070989E+02  0.23371070989E+02  0.00000000000E+00 0.  1.
          1    1    1    2  502    0  0.27078033203E+02 -0.27084542950E+02  0.15568447005E+03  0.16032606327E+03  0.00000000000E+00 0. -1.
         -1    1    1    2    0  501 -0.27078033203E+02  0.27084542950E+02 -0.36301647568E+01  0.38470384000E+02  0.00000000000E+00 0.  1.
</event>
<event>
 4    1  0.7060698E+001  0.2488926E+02  0.7546771E-02  0.1470046E+00
          2   -1    0    0  502    0  0.00000000000E+00  0.00000000000E+00  0.13469918931E+04  0.13469918931E+04  0.00000000000E+00 0. -1.
         -2   -1    0    0    0  501 -0.00000000000E+00 -0.00000000000E+00 -0.52513395031E+00  0.52513395031E+00  0.00000000000E+00 0.  1.
          1    1    1    2  502    0  0.24876053055E+02 -0.81080356212E+00  0.91071022072E+03  0.91105026291E+03  0.00000000000E+00 0. -1.
         -1    1    1    2    0  501 -0.24876053055E+02  0.81080356212E+00  0.43575653844E+03  0.43646676416E+03  0.00000000000E+00 0.  1.
</event>
<event>
 4    1  0.7060698E+001  0.4728540E+02  0.7546771E-02  0.1310391E+00
          2   -1    0    0  502    0  0.00000000000E+00  0.00000000000E+00  0.93079809692E+02  0.93079809692E+02  0.00000000000E+00 0. -1.
         -2   -1    0    0    0  501 -0.00000000000E+00 -0.00000000000E+00 -0.24576497733E+02  0.24576497733E+02  0.00000000000E+00 0.  1.
          1    1    1    2  502    0  0.21167724940E+02 -0.42282819214E+02  0.43092655722E+02  0.63975670039E+02  0.00000000000E+00 0. -1.
         -1    1    1    2    0  501 -0.21167724940E+02  0.42282819214E+02  0.25410656237E+02  0.53680637386E+02  0.00000000000E+00 0.  1.
</event>
<event>
 4    1  0.7060698E+001  0.3254456E+02  0.7546771E-02  0.1398699E+00
          2   -1    0    0  502    0  0.00000000000E+00  0.00000000000E+00  0.38108290192E+04  0.38108290192E+04  0.00000000000E+00 0. -1.
         -2   -1    0    0    0  501 -0.00000000000E+00 -0.00000000000E+00 -0.29592793491E+00  0.29592793491E+00  0.00000000000E+00 0.  1.
          1    1    1    2  502    0 -0.29884223199E+02  0.12887252630E+02  0.14353424426E+04  0.14357113483E+04  0.00000000000E+00 0.  1.
         -1    1    1    2    0  501  0.29884223199E+02 -0.12887252630E+02  0.23751906486E+04  0.23754135988E+04  0.00000000000E+00 0. -1.
</event>
<event>
 4    1  0.7060698E+001  0.2076898E+02  0.7546771E-02  0.1522589E+00
          2   -1    0    0  502    0  0.00000000000E+00  0.00000000000E+00  0.55627380501E+03  0.55627380501E+03  0.00000000000E+00 0.  1.
         -2   -1    0    0    0  501 -0.00000000000E+00 -0.00000000000E+00 -0.77567328415E+00  0.77567328415E+00  0.00000000000E+00 0. -1.
          1    1    1    2  502    0 -0.15517471676E+02  0.13804290736E+02  0.27279772953E+03  0.27358719197E+03  0.00000000000E+00 0.  1.
         -1    1    1    2    0  501  0.15517471676E+02 -0.13804290736E+02  0.28270040219E+03  0.28346228633E+03  0.00000000000E+00 0. -1.
</event>
<event>
 4    1  0.7060698E+001  0.2994237E+02  0.7546771E-02  0.1420098E+00
          2   -1    0    0  502    0  0.00000000000E+00  0.00000000000E+00  0.31470728037E+03  0.31470728037E+03  0.00000000000E+00 0.  1.
         -2   -1    0    0    0  501 -0.00000000000E+00 -0.00000000000E+00 -0.28805369667E+01  0.28805369667E+01  0.00000000000E+00 0. -1.
          1    1    1    2  502    0  0.27995935831E+02  0.10619473165E+02  0.17257494401E+03  0.17515323844E+03  0.00000000000E+00 0.  1.
         -1    1    1    2    0  501 -0.27995935831E+02 -0.10619473165E+02  0.13925179939E+03  0.14243457890E+03  0.00000000000E+00 0. -1.
</event>
<event>
 4    1  0.7060698E+001  0.3580913E+02  0.7546771E-02  0.1374962E+00
          2   -1    0    0  502    0  0.00000000000E+00  0.00000000000E+00  0.13651695769E+02  0.13651695769E+02  0.00000000000E+00 0.  1.
         -2   -1    0    0    0  501 -0.00000000000E+00 -0.00000000000E+00 -0.10605917860E+03  0.10605917860E+03  0.00000000000E+00 0. -1.
          1    1    1    2  502    0 -0.34810723543E+02 -0.83968611799E+01 -0.66445970206E+02  0.75480863189E+02  0.00000000000E+00 0. -1.
         -1    1    1    2    0  501  0.34810723543E+02  0.83968611799E+01 -0.25961512629E+02  0.44230011183E+02  0.00000000000E+00 0.  1.
</event>
<event>
 4    1  0.7060698E+001  0.2050144E+02  0.7546771E-02  0.1526503E+00
          2   -1    0    0  502    0  0.00000000000E+00  0.00000000000E+00  0.23005468684E+03  0.23005468684E+03  0.00000000000E+00 0. -1.
         -2   -1    0    0    0  501 -0.00000000000E+00 -0.00000000000E+00 -0.26079843481E+01  0.26079843481E+01  0.00000000000E+00 0.  1.
          1    1    1    2  502    0 -0.20499385780E+02  0.29054602385E+00  0.17738328891E+03  0.17856410731E+03  0.00000000000E+00 0. -1.
         -1    1    1    2    0  501  0.20499385780E+02 -0.29054602385E+00  0.50063413583E+02  0.54098563880E+02  0.00000000000E+00 0.  1.
</event>
<event>
 4    1  0.7060698E+001  0.5084317E+02  0.7546771E-02  0.1294558E+00
          2   -1    0    0  502    0  0.00000000000E+00  0.00000000000E+00  0.66843427443E+03  0.66843427443E+03  0.00000000000E+00 0.  1.
         -2   -1    0    0    0  501 -0.00000000000E+00 -0.00000000000E+00 -0.38804865023E+01  0.38804865023E+01  0.00000000000E+00 0. -1.
          1    1    1    2  502    0 -0.32508883441E+02 -0.39092204366E+02  0.31267222497E+03  0.31677902110E+03  0.00000000000E+00 0. -1.
         -1    1    1    2    0  501  0.32508883441E+02  0.39092204366E+02  0.35188156296E+03  0.35553573983E+03  0.00000000000E+00 0.  1.
</event>
<event>
 4    1  0.7060698E+001  0.3403205E+02  0.7546771E-02  0.1387499E+00
          2   -1    0    0  502    0  0.00000000000E+00  0.00000000000E+00  0.31255103953E+01  0.31255103953E+01  0.00000000000E+00 0.  1.
         -2   -1    0    0    0  501 -0.00000000000E+00 -0.00000000000E+00 -0.40094256163E+03  0.40094256163E+03  0.00000000000E+00 0. -1.
          1    1    1    2  502    0  0.11335295867E+02 -0.32088804685E+02 -0.14329046946E+03  0.14727640325E+03  0.00000000000E+00 0. -1.
         -1    1    1    2    0  501 -0.11335295867E+02  0.32088804685E+02 -0.25452658178E+03  0.25679166877E+03  0.00000000000E+00 0.  1.
</event>
<event>
 4    1  0.7060698E+001  0.3582600E+02  0.7546771E-02  0.1374847E+00
          2   -1    0    0  502    0  0.00000000000E+00  0.00000000000E+00  0.15400127222E+03  0.15400127222E+03  0.00000000000E+00 0.  1.
         -2   -1    0    0    0  501 -0.00000000000E+00 -0.00000000000E+00 -0.83368295422E+01  0.83368295422E+01  0.00000000000E+00 0. -1.
          1    1    1    2  502    0  0.35740145439E+02  0.24787355337E+01  0.71435367462E+02  0.79915667114E+02  0.00000000000E+00 0.  1.
         -1    1    1    2    0  501 -0.35740145439E+02 -0.24787355337E+01  0.74229075212E+02  0.82422434645E+02  0.00000000000E+00 0. -1.
</event>
<event>
 4    1  0.7060698E+001  0.6527776E+02  0.7546771E-02  0.1242883E+00
          2   -1    0    0  502    0  0.00000000000E+00  0.00000000000E+00  0.22190100959E+03  0.22190100959E+03  0.00000000000E+00 0. -1.
         -2   -1    0    0    0  501 -0.00000000000E+00 -0.00000000000E+00 -0.20073093300E+02  0.20073093300E+02  0.00000000000E+00 0.  1.
          1    1    1    2  502    0  0.64166410515E+02  0.11994080136E+02  0.75726119030E+02  0.99978154114E+02  0.00000000000E+00 0.  1.
         -1    1    1    2    0  501 -0.64166410515E+02 -0.11994080136E+02  0.12610179726E+03  0.14199594877E+03  0.00000000000E+00 0. -1.
</event>
<event>
 4    1  0.7060698E+001  0.2801670E+02  0.7546771E-02  0.1437654E+00
          2   -1    0    0  502    0  0.00000000000E+00  0.00000000000E+00  0.34925022598E+03  0.34925022598E+03  0.00000000000E+00 0. -1.
         -2   -1    0    0    0  501 -0.00000000000E+00 -0.00000000000E+00 -0.23334937454E+01  0.23334937454E+01  0.00000000000E+00 0.  1.
          1    1    1    2  502    0  0.11642109858E+02 -0.25483258980E+02  0.20720750179E+03  0.20909300325E+03  0.00000000000E+00 0. -1.
         -1    1    1    2    0  501 -0.11642109858E+02  0.25483258980E+02  0.13970923045E+03  0.14249071648E+03  0.00000000000E+00 0.  1.
</event>
<event>
 4    1  0.7060698E+001  0.2288752E+02  0.7546771E-02  0.1493915E+00
          2   -1    0    0  502    0  0.00000000000E+00  0.00000000000E+00  0.88320358967E+02  0.88320358967E+02  0.00000000000E+00 0. -1.
         -2   -1    0    0    0  501 -0.00000000000E+00 -0.00000000000E+00 -0.85377757086E+01  0.85377757086E+01  0.00000000000E+00 0.  1.
          1    1    1    2  502    0 -0.75963674201E+01  0.21590131833E+02  0.13131937647E+02  0.26387238903E+02  0.00000000000E+00 0.  1.
         -1    1    1    2    0  501  0.75963674201E+01 -0.21590131833E+02  0.66650645611E+02  0.70470895772E+02  0.00000000000E+00 0. -1.
</event>
<event>
 4    1  0.7060698E+001  0.2008172E+02  0.7546771E-02  0.1532790E+00
          2   -1    0    0  502    0  0.00000000000E+00  0.00000000000E+00  0.17306017051E+03  0.17306017051E+03  0.00000000000E+00 0.  1.
         -2   -1    0    0    0  501 -0.00000000000E+00 -0.00000000000E+00 -0.23537599007E+01  0.23537599007E+01  0.00000000000E+00 0. -1.
          1    1    1    2  502    0 -0.54082478054E+01 -0.19339756917E+02  0.76589695809E+02  0.79178638824E+02  0.00000000000E+00 0. -1.
         -1    1    1    2    0  501  0.54082478054E+01  0.19339756917E+02  0.94116714801E+02  0.96235291587E+02  0.00000000000E+00 0.  1.
</event>
<event>
 4    1  0.7060698E+001  0.2636167E+02  0.7546771E-02  0.1454128E+00
          2   -1    0    0  502    0  0.00000000000E+00  0.00000000000E+00  0.56328600505E+02  0.56328600505E+02  0.00000000000E+00 0. -1.
         -2   -1    0    0    0  501 -0.00000000000E+00 -0.00000000000E+00 -0.12757078012E+02  0.12757078012E+02  0.00000000000E+00 0.  1.
          1    1    1    2  502    0  0.17258170500E+02  0.19927202373E+02  0.15519071734E+02  0.30590512106E+02  0.00000000000E+00 0.  1.
         -1    1    1    2    0  501 -0.17258170500E+02 -0.19927202373E+02  0.28052450759E+02  0.38495166411E+02  0.00000000000E+00 0. -1.
</event>
<event>
 4    1  0.7060698E+001  0.2997376E+02  0.7546771E-02  0.1419825E+00
          2   -1    0    0  502    0  0.00000000000E+00  0.00000000000E+00  0.73916041380E+03  0.73916041380E+03  0.00000000000E+00 0. -1.
         -2   -1    0    0    0  501 -0.00000000000E+00 -0.00000000000E+00 -0.12323311016E+01  0.12323311016E+01  0.00000000000E+00 0.  1.
          1    1    1    2  502    0 -0.29913074671E+02  0.19063264629E+01  0.32565962574E+03  0.32703611108E+03  0.00000000000E+00 0. -1.
         -1    1    1    2    0  501  0.29913074671E+02 -0.19063264629E+01  0.41226845696E+03  0.41335663382E+03  0.00000000000E+00 0.  1.
</event>
<event>
 4    1  0.7060698E+001  0.2050190E+02  0.7546771E-02  0.1526497E+00
          2   -1    0    0  502    0  0.00000000000E+00  0.00000000000E+00  0.11901985117E+03  0.11901985117E+03  0.00000000000E+00 0.  1.
         -2   -1    0    0    0  501 -0.00000000000E+00 -0.00000000000E+00 -0.37813986778E+01  0.37813986778E+01  0.00000000000E+00 0. -1.
          1    1    1    2  502    0 -0.19376002732E+02  0.67006211172E+01  0.73401201309E+02  0.76210656464E+02  0.00000000000E+00 0.  1.
         -1    1    1    2    0  501  0.19376002732E+02 -0.67006211172E+01  0.41837251186E+02  0.46590593385E+02  0.00000000000E+00 0. -1.
</event>
<event>
 4    1  0.7060698E+001  0.2413003E+02  0.7546771E-02  0.1478776E+00
          2   -1    0    0  502    0  0.00000000000E+00  0.00000000000E+00  0.97710715782E+01  0.97710715782E+01  0.00000000000E+00 0. -1.
         -2   -1    0    0    0  501 -0.00000000000E+00 -0.00000000000E+00 -0.12654082058E+03  0.12654082058E+03  0.00000000000E+00 0.  1.
          1    1    1    2  502    0 -0.16770628539E+02  0.17349482345E+02 -0.88094708693E+01  0.25687843355E+02  0.00000000000E+00 0. -1.
         -1    1    1    2    0  501  0.16770628539E+02 -0.17349482345E+02 -0.10796027814E+03  0.11062404881E+03  0.00000000000E+00 0.  1.
</event>
<event>
 4    1  0.7060698E+001  0.2183558E+02  0.7546771E-02  0.1507661E+00
          2   -1    0    0  502    0  0.00000000000E+00  0.00000000000E+00  0.43024579454E+03  0.43024579454E+03  0.00000000000E+00 0. -1.
         -2   -1    0    0    0  501 -0.00000000000E+00 -0.00000000000E+00 -0.15172955332E+01  0.15172955332E+01  0.00000000000E+00 0.  1.
          1    1    1    2  502    0  0.50990748431E+01  0.21231857592E+02  0.32646286755E+03  0.32719229243E+03  0.00000000000E+00 0. -1.
         -1    1    1    2    0  501 -0.50990748431E+01 -0.21231857592E+02  0.10226563146E+03  0.10457079764E+03  0.00000000000E+00 0.  1.
</event>
<event>
 4    1  0.7060698E+001  0.3261273E+02  0.7546771E-02  0.1398171E+00
          2   -1    0    0  502    0  0.00000000000E+00  0.00000000000E+00  0.65318711390E+03  0.65318711390E+03  0.00000000000E+00 0. -1.
         -2   -1    0    0    0  501 -0.00000000000E+00 -0.00000000000E+00 -0.82795336796E+01  0.82795336796E+01  0.00000000000E+00 0.  1.
          1    1    1    2  502    0 -0.11436606728E+02  0.30541675022E+02  0.61888631603E+03  0.61974499761E+03  0.00000000000E+00 0. -1.
         -1    1    1    2    0  501  0.11436606728E+02 -0.30541675022E+02  0.26021264190E+02  0.41721649975E+02  0.00000000000E+00 0.  1.
</event>
<event>
 4    1  0.7060698E+001  0.2393591E+02  0.7546771E-02  0.1481069E+00
          2   -1    0    0  502    0  0.00000000000E+00  0.00000000000E+00  0.42040123943E+01  0.42040123943E+01  0.00000000000E+00 0.  1.
         -2   -1    0    0    0  501 -0.00000000000E+00 -0.00000000000E+00 -0.14322361323E+03  0.14322361323E+03  0.00000000000E+00 0. -1.
          1    1    1    2  502    0 -0.80237816552E+01  0.22550982243E+02 -0.85738983396E+02  0.89017420464E+02  0.00000000000E+00 0. -1.
         -1    1    1    2    0  501  0.80237816552E+01 -0.22550982243E+02 -0.53280617435E+02  0.58410205156E+02  0.00000000000E+00 0.  1.
</event>
<event>
 4    1  0.7060698E+001  0.3019135E+02  0.7546771E-02  0.1417941E+00
          2   -1    0    0  502    0  0.00000000000E+00  0.00000000000E+00  0.56103816747E+03  0.56103816747E+03  0.00000000000E+00 0. -1.
         -2   -1    0    0    0  501 -0.00000000000E+00 -0.00000000000E+00 -0.38399345851E+01  0.38399345851E+01  0.00000000000E+00 0.  1.
          1    1    1    2  502    0 -0.28106302876E+02 -0.11025116369E+02  0.49312164735E+03  0.49404501468E+03  0.00000000000E+00 0. -1.
         -1    1    1    2    0  501  0.28106302876E+02  0.11025116369E+02  0.64076585541E+02  0.70833087374E+02  0.00000000000E+00 0.  1.
</event>
<event>
 4    1  0.7060698E+001  0.3431689E+02  0.7546771E-02  0.1385430E+00
          2   -1    0    0  502    0  0.00000000000E+00  0.00000000000E+00  0.33896178563E+02  0.33896178563E+02  0.00000000000E+00 0.  1.
         -2   -1    0    0    0  501 -0.00000000000E+00 -0.00000000000E+00 -0.47378067948E+02  0.47378067948E+02  0.00000000000E+00 0. -1.
          1    1    1    2  502    0  0.26933001288E+02 -0.21266463317E+02 -0.27726770857E+02  0.44118282407E+02  0.00000000000E+00 0. -1.
         -1    1    1    2    0  501 -0.26933001288E+02  0.21266463317E+02  0.14244881471E+02  0.37155964104E+02  0.00000000000E+00 0.  1.
</event>
<event>
 4    1  0.7060698E+001  0.4253390E+02  0.7546771E-02  0.1334244E+00
          2   -1    0    0  502    0  0.00000000000E+00  0.00000000000E+00  0.54417358590E+03  0.54417358590E+03  0.00000000000E+00 0. -1.
         -2   -1    0    0    0  501 -0.00000000000E+00 -0.00000000000E+00 -0.41391651594E+01  0.41391651594E+01  0.00000000000E+00 0.  1.
          1    1    1    2  502    0  0.22806197865E+02 -0.35902788924E+02  0.14839359394E+03  0.15436901125E+03  0.00000000000E+00 0.  1.
         -1    1    1    2    0  501 -0.22806197865E+02  0.35902788924E+02  0.39164082680E+03  0.39394373980E+03  0.00000000000E+00 0. -1.
</event>
<event>
 4    1  0.7060698E+001  0.2231133E+02  0.7546771E-02  0.1501332E+00
          2   -1    0    0  502    0  0.00000000000E+00  0.00000000000E+00  0.98490950940E+03  0.98490950940E+03  0.00000000000E+00 0. -1.
         -2   -1    0    0    0  501 -0.00000000000E+00 -0.00000000000E+00 -0.51471498761E+00  0.51471498761E+00  0.00000000000E+00 0.  1.
          1    1    1    2  502    0  0.16679213626E+02  0.14818876673E+02  0.42599412317E+03  0.42657799785E+03  0.00000000000E+00 0.  1.
         -1    1    1    2    0  501 -0.16679213626E+02 -0.14818876673E+02  0.55840067124E+03  0.55884622654E+03  0.00000000000E+00 0. -1.
</event>
<event>
 4    1  0.7060698E+001  0.2257945E+02  0.7546771E-02  0.1497848E+00
          2   -1    0    0  502    0  0.00000000000E+00  0.00000000000E+00  0.85557498476E+02  0.85557498476E+02  0.00000000000E+00 0. -1.
         -2   -1    0    0    0  501 -0.00000000000E+00 -0.00000000000E+00 -0.73578469314E+01  0.73578469314E+01  0.00000000000E+00 0.  1.
          1    1    1    2  502    0  0.10447746236E+02  0.20016897425E+02  0.59356924350E+02  0.63506504015E+02  0.00000000000E+00 0. -1.
         -1    1    1    2    0  501 -0.10447746236E+02 -0.20016897425E+02  0.18842727195E+02  0.29408841393E+02  0.00000000000E+00 0.  1.
</event>
<event>
 4    1  0.7060698E+001  0.2051681E+02  0.7546771E-02  0.1526277E+00
          2   -1    0    0  502    0  0.00000000000E+00  0.00000000000E+00  0.17465320816E+04  0.17465320816E+04  0.00000000000E+00 0. -1.
         -2   -1    0    0    0  501 -0.00000000000E+00 -0.00000000000E+00 -0.25411226834E+00  0.25411226834E+00  0.00000000000E+00 0.  1.
          1    1    1    2  502    0  0.53983331211E+01 -0.19793877419E+02  0.67485148749E+03  0.67516329117E+03  0.00000000000E+00 0.  1.
         -1    1    1    2    0  501 -0.53983331211E+01  0.19793877419E+02  0.10714264818E+04  0.10716229027E+04  0.00000000000E+00 0. -1.
</event>
<event>
 4    1  0.7060698E+001  0.4838187E+02  0.7546771E-02  0.1305345E+00
          2   -1    0    0  502    0  0.00000000000E+00  0.00000000000E+00  0.48463209499E+02  0.48463209499E+02  0.00000000000E+00 0.  1.
         -2   -1    0    0    0  501 -0.00000000000E+00 -0.00000000000E+00 -0.11837251140E+03  0.11837251140E+03  0.00000000000E+00 0. -1.
          1    1    1    2  502    0 -0.40405009387E+02  0.26612784806E+02 -0.99135492290E+02  0.11031160832E+03  0.00000000000E+00 0. -1.
         -1    1    1    2    0  501  0.40405009387E+02 -0.26612784806E+02  0.29226190386E+02  0.56524112582E+02  0.00000000000E+00 0.  1.
</event>
<event>
 4    1  0.7060698E+001  0.2101483E+02  0.7546771E-02  0.1519053E+00
          2   -1    0    0  502    0  0.00000000000E+00  0.00000000000E+00  0.15600447264E+04  0.15600447264E+04  0.00000000000E+00 0.  1.
         -2   -1    0    0    0  501 -0.00000000000E+00 -0.00000000000E+00 -0.16135144263E+01  0.16135144263E+01  0.00000000000E+00 0. -1.
          1    1    1    2  502    0 -0.64941789825E+01 -0.19986214992E+02  0.14882474116E+04  0.14883957744E+04  0.00000000000E+00 0.  1.
         -1    1    1    2    0  501  0.64941789825E+01  0.19986214992E+02  0.70183800370E+02  0.73262466411E+02  0.00000000000E+00 0. -1.
</event>
<event>
 4    1  0.7060698E+001  0.2325291E+02  0.7546771E-02  0.1489347E+00
          2   -1    0    0  502    0  0.00000000000E+00  0.00000000000E+00  0.58978588114E+03  0.58978588114E+03  0.00000000000E+00 0.  1.
         -2   -1    0    0    0  501 -0.00000000000E+00 -0.00000000000E+00 -0.95444791023E+00  0.95444791023E+00  0.00000000000E+00 0. -1.
          1    1    1    2  502    0  0.15868955563E+02 -0.16996298083E+02  0.35310177207E+03  0.35386658410E+03  0.00000000000E+00 0. -1.
         -1    1    1    2    0  501 -0.15868955563E+02  0.16996298083E+02  0.23572966115E+03  0.23687374495E+03  0.00000000000E+00 0.  1.
</event>
<event>
 4    1  0.7060698E+001  0.2969622E+02  0.7546771E-02  0.1422255E+00
          2   -1    0    0  502    0  0.00000000000E+00  0.00000000000E+00  0.53608064690E+01  0.53608064690E+01  0.00000000000E+00 0.  1.
         -2   -1    0    0    0  501 -0.00000000000E+00 -0.00000000000E+00 -0.17355907807E+03  0.17355907807E+03  0.00000000000E+00 0. -1.
          1    1    1    2  502    0 -0.25077027111E+02  0.15906227747E+02 -0.63663407110E+02  0.70248806216E+02  0.00000000000E+00 0.  1.
         -1    1    1    2    0  501  0.25077027111E+02 -0.15906227747E+02 -0.10453486449E+03  0.10867107832E+03  0.00000000000E+00 0. -1.
</event>
<event>
 4    1  0.7060698E+001  0.2109026E+02  0.7546771E-02  0.1517980E+00
          2   -1    0    0  502    0  0.00000000000E+00  0.00000000000E+00  0.50325476269E+03  0.50325476269E+03  0.00000000000E+00 0.  1.
         -2   -1    0    0    0  501 -0.00000000000E+00 -0.00000000000E+00 -0.14602722996E+01  0.14602722996E+01  0.00000000000E+00 0. -1.
          1    1    1    2  502    0  0.43767885348E+01 -0.20631110053E+02  0.92345231403E+02  0.94722968401E+02  0.00000000000E+00 0. -1.
         -1    1    1    2    0  501 -0.43767885348E+01  0.20631110053E+02  0.40944925898E+03  0.40999206658E+03  0.00000000000E+00 0.  1.
</event>
<event>
 4    1  0.7060698E+001  0.2663875E+02  0.7546771E-02  0.1451271E+00
          2   -1    0    0  502    0  0.00000000000E+00  0.00000000000E+00  0.17071264097E+01  0.17071264097E+01  0.00000000000E+00 0. -1.
         -2   -1    0    0    0  501 -0.00000000000E+00 -0.00000000000E+00 -0.75270889287E+03  0.75270889287E+03  0.00000000000E+00 0.  1.
          1    1    1    2  502    0  0.24052621837E+02 -0.11449654118E+02 -0.62790655143E+03  0.62847136810E+03  0.00000000000E+00 0.  1.
         -1    1    1    2    0  501 -0.24052621837E+02  0.11449654118E+02 -0.12309521504E+03  0.12594465118E+03  0.00000000000E+00 0. -1.
</event>
<event>
 4    1  0.7060698E+001  0.2167401E+02  0.7546771E-02  0.1509855E+00
          2   -1    0    0  502    0  0.00000000000E+00  0.00000000000E+00  0.32040756924E+03  0.32040756924E+03  0.00000000000E+00 0.  1.
         -2   -1    0    0    0  501 -0.00000000000E+00 -0.00000000000E+00 -0.24148382745E+01  0.24148382745E+01  0.00000000000E+00 0. -1.
          1    1    1    2  502    0  0.21195712224E+02  0.45282095734E+01  0.57826000450E+02  0.61754426778E+02  0.00000000000E+00 0. -1.
         -1    1    1    2    0  501 -0.21195712224E+02 -0.45282095734E+01  0.26016673052E+03  0.26106798074E+03  0.00000000000E+00 0.  1.
</event>
<event>
 4    1  0.7060698E+001  0.2272372E+02  0.7546771E-02  0.1495997E+00
          2   -1    0    0  502    0  0.00000000000E+00  0.00000000000E+00  0.13310659283E+01  0.13310659283E+01  0.00000000000E+00 0.  1.
         -2   -1    0    0    0  501 -0.00000000000E+00 -0.00000000000E+00 -0.51377236845E+03  0.51377236845E+03  0.00000000000E+00 0. -1.
          1    1    1    2  502    0 -0.12947704482E+02 -0.18674164960E+02 -0.38368341701E+03  0.38435573624E+03  0.00000000000E+00 0. -1.
         -1    1    1    2    0  501  0.12947704482E+02  0.18674164960E+02 -0.12875788551E+03  0.13074769814E+03  0.00000000000E+00 0.  1.
</event>
<event>
 4    1  0.7060698E+001  0.2210614E+02  0.7546771E-02  0.1504038E+00
          2   -1    0    0  502    0  0.00000000000E+00  0.00000000000E+00  0.15112400220E+04  0.15112400220E+04  0.00000000000E+00 0.  1.
         -2   -1    0    0    0  501 -0.00000000000E+00 -0.00000000000E+00 -0.55683569859E+00  0.55683569859E+00  0.00000000000E+00 0. -1.
          1    1    1    2  502    0  0.14621094504E+01 -0.22057736639E+02  0.12448007758E+04  0.12449970494E+04  0.00000000000E+00 0.  1.
         -1    1    1    2    0  501 -0.14621094504E+01  0.22057736639E+02  0.26588241049E+03  0.26679980832E+03  0.00000000000E+00 0. -1.
</event>
<event>
 4    1  0.7060698E+001  0.2229410E+02  0.7546771E-02  0.1501558E+00
          2   -1    0    0  502    0  0.00000000000E+00  0.00000000000E+00  0.48336055346E+01  0.48336055346E+01  0.00000000000E+00 0.  1.
         -2   -1    0    0    0  501 -0.00000000000E+00 -0.00000000000E+00 -0.16138916829E+03  0.16138916829E+03  0.00000000000E+00 0. -1.
          1    1    1    2  502    0 -0.21986321994E+02 -0.36916615397E+01 -0.28213185756E+02  0.35958456172E+02  0.00000000000E+00 0.  1.
         -1    1    1    2    0  501  0.21986321994E+02  0.36916615397E+01 -0.12834237700E+03  0.13026431765E+03  0.00000000000E+00 0. -1.
</event>
<event>
 4    1  0.7060698E+001  0.3827616E+02  0.7546771E-02  0.1358895E+00
          2   -1    0    0  502    0  0.00000000000E+00  0.00000000000E+00  0.11426826022E+04  0.11426826022E+04  0.00000000000E+00 0.  1.
         -2   -1    0    0    0  501 -0.00000000000E+00 -0.00000000000E+00 -0.18493596976E+01  0.18493596976E+01  0.00000000000E+00 0. -1.
          1    1    1    2  502    0  0.16430853189E+02 -0.34570091061E+02  0.25348330719E+03  0.25635688240E+03  0.00000000000E+00 0. -1.
         -1    1    1    2    0  501 -0.16430853189E+02  0.34570091061E+02  0.88734993531E+03  0.88817507949E+03  0.00000000000E+00 0.  1.
</event>
<event>
 4    1  0.7060698E+001  0.3261483E+02  0.7546771E-02  0.1398155E+00
          2   -1    0    0  502    0  0.00000000000E+00  0.00000000000E+00  0.12002251154E+04  0.12002251154E+04  0.00000000000E+00 0. -1.
         -2   -1    0    0    0  501 -0.00000000000E+00 -0.00000000000E+00 -0.10113581700E+01  0.10113581700E+01  0.00000000000E+00 0.  1.
          1    1    1    2  502    0 -0.28761021705E+02 -0.15379555717E+02  0.38838011375E+03  0.38974714863E+03  0.00000000000E+00 0.  1.
         -1    1    1    2    0  501  0.28761021705E+02  0.15379555717E+02  0.81083364352E+03  0.81148932499E+03  0.00000000000E+00 0. -1.
</event>
<event>
 4    1  0.7060698E+001  0.2511743E+02  0.7546771E-02  0.1467494E+00
          2   -1    0    0  502    0  0.00000000000E+00  0.00000000000E+00  0.23241035684E+02  0.23241035684E+02  0.00000000000E+00 0.  1.
         -2   -1    0    0    0  501 -0.00000000000E+00 -0.00000000000E+00 -0.31507030176E+02  0.31507030176E+02  0.00000000000E+00 0. -1.
          1    1    1    2  502    0 -0.25003078665E+02 -0.23939809495E+01 -0.14318067220E+02  0.28911799260E+02  0.00000000000E+00 0. -1.
         -1    1    1    2    0  501  0.25003078665E+02  0.23939809495E+01  0.60520727281E+01  0.25836266600E+02  0.00000000000E+00 0.  1.
</event>
<event>
 4    1  0.7060698E+001  0.2385191E+02  0.7546771E-02  0.1482069E+00
          2   -1    0    0  502    0  0.00000000000E+00  0.00000000000E+00  0.12049515030E+02  0.12049515030E+02  0.00000000000E+00 0. -1.
         -2   -1    0    0    0  501 -0.00000000000E+00 -0.00000000000E+00 -0.78343965759E+02  0.78343965759E+02  0.00000000000E+00 0.  1.
          1    1    1    2  502    0 -0.20153675673E+02  0.12757078215E+02 -0.46574453804E+01  0.24302376122E+02  0.00000000000E+00 0.  1.
         -1    1    1    2    0  501  0.20153675673E+02 -0.12757078215E+02 -0.61637005349E+02  0.66091104667E+02  0.00000000000E+00 0. -1.
</event>
<event>
 4    1  0.7060698E+001  0.3727995E+02  0.7546771E-02  0.1365207E+00
          2   -1    0    0  502    0  0.00000000000E+00  0.00000000000E+00  0.15932899572E+03  0.15932899572E+03  0.00000000000E+00 0. -1.
         -2   -1    0    0    0  501 -0.00000000000E+00 -0.00000000000E+00 -0.11996833898E+02  0.11996833898E+02  0.00000000000E+00 0.  1.
          1    1    1    2  502    0  0.10355757948E+02  0.35812753070E+02  0.11841691079E+03  0.12414652539E+03  0.00000000000E+00 0. -1.
         -1    1    1    2    0  501 -0.10355757948E+02 -0.35812753070E+02  0.28915251027E+02  0.47179304225E+02  0.00000000000E+00 0.  1.
</event>
<event>
 4    1  0.7060698E+001  0.2169091E+02  0.7546771E-02  0.1509625E+00
          2   -1    0    0  502    0  0.00000000000E+00  0.00000000000E+00  0.13546168825E+04  0.13546168825E+04  0.00000000000E+00 0.  1.
         -2   -1    0    0    0  501 -0.00000000000E+00 -0.00000000000E+00 -0.41884344058E+00  0.41884344058E+00  0.00000000000E+00 0. -1.
          1    1    1    2  502    0 -0.55330972037E+01  0.20973322438E+02  0.39713840508E+03  0.39773032096E+03  0.00000000000E+00 0. -1.
         -1    1    1    2    0  501  0.55330972037E+01 -0.20973322438E+02  0.95705963400E+03  0.95730540501E+03  0.00000000000E+00 0.  1.
</event>
<event>
 4    1  0.7060698E+001  0.2676863E+02  0.7546771E-02  0.1449946E+00
          2   -1    0    0  502    0  0.00000000000E+00  0.00000000000E+00  0.80292248036E+03  0.80292248036E+03  0.00000000000E+00 0. -1.
         -2   -1    0    0    0  501 -0.00000000000E+00 -0.00000000000E+00 -0.89645222455E+00  0.89645222455E+00  0.00000000000E+00 0.  1.
          1    1    1    2  502    0  0.26575553913E+01 -0.26636380492E+02  0.42790415992E+03  0.42874063190E+03  0.00000000000E+00 0.  1.
         -1    1    1    2    0  501 -0.26575553913E+01  0.26636380492E+02  0.37412186822E+03  0.37507830068E+03  0.00000000000E+00 0. -1.
</event>
<event>
 4    1  0.7060698E+001  0.2051730E+02  0.7546771E-02  0.1526269E+00
          2   -1    0    0  502    0  0.00000000000E+00  0.00000000000E+00  0.10690838235E+03  0.10690838235E+03  0.00000000000E+00 0.  1.
         -2   -1    0    0    0  501 -0.00000000000E+00 -0.00000000000E+00 -0.49707735518E+01  0.49707735518E+01  0.00000000000E+00 0. -1.
          1    1    1    2  502    0 -0.27918481150E+01  0.20326463729E+02  0.76472290137E+02  0.79176831854E+02  0.00000000000E+00 0.  1.
         -1    1    1    2    0  501  0.27918481150E+01 -0.20326463729E+02  0.25465318663E+02  0.32702324049E+02  0.00000000000E+00 0. -1.
</event>
<event>
 4    1  0.7060698E+001  0.2337406E+02  0.7546771E-02  0.1487854E+00
          2   -1    0    0  502    0  0.00000000000E+00  0.00000000000E+00  0.15799187893E+03  0.15799187893E+03  0.00000000000E+00 0. -1.
         -2   -1    0    0    0  501 -0.00000000000E+00 -0.00000000000E+00 -0.34649166386E+01  0.34649166386E+01  0.00000000000E+00 0.  1.
          1    1    1    2  502    0  0.11438490838E+02  0.20384007116E+02  0.80852290226E+02  0.84163172787E+02  0.00000000000E+00 0. -1.
         -1    1    1    2    0  501 -0.11438490838E+02 -0.20384007116E+02  0.73674672063E+02  0.77293622780E+02  0.00000000000E+00 0.  1.
</event>
<event>
 4    1  0.7060698E+001  0.2056206E+02  0.7546771E-02  0.1525610E+00
          2   -1    0    0  502    0  0.00000000000E+00  0.00000000000E+00  0.84177090300E+03  0.84177090300E+03  0.00000000000E+00 0.  1.
         -2   -1    0    0    0  501 -0.00000000000E+00 -0.00000000000E+00 -0.90291647162E+00  0.90291647162E+00  0.00000000000E+00 0. -1.
          1    1    1    2  502    0 -0.20051490931E+02 -0.45536683279E+01  0.13977100324E+03  0.14127537482E+03  0.00000000000E+00 0. -1.
         -1    1    1    2    0  501  0.20051490931E+02  0.45536683279E+01  0.70109698329E+03  0.70139844466E+03  0.00000000000E+00 0.  1.
</event>
<event>
 4    1  0.7060698E+001  0.2099178E+02  0.7546771E-02  0.1519382E+00
          2   -1    0    0  502    0  0.00000000000E+00  0.00000000000E+00  0.43413989098E+00  0.43413989098E+00  0.00000000000E+00 0.  1.
         -2   -1    0    0    0  501 -0.00000000000E+00 -0.00000000000E+00 -0.11379433901E+04  0.11379433901E+04  0.00000000000E+00 0. -1.
          1    1    1    2  502    0 -0.20198958699E+02  0.57146051579E+01 -0.38167013716E+03  0.38224697284E+03  0.00000000000E+00 0.  1.
         -1    1    1    2    0  501  0.20198958699E+02 -0.57146051579E+01 -0.75583911307E+03  0.75613055718E+03  0.00000000000E+00 0. -1.
</event>
<event>
 4    1  0.7060698E+001  0.2809302E+02  0.7546771E-02  0.1436927E+00
          2   -1    0    0  502    0  0.00000000000E+00  0.00000000000E+00  0.33684539987E+04  0.33684539987E+04  0.00000000000E+00 0. -1.
         -2   -1    0    0    0  501 -0.00000000000E+00 -0.00000000000E+00 -0.24237835609E+00  0.24237835609E+00  0.00000000000E+00 0.  1.
          1    1    1    2  502    0 -0.26808647564E+02  0.83972671140E+01  0.19916694228E+04  0.19918675426E+04  0.00000000000E+00 0.  1.
         -1    1    1    2    0  501  0.26808647564E+02 -0.83972671140E+01  0.13765421976E+04  0.13768288345E+04  0.00000000000E+00 0. -1.
</event>
<event>
 4    1  0.7060698E+001  0.2386957E+02  0.7546771E-02  0.1481858E+00
          2   -1    0    0  502    0  0.00000000000E+00  0.00000000000E+00  0.41080468924E+01  0.41080468924E+01  0.00000000000E+00 0.  1.
         -2   -1    0    0    0  501 -0.00000000000E+00 -0.00000000000E+00 -0.26229888703E+03  0.26229888703E+03  0.00000000000E+00 0. -1.
          1    1    1    2  502    0  0.90477347648E+01  0.22088343091E+02 -0.37655195147E+02  0.44583294252E+02  0.00000000000E+00 0.  1.
         -1    1    1    2    0  501 -0.90477347648E+01 -0.22088343091E+02 -0.22053564500E+03  0.22182363967E+03  0.00000000000E+00 0. -1.
</event>
<event>
 4    1  0.7060698E+001  0.2016843E+02  0.7546771E-02  0.1531476E+00
          2   -1    0    0  502    0  0.00000000000E+00  0.00000000000E+00  0.38191240353E+01  0.38191240353E+01  0.00000000000E+00 0. -1.
         -2   -1    0    0    0  501 -0.00000000000E+00 -0.00000000000E+00 -0.16863465319E+03  0.16863465319E+03  0.00000000000E+00 0.  1.
          1    1    1    2  502    0  0.95809677393E+01 -0.17747416562E+02 -0.30070661685E+02  0.36207878032E+02  0.00000000000E+00 0. -1.
         -1    1    1    2    0  501 -0.95809677393E+01  0.17747416562E+02 -0.13474486747E+03  0.13624589919E+03  0.00000000000E+00 0.  1.
</event>
<event>
 4    1  0.7060698E+001  0.2019015E+02  0.7546771E-02  0.1531149E+00
          2   -1    0    0  502    0  0.00000000000E+00  0.00000000000E+00  0.58323956382E+02  0.58323956382E+02  0.00000000000E+00 0. -1.
         -2   -1    0    0    0  501 -0.00000000000E+00 -0.00000000000E+00 -0.70065249339E+01  0.70065249339E+01  0.00000000000E+00 0.  1.
          1    1    1    2  502    0  0.23961993618E+01 -0.20047453209E+02  0.27279526371E+02  0.33938395816E+02  0.00000000000E+00 0. -1.
         -1    1    1    2    0  501 -0.23961993618E+01  0.20047453209E+02  0.24037905077E+02  0.31392085500E+02  0.00000000000E+00 0.  1.
</event>
<event>
 4    1  0.7060698E+001  0.3130956E+02  0.7546771E-02  0.1408548E+00
          2   -1    0    0  502    0  0.00000000000E+00  0.00000000000E+00  0.71100567412E+03  0.71100567412E+03  0.00000000000E+00 0.  1.
         -2   -1    0    0    0  501 -0.00000000000E+00 -0.00000000000E+00 -0.15310839341E+01  0.15310839341E+01  0.00000000000E+00 0. -1.
          1    1    1    2  502    0 -0.30845223738E+02  0.53721968377E+01  0.46711952680E+03  0.46816764160E+03  0.00000000000E+00 0.  1.
         -1    1    1    2    0  501  0.30845223738E+02 -0.53721968377E+01  0.24235506339E+03  0.24436911645E+03  0.00000000000E+00 0. -1.
</event>
<event>
 4    1  0.7060698E+001  0.3618088E+02  0.7546771E-02  0.1372446E+00
          2   -1    0    0  502    0  0.00000000000E+00  0.00000000000E+00  0.31608849604E+02  0.31608849604E+02  0.00000000000E+00 0.  1.
         -2   -1    0    0    0  501 -0.00000000000E+00 -0.00000000000E+00 -0.44387424997E+02  0.44387424997E+02  0.00000000000E+00 0. -1.
          1    1    1    2  502    0  0.35458792089E+02  0.71923563174E+01 -0.16223613390E+02  0.39651753520E+02  0.00000000000E+00 0.  1.
         -1    1    1    2    0  501 -0.35458792089E+02 -0.71923563174E+01  0.34450379982E+01  0.36344521081E+02  0.00000000000E+00 0. -1.
</event>
<event>
 4    1  0.7060698E+001  0.7828502E+02  0.7546771E-02  0.1207886E+00
          2   -1    0    0  502    0  0.00000000000E+00  0.00000000000E+00  0.15099966108E+04  0.15099966108E+04  0.00000000000E+00 0.  1.
         -2   -1    0    0    0  501 -0.00000000000E+00 -0.00000000000E+00 -0.51051006259E+01  0.51051006259E+01  0.00000000000E+00 0. -1.
          1    1    1    2  502    0  0.22075528344E+02  0.75108020930E+02  0.40946515306E+03  0.41688158430E+03  0.00000000000E+00 0. -1.
         -1    1    1    2    0  501 -0.22075528344E+02 -0.75108020930E+02  0.10954263571E+04  0.10982201272E+04  0.00000000000E+00 0.  1.
</event>
<event>
 4    1  0.7060698E+001  0.3590821E+02  0.7546771E-02  0.1374288E+00
          2   -1    0    0  502    0  0.00000000000E+00  0.00000000000E+00  0.46511486659E+03  0.46511486659E+03  0.00000000000E+00 0.  1.
         -2   -1    0    0    0  501 -0.00000000000E+00 -0.00000000000E+00 -0.41017441493E+01  0.41017441493E+01  0.00000000000E+00 0. -1.
          1    1    1    2  502    0  0.33789690275E+02 -0.12151397026E+02  0.96936967133E+02  0.10337395811E+03  0.00000000000E+00 0.  1.
         -1    1    1    2    0  501 -0.33789690275E+02  0.12151397026E+02  0.36407615531E+03  0.36584265263E+03  0.00000000000E+00 0. -1.
</event>
<event>
 4    1  0.7060698E+001  0.2547190E+02  0.7546771E-02  0.1463593E+00
          2   -1    0    0  502    0  0.00000000000E+00  0.00000000000E+00  0.54096366339E+02  0.54096366339E+02  0.00000000000E+00 0.  1.
         -2   -1    0    0    0  501 -0.00000000000E+00 -0.00000000000E+00 -0.15896480753E+02  0.15896480753E+02  0.00000000000E+00 0. -1.
          1    1    1    2  502    0  0.55148848535E+01 -0.24867725389E+02  0.36440300581E+02  0.44460243223E+02  0.00000000000E+00 0.  1.
         -1    1    1    2    0  501 -0.55148848535E+01  0.24867725389E+02  0.17595850050E+01  0.25532603870E+02  0.00000000000E+00 0. -1.
</event>
<event>
 4    1  0.7060698E+001  0.2304518E+02  0.7546771E-02  0.1491932E+00
          2   -1    0    0  502    0  0.00000000000E+00  0.00000000000E+00  0.69213755208E+03  0.69213755208E+03  0.00000000000E+00 0.  1.
         -2   -1    0    0    0  501 -0.00000000000E+00 -0.00000000000E+00 -0.77861654638E+00  0.77861654638E+00  0.00000000000E+00 0. -1.
          1    1    1    2  502    0 -0.19651738809E+02 -0.12037000525E+02  0.38743947267E+03  0.38812423939E+03  0.00000000000E+00 0.  1.
         -1    1    1    2    0  501  0.19651738809E+02  0.12037000525E+02  0.30391946287E+03  0.30479192924E+03  0.00000000000E+00 0. -1.
</event>
<event>
 4    1  0.7060698E+001  0.2082513E+02  0.7546771E-02  0.1521776E+00
          2   -1    0    0  502    0  0.00000000000E+00  0.00000000000E+00  0.57691954046E+03  0.57691954046E+03  0.00000000000E+00 0. -1.
         -2   -1    0    0    0  501 -0.00000000000E+00 -0.00000000000E+00 -0.94585057013E+00  0.94585057013E+00  0.00000000000E+00 0.  1.
          1    1    1    2  502    0  0.14581429452E+02  0.14868352855E+02  0.41888229400E+03  0.41939964500E+03  0.00000000000E+00 0. -1.
         -1    1    1    2    0  501 -0.14581429452E+02 -0.14868352855E+02  0.15709139589E+03  0.15846574603E+03  0.00000000000E+00 0.  1.
</event>
<event>
 4    1  0.7060698E+001  0.3472948E+02  0.7546771E-02  0.1382475E+00
          2   -1    0    0  502    0  0.00000000000E+00  0.00000000000E+00  0.34278782864E+01  0.34278782864E+01  0.00000000000E+00 0.  1.
         -2   -1    0    0    0  501 -0.00000000000E+00 -0.00000000000E+00 -0.50902913543E+03  0.50902913543E+03  0.00000000000E+00 0. -1.
          1    1    1    2  502    0 -0.31025926640E+02  0.15605396756E+02 -0.39517716911E+03  0.39670030441E+03  0.00000000000E+00 0. -1.
         -1    1    1    2    0  501  0.31025926640E+02 -0.15605396756E+02 -0.11042408803E+03  0.11575670931E+03  0.00000000000E+00 0.  1.
</event>
<event>
 4    1  0.7060698E+001  0.2807312E+02  0.7546771E-02  0.1437116E+00
          2   -1    0    0  502    0  0.00000000000E+00  0.00000000000E+00  0.31199754759E+01  0.31199754759E+01  0.00000000000E+00 0.  1.
         -2   -1    0    0    0  501 -0.00000000000E+00 -0.00000000000E+00 -0.51179487221E+03  0.51179487221E+03  0.00000000000E+00 0. -1.
          1    1    1    2  502    0  0.27860886296E+02 -0.34454347244E+01 -0.43755716797E+03  0.43845681115E+03  0.00000000000E+00 0. -1.
         -1    1    1    2    0  501 -0.27860886296E+02  0.34454347244E+01 -0.71117728759E+02  0.76458036526E+02  0.00000000000E+00 0.  1.
</event>
<event>
 4    1  0.7060698E+001  0.2907725E+02  0.7546771E-02  0.1427788E+00
          2   -1    0    0  502    0  0.00000000000E+00  0.00000000000E+00  0.15741655228E+02  0.15741655228E+02  0.00000000000E+00 0. -1.
         -2   -1    0    0    0  501 -0.00000000000E+00 -0.00000000000E+00 -0.10975418024E+03  0.10975418024E+03  0.00000000000E+00 0.  1.
          1    1    1    2  502    0 -0.17046413300E+02 -0.23556450127E+02 -0.91845011876E+02  0.96337909234E+02  0.00000000000E+00 0.  1.
         -1    1    1    2    0  501  0.17046413300E+02  0.23556450127E+02 -0.21675131353E+01  0.29157926233E+02  0.00000000000E+00 0. -1.
</event>
<event>
 4    1  0.7060698E+001  0.2577267E+02  0.7546771E-02  0.1460342E+00
          2   -1    0    0  502    0  0.00000000000E+00  0.00000000000E+00  0.95368192254E+03  0.95368192254E+03  0.00000000000E+00 0.  1.
         -2   -1    0    0    0  501 -0.00000000000E+00 -0.00000000000E+00 -0.82555089263E+00  0.82555089263E+00  0.00000000000E+00 0. -1.
          1    1    1    2  502    0 -0.25734541235E+02  0.14013725972E+01  0.28772736067E+03  0.28887932522E+03  0.00000000000E+00 0. -1.
         -1    1    1    2    0  501  0.25734541235E+02 -0.14013725972E+01  0.66512901098E+03  0.66562814822E+03  0.00000000000E+00 0.  1.
</event>
<event>
 4    1  0.7060698E+001  0.4358975E+02  0.7546771E-02  0.1328643E+00
          2   -1    0    0  502    0  0.00000000000E+00  0.00000000000E+00  0.52643089813E+01  0.52643089813E+01  0.00000000000E+00 0.  1.
         -2   -1    0    0    0  501 -0.00000000000E+00 -0.00000000000E+00 -0.36605883473E+03  0.36605883473E+03  0.00000000000E+00 0. -1.
          1    1    1    2  502    0  0.16104318959E+02 -0.40505764815E+02 -0.20236588462E+03  0.20700728811E+03  0.00000000000E+00 0. -1.
         -1    1    1    2    0  501 -0.16104318959E+02  0.40505764815E+02 -0.15842864114E+03  0.16431585561E+03  0.00000000000E+00 0.  1.
</event>
<event>
 4    1  0.7060698E+001  0.3486994E+02  0.7546771E-02  0.1381480E+00
          2   -1    0    0  502    0  0.00000000000E+00  0.00000000000E+00  0.32366351082E+01  0.32366351082E+01  0.00000000000E+00 0.  1.
         -2   -1    0    0    0  501 -0.00000000000E+00 -0.00000000000E+00 -0.53455937854E+03  0.53455937854E+03  0.00000000000E+00 0. -1.
          1    1    1    2  502    0 -0.80178688625E+01  0.33935620504E+02 -0.11906116933E+03  0.12406238190E+03  0.00000000000E+00 0.  1.
         -1    1    1    2    0  501  0.80178688625E+01 -0.33935620504E+02 -0.41226157410E+03  0.41373363174E+03  0.00000000000E+00 0. -1.
</event>
<event>
 4    1  0.7060698E+001  0.2154100E+02  0.7546771E-02  0.1511679E+00
          2   -1    0    0  502    0  0.00000000000E+00  0.00000000000E+00  0.81387697833E+03  0.81387697833E+03  0.00000000000E+00 0. -1.
         -2   -1    0    0    0  501 -0.00000000000E+00 -0.00000000000E+00 -0.68994891168E+00  0.68994891168E+00  0.00000000000E+00 0.  1.
          1    1    1    2  502    0 -0.43016659022E+01 -0.21107117100E+02  0.57632137376E+03  0.57672379921E+03  0.00000000000E+00 0. -1.
         -1    1    1    2    0  501  0.43016659022E+01  0.21107117100E+02  0.23686565566E+03  0.23784312803E+03  0.00000000000E+00 0.  1.
</event>
<event>
 4    1  0.7060698E+001  0.3017687E+02  0.7546771E-02  0.1418066E+00
          2   -1    0    0  502    0  0.00000000000E+00  0.00000000000E+00  0.12368003711E+02  0.12368003711E+02  0.00000000000E+00 0.  1.
         -2   -1    0    0    0  501 -0.00000000000E+00 -0.00000000000E+00 -0.78344059712E+02  0.78344059712E+02  0.00000000000E+00 0. -1.
          1    1    1    2  502    0  0.10175661377E+02  0.28409489765E+02 -0.44115017248E+02  0.53448834785E+02  0.00000000000E+00 0. -1.
         -1    1    1    2    0  501 -0.10175661377E+02 -0.28409489765E+02 -0.21861038753E+02  0.37263228638E+02  0.00000000000E+00 0.  1.
</event>
<event>
 4    1  0.7060698E+001  0.2765451E+02  0.7546771E-02  0.1441142E+00
          2   -1    0    0  502    0  0.00000000000E+00  0.00000000000E+00  0.10206626219E+02  0.10206626219E+02  0.00000000000E+00 0. -1.
         -2   -1    0    0    0  501 -0.00000000000E+00 -0.00000000000E+00 -0.85244568585E+02  0.85244568585E+02  0.00000000000E+00 0.  1.
          1    1    1    2  502    0  0.23867557729E+02 -0.13968230039E+02 -0.20916768916E+02  0.34673952533E+02  0.00000000000E+00 0. -1.
         -1    1    1    2    0  501 -0.23867557729E+02  0.13968230039E+02 -0.54121173450E+02  0.60777242270E+02  0.00000000000E+00 0.  1.
</event>
<event>
 4    1  0.7060698E+001  0.2833369E+02  0.7546771E-02  0.1434652E+00
          2   -1    0    0  502    0  0.00000000000E+00  0.00000000000E+00  0.10636540053E+04  0.10636540053E+04  0.00000000000E+00 0. -1.
         -2   -1    0    0    0  501 -0.00000000000E+00 -0.00000000000E+00 -0.92479833994E+00  0.92479833994E+00  0.00000000000E+00 0.  1.
          1    1    1    2  502    0 -0.13214392799E+00 -0.28333384032E+02  0.30311806962E+03  0.30443942294E+03  0.00000000000E+00 0.  1.
         -1    1    1    2    0  501  0.13214392799E+00  0.28333384032E+02  0.75961113738E+03  0.76013938074E+03  0.00000000000E+00 0. -1.
</event>
<event>
 4    1  0.7060698E+001  0.2033427E+02  0.7546771E-02  0.1528986E+00
          2   -1    0    0  502    0  0.00000000000E+00  0.00000000000E+00  0.66122978417E+03  0.66122978417E+03  0.00000000000E+00 0.  1.
         -2   -1    0    0    0  501 -0.00000000000E+00 -0.00000000000E+00 -0.68151260487E+00  0.68151260487E+00  0.00000000000E+00 0. -1.
          1    1    1    2  502    0  0.20321642608E+02  0.71638335829E+00  0.42530394128E+03  0.42578976600E+03  0.00000000000E+00 0.  1.
         -1    1    1    2    0  501 -0.20321642608E+02 -0.71638335829E+00  0.23524433029E+03  0.23612153078E+03  0.00000000000E+00 0. -1.
</event>
<event>
 4    1  0.7060698E+001  0.4417952E+02  0.7546771E-02  0.1325593E+00
          2   -1    0    0  502    0  0.00000000000E+00  0.00000000000E+00  0.15774719341E+04  0.15774719341E+04  0.00000000000E+00 0. -1.
         -2   -1    0    0    0  501 -0.00000000000E+00 -0.00000000000E+00 -0.13196056372E+01  0.13196056372E+01  0.00000000000E+00 0.  1.
          1    1    1    2  502    0 -0.43364480145E+02  0.84470270246E+01  0.98520344257E+03  0.98619351735E+03  0.00000000000E+00 0. -1.
         -1    1    1    2    0  501  0.43364480145E+02 -0.84470270246E+01  0.59094888585E+03  0.59259802235E+03  0.00000000000E+00 0.  1.
</event>
<event>
 4    1  0.7060698E+001  0.2313333E+02  0.7546771E-02  0.1490831E+00
          2   -1    0    0  502    0  0.00000000000E+00  0.00000000000E+00  0.14635620105E+04  0.14635620105E+04  0.00000000000E+00 0.  1.
         -2   -1    0    0    0  501 -0.00000000000E+00 -0.00000000000E+00 -0.36782297104E+00  0.36782297104E+00  0.00000000000E+00 0. -1.
          1    1    1    2  502    0 -0.70997224104E+00  0.23122431667E+02  0.78786164205E+03  0.78820119127E+03  0.00000000000E+00 0. -1.
         -1    1    1    2    0  501  0.70997224104E+00 -0.23122431667E+02  0.67533254544E+03  0.67572864216E+03  0.00000000000E+00 0.  1.
</event>
<event>
 4    1  0.7060698E+001  0.2591478E+02  0.7546771E-02  0.1458825E+00
          2   -1    0    0  502    0  0.00000000000E+00  0.00000000000E+00  0.67334850122E+03  0.67334850122E+03  0.00000000000E+00 0. -1.
         -2   -1    0    0    0  501 -0.00000000000E+00 -0.00000000000E+00 -0.13031053845E+01  0.13031053845E+01  0.00000000000E+00 0.  1.
          1    1    1    2  502    0  0.18967722370E+02  0.17657902331E+02  0.17262936896E+03  0.17456367043E+03  0.00000000000E+00 0.  1.
         -1    1    1    2    0  501 -0.18967722370E+02 -0.17657902331E+02  0.49941602688E+03  0.50008793617E+03  0.00000000000E+00 0. -1.
</event>
<event>
 4    1  0.7060698E+001  0.3279969E+02  0.7546771E-02  0.1396729E+00
          2   -1    0    0  502    0  0.00000000000E+00  0.00000000000E+00  0.12317225204E+03  0.12317225204E+03  0.00000000000E+00 0. -1.
         -2   -1    0    0    0  501 -0.00000000000E+00 -0.00000000000E+00 -0.97466526440E+01  0.97466526440E+01  0.00000000000E+00 0.  1.
          1    1    1    2  502    0 -0.20536833869E+01  0.32735335990E+02  0.78131895306E+02  0.84737317057E+02  0.00000000000E+00 0.  1.
         -1    1    1    2    0  501  0.20536833869E+01 -0.32735335990E+02  0.35293704086E+02  0.48181587624E+02  0.00000000000E+00 0. -1.
</event>
<event>
 4    1  0.7060698E+001  0.2025411E+02  0.7546771E-02  0.1530186E+00
          2   -1    0    0  502    0  0.00000000000E+00  0.00000000000E+00  0.33181301546E+01  0.33181301546E+01  0.00000000000E+00 0.  1.
         -2   -1    0    0    0  501 -0.00000000000E+00 -0.00000000000E+00 -0.13013697634E+03  0.13013697634E+03  0.00000000000E+00 0. -1.
          1    1    1    2  502    0  0.20253763221E+02  0.11892586855E+00 -0.48491527047E+02  0.52551472513E+02  0.00000000000E+00 0.  1.
         -1    1    1    2    0  501 -0.20253763221E+02 -0.11892586855E+00 -0.78327319142E+02  0.80903633985E+02  0.00000000000E+00 0. -1.
</event>
<event>
 4    1  0.7060698E+001  0.2002421E+02  0.7546771E-02  0.1533666E+00
          2   -1    0    0  502    0  0.00000000000E+00  0.00000000000E+00  0.90923976463E+01  0.90923976463E+01  0.00000000000E+00 0. -1.
         -2   -1    0    0    0  501 -0.00000000000E+00 -0.00000000000E+00 -0.50879706295E+02  0.50879706295E+02  0.00000000000E+00 0.  1.
          1    1    1    2  502    0 -0.81847699295E+01  0.18275079660E+02 -0.31840088084E+02  0.37613298241E+02  0.00000000000E+00 0.  1.
         -1    1    1    2    0  501  0.81847699295E+01 -0.18275079660E+02 -0.99472205647E+01  0.22358805700E+02  0.00000000000E+00 0. -1.
</event>
<event>
 4    1  0.7060698E+001  0.2162109E+02  0.7546771E-02  0.1510579E+00
          2   -1    0    0  502    0  0.00000000000E+00  0.00000000000E+00  0.11141613672E+02  0.11141613672E+02  0.00000000000E+00 0. -1.
         -2   -1    0    0    0  501 -0.00000000000E+00 -0.00000000000E+00 -0.57146628685E+02  0.57146628685E+02  0.00000000000E+00 0.  1.
          1    1    1    2  502    0  0.11505817250E+02  0.18305398667E+02 -0.40605668514E+02  0.46003171265E+02  0.00000000000E+00 0.  1.
         -1    1    1    2    0  501 -0.11505817250E+02 -0.18305398667E+02 -0.53993464984E+01  0.22285071092E+02  0.00000000000E+00 0. -1.
</event>
<event>
 4    1  0.7060698E+001  0.2298006E+02  0.7546771E-02  0.1492749E+00
          2   -1    0    0  502    0  0.00000000000E+00  0.00000000000E+00  0.50882846351E+03  0.50882846351E+03  0.00000000000E+00 0.  1.
         -2   -1    0    0    0  501 -0.00000000000E+00 -0.00000000000E+00 -0.26507872816E+01  0.26507872816E+01  0.00000000000E+00 0. -1.
          1    1    1    2  502    0 -0.86926844246E+01  0.21272523120E+02  0.45257857051E+03  0.45316161078E+03  0.00000000000E+00 0.  1.
         -1    1    1    2    0  501  0.86926844246E+01 -0.21272523120E+02  0.53599105720E+02  0.58317640010E+02  0.00000000000E+00 0. -1.
</event>
<event>
 4    1  0.7060698E+001  0.2282891E+02  0.7546771E-02  0.1494658E+00
          2   -1    0    0  502    0  0.00000000000E+00  0.00000000000E+00  0.17407748860E+04  0.17407748860E+04  0.00000000000E+00 0.  1.
         -2   -1    0    0    0  501 -0.00000000000E+00 -0.00000000000E+00 -0.29938483027E+00  0.29938483027E+00  0.00000000000E+00 0. -1.
          1    1    1    2  502    0 -0.15061918070E+02 -0.17155104884E+02  0.87218001400E+03  0.87247873087E+03  0.00000000000E+00 0.  1.
         -1    1    1    2    0  501  0.15061918070E+02  0.17155104884E+02  0.86829548715E+03  0.86859553994E+03  0.00000000000E+00 0. -1.
</event>
<event>
 4    1  0.7060698E+001  0.2367971E+02  0.7546771E-02  0.1484135E+00
          2   -1    0    0  502    0  0.00000000000E+00  0.00000000000E+00  0.16207618945E+03  0.16207618945E+03  0.00000000000E+00 0. -1.
         -2   -1    0    0    0  501 -0.00000000000E+00 -0.00000000000E+00 -0.44525199451E+01  0.44525199451E+01  0.00000000000E+00 0.  1.
          1    1    1    2  502    0  0.16954084474E+02 -0.16531412907E+02  0.39493051816E+02  0.46048124118E+02  0.00000000000E+00 0.  1.
         -1    1    1    2    0  501 -0.16954084474E+02  0.16531412907E+02  0.11813061769E+03  0.12048058528E+03  0.00000000000E+00 0. -1.
</event>
<event>
 4    1  0.7060698E+001  0.3399128E+02  0.7546771E-02  0.1387797E+00
          2   -1    0    0  502    0  0.00000000000E+00  0.00000000000E+00  0.27190095947E+04  0.27190095947E+04  0.00000000000E+00 0.  1.
         -2   -1    0    0    0  501 -0.00000000000E+00 -0.00000000000E+00 -0.43142963581E+00  0.43142963581E+00  0.00000000000E+00 0. -1.
          1    1    1    2  502    0  0.12976803204E+02 -0.31416705954E+02  0.15260970599E+04  0.15264755626E+04  0.00000000000E+00 0. -1.
         -1    1    1    2    0  501 -0.12976803204E+02  0.31416705954E+02  0.11924811051E+04  0.11929654617E+04  0.00000000000E+00 0.  1.
</event>
<event>
 4    1  0.7060698E+001  0.2190672E+02  0.7546771E-02  0.1506702E+00
          2   -1    0    0  502    0  0.00000000000E+00  0.00000000000E+00  0.76304543228E+02  0.76304543228E+02  0.00000000000E+00 0. -1.
         -2   -1    0    0    0  501 -0.00000000000E+00 -0.00000000000E+00 -0.16375565090E+02  0.16375565090E+02  0.00000000000E+00 0.  1.
          1    1    1    2  502    0 -0.17395014708E+02  0.13316082149E+02 -0.64038021865E+01  0.22823524333E+02  0.00000000000E+00 0.  1.
         -1    1    1    2    0  501  0.17395014708E+02 -0.13316082149E+02  0.66332780325E+02  0.69856583986E+02  0.00000000000E+00 0. -1.
</event>
<event>
 4    1  0.7060698E+001  0.2082095E+02  0.7546771E-02  0.1521837E+00
          2   -1    0    0  502    0  0.00000000000E+00  0.00000000000E+00  0.28935095371E+03  0.28935095371E+03  0.00000000000E+00 0. -1.
         -2   -1    0    0    0  501 -0.00000000000E+00 -0.00000000000E+00 -0.16336322831E+01  0.16336322831E+01  0.00000000000E+00 0.  1.
          1    1    1    2  502    0  0.19665895887E+02  0.68384723042E+01  0.18574646059E+03  0.18690976375E+03  0.00000000000E+00 0. -1.
         -1    1    1    2    0  501 -0.19665895887E+02 -0.68384723042E+01  0.10197086084E+03  0.10407482224E+03  0.00000000000E+00 0.  1.
</event>
<event>
 4    1  0.7060698E+001  0.2904819E+02  0.7546771E-02  0.1428052E+00
          2   -1    0    0  502    0  0.00000000000E+00  0.00000000000E+00  0.44600031616E+02  0.44600031616E+02  0.00000000000E+00 0. -1.
         -2   -1    0    0    0  501 -0.00000000000E+00 -0.00000000000E+00 -0.27029229295E+02  0.27029229295E+02  0.00000000000E+00 0.  1.
          1    1    1    2  502    0  0.16936681645E+02 -0.23599705268E+02  0.28403397133E+02  0.40626964476E+02  0.00000000000E+00 0. -1.
         -1    1    1    2    0  501 -0.16936681645E+02  0.23599705268E+02 -0.10832594812E+02  0.31002296435E+02  0.00000000000E+00 0.  1.
</event>
<event>
 4    1  0.7060698E+001  0.2062107E+02  0.7546771E-02  0.1524744E+00
          2   -1    0    0  502    0  0.00000000000E+00  0.00000000000E+00  0.83235616481E+03  0.83235616481E+03  0.00000000000E+00 0.  1.
         -2   -1    0    0    0  501 -0.00000000000E+00 -0.00000000000E+00 -0.52669907798E+00  0.52669907798E+00  0.00000000000E+00 0. -1.
          1    1    1    2  502    0 -0.20119037217E+02  0.45224866529E+01  0.48810109081E+03  0.48853649136E+03  0.00000000000E+00 0. -1.
         -1    1    1    2    0  501  0.20119037217E+02 -0.45224866529E+01  0.34372837492E+03  0.34434637253E+03  0.00000000000E+00 0.  1.
</event>
<event>
 4    1  0.7060698E+001  0.3096884E+02  0.7546771E-02  0.1411360E+00
          2   -1    0    0  502    0  0.00000000000E+00  0.00000000000E+00  0.77470315143E+03  0.77470315143E+03  0.00000000000E+00 0.  1.
         -2   -1    0    0    0  501 -0.00000000000E+00 -0.00000000000E+00 -0.13180436029E+01  0.13180436029E+01  0.00000000000E+00 0. -1.
          1    1    1    2  502    0  0.30600665087E+02  0.47611215394E+01  0.48232149573E+03  0.48331469482E+03  0.00000000000E+00 0.  1.
         -1    1    1    2    0  501 -0.30600665087E+02 -0.47611215394E+01  0.29106361210E+03  0.29270650022E+03  0.00000000000E+00 0. -1.
</event>
<event>
 4    1  0.7060698E+001  0.2272623E+02  0.7546771E-02  0.1495965E+00
          2   -1    0    0  502    0  0.00000000000E+00  0.00000000000E+00  0.53440925925E+03  0.53440925925E+03  0.00000000000E+00 0. -1.
         -2   -1    0    0    0  501 -0.00000000000E+00 -0.00000000000E+00 -0.11137210721E+01  0.11137210721E+01  0.00000000000E+00 0.  1.
          1    1    1    2  502    0 -0.83631436224E+01 -0.21131473083E+02  0.16928016335E+03  0.17079887303E+03  0.00000000000E+00 0.  1.
         -1    1    1    2    0  501  0.83631436224E+01  0.21131473083E+02  0.36401537483E+03  0.36472410729E+03  0.00000000000E+00 0. -1.
</event>
<event>
 4    1  0.7060698E+001  0.2493753E+02  0.7546771E-02  0.1469503E+00
          2   -1    0    0  502    0  0.00000000000E+00  0.00000000000E+00  0.70357319924E+02  0.70357319924E+02  0.00000000000E+00 0.  1.
         -2   -1    0    0    0  501 -0.00000000000E+00 -0.00000000000E+00 -0.88403749419E+01  0.88403749419E+01  0.00000000000E+00 0. -1.
          1    1    1    2  502    0  0.14346465294E+02  0.20397535174E+02  0.31271945696E+02  0.39997688624E+02  0.00000000000E+00 0.  1.
         -1    1    1    2    0  501 -0.14346465294E+02 -0.20397535174E+02  0.30244999286E+02  0.39200006242E+02  0.00000000000E+00 0. -1.
</event>
<event>
 4    1  0.7060698E+001  0.2647454E+02  0.7546771E-02  0.1452959E+00
          2   -1    0    0  502    0  0.00000000000E+00  0.00000000000E+00  0.50349272318E+03  0.50349272318E+03  0.00000000000E+00 0.  1.
         -2   -1    0    0    0  501 -0.00000000000E+00 -0.00000000000E+00 -0.14535038064E+01  0.14535038064E+01  0.00000000000E+00 0. -1.
          1    1    1    2  502    0  0.22897328175E+02 -0.13289607442E+02  0.19911793682E+03  0.20087024187E+03  0.00000000000E+00 0. -1.
         -1    1    1    2    0  501 -0.22897328175E+02  0.13289607442E+02  0.30292128255E+03  0.30407598512E+03  0.00000000000E+00 0.  1.
</event>
<event>
 4    1  0.7060698E+001  0.3067067E+02  0.7546771E-02  0.1413856E+00
          2   -1    0    0  502    0  0.00000000000E+00  0.00000000000E+00  0.22346323030E+03  0.22346323030E+03  0.00000000000E+00 0.  1.
         -2   -1    0    0    0  501 -0.00000000000E+00 -0.00000000000E+00 -0.67623189490E+01  0.67623189490E+01  0.00000000000E+00 0. -1.
          1    1    1    2  502    0 -0.15697172590E+02  0.26349362067E+02  0.37624721167E+02  0.48541835066E+02  0.00000000000E+00 0. -1.
         -1    1    1    2    0  501  0.15697172590E+02 -0.26349362067E+02  0.17907619019E+03  0.18168371419E+03  0.00000000000E+00 0.  1.
</event>
<event>
 4    1  0.7060698E+001  0.3651238E+02  0.7546771E-02  0.1370231E+00
          2   -1    0    0  502    0  0.00000000000E+00  0.00000000000E+00  0.12913001172E+03  0.12913001172E+03  0.00000000000E+00 0. -1.
         -2   -1    0    0    0  501 -0.00000000000E+00 -0.00000000000E+00 -0.12058875247E+02  0.12058875247E+02  0.00000000000E+00 0.  1.
          1    1    1    2  502    0 -0.34504607040E+02  0.11940934863E+02  0.31760158231E+02  0.48392783380E+02  0.00000000000E+00 0.  1.
         -1    1    1    2    0  501  0.34504607040E+02 -0.11940934863E+02  0.85310978241E+02  0.92796103586E+02  0.00000000000E+00 0. -1.
</event>
<event>
 4    1  0.7060698E+001  0.2722180E+02  0.7546771E-02  0.1445393E+00
          2   -1    0    0  502    0  0.00000000000E+00  0.00000000000E+00  0.67547285264E+03  0.67547285264E+03  0.00000000000E+00 0.  1.
         -2   -1    0    0    0  501 -0.00000000000E+00 -0.00000000000E+00 -0.11353349964E+01  0.11353349964E+01  0.00000000000E+00 0. -1.
          1    1    1    2  502    0  0.25436501676E+02 -0.96959167837E+01  0.39929406721E+03  0.40022091216E+03  0.00000000000E+00 0.  1.
         -1    1    1    2    0  501 -0.25436501676E+02  0.96959167837E+01  0.27504345044E+03  0.27638727548E+03  0.00000000000E+00 0. -1.
</event>
<event>
 4    1  0.7060698E+001  0.2556877E+02  0.7546771E-02  0.1462540E+00
          2   -1    0    0  502    0  0.00000000000E+00  0.00000000000E+00  0.15073092869E+04  0.15073092869E+04  0.00000000000E+00 0.  1.
         -2   -1    0    0    0  501 -0.00000000000E+00 -0.00000000000E+00 -0.56992239479E+00  0.56992239479E+00  0.00000000000E+00 0. -1.
          1    1    1    2  502    0 -0.18759857343E+02  0.17373250544E+02  0.11219299229E+04  0.11222212411E+04  0.00000000000E+00 0.  1.
         -1    1    1    2    0  501  0.18759857343E+02 -0.17373250544E+02  0.38480944155E+03  0.38565796814E+03  0.00000000000E+00 0. -1.
</event>
<event>
 4    1  0.7060698E+001  0.4117738E+02  0.7546771E-02  0.1341721E+00
          2   -1    0    0  502    0  0.00000000000E+00  0.00000000000E+00  0.52903729997E+02  0.52903729997E+02  0.00000000000E+00 0.  1.
         -2   -1    0    0    0  501 -0.00000000000E+00 -0.00000000000E+00 -0.35722775419E+02  0.35722775419E+02  0.00000000000E+00 0. -1.
          1    1    1    2  502    0 -0.19457570787E+02 -0.36290215747E+02  0.22798855290E+02  0.47067660048E+02  0.00000000000E+00 0. -1.
         -1    1    1    2    0  501  0.19457570787E+02  0.36290215747E+02 -0.56179007127E+01  0.41558845368E+02  0.00000000000E+00 0.  1.
</event>
<event>
 4    1  0.7060698E+001  0.3784598E+02  0.7546771E-02  0.1361592E+00
          2   -1    0    0  502    0  0.00000000000E+00  0.00000000000E+00  0.11318242173E+03  0.11318242173E+03  0.00000000000E+00 0. -1.
         -2   -1    0    0    0  501 -0.00000000000E+00 -0.00000000000E+00 -0.14860183994E+02  0.14860183994E+02  0.00000000000E+00 0.  1.
          1    1    1    2  502    0 -0.34713467143E+02  0.15076261157E+02  0.73823741820E+02  0.82959407591E+02  0.00000000000E+00 0. -1.
         -1    1    1    2    0  501  0.34713467143E+02 -0.15076261157E+02  0.24498495912E+02  0.45083198129E+02  0.00000000000E+00 0.  1.
</event>
<event>
 4    1  0.7060698E+001  0.1358176E+03  0.7546771E-02  0.1113112E+00
          2   -1    0    0  502    0  0.00000000000E+00  0.00000000000E+00  0.17475693092E+03  0.17475693092E+03  0.00000000000E+00 0. -1.
         -2   -1    0    0    0  501 -0.00000000000E+00 -0.00000000000E+00 -0.14893515848E+03  0.14893515848E+03  0.00000000000E+00 0.  1.
          1    1    1    2  502    0  0.13429486508E+03  0.20280913509E+02 -0.74436564255E+02  0.15487810800E+03  0.00000000000E+00 0.  1.
         -1    1    1    2    0  501 -0.13429486508E+03 -0.20280913509E+02  0.10025833670E+03  0.16881398140E+03  0.00000000000E+00 0. -1.
</event>
<event>
 4    1  0.7060698E+001  0.2707805E+02  0.7546771E-02  0.1446826E+00
          2   -1    0    0  502    0  0.00000000000E+00  0.00000000000E+00  0.54927710842E+02  0.54927710842E+02  0.00000000000E+00 0.  1.
         -2   -1    0    0    0  501 -0.00000000000E+00 -0.00000000000E+00 -0.13608322403E+02  0.13608322403E+02  0.00000000000E+00 0. -1.
          1    1    1    2  502    0 -0.25711823825E+02  0.84925211849E+01  0.25391719716E+02  0.37120886717E+02  0.00000000000E+00 0.  1.
         -1    1    1    2    0  501  0.25711823825E+02 -0.84925211849E+01  0.15927668722E+02  0.31415146528E+02  0.00000000000E+00 0. -1.
</event>
<event>
 4    1  0.7060698E+001  0.2369835E+02  0.7546771E-02  0.1483910E+00
          2   -1    0    0  502    0  0.00000000000E+00  0.00000000000E+00  0.16915677548E+04  0.16915677548E+04  0.00000000000E+00 0.  1.
         -2   -1    0    0    0  501 -0.00000000000E+00 -0.00000000000E+00 -0.56706635320E+00  0.56706635320E+00  0.00000000000E+00 0. -1.
          1    1    1    2  502    0 -0.19344686898E+02 -0.13689232998E+02  0.30077576411E+03  0.30170792547E+03  0.00000000000E+00 0. -1.
         -1    1    1    2    0  501  0.19344686898E+02  0.13689232998E+02  0.13902249243E+04  0.13904268957E+04  0.00000000000E+00 0.  1.
</event>
<event>
 4    1  0.7060698E+001  0.2082531E+02  0.7546771E-02  0.1521774E+00
          2   -1    0    0  502    0  0.00000000000E+00  0.00000000000E+00  0.50573533352E+03  0.50573533352E+03  0.00000000000E+00 0. -1.
         -2   -1    0    0    0  501 -0.00000000000E+00 -0.00000000000E+00 -0.96656266629E+00  0.96656266629E+00  0.00000000000E+00 0.  1.
          1    1    1    2  502    0 -0.12768517241E+02 -0.16451696103E+02  0.33746801322E+03  0.33810997217E+03  0.00000000000E+00 0. -1.
         -1    1    1    2    0  501  0.12768517241E+02  0.16451696103E+02  0.16730075763E+03  0.16859192401E+03  0.00000000000E+00 0.  1.
</event>
<event>
 4    1  0.7060698E+001  0.2333121E+02  0.7546771E-02  0.1488380E+00
          2   -1    0    0  502    0  0.00000000000E+00  0.00000000000E+00  0.13397978323E+02  0.13397978323E+02  0.00000000000E+00 0.  1.
         -2   -1    0    0    0  501 -0.00000000000E+00 -0.00000000000E+00 -0.58659840057E+02  0.58659840057E+02  0.00000000000E+00 0. -1.
          1    1    1    2  502    0 -0.32823286194E+01 -0.23099172815E+02 -0.42606057977E+02  0.48575936865E+02  0.00000000000E+00 0. -1.
         -1    1    1    2    0  501  0.32823286194E+01  0.23099172815E+02 -0.26558037563E+01  0.23481881515E+02  0.00000000000E+00 0.  1.
</event>
<event>
 4    1  0.7060698E+001  0.3973705E+02  0.7546771E-02  0.1350034E+00
          2   -1    0    0  502    0  0.00000000000E+00  0.00000000000E+00  0.18044276598E+03  0.18044276598E+03  0.00000000000E+00 0. -1.
         -2   -1    0    0    0  501 -0.00000000000E+00 -0.00000000000E+00 -0.87899013148E+01  0.87899013148E+01  0.00000000000E+00 0.  1.
          1    1    1    2  502    0  0.14839275249E+02  0.36862295620E+02  0.92130589418E+02  0.10033483161E+03  0.00000000000E+00 0. -1.
         -1    1    1    2    0  501 -0.14839275249E+02 -0.36862295620E+02  0.79522275243E+02  0.88897835678E+02  0.00000000000E+00 0.  1.
</event>
<event>
 4    1  0.7060698E+001  0.2451771E+02  0.7546771E-02  0.1474272E+00
          2   -1    0    0  502    0  0.00000000000E+00  0.00000000000E+00  0.51604187438E+02  0.51604187438E+02  0.00000000000E+00 0. -1.
         -2   -1    0    0    0  501 -0.00000000000E+00 -0.00000000000E+00 -0.11703351296E+02  0.11703351296E+02  0.00000000000E+00 0.  1.
          1    1    1    2  502    0 -0.10100595730E+02  0.22340459355E+02  0.22114845027E+02  0.33017942529E+02  0.00000000000E+00 0. -1.
         -1    1    1    2    0  501  0.10100595730E+02 -0.22340459355E+02  0.17785991115E+02  0.30289596205E+02  0.00000000000E+00 0.  1.
</event>
<event>
 4    1  0.7060698E+001  0.2879568E+02  0.7546771E-02  0.1430359E+00
          2   -1    0    0  502    0  0.00000000000E+00  0.00000000000E+00  0.60546250671E+03  0.60546250671E+03  0.00000000000E+00 0. -1.
         -2   -1    0    0    0  501 -0.00000000000E+00 -0.00000000000E+00 -0.21678557945E+01  0.21678557945E+01  0.00000000000E+00 0.  1.
          1    1    1    2  502    0 -0.16167940110E+02  0.23828318200E+02  0.48601635313E+03  0.48686865431E+03  0.00000000000E+00 0. -1.
         -1    1    1    2    0  501  0.16167940110E+02 -0.23828318200E+02  0.11727829779E+03  0.12076170820E+03  0.00000000000E+00 0.  1.
</event>
<event>
 4    1  0.7060698E+001  0.3432524E+02  0.7546771E-02  0.1385370E+00
          2   -1    0    0  502    0  0.00000000000E+00  0.00000000000E+00  0.28140127875E+04  0.28140127875E+04  0.00000000000E+00 0.  1.
         -2   -1    0    0    0  501 -0.00000000000E+00 -0.00000000000E+00 -0.51839060316E+00  0.51839060316E+00  0.00000000000E+00 0. -1.
          1    1    1    2  502    0  0.31343317876E+02  0.13993524368E+02  0.20238796405E+04  0.20241706997E+04  0.00000000000E+00 0.  1.
         -1    1    1    2    0  501 -0.31343317876E+02 -0.13993524368E+02  0.78961475641E+03  0.79036047842E+03  0.00000000000E+00 0. -1.
</event>
<event>
 4    1  0.7060698E+001  0.2948817E+02  0.7546771E-02  0.1424097E+00
          2   -1    0    0  502    0  0.00000000000E+00  0.00000000000E+00  0.24483715899E+03  0.24483715899E+03  0.00000000000E+00 0. -1.
         -2   -1    0    0    0  501 -0.00000000000E+00 -0.00000000000E+00 -0.46874941391E+01  0.46874941391E+01  0.00000000000E+00 0.  1.
          1    1    1    2  502    0  0.20625560072E+02  0.21074593168E+02  0.18149216691E+03  0.18387212637E+03  0.00000000000E+00 0. -1.
         -1    1    1    2    0  501 -0.20625560072E+02 -0.21074593168E+02  0.58657497946E+02  0.65652526766E+02  0.00000000000E+00 0.  1.
</event>
<event>
 4    1  0.7060698E+001  0.6076690E+02  0.7546771E-02  0.1257249E+00
          2   -1    0    0  502    0  0.00000000000E+00  0.00000000000E+00  0.17057741393E+04  0.17057741393E+04  0.00000000000E+00 0. -1.
         -2   -1    0    0    0  501 -0.00000000000E+00 -0.00000000000E+00 -0.21945581094E+01  0.21945581094E+01  0.00000000000E+00 0.  1.
          1    1    1    2  502    0  0.51723231508E+02 -0.31895517551E+02  0.95127614161E+03  0.95321504096E+03  0.00000000000E+00 0.  1.
         -1    1    1    2    0  501 -0.51723231508E+02  0.31895517551E+02  0.75230343956E+03  0.75475365643E+03  0.00000000000E+00 0. -1.
</event>
<event>
 4    1  0.7060698E+001  0.2421100E+02  0.7546771E-02  0.1477827E+00
          2   -1    0    0  502    0  0.00000000000E+00  0.00000000000E+00  0.10000508146E+03  0.10000508146E+03  0.00000000000E+00 0.  1.
         -2   -1    0    0    0  501 -0.00000000000E+00 -0.00000000000E+00 -0.58948888262E+01  0.58948888262E+01  0.00000000000E+00 0. -1.
          1    1    1    2  502    0  0.16767945763E+02 -0.17464486975E+02  0.43065635940E+02  0.49404668902E+02  0.00000000000E+00 0.  1.
         -1    1    1    2    0  501 -0.16767945763E+02  0.17464486975E+02  0.51044556692E+02  0.56495301382E+02  0.00000000000E+00 0. -1.
</event>
<event>
 4    1  0.7060698E+001  0.2747434E+02  0.7546771E-02  0.1442901E+00
          2   -1    0    0  502    0  0.00000000000E+00  0.00000000000E+00  0.13744911819E+02  0.13744911819E+02  0.00000000000E+00 0. -1.
         -2   -1    0    0    0  501 -0.00000000000E+00 -0.00000000000E+00 -0.80695506797E+02  0.80695506797E+02  0.00000000000E+00 0.  1.
          1    1    1    2  502    0 -0.13156631163E+02  0.24119338662E+02 -0.60163904605E+02  0.66140266544E+02  0.00000000000E+00 0. -1.
         -1    1    1    2    0  501  0.13156631163E+02 -0.24119338662E+02 -0.67866903728E+01  0.28300152072E+02  0.00000000000E+00 0.  1.
</event>
<event>
 4    1  0.7060698E+001  0.2205749E+02  0.7546771E-02  0.1504685E+00
          2   -1    0    0  502    0  0.00000000000E+00  0.00000000000E+00  0.20388455473E+01  0.20388455473E+01  0.00000000000E+00 0.  1.
         -2   -1    0    0    0  501 -0.00000000000E+00 -0.00000000000E+00 -0.24375118349E+03  0.24375118349E+03  0.00000000000E+00 0. -1.
          1    1    1    2  502    0 -0.92239801577E+01  0.20036238964E+02 -0.10304533250E+03  0.10537966233E+03  0.00000000000E+00 0. -1.
         -1    1    1    2    0  501  0.92239801577E+01 -0.20036238964E+02 -0.13866700544E+03  0.14041036671E+03  0.00000000000E+00 0.  1.
</event>
<event>
 4    1  0.7060698E+001  0.4873787E+02  0.7546771E-02  0.1303739E+00
          2   -1    0    0  502    0  0.00000000000E+00  0.00000000000E+00  0.76803264554E+03  0.76803264554E+03  0.00000000000E+00 0. -1.
         -2   -1    0    0    0  501 -0.00000000000E+00 -0.00000000000E+00 -0.33062593644E+01  0.33062593644E+01  0.00000000000E+00 0.  1.
          1    1    1    2  502    0 -0.35309036661E+02 -0.33595420686E+02  0.48035561088E+03  0.48282180281E+03  0.00000000000E+00 0. -1.
         -1    1    1    2    0  501  0.35309036661E+02  0.33595420686E+02  0.28437077529E+03  0.28851710210E+03  0.00000000000E+00 0.  1.
</event>
<event>
 4    1  0.7060698E+001  0.2008400E+02  0.7546771E-02  0.1532755E+00
          2   -1    0    0  502    0  0.00000000000E+00  0.00000000000E+00  0.91229199457E+03  0.91229199457E+03  0.00000000000E+00 0. -1.
         -2   -1    0    0    0  501 -0.00000000000E+00 -0.00000000000E+00 -0.48182659723E+00  0.48182659723E+00  0.00000000000E+00 0.  1.
          1    1    1    2  502    0  0.43981315313E+01  0.19596520464E+02  0.32493521821E+03  0.32555531513E+03  0.00000000000E+00 0.  1.
         -1    1    1    2    0  501 -0.43981315313E+01 -0.19596520464E+02  0.58687494977E+03  0.58721850604E+03  0.00000000000E+00 0. -1.
</event>
<event>
 4    1  0.7060698E+001  0.2447497E+02  0.7546771E-02  0.1474763E+00
          2   -1    0    0  502    0  0.00000000000E+00  0.00000000000E+00  0.49087416738E+03  0.49087416738E+03  0.00000000000E+00 0.  1.
         -2   -1    0    0    0  501 -0.00000000000E+00 -0.00000000000E+00 -0.12250904120E+01  0.12250904120E+01  0.00000000000E+00 0. -1.
          1    1    1    2  502    0  0.20846429305E+02 -0.12823818007E+02  0.26017718621E+03  0.26132583521E+03  0.00000000000E+00 0. -1.
         -1    1    1    2    0  501 -0.20846429305E+02  0.12823818007E+02  0.22947189076E+03  0.23077342259E+03  0.00000000000E+00 0.  1.
</event>
<event>
 4    1  0.7060698E+001  0.2199889E+02  0.7546771E-02  0.1505467E+00
          2   -1    0    0  502    0  0.00000000000E+00  0.00000000000E+00  0.10154262501E+03  0.10154262501E+03  0.00000000000E+00 0.  1.
         -2   -1    0    0    0  501 -0.00000000000E+00 -0.00000000000E+00 -0.47661385518E+01  0.47661385518E+01  0.00000000000E+00 0. -1.
          1    1    1    2  502    0  0.13917446584E+02 -0.17036896717E+02  0.48091823055E+02  0.52884540406E+02  0.00000000000E+00 0. -1.
         -1    1    1    2    0  501 -0.13917446584E+02  0.17036896717E+02  0.48684663400E+02  0.53424223153E+02  0.00000000000E+00 0.  1.
</event>
<event>
 4    1  0.7060698E+001  0.2354345E+02  0.7546771E-02  0.1485784E+00
          2   -1    0    0  502    0  0.00000000000E+00  0.00000000000E+00  0.29177423570E+03  0.29177423570E+03  0.00000000000E+00 0.  1.
         -2   -1    0    0    0  501 -0.00000000000E+00 -0.00000000000E+00 -0.23770806588E+01  0.23770806588E+01  0.00000000000E+00 0. -1.
          1    1    1    2  502    0 -0.20848033054E+02 -0.10938627692E+02  0.21060607397E+03  0.21191793801E+03  0.00000000000E+00 0.  1.
         -1    1    1    2    0  501  0.20848033054E+02  0.10938627692E+02  0.78791081073E+02  0.82233378349E+02  0.00000000000E+00 0. -1.
</event>
<event>
 4    1  0.7060698E+001  0.2182391E+02  0.7546771E-02  0.1507819E+00
          2   -1    0    0  502    0  0.00000000000E+00  0.00000000000E+00  0.54636041852E+03  0.54636041852E+03  0.00000000000E+00 0.  1.
         -2   -1    0    0    0  501 -0.00000000000E+00 -0.00000000000E+00 -0.92641519855E+00  0.92641519855E+00  0.00000000000E+00 0. -1.
          1    1    1    2  502    0 -0.15977875781E+02  0.14865756985E+02  0.20623799507E+03  0.20738947383E+03  0.00000000000E+00 0.  1.
         -1    1    1    2    0  501  0.15977875781E+02 -0.14865756985E+02  0.33919600825E+03  0.33989735989E+03  0.00000000000E+00 0. -1.
</event>
<event>
 4    1  0.7060698E+001  0.2191018E+02  0.7546771E-02  0.1506656E+00
          2   -1    0    0  502    0  0.00000000000E+00  0.00000000000E+00  0.20692604911E+03  0.20692604911E+03  0.00000000000E+00 0. -1.
         -2   -1    0    0    0  501 -0.00000000000E+00 -0.00000000000E+00 -0.31534573116E+01  0.31534573116E+01  0.00000000000E+00 0.  1.
          1    1    1    2  502    0 -0.21732649394E+02 -0.27835383155E+01  0.47883358951E+02  0.52658068705E+02  0.00000000000E+00 0.  1.
         -1    1    1    2    0  501  0.21732649394E+02  0.27835383155E+01  0.15588923285E+03  0.15742143772E+03  0.00000000000E+00 0. -1.
</event>
<event>
 4    1  0.7060698E+001  0.2127929E+02  0.7546771E-02  0.1515315E+00
          2   -1    0    0  502    0  0.00000000000E+00  0.00000000000E+00  0.10426883613E+03  0.10426883613E+03  0.00000000000E+00 0.  1.
         -2   -1    0    0    0  501 -0.00000000000E+00 -0.00000000000E+00 -0.21029782575E+02  0.21029782575E+02  0.00000000000E+00 0. -1.
          1    1    1    2  502    0 -0.15153025994E+02  0.14939672785E+02  0.97426585739E+02  0.99723355481E+02  0.00000000000E+00 0.  1.
         -1    1    1    2    0  501  0.15153025994E+02 -0.14939672785E+02 -0.14187532181E+02  0.25575263227E+02  0.00000000000E+00 0. -1.
</event>
<event>
 4    1  0.7060698E+001  0.3267700E+02  0.7546771E-02  0.1397674E+00
          2   -1    0    0  502    0  0.00000000000E+00  0.00000000000E+00  0.73556311044E+01  0.73556311044E+01  0.00000000000E+00 0.  1.
         -2   -1    0    0    0  501 -0.00000000000E+00 -0.00000000000E+00 -0.15210727890E+03  0.15210727890E+03  0.00000000000E+00 0. -1.
          1    1    1    2  502    0  0.39492168452E+01 -0.32437483528E+02 -0.55343330132E+02  0.64270295172E+02  0.00000000000E+00 0.  1.
         -1    1    1    2    0  501 -0.39492168452E+01  0.32437483528E+02 -0.89408317668E+02  0.95192614837E+02  0.00000000000E+00 0. -1.
</event>
<event>
 4    1  0.7060698E+001  0.2024328E+02  0.7546771E-02  0.1530349E+00
          2   -1    0    0  502    0  0.00000000000E+00  0.00000000000E+00  0.10343152566E+04  0.10343152566E+04  0.00000000000E+00 0.  1.
         -2   -1    0    0    0  501 -0.00000000000E+00 -0.00000000000E+00 -0.44427266875E+00  0.44427266875E+00  0.00000000000E+00 0. -1.
          1    1    1    2  502    0 -0.16759036716E+02  0.11354526150E+02  0.68713415920E+03  0.68743228272E+03  0.00000000000E+00 0.  1.
         -1    1    1    2    0  501  0.16759036716E+02 -0.11354526150E+02  0.34673682477E+03  0.34732724660E+03  0.00000000000E+00 0. -1.
</event>
<event>
 4    1  0.7060698E+001  0.2239713E+02  0.7546771E-02  0.1500210E+00
          2   -1    0    0  502    0  0.00000000000E+00  0.00000000000E+00  0.13822710961E+03  0.13822710961E+03  0.00000000000E+00 0. -1.
         -2   -1    0    0    0  501 -0.00000000000E+00 -0.00000000000E+00 -0.36402411232E+01  0.36402411232E+01  0.00000000000E+00 0.  1.
          1    1    1    2  502    0  0.56340464914E+01 -0.21676920270E+02  0.71228647935E+02  0.74666938058E+02  0.00000000000E+00 0. -1.
         -1    1    1    2    0  501 -0.56340464914E+01  0.21676920270E+02  0.63358220550E+02  0.67200412673E+02  0.00000000000E+00 0.  1.
</event>
<event>
 4    1  0.7060698E+001  0.2212162E+02  0.7546771E-02  0.1503833E+00
          2   -1    0    0  502    0  0.00000000000E+00  0.00000000000E+00  0.16670398859E+04  0.16670398859E+04  0.00000000000E+00 0.  1.
         -2   -1    0    0    0  501 -0.00000000000E+00 -0.00000000000E+00 -0.35485165296E+00  0.35485165296E+00  0.00000000000E+00 0. -1.
          1    1    1    2  502    0 -0.22045154626E+02  0.18376864623E+01  0.48683907003E+03  0.48734140604E+03  0.00000000000E+00 0. -1.
         -1    1    1    2    0  501  0.22045154626E+02 -0.18376864623E+01  0.11798459642E+04  0.11800533315E+04  0.00000000000E+00 0.  1.
</event>
<event>
 4    1  0.7060698E+001  0.2029363E+02  0.7546771E-02  0.1529593E+00
          2   -1    0    0  502    0  0.00000000000E+00  0.00000000000E+00  0.11053929327E+03  0.11053929327E+03  0.00000000000E+00 0.  1.
         -2   -1    0    0    0  501 -0.00000000000E+00 -0.00000000000E+00 -0.46596326213E+01  0.46596326213E+01  0.00000000000E+00 0. -1.
          1    1    1    2  502    0  0.20144108107E+02  0.24589135294E+01  0.78727415174E+02  0.81300905574E+02  0.00000000000E+00 0.  1.
         -1    1    1    2    0  501 -0.20144108107E+02 -0.24589135294E+01  0.27152245480E+02  0.33898020322E+02  0.00000000000E+00 0. -1.
</event>
<event>
 4    1  0.7060698E+001  0.1152177E+03  0.7546771E-02  0.1139771E+00
          2   -1    0    0  502    0  0.00000000000E+00  0.00000000000E+00  0.11232275354E+02  0.11232275354E+02  0.00000000000E+00 0.  1.
         -2   -1    0    0    0  501 -0.00000000000E+00 -0.00000000000E+00 -0.12206966171E+04  0.12206966171E+04  0.00000000000E+00 0. -1.
          1    1    1    2  502    0 -0.11510032229E+03  0.52000308604E+01 -0.71458190322E+03  0.72381103951E+03  0.00000000000E+00 0. -1.
         -1    1    1    2    0  501  0.11510032229E+03 -0.52000308604E+01 -0.49488243848E+03  0.50811785290E+03  0.00000000000E+00 0.  1.
</event>
<event>
 4    1  0.7060698E+001  0.2463642E+02  0.7546771E-02  0.1472912E+00
          2   -1    0    0  502    0  0.00000000000E+00  0.00000000000E+00  0.30448521343E+03  0.30448521343E+03  0.00000000000E+00 0. -1.
         -2   -1    0    0    0  501 -0.00000000000E+00 -0.00000000000E+00 -0.19944504723E+01  0.19944504723E+01  0.00000000000E+00 0.  1.
          1    1    1    2  502    0  0.42391171036E+01 -0.24268972863E+02  0.15480411864E+03  0.15675225136E+03  0.00000000000E+00 0. -1.
         -1    1    1    2    0  501 -0.42391171036E+01  0.24268972863E+02  0.14768664431E+03  0.14972741254E+03  0.00000000000E+00 0.  1.
</event>
<event>
 4    1  0.7060698E+001  0.3572743E+02  0.7546771E-02  0.1375520E+00
          2   -1    0    0  502    0  0.00000000000E+00  0.00000000000E+00  0.49481757501E+03  0.49481757501E+03  0.00000000000E+00 0. -1.
         -2   -1    0    0    0  501 -0.00000000000E+00 -0.00000000000E+00 -0.26302038951E+01  0.26302038951E+01  0.00000000000E+00 0.  1.
          1    1    1    2  502    0 -0.35705059587E+02 -0.12642306459E+01  0.28058084085E+03  0.28284635018E+03  0.00000000000E+00 0. -1.
         -1    1    1    2    0  501  0.35705059587E+02  0.12642306459E+01  0.21160653027E+03  0.21460142872E+03  0.00000000000E+00 0.  1.
</event>
<event>
 4    1  0.7060698E+001  0.2259480E+02  0.7546771E-02  0.1497650E+00
          2   -1    0    0  502    0  0.00000000000E+00  0.00000000000E+00  0.19011622680E+02  0.19011622680E+02  0.00000000000E+00 0. -1.
         -2   -1    0    0    0  501 -0.00000000000E+00 -0.00000000000E+00 -0.26856274142E+02  0.26856274142E+02  0.00000000000E+00 0.  1.
          1    1    1    2  502    0  0.50517164656E+01 -0.22022834281E+02 -0.36815407438E+01  0.22892767663E+02  0.00000000000E+00 0. -1.
         -1    1    1    2    0  501 -0.50517164656E+01  0.22022834281E+02 -0.41631107179E+01  0.22975129159E+02  0.00000000000E+00 0.  1.
</event>
<event>
 4    1  0.7060698E+001  0.2115506E+02  0.7546771E-02  0.1517062E+00
          2   -1    0    0  502    0  0.00000000000E+00  0.00000000000E+00  0.57339163629E+01  0.57339163629E+01  0.00000000000E+00 0. -1.
         -2   -1    0    0    0  501 -0.00000000000E+00 -0.00000000000E+00 -0.92753762307E+02  0.92753762307E+02  0.00000000000E+00 0.  1.
          1    1    1    2  502    0 -0.84970690957E+01 -0.19373603280E+02 -0.63115911572E+02  0.66566921070E+02  0.00000000000E+00 0. -1.
         -1    1    1    2    0  501  0.84970690957E+01  0.19373603280E+02 -0.23903934373E+02  0.31920757600E+02  0.00000000000E+00 0.  1.
</event>
<event>
 4    1  0.7060698E+001  0.3944138E+02  0.7546771E-02  0.1351791E+00
          2   -1    0    0  502    0  0.00000000000E+00  0.00000000000E+00  0.11308281134E+04  0.11308281134E+04  0.00000000000E+00 0.  1.
         -2   -1    0    0    0  501 -0.00000000000E+00 -0.00000000000E+00 -0.14194322811E+01  0.14194322811E+01  0.00000000000E+00 0. -1.
          1    1    1    2  502    0  0.13527687149E+02  0.37048943350E+02  0.46527641405E+03  0.46694514024E+03  0.00000000000E+00 0. -1.
         -1    1    1    2    0  501 -0.13527687149E+02 -0.37048943350E+02  0.66413226711E+03  0.66530240548E+03  0.00000000000E+00 0.  1.
</event>
<event>
 4    1  0.7060698E+001  0.2037840E+02  0.7546771E-02  0.1528328E+00
          2   -1    0    0  502    0  0.00000000000E+00  0.00000000000E+00  0.86124824201E+02  0.86124824201E+02  0.00000000000E+00 0. -1.
         -2   -1    0    0    0  501 -0.00000000000E+00 -0.00000000000E+00 -0.49242183057E+01  0.49242183057E+01  0.00000000000E+00 0.  1.
          1    1    1    2  502    0 -0.16322818381E+01  0.20312922264E+02  0.47164846462E+02  0.51379002488E+02  0.00000000000E+00 0. -1.
         -1    1    1    2    0  501  0.16322818381E+01 -0.20312922264E+02  0.34035759433E+02  0.39670040019E+02  0.00000000000E+00 0.  1.
</event>
<event>
 4    1  0.7060698E+001  0.2581366E+02  0.7546771E-02  0.1459903E+00
          2   -1    0    0  502    0  0.00000000000E+00  0.00000000000E+00  0.29058271652E+03  0.29058271652E+03  0.00000000000E+00 0. -1.
         -2   -1    0    0    0  501 -0.00000000000E+00 -0.00000000000E+00 -0.22932299202E+01  0.22932299202E+01  0.00000000000E+00 0.  1.
          1    1    1    2  502    0 -0.43994242236E+01  0.25435995369E+02  0.14509712447E+03  0.14737544002E+03  0.00000000000E+00 0. -1.
         -1    1    1    2    0  501  0.43994242236E+01 -0.25435995369E+02  0.14319236213E+03  0.14550050641E+03  0.00000000000E+00 0.  1.
</event>
<event>
 4    1  0.7060698E+001  0.2214582E+02  0.7546771E-02  0.1503512E+00
          2   -1    0    0  502    0  0.00000000000E+00  0.00000000000E+00  0.48360984153E+01  0.48360984153E+01  0.00000000000E+00 0.  1.
         -2   -1    0    0    0  501 -0.00000000000E+00 -0.00000000000E+00 -0.10182021722E+03  0.10182021722E+03  0.00000000000E+00 0. -1.
          1    1    1    2  502    0 -0.13540121298E+02  0.17524340474E+02 -0.45114544668E+02  0.50256935187E+02  0.00000000000E+00 0.  1.
         -1    1    1    2    0  501  0.13540121298E+02 -0.17524340474E+02 -0.51869574139E+02  0.56399380450E+02  0.00000000000E+00 0. -1.
</event>
<event>
 4    1  0.7060698E+001  0.2235363E+02  0.7546771E-02  0.1500778E+00
          2   -1    0    0  502    0  0.00000000000E+00  0.00000000000E+00  0.14312288171E+04  0.14312288171E+04  0.00000000000E+00 0. -1.
         -2   -1    0    0    0  501 -0.00000000000E+00 -0.00000000000E+00 -0.34923226296E+00  0.34923226296E+00  0.00000000000E+00 0.  1.
          1    1    1    2  502    0  0.95113367313E+01  0.20229164889E+02  0.70317953231E+03  0.70353474633E+03  0.00000000000E+00 0. -1.
         -1    1    1    2    0  501 -0.95113367313E+01 -0.20229164889E+02  0.72770005251E+03  0.72804330302E+03  0.00000000000E+00 0.  1.
</event>
<event>
 4    1  0.7060698E+001  0.2226358E+02  0.7546771E-02  0.1501958E+00
          2   -1    0    0  502    0  0.00000000000E+00  0.00000000000E+00  0.14812519647E+01  0.14812519647E+01  0.00000000000E+00 0.  1.
         -2   -1    0    0    0  501 -0.00000000000E+00 -0.00000000000E+00 -0.34851044383E+03  0.34851044383E+03  0.00000000000E+00 0. -1.
          1    1    1    2  502    0 -0.17326061429E+02  0.13981221272E+02 -0.13858706357E+03  0.14036395955E+03  0.00000000000E+00 0.  1.
         -1    1    1    2    0  501  0.17326061429E+02 -0.13981221272E+02 -0.20844212830E+03  0.20962773624E+03  0.00000000000E+00 0. -1.
</event>
<event>
 4    1  0.7060698E+001  0.2004251E+02  0.7546771E-02  0.1533387E+00
          2   -1    0    0  502    0  0.00000000000E+00  0.00000000000E+00  0.24968757386E+02  0.24968757386E+02  0.00000000000E+00 0.  1.
         -2   -1    0    0    0  501 -0.00000000000E+00 -0.00000000000E+00 -0.22290428684E+02  0.22290428684E+02  0.00000000000E+00 0. -1.
          1    1    1    2  502    0 -0.99712891482E+01  0.17386073337E+02  0.13803559610E+02  0.24335990041E+02  0.00000000000E+00 0.  1.
         -1    1    1    2    0  501  0.99712891482E+01 -0.17386073337E+02 -0.11125230909E+02  0.22923196028E+02  0.00000000000E+00 0. -1.
</event>
<event>
 4    1  0.7060698E+001  0.2060540E+02  0.7546771E-02  0.1524974E+00
          2   -1    0    0  502    0  0.00000000000E+00  0.00000000000E+00  0.38009052022E+03  0.38009052022E+03  0.00000000000E+00 0.  1.
         -2   -1    0    0    0  501 -0.00000000000E+00 -0.00000000000E+00 -0.73665469235E+01  0.73665469235E+01  0.00000000000E+00 0. -1.
          1    1    1    2  502    0 -0.68058230786E+01  0.19448993148E+02  0.36479857740E+03  0.36538005506E+03  0.00000000000E+00 0.  1.
         -1    1    1    2    0  501  0.68058230786E+01 -0.19448993148E+02  0.79253958903E+01  0.22077012078E+02  0.00000000000E+00 0. -1.
</event>
<event>
 4    1  0.7060698E+001  0.3119291E+02  0.7546771E-02  0.1409506E+00
          2   -1    0    0  502    0  0.00000000000E+00  0.00000000000E+00  0.48182217507E+02  0.48182217507E+02  0.00000000000E+00 0.  1.
         -2   -1    0    0    0  501 -0.00000000000E+00 -0.00000000000E+00 -0.22251346851E+02  0.22251346851E+02  0.00000000000E+00 0. -1.
          1    1    1    2  502    0 -0.59462997754E+01  0.30620891105E+02  0.22573289913E+01  0.31274478210E+02  0.00000000000E+00 0. -1.
         -1    1    1    2    0  501  0.59462997754E+01 -0.30620891105E+02  0.23673541665E+02  0.39159086149E+02  0.00000000000E+00 0.  1.
</event>
<event>
 4    1  0.7060698E+001  0.2283959E+02  0.7546771E-02  0.1494522E+00
          2   -1    0    0  502    0  0.00000000000E+00  0.00000000000E+00  0.93898585423E+03  0.93898585423E+03  0.00000000000E+00 0.  1.
         -2   -1    0    0    0  501 -0.00000000000E+00 -0.00000000000E+00 -0.63283735399E+00  0.63283735399E+00  0.00000000000E+00 0. -1.
          1    1    1    2  502    0  0.17537991604E+02  0.14630986578E+02  0.30498534284E+03  0.30583934715E+03  0.00000000000E+00 0. -1.
         -1    1    1    2    0  501 -0.17537991604E+02 -0.14630986578E+02  0.63336767404E+03  0.63377934444E+03  0.00000000000E+00 0.  1.
</event>
<event>
 4    1  0.7060698E+001  0.2657007E+02  0.7546771E-02  0.1451975E+00
          2   -1    0    0  502    0  0.00000000000E+00  0.00000000000E+00  0.59207146411E+00  0.59207146411E+00  0.00000000000E+00 0.  1.
         -2   -1    0    0    0  501 -0.00000000000E+00 -0.00000000000E+00 -0.14793881650E+04  0.14793881650E+04  0.00000000000E+00 0. -1.
          1    1    1    2  502    0  0.36216142131E+01  0.26322095743E+02 -0.41345717437E+03  0.41431003349E+03  0.00000000000E+00 0.  1.
         -1    1    1    2    0  501 -0.36216142131E+01 -0.26322095743E+02 -0.10653389192E+04  0.10656702030E+04  0.00000000000E+00 0. -1.
</event>
<event>
 4    1  0.7060698E+001  0.2908602E+02  0.7546771E-02  0.1427709E+00
          2   -1    0    0  502    0  0.00000000000E+00  0.00000000000E+00  0.22757971883E+03  0.22757971883E+03  0.00000000000E+00 0. -1.
         -2   -1    0    0    0  501 -0.00000000000E+00 -0.00000000000E+00 -0.37173709268E+01  0.37173709268E+01  0.00000000000E+00 0.  1.
          1    1    1    2  502    0 -0.19158093205E+02 -0.21885240363E+02  0.11210672023E+03  0.11581844845E+03  0.00000000000E+00 0.  1.
         -1    1    1    2    0  501  0.19158093205E+02  0.21885240363E+02  0.11175562767E+03  0.11547864130E+03  0.00000000000E+00 0. -1.
</event>
<event>
 4    1  0.7060698E+001  0.2875013E+02  0.7546771E-02  0.1430778E+00
          2   -1    0    0  502    0  0.00000000000E+00  0.00000000000E+00  0.18036718537E+04  0.18036718537E+04  0.00000000000E+00 0. -1.
         -2   -1    0    0    0  501 -0.00000000000E+00 -0.00000000000E+00 -0.56937793306E+00  0.56937793306E+00  0.00000000000E+00 0.  1.
          1    1    1    2  502    0 -0.87340984901E+01 -0.27391344423E+02  0.13000575212E+04  0.13003753799E+04  0.00000000000E+00 0. -1.
         -1    1    1    2    0  501  0.87340984901E+01  0.27391344423E+02  0.50304495457E+03  0.50386585173E+03  0.00000000000E+00 0.  1.
</event>
<event>
 4    1  0.7060698E+001  0.2622435E+02  0.7546771E-02  0.1455559E+00
          2   -1    0    0  502    0  0.00000000000E+00  0.00000000000E+00  0.18857485953E+03  0.18857485953E+03  0.00000000000E+00 0.  1.
         -2   -1    0    0    0  501 -0.00000000000E+00 -0.00000000000E+00 -0.38681846087E+01  0.38681846087E+01  0.00000000000E+00 0. -1.
          1    1    1    2  502    0  0.24173870882E+02 -0.10165654219E+02  0.11536664909E+03  0.11830967957E+03  0.00000000000E+00 0.  1.
         -1    1    1    2    0  501 -0.24173870882E+02  0.10165654219E+02  0.69340025832E+02  0.74133364563E+02  0.00000000000E+00 0. -1.
</event>
<event>
 4    1  0.7060698E+001  0.3433753E+02  0.7546771E-02  0.1385281E+00
          2   -1    0    0  502    0  0.00000000000E+00  0.00000000000E+00  0.43021859061E+03  0.43021859061E+03  0.00000000000E+00 0. -1.
         -2   -1    0    0    0  501 -0.00000000000E+00 -0.00000000000E+00 -0.36483328591E+01  0.36483328591E+01  0.00000000000E+00 0.  1.
          1    1    1    2  502    0 -0.34069243023E+02  0.42840209174E+01  0.32149161533E+03  0.32332015848E+03  0.00000000000E+00 0. -1.
         -1    1    1    2    0  501  0.34069243023E+02 -0.42840209174E+01  0.10507864242E+03  0.11054676498E+03  0.00000000000E+00 0.  1.
</event>
<event>
 4    1  0.7060698E+001  0.3380129E+02  0.7546771E-02  0.1389192E+00
          2   -1    0    0  502    0  0.00000000000E+00  0.00000000000E+00  0.20176115440E+03  0.20176115440E+03  0.00000000000E+00 0.  1.
         -2   -1    0    0    0  501 -0.00000000000E+00 -0.00000000000E+00 -0.71093799666E+01  0.71093799666E+01  0.00000000000E+00 0. -1.
          1    1    1    2  502    0  0.31422735900E+02 -0.12455486643E+02  0.50216582084E+02  0.60532905062E+02  0.00000000000E+00 0. -1.
         -1    1    1    2    0  501 -0.31422735900E+02  0.12455486643E+02  0.14443519235E+03  0.14833762930E+03  0.00000000000E+00 0.  1.
</event>
<event>
 4    1  0.7060698E+001  0.2021587E+02  0.7546771E-02  0.1530761E+00
          2   -1    0    0  502    0  0.00000000000E+00  0.00000000000E+00  0.51853764572E+03  0.51853764572E+03  0.00000000000E+00 0. -1.
         -2   -1    0    0    0  501 -0.00000000000E+00 -0.00000000000E+00 -0.14524582642E+01  0.14524582642E+01  0.00000000000E+00 0.  1.
          1    1    1    2  502    0  0.37997807512E+01  0.19855554290E+02  0.82709487338E+02  0.85144234483E+02  0.00000000000E+00 0.  1.
         -1    1    1    2    0  501 -0.37997807512E+01 -0.19855554290E+02  0.43437570011E+03  0.43484586950E+03  0.00000000000E+00 0. -1.
</event>
<event>
 4    1  0.7060698E+001  0.2435945E+02  0.7546771E-02  0.1476098E+00
          2   -1    0    0  502    0  0.00000000000E+00  0.00000000000E+00  0.42685832633E+03  0.42685832633E+03  0.00000000000E+00 0. -1.
         -2   -1    0    0    0  501 -0.00000000000E+00 -0.00000000000E+00 -0.23845587060E+01  0.23845587060E+01  0.00000000000E+00 0.  1.
          1    1    1    2  502    0 -0.14097559177E+02  0.19865591010E+02  0.73638286771E+02  0.77562749819E+02  0.00000000000E+00 0.  1.
         -1    1    1    2    0  501  0.14097559177E+02 -0.19865591010E+02  0.35083548085E+03  0.35168013522E+03  0.00000000000E+00 0. -1.
</event>
<event>
 4    1  0.7060698E+001  0.6959039E+02  0.7546771E-02  0.1230323E+00
          2   -1    0    0  502    0  0.00000000000E+00  0.00000000000E+00  0.76058748404E+02  0.76058748404E+02  0.00000000000E+00 0. -1.
         -2   -1    0    0    0  501 -0.00000000000E+00 -0.00000000000E+00 -0.78429881735E+02  0.78429881735E+02  0.00000000000E+00 0.  1.
          1    1    1    2  502    0  0.51601562955E+02 -0.46691558964E+02  0.32321449659E+02  0.76730040310E+02  0.00000000000E+00 0. -1.
         -1    1    1    2    0  501 -0.51601562955E+02  0.46691558964E+02 -0.34692582990E+02  0.77758589830E+02  0.00000000000E+00 0.  1.
</event>
<event>
 4    1  0.7060698E+001  0.5447014E+02  0.7546771E-02  0.1279874E+00
          2   -1    0    0  502    0  0.00000000000E+00  0.00000000000E+00  0.60043754245E+03  0.60043754245E+03  0.00000000000E+00 0. -1.
         -2   -1    0    0    0  501 -0.00000000000E+00 -0.00000000000E+00 -0.83356985657E+01  0.83356985657E+01  0.00000000000E+00 0.  1.
          1    1    1    2  502    0 -0.51567425232E+02  0.17544123740E+02  0.49028716336E+03  0.49330365717E+03  0.00000000000E+00 0. -1.
         -1    1    1    2    0  501  0.51567425232E+02 -0.17544123740E+02  0.10181468052E+03  0.11546958384E+03  0.00000000000E+00 0.  1.
</event>
<event>
 4    1  0.7060698E+001  0.5932498E+02  0.7546771E-02  0.1262143E+00
          2   -1    0    0  502    0  0.00000000000E+00  0.00000000000E+00  0.34168442167E+03  0.34168442167E+03  0.00000000000E+00 0.  1.
         -2   -1    0    0    0  501 -0.00000000000E+00 -0.00000000000E+00 -0.10309665221E+02  0.10309665221E+02  0.00000000000E+00 0. -1.
          1    1    1    2  502    0  0.18966004490E+01 -0.59294656163E+02  0.17099077677E+03  0.18098977618E+03  0.00000000000E+00 0.  1.
         -1    1    1    2    0  501 -0.18966004490E+01  0.59294656163E+02  0.16038397968E+03  0.17100431070E+03  0.00000000000E+00 0. -1.
</event>
<event>
 4    1  0.7060698E+001  0.2072952E+02  0.7546771E-02  0.1523162E+00
          2   -1    0    0  502    0  0.00000000000E+00  0.00000000000E+00  0.90202037467E+02  0.90202037467E+02  0.00000000000E+00 0.  1.
         -2   -1    0    0    0  501 -0.00000000000E+00 -0.00000000000E+00 -0.50146957858E+01  0.50146957858E+01  0.00000000000E+00 0. -1.
          1    1    1    2  502    0  0.14184972426E+02 -0.15116206741E+02  0.31946742256E+02  0.38082902853E+02  0.00000000000E+00 0.  1.
         -1    1    1    2    0  501 -0.14184972426E+02  0.15116206741E+02  0.53240599425E+02  0.57133830400E+02  0.00000000000E+00 0. -1.
</event>
<event>
 4    1  0.7060698E+001  0.2820563E+02  0.7546771E-02  0.1435859E+00
          2   -1    0    0  502    0  0.00000000000E+00  0.00000000000E+00  0.11785018481E+03  0.11785018481E+03  0.00000000000E+00 0. -1.
         -2   -1    0    0    0  501 -0.00000000000E+00 -0.00000000000E+00 -0.87971497561E+01  0.87971497561E+01  0.00000000000E+00 0.  1.
          1    1    1    2  502    0  0.28202291157E+02  0.43417045388E+00  0.23983793039E+02  0.37024047037E+02  0.00000000000E+00 0. -1.
         -1    1    1    2    0  501 -0.28202291157E+02 -0.43417045388E+00  0.85069242011E+02  0.89623287525E+02  0.00000000000E+00 0.  1.
</event>
<event>
 4    1  0.7060698E+001  0.3052596E+02  0.7546771E-02  0.1415080E+00
          2   -1    0    0  502    0  0.00000000000E+00  0.00000000000E+00  0.14857270877E+03  0.14857270877E+03  0.00000000000E+00 0.  1.
         -2   -1    0    0    0  501 -0.00000000000E+00 -0.00000000000E+00 -0.77970422362E+01  0.77970422362E+01  0.00000000000E+00 0. -1.
          1    1    1    2  502    0 -0.24083487989E+02  0.18756866538E+02  0.35808885909E+02  0.47054338228E+02  0.00000000000E+00 0. -1.
         -1    1    1    2    0  501  0.24083487989E+02 -0.18756866538E+02  0.10496678062E+03  0.10931541277E+03  0.00000000000E+00 0.  1.
</event>
<event>
 4    1  0.7060698E+001  0.3124971E+02  0.7546771E-02  0.1409039E+00
          2   -1    0    0  502    0  0.00000000000E+00  0.00000000000E+00  0.19729777331E+04  0.19729777331E+04  0.00000000000E+00 0.  1.
         -2   -1    0    0    0  501 -0.00000000000E+00 -0.00000000000E+00 -0.56869951049E+00  0.56869951049E+00  0.00000000000E+00 0. -1.
          1    1    1    2  502    0 -0.31247333099E+02  0.38573912284E+00  0.63087874733E+03  0.63165222904E+03  0.00000000000E+00 0. -1.
         -1    1    1    2    0  501  0.31247333099E+02 -0.38573912284E+00  0.13415302862E+04  0.13418942036E+04  0.00000000000E+00 0.  1.
</event>
<event>
 4    1  0.7060698E+001  0.2851076E+02  0.7546771E-02  0.1432995E+00
          2   -1    0    0  502    0  0.00000000000E+00  0.00000000000E+00  0.17933396877E+04  0.17933396877E+04  0.00000000000E+00 0. -1.
         -2   -1    0    0    0  501 -0.00000000000E+00 -0.00000000000E+00 -0.16894427732E+01  0.16894427732E+01  0.00000000000E+00 0.  1.
          1    1    1    2  502    0 -0.18913212318E+02 -0.21334330459E+02  0.16635572660E+04  0.16638015628E+04  0.00000000000E+00 0. -1.
         -1    1    1    2    0  501  0.18913212318E+02  0.21334330459E+02  0.12809297899E+03  0.13122756770E+03  0.00000000000E+00 0.  1.
</event>
<event>
 4    1  0.7060698E+001  0.4685433E+02  0.7546771E-02  0.1312419E+00
          2   -1    0    0  502    0  0.00000000000E+00  0.00000000000E+00  0.30580128526E+03  0.30580128526E+03  0.00000000000E+00 0. -1.
         -2   -1    0    0    0  501 -0.00000000000E+00 -0.00000000000E+00 -0.90441436404E+01  0.90441436404E+01  0.00000000000E+00 0.  1.
          1    1    1    2  502    0 -0.46509888510E+02  0.56708716677E+01  0.21986885328E+03  0.22480578542E+03  0.00000000000E+00 0. -1.
         -1    1    1    2    0  501  0.46509888510E+02 -0.56708716677E+01  0.76888288339E+02  0.90039643482E+02  0.00000000000E+00 0.  1.
</event>
<event>
 4    1  0.7060698E+001  0.2407603E+02  0.7546771E-02  0.1479411E+00
          2   -1    0    0  502    0  0.00000000000E+00  0.00000000000E+00  0.51829931252E+00  0.51829931252E+00  0.00000000000E+00 0. -1.
         -2   -1    0    0    0  501 -0.00000000000E+00 -0.00000000000E+00 -0.13406616882E+04  0.13406616882E+04  0.00000000000E+00 0.  1.
          1    1    1    2  502    0  0.21285494483E+02  0.11250906662E+02 -0.94312666312E+03  0.94343391812E+03  0.00000000000E+00 0. -1.
         -1    1    1    2    0  501 -0.21285494483E+02 -0.11250906662E+02 -0.39701672580E+03  0.39774606943E+03  0.00000000000E+00 0.  1.
</event>
<event>
 4    1  0.7060698E+001  0.2531280E+02  0.7546771E-02  0.1465334E+00
          2   -1    0    0  502    0  0.00000000000E+00  0.00000000000E+00  0.66552531256E+01  0.66552531256E+01  0.00000000000E+00 0.  1.
         -2   -1    0    0    0  501 -0.00000000000E+00 -0.00000000000E+00 -0.10457020834E+03  0.10457020834E+03  0.00000000000E+00 0. -1.
          1    1    1    2  502    0  0.24222063486E+02 -0.73504784570E+01 -0.64620317755E+02  0.69401176934E+02  0.00000000000E+00 0. -1.
         -1    1    1    2    0  501 -0.24222063486E+02  0.73504784570E+01 -0.33294637462E+02  0.41824284534E+02  0.00000000000E+00 0.  1.
</event>
<event>
 4    1  0.7060698E+001  0.2350115E+02  0.7546771E-02  0.1486299E+00
          2   -1    0    0  502    0  0.00000000000E+00  0.00000000000E+00  0.70716858524E+02  0.70716858524E+02  0.00000000000E+00 0. -1.
         -2   -1    0    0    0  501 -0.00000000000E+00 -0.00000000000E+00 -0.78495946996E+01  0.78495946996E+01  0.00000000000E+00 0.  1.
          1    1    1    2  502    0 -0.27531841745E+01 -0.23339323542E+02  0.34220935782E+02  0.41513569978E+02  0.00000000000E+00 0. -1.
         -1    1    1    2    0  501  0.27531841745E+01  0.23339323542E+02  0.28646328043E+02  0.37052883246E+02  0.00000000000E+00 0.  1.
</event>
<event>
 4    1  0.7060698E+001  0.2029258E+02  0.7546771E-02  0.1529609E+00
          2   -1    0    0  502    0  0.00000000000E+00  0.00000000000E+00  0.24034323585E+02  0.24034323585E+02  0.00000000000E+00 0. -1.
         -2   -1    0    0    0  501 -0.00000000000E+00 -0.00000000000E+00 -0.17849846981E+02  0.17849846981E+02  0.00000000000E+00 0.  1.
          1    1    1    2  502    0 -0.30786419935E+01  0.20057690456E+02  0.72879292434E+01  0.21561606981E+02  0.00000000000E+00 0. -1.
         -1    1    1    2    0  501  0.30786419935E+01 -0.20057690456E+02 -0.11034526400E+01  0.20322563585E+02  0.00000000000E+00 0.  1.
</event>
<event>
 4    1  0.7060698E+001  0.2034476E+02  0.7546771E-02  0.1528829E+00
          2   -1    0    0  502    0  0.00000000000E+00  0.00000000000E+00  0.19883676213E+03  0.19883676213E+03  0.00000000000E+00 0. -1.
         -2   -1    0    0    0  501 -0.00000000000E+00 -0.00000000000E+00 -0.29087871938E+01  0.29087871938E+01  0.00000000000E+00 0.  1.
          1    1    1    2  502    0  0.17212526145E+02 -0.10846114337E+02  0.44173456122E+02  0.48633357670E+02  0.00000000000E+00 0.  1.
         -1    1    1    2    0  501 -0.17212526145E+02  0.10846114337E+02  0.15175451881E+03  0.15311219165E+03  0.00000000000E+00 0. -1.
</event>
<event>
 4    1  0.7060698E+001  0.3539506E+02  0.7546771E-02  0.1377807E+00
          2   -1    0    0  502    0  0.00000000000E+00  0.00000000000E+00  0.10110702295E+02  0.10110702295E+02  0.00000000000E+00 0. -1.
         -2   -1    0    0    0  501 -0.00000000000E+00 -0.00000000000E+00 -0.27147021026E+03  0.27147021026E+03  0.00000000000E+00 0.  1.
          1    1    1    2  502    0 -0.35300000188E+02 -0.25922836994E+01 -0.23447986153E+03  0.23713628025E+03  0.00000000000E+00 0.  1.
         -1    1    1    2    0  501  0.35300000188E+02  0.25922836994E+01 -0.26879646432E+02  0.44444632301E+02  0.00000000000E+00 0. -1.
</event>
<event>
 4    1  0.7060698E+001  0.3271015E+02  0.7546771E-02  0.1397418E+00
          2   -1    0    0  502    0  0.00000000000E+00  0.00000000000E+00  0.45172267371E+03  0.45172267371E+03  0.00000000000E+00 0.  1.
         -2   -1    0    0    0  501 -0.00000000000E+00 -0.00000000000E+00 -0.25428251495E+01  0.25428251495E+01  0.00000000000E+00 0. -1.
          1    1    1    2  502    0 -0.30982232821E+02  0.10490731253E+02  0.16513795293E+03  0.16834636228E+03  0.00000000000E+00 0. -1.
         -1    1    1    2    0  501  0.30982232821E+02 -0.10490731253E+02  0.28404189563E+03  0.28591913659E+03  0.00000000000E+00 0.  1.
</event>
<event>
 4    1  0.7060698E+001  0.2430573E+02  0.7546771E-02  0.1476722E+00
          2   -1    0    0  502    0  0.00000000000E+00  0.00000000000E+00  0.32020820306E+01  0.32020820306E+01  0.00000000000E+00 0. -1.
         -2   -1    0    0    0  501 -0.00000000000E+00 -0.00000000000E+00 -0.20304496804E+03  0.20304496804E+03  0.00000000000E+00 0.  1.
          1    1    1    2  502    0  0.22869471837E+02 -0.82313947402E+01 -0.13109106049E+03  0.13332529670E+03  0.00000000000E+00 0. -1.
         -1    1    1    2    0  501 -0.22869471837E+02  0.82313947402E+01 -0.68751825521E+02  0.72921753366E+02  0.00000000000E+00 0.  1.
</event>
<event>
 4    1  0.7060698E+001  0.3244972E+02  0.7546771E-02  0.1399437E+00
          2   -1    0    0  502    0  0.00000000000E+00  0.00000000000E+00  0.15410655550E+04  0.15410655550E+04  0.00000000000E+00 0.  1.
         -2   -1    0    0    0  501 -0.00000000000E+00 -0.00000000000E+00 -0.78633657060E+00  0.78633657060E+00  0.00000000000E+00 0. -1.
          1    1    1    2  502    0  0.67672437352E+01  0.31736232753E+02  0.10492266856E+04  0.10497283562E+04  0.00000000000E+00 0.  1.
         -1    1    1    2    0  501 -0.67672437352E+01 -0.31736232753E+02  0.49105253281E+03  0.49212353534E+03  0.00000000000E+00 0. -1.
</event>
<event>
 4    1  0.7060698E+001  0.2024020E+02  0.7546771E-02  0.1530395E+00
          2   -1    0    0  502    0  0.00000000000E+00  0.00000000000E+00  0.16518230332E+02  0.16518230332E+02  0.00000000000E+00 0.  1.
         -2   -1    0    0    0  501 -0.00000000000E+00 -0.00000000000E+00 -0.27418290611E+02  0.27418290611E+02  0.00000000000E+00 0. -1.
          1    1    1    2  502    0 -0.92509881653E+01  0.18002353202E+02  0.13375842835E+01  0.20284344568E+02  0.00000000000E+00 0.  1.
         -1    1    1    2    0  501  0.92509881653E+01 -0.18002353202E+02 -0.12237644562E+02  0.23652176375E+02  0.00000000000E+00 0. -1.
</event>
<event>
 4    1  0.7060698E+001  0.2469124E+02  0.7546771E-02  0.1472287E+00
          2   -1    0    0  502    0  0.00000000000E+00  0.00000000000E+00  0.24133818072E+04  0.24133818072E+04  0.00000000000E+00 0. -1.
         -2   -1    0    0    0  501 -0.00000000000E+00 -0.00000000000E+00 -0.25837677114E+00  0.25837677114E+00  0.00000000000E+00 0.  1.
          1    1    1    2  502    0  0.12812189661E+02 -0.21106987406E+02  0.13867735230E+04  0.13869933170E+04  0.00000000000E+00 0. -1.
         -1    1    1    2    0  501 -0.12812189661E+02  0.21106987406E+02  0.10263499074E+04  0.10266468670E+04  0.00000000000E+00 0.  1.
</event>
<event>
 4    1  0.7060698E+001  0.2054910E+02  0.7546771E-02  0.1525801E+00
          2   -1    0    0  502    0  0.00000000000E+00  0.00000000000E+00  0.34929228080E+03  0.34929228080E+03  0.00000000000E+00 0.  1.
         -2   -1    0    0    0  501 -0.00000000000E+00 -0.00000000000E+00 -0.12944497227E+01  0.12944497227E+01  0.00000000000E+00 0. -1.
          1    1    1    2  502    0 -0.11394944044E+00  0.20548779551E+02  0.12893910077E+03  0.13056629363E+03  0.00000000000E+00 0. -1.
         -1    1    1    2    0  501  0.11394944044E+00 -0.20548779551E+02  0.21905873030E+03  0.22002043689E+03  0.00000000000E+00 0.  1.
</event>
<event>
 4    1  0.7060698E+001  0.2205291E+02  0.7546771E-02  0.1504746E+00
          2   -1    0    0  502    0  0.00000000000E+00  0.00000000000E+00  0.84529478970E+03  0.84529478970E+03  0.00000000000E+00 0.  1.
         -2   -1    0    0    0  501 -0.00000000000E+00 -0.00000000000E+00 -0.59505643975E+00  0.59505643975E+00  0.00000000000E+00 0. -1.
          1    1    1    2  502    0  0.20774543172E+02  0.73992832788E+01  0.49933915118E+03  0.49982588862E+03  0.00000000000E+00 0.  1.
         -1    1    1    2    0  501 -0.20774543172E+02 -0.73992832788E+01  0.34536058209E+03  0.34606395752E+03  0.00000000000E+00 0. -1.
</event>
<event>
 4    1  0.7060698E+001  0.2143441E+02  0.7546771E-02  0.1513152E+00
          2   -1    0    0  502    0  0.00000000000E+00  0.00000000000E+00  0.29778804877E+02  0.29778804877E+02  0.00000000000E+00 0. -1.
         -2   -1    0    0    0  501 -0.00000000000E+00 -0.00000000000E+00 -0.20652089425E+02  0.20652089425E+02  0.00000000000E+00 0.  1.
          1    1    1    2  502    0 -0.24429827269E+00  0.21433019604E+02 -0.81184379285E+01  0.22920363117E+02  0.00000000000E+00 0.  1.
         -1    1    1    2    0  501  0.24429827269E+00 -0.21433019604E+02  0.17245153380E+02  0.27510531185E+02  0.00000000000E+00 0. -1.
</event>
<event>
 4    1  0.7060698E+001  0.2056668E+02  0.7546771E-02  0.1525542E+00
          2   -1    0    0  502    0  0.00000000000E+00  0.00000000000E+00  0.57656737073E+02  0.57656737073E+02  0.00000000000E+00 0. -1.
         -2   -1    0    0    0  501 -0.00000000000E+00 -0.00000000000E+00 -0.95681151882E+01  0.95681151882E+01  0.00000000000E+00 0.  1.
          1    1    1    2  502    0  0.13142096886E+02 -0.15820038700E+02  0.78107525460E+01  0.21999913417E+02  0.00000000000E+00 0.  1.
         -1    1    1    2    0  501 -0.13142096886E+02  0.15820038700E+02  0.40277869339E+02  0.45224938844E+02  0.00000000000E+00 0. -1.
</event>
<event>
 4    1  0.7060698E+001  0.2045986E+02  0.7546771E-02  0.1527118E+00
          2   -1    0    0  502    0  0.00000000000E+00  0.00000000000E+00  0.94129038234E+00  0.94129038234E+00  0.00000000000E+00 0.  1.
         -2   -1    0    0    0  501 -0.00000000000E+00 -0.00000000000E+00 -0.57867555330E+03  0.57867555330E+03  0.00000000000E+00 0. -1.
          1    1    1    2  502    0 -0.54055704612E+01 -0.19732856899E+02 -0.42830543982E+03  0.42879383812E+03  0.00000000000E+00 0. -1.
         -1    1    1    2    0  501  0.54055704612E+01  0.19732856899E+02 -0.14942882310E+03  0.15082300557E+03  0.00000000000E+00 0.  1.
</event>
<event>
 4    1  0.7060698E+001  0.3157938E+02  0.7546771E-02  0.1406351E+00
          2   -1    0    0  502    0  0.00000000000E+00  0.00000000000E+00  0.12671474902E+03  0.12671474902E+03  0.00000000000E+00 0.  1.
         -2   -1    0    0    0  501 -0.00000000000E+00 -0.00000000000E+00 -0.93170680617E+01  0.93170680617E+01  0.00000000000E+00 0. -1.
          1    1    1    2  502    0 -0.30892170686E+02 -0.65521888601E+01  0.31894769095E+02  0.44883556946E+02  0.00000000000E+00 0. -1.
         -1    1    1    2    0  501  0.30892170686E+02  0.65521888601E+01  0.85502911862E+02  0.91148260134E+02  0.00000000000E+00 0.  1.
</event>
<event>
 4    1  0.7060698E+001  0.2432542E+02  0.7546771E-02  0.1476493E+00
          2   -1    0    0  502    0  0.00000000000E+00  0.00000000000E+00  0.17519471993E+04  0.17519471993E+04  0.00000000000E+00 0. -1.
         -2   -1    0    0    0  501 -0.00000000000E+00 -0.00000000000E+00 -0.61740719369E+00  0.61740719369E+00  0.00000000000E+00 0.  1.
          1    1    1    2  502    0  0.24204518692E+02  0.24222103175E+01  0.14654158973E+04  0.14656177803E+04  0.00000000000E+00 0. -1.
         -1    1    1    2    0  501 -0.24204518692E+02 -0.24222103175E+01  0.28591389479E+03  0.28694682620E+03  0.00000000000E+00 0.  1.
</event>
<event>
 4    1  0.7060698E+001  0.1116551E+03  0.7546771E-02  0.1145013E+00
          2   -1    0    0  502    0  0.00000000000E+00  0.00000000000E+00  0.16851824457E+04  0.16851824457E+04  0.00000000000E+00 0. -1.
         -2   -1    0    0    0  501 -0.00000000000E+00 -0.00000000000E+00 -0.13288034260E+02  0.13288034260E+02  0.00000000000E+00 0.  1.
          1    1    1    2  502    0  0.82148621798E+02  0.75620511970E+02  0.14013516446E+04  0.14057927620E+04  0.00000000000E+00 0. -1.
         -1    1    1    2    0  501 -0.82148621798E+02 -0.75620511970E+02  0.27054276679E+03  0.29267771791E+03  0.00000000000E+00 0.  1.
</event>
<event>
 4    1  0.7060698E+001  0.2085193E+02  0.7546771E-02  0.1521389E+00
          2   -1    0    0  502    0  0.00000000000E+00  0.00000000000E+00  0.79731196364E+03  0.79731196364E+03  0.00000000000E+00 0.  1.
         -2   -1    0    0    0  501 -0.00000000000E+00 -0.00000000000E+00 -0.10367487690E+01  0.10367487690E+01  0.00000000000E+00 0. -1.
          1    1    1    2  502    0  0.20359302704E+01  0.20752304054E+02  0.67295800703E+03  0.67328098322E+03  0.00000000000E+00 0.  1.
         -1    1    1    2    0  501 -0.20359302704E+01 -0.20752304054E+02  0.12331720784E+03  0.12506772919E+03  0.00000000000E+00 0. -1.
</event>
<event>
 4    1  0.7060698E+001  0.3123825E+02  0.7546771E-02  0.1409133E+00
          2   -1    0    0  502    0  0.00000000000E+00  0.00000000000E+00  0.23538189126E+04  0.23538189126E+04  0.00000000000E+00 0. -1.
         -2   -1    0    0    0  501 -0.00000000000E+00 -0.00000000000E+00 -0.42909049344E+00  0.42909049344E+00  0.00000000000E+00 0.  1.
          1    1    1    2  502    0 -0.16929533237E+02 -0.26252978909E+02  0.96017150988E+03  0.96067952845E+03  0.00000000000E+00 0.  1.
         -1    1    1    2    0  501  0.16929533237E+02  0.26252978909E+02  0.13932183122E+04  0.13935684746E+04  0.00000000000E+00 0. -1.
</event>
<event>
 4    1  0.7060698E+001  0.3192678E+02  0.7546771E-02  0.1403560E+00
          2   -1    0    0  502    0  0.00000000000E+00  0.00000000000E+00  0.15633403476E+03  0.15633403476E+03  0.00000000000E+00 0.  1.
         -2   -1    0    0    0  501 -0.00000000000E+00 -0.00000000000E+00 -0.69187764381E+01  0.69187764381E+01  0.00000000000E+00 0. -1.
          1    1    1    2  502    0 -0.61577212401E+01 -0.31327329271E+02  0.94300901329E+02  0.99558922662E+02  0.00000000000E+00 0.  1.
         -1    1    1    2    0  501  0.61577212401E+01  0.31327329271E+02  0.55114356995E+02  0.63693888538E+02  0.00000000000E+00 0. -1.
</event>
<event>
 4    1  0.7060698E+001  0.2428909E+02  0.7546771E-02  0.1476916E+00
          2   -1    0    0  502    0  0.00000000000E+00  0.00000000000E+00  0.94656012181E+03  0.94656012181E+03  0.00000000000E+00 0.  1.
         -2   -1    0    0    0  501 -0.00000000000E+00 -0.00000000000E+00 -0.76456662485E+00  0.76456662485E+00  0.00000000000E+00 0. -1.
          1    1    1    2  502    0  0.10425964320E+02 -0.21937614232E+02  0.26927246836E+03  0.27036571873E+03  0.00000000000E+00 0. -1.
         -1    1    1    2    0  501 -0.10425964320E+02  0.21937614232E+02  0.67652308683E+03  0.67695896971E+03  0.00000000000E+00 0.  1.
</event>
<event>
 4    1  0.7060698E+001  0.2324134E+02  0.7546771E-02  0.1489490E+00
          2   -1    0    0  502    0  0.00000000000E+00  0.00000000000E+00  0.20982130938E+04  0.20982130938E+04  0.00000000000E+00 0. -1.
         -2   -1    0    0    0  501 -0.00000000000E+00 -0.00000000000E+00 -0.26456777318E+00  0.26456777318E+00  0.00000000000E+00 0.  1.
          1    1    1    2  502    0 -0.13224021132E+02 -0.19112434328E+02  0.87673097306E+03  0.87703897235E+03  0.00000000000E+00 0. -1.
         -1    1    1    2    0  501  0.13224021132E+02  0.19112434328E+02  0.12212175529E+04  0.12214386892E+04  0.00000000000E+00 0.  1.
</event>
<event>
 4    1  0.7060698E+001  0.2231234E+02  0.7546771E-02  0.1501319E+00
          2   -1    0    0  502    0  0.00000000000E+00  0.00000000000E+00  0.51009687190E+03  0.51009687190E+03  0.00000000000E+00 0.  1.
         -2   -1    0    0    0  501 -0.00000000000E+00 -0.00000000000E+00 -0.14630142009E+01  0.14630142009E+01  0.00000000000E+00 0. -1.
          1    1    1    2  502    0 -0.13569310389E+02  0.17711976823E+02  0.10673761922E+03  0.10904475991E+03  0.00000000000E+00 0. -1.
         -1    1    1    2    0  501  0.13569310389E+02 -0.17711976823E+02  0.40189623848E+03  0.40251512619E+03  0.00000000000E+00 0.  1.
</event>
<event>
 4    1  0.7060698E+001  0.5158397E+02  0.7546771E-02  0.1291447E+00
          2   -1    0    0  502    0  0.00000000000E+00  0.00000000000E+00  0.14995436445E+04  0.14995436445E+04  0.00000000000E+00 0.  1.
         -2   -1    0    0    0  501 -0.00000000000E+00 -0.00000000000E+00 -0.21022144299E+01  0.21022144299E+01  0.00000000000E+00 0. -1.
          1    1    1    2  502    0  0.50528714026E+02  0.10380521570E+02  0.10451778032E+04  0.10464499733E+04  0.00000000000E+00 0.  1.
         -1    1    1    2    0  501 -0.50528714026E+02 -0.10380521570E+02  0.45226362685E+03  0.45519588568E+03  0.00000000000E+00 0. -1.
</event>
<event>
 4    1  0.7060698E+001  0.2020254E+02  0.7546771E-02  0.1530962E+00
          2   -1    0    0  502    0  0.00000000000E+00  0.00000000000E+00  0.10870365079E+04  0.10870365079E+04  0.00000000000E+00 0. -1.
         -2   -1    0    0    0  501 -0.00000000000E+00 -0.00000000000E+00 -0.81981003864E+00  0.81981003864E+00  0.00000000000E+00 0.  1.
          1    1    1    2  502    0 -0.89373406604E+01 -0.18118130377E+02  0.14266069934E+03  0.14408406519E+03  0.00000000000E+00 0.  1.
         -1    1    1    2    0  501  0.89373406604E+01  0.18118130377E+02  0.94355599856E+03  0.94377225278E+03  0.00000000000E+00 0. -1.
</event>
<event>
 4    1  0.7060698E+001  0.2390627E+02  0.7546771E-02  0.1481421E+00
          2   -1    0    0  502    0  0.00000000000E+00  0.00000000000E+00  0.13609412383E+04  0.13609412383E+04  0.00000000000E+00 0. -1.
         -2   -1    0    0    0  501 -0.00000000000E+00 -0.00000000000E+00 -0.52312064073E+00  0.52312064073E+00  0.00000000000E+00 0.  1.
          1    1    1    2  502    0  0.23510196274E+02 -0.43336156551E+01  0.98253876281E+03  0.98282955286E+03  0.00000000000E+00 0. -1.
         -1    1    1    2    0  501 -0.23510196274E+02  0.43336156551E+01  0.37787935488E+03  0.37863480611E+03  0.00000000000E+00 0.  1.
</event>
<event>
 4    1  0.7060698E+001  0.2112561E+02  0.7546771E-02  0.1517479E+00
          2   -1    0    0  502    0  0.00000000000E+00  0.00000000000E+00  0.98554650704E+03  0.98554650704E+03  0.00000000000E+00 0. -1.
         -2   -1    0    0    0  501 -0.00000000000E+00 -0.00000000000E+00 -0.53444620512E+00  0.53444620512E+00  0.00000000000E+00 0.  1.
          1    1    1    2  502    0  0.13856511962E+02  0.15946420527E+02  0.68517064787E+03  0.68549624941E+03  0.00000000000E+00 0. -1.
         -1    1    1    2    0  501 -0.13856511962E+02 -0.15946420527E+02  0.29984141296E+03  0.30058470384E+03  0.00000000000E+00 0.  1.
</event>
<event>
 4    1  0.7060698E+001  0.2004135E+02  0.7546771E-02  0.1533404E+00
          2   -1    0    0  502    0  0.00000000000E+00  0.00000000000E+00  0.11700642252E+03  0.11700642252E+03  0.00000000000E+00 0.  1.
         -2   -1    0    0    0  501 -0.00000000000E+00 -0.00000000000E+00 -0.42826518943E+01  0.42826518943E+01  0.00000000000E+00 0. -1.
          1    1    1    2  502    0  0.18953681934E+02 -0.65125765722E+01  0.29346229520E+02  0.35536697927E+02  0.00000000000E+00 0. -1.
         -1    1    1    2    0  501 -0.18953681934E+02  0.65125765722E+01  0.83377541104E+02  0.85752376486E+02  0.00000000000E+00 0.  1.
</event>
<event>
 4    1  0.7060698E+001  0.2842812E+02  0.7546771E-02  0.1433767E+00
          2   -1    0    0  502    0  0.00000000000E+00  0.00000000000E+00  0.61615193922E+02  0.61615193922E+02  0.00000000000E+00 0.  1.
         -2   -1    0    0    0  501 -0.00000000000E+00 -0.00000000000E+00 -0.13824151213E+02  0.13824151213E+02  0.00000000000E+00 0. -1.
          1    1    1    2  502    0  0.25706585423E+02  0.12137934210E+02  0.15359677030E+02  0.32312190571E+02  0.00000000000E+00 0. -1.
         -1    1    1    2    0  501 -0.25706585423E+02 -0.12137934210E+02  0.32431365679E+02  0.43127154564E+02  0.00000000000E+00 0.  1.
</event>
<event>
 4    1  0.7060698E+001  0.2800882E+02  0.7546771E-02  0.1437729E+00
          2   -1    0    0  502    0  0.00000000000E+00  0.00000000000E+00  0.46739988048E+01  0.46739988048E+01  0.00000000000E+00 0. -1.
         -2   -1    0    0    0  501 -0.00000000000E+00 -0.00000000000E+00 -0.21048321988E+03  0.21048321988E+03  0.00000000000E+00 0.  1.
          1    1    1    2  502    0 -0.24504928593E+02  0.13564754577E+02 -0.15132531926E+03  0.15389556960E+03  0.00000000000E+00 0.  1.
         -1    1    1    2    0  501  0.24504928593E+02 -0.13564754577E+02 -0.54483901812E+02  0.61261649086E+02  0.00000000000E+00 0. -1.
</event>
<event>
 4    1  0.7060698E+001  0.2349960E+02  0.7546771E-02  0.1486318E+00
          2   -1    0    0  502    0  0.00000000000E+00  0.00000000000E+00  0.31579323107E+01  0.31579323107E+01  0.00000000000E+00 0. -1.
         -2   -1    0    0    0  501 -0.00000000000E+00 -0.00000000000E+00 -0.17647815773E+03  0.17647815773E+03  0.00000000000E+00 0.  1.
          1    1    1    2  502    0 -0.10972980166E+02 -0.20780398692E+02 -0.95231018634E+02  0.98087604587E+02  0.00000000000E+00 0.  1.
         -1    1    1    2    0  501  0.10972980166E+02  0.20780398692E+02 -0.78089206786E+02  0.81548485455E+02  0.00000000000E+00 0. -1.
</event>
<event>
 4    1  0.7060698E+001  0.2007480E+02  0.7546771E-02  0.1532895E+00
          2   -1    0    0  502    0  0.00000000000E+00  0.00000000000E+00  0.23677902491E+01  0.23677902491E+01  0.00000000000E+00 0. -1.
         -2   -1    0    0    0  501 -0.00000000000E+00 -0.00000000000E+00 -0.17321070583E+03  0.17321070583E+03  0.00000000000E+00 0.  1.
          1    1    1    2  502    0 -0.21322680851E+01 -0.19961240532E+02 -0.73847163774E+02  0.76527127793E+02  0.00000000000E+00 0. -1.
         -1    1    1    2    0  501  0.21322680851E+01  0.19961240532E+02 -0.96995751804E+02  0.99051368283E+02  0.00000000000E+00 0.  1.
</event>
<event>
 4    1  0.7060698E+001  0.2640319E+02  0.7546771E-02  0.1453697E+00
          2   -1    0    0  502    0  0.00000000000E+00  0.00000000000E+00  0.21231297152E+02  0.21231297152E+02  0.00000000000E+00 0. -1.
         -2   -1    0    0    0  501 -0.00000000000E+00 -0.00000000000E+00 -0.35550404278E+02  0.35550404278E+02  0.00000000000E+00 0.  1.
          1    1    1    2  502    0  0.58693764378E+01  0.25742552046E+02 -0.15006079909E+02  0.30369573587E+02  0.00000000000E+00 0.  1.
         -1    1    1    2    0  501 -0.58693764378E+01 -0.25742552046E+02  0.68697278387E+00  0.26412127843E+02  0.00000000000E+00 0. -1.
</event>
<event>
 4    1  0.7060698E+001  0.2013757E+02  0.7546771E-02  0.1531943E+00
          2   -1    0    0  502    0  0.00000000000E+00  0.00000000000E+00  0.93822131186E+01  0.93822131186E+01  0.00000000000E+00 0. -1.
         -2   -1    0    0    0  501 -0.00000000000E+00 -0.00000000000E+00 -0.43621153402E+02  0.43621153402E+02  0.00000000000E+00 0.  1.
          1    1    1    2  502    0  0.93107065673E+01 -0.17855875637E+02 -0.14585568995E+02  0.24864842136E+02  0.00000000000E+00 0. -1.
         -1    1    1    2    0  501 -0.93107065673E+01  0.17855875637E+02 -0.19653371288E+02  0.28138524384E+02  0.00000000000E+00 0.  1.
</event>
<event>
 4    1  0.7060698E+001  0.3036657E+02  0.7546771E-02  0.1416437E+00
          2   -1    0    0  502    0  0.00000000000E+00  0.00000000000E+00  0.33425345522E+04  0.33425345522E+04  0.00000000000E+00 0.  1.
         -2   -1    0    0    0  501 -0.00000000000E+00 -0.00000000000E+00 -0.28518280694E+00  0.28518280694E+00  0.00000000000E+00 0. -1.
          1    1    1    2  502    0 -0.15116437733E+02  0.26336705408E+02  0.13692018503E+04  0.13695385485E+04  0.00000000000E+00 0. -1.
         -1    1    1    2    0  501  0.15116437733E+02 -0.26336705408E+02  0.19730475190E+04  0.19732811865E+04  0.00000000000E+00 0.  1.
</event>
<event>
 4    1  0.7060698E+001  0.2211496E+02  0.7546771E-02  0.1503921E+00
          2   -1    0    0  502    0  0.00000000000E+00  0.00000000000E+00  0.46573962490E+03  0.46573962490E+03  0.00000000000E+00 0.  1.
         -2   -1    0    0    0  501 -0.00000000000E+00 -0.00000000000E+00 -0.14940656907E+01  0.14940656907E+01  0.00000000000E+00 0. -1.
          1    1    1    2  502    0 -0.11534126551E+02  0.18868902252E+02  0.10477372424E+03  0.10708223400E+03  0.00000000000E+00 0. -1.
         -1    1    1    2    0  501  0.11534126551E+02 -0.18868902252E+02  0.35947183497E+03  0.36015145659E+03  0.00000000000E+00 0.  1.
</event>
<event>
 4    1  0.7060698E+001  0.2837575E+02  0.7546771E-02  0.1434257E+00
          2   -1    0    0  502    0  0.00000000000E+00  0.00000000000E+00  0.24677932357E+02  0.24677932357E+02  0.00000000000E+00 0. -1.
         -2   -1    0    0    0  501 -0.00000000000E+00 -0.00000000000E+00 -0.32730430320E+02  0.32730430320E+02  0.00000000000E+00 0.  1.
          1    1    1    2  502    0  0.19162229532E+02 -0.20928256723E+02 -0.56347512872E+01  0.28929801108E+02  0.00000000000E+00 0.  1.
         -1    1    1    2    0  501 -0.19162229532E+02  0.20928256723E+02 -0.24177466752E+01  0.28478561569E+02  0.00000000000E+00 0. -1.
</event>
<event>
 4    1  0.7060698E+001  0.2335386E+02  0.7546771E-02  0.1488102E+00
          2   -1    0    0  502    0  0.00000000000E+00  0.00000000000E+00  0.15011203338E+02  0.15011203338E+02  0.00000000000E+00 0. -1.
         -2   -1    0    0    0  501 -0.00000000000E+00 -0.00000000000E+00 -0.43343105828E+02  0.43343105828E+02  0.00000000000E+00 0.  1.
          1    1    1    2  502    0  0.94738079208E+01 -0.21345956086E+02 -0.25899881517E+02  0.34874155765E+02  0.00000000000E+00 0.  1.
         -1    1    1    2    0  501 -0.94738079208E+01  0.21345956086E+02 -0.24320209731E+01  0.23480153401E+02  0.00000000000E+00 0. -1.
</event>
<event>
 4    1  0.7060698E+001  0.2294893E+02  0.7546771E-02  0.1493140E+00
          2   -1    0    0  502    0  0.00000000000E+00  0.00000000000E+00  0.11610746429E+03  0.11610746429E+03  0.00000000000E+00 0.  1.
         -2   -1    0    0    0  501 -0.00000000000E+00 -0.00000000000E+00 -0.58636556013E+01  0.58636556013E+01  0.00000000000E+00 0. -1.
          1    1    1    2  502    0 -0.73701349054E+01  0.21733259787E+02  0.26101759574E+02  0.34755651660E+02  0.00000000000E+00 0.  1.
         -1    1    1    2    0  501  0.73701349054E+01 -0.21733259787E+02  0.84142049112E+02  0.87215468228E+02  0.00000000000E+00 0. -1.
</event>
<event>
 4    1  0.7060698E+001  0.2103396E+02  0.7546771E-02  0.1518780E+00
          2   -1    0    0  502    0  0.00000000000E+00  0.00000000000E+00  0.84156463890E+03  0.84156463890E+03  0.00000000000E+00 0.  1.
         -2   -1    0    0    0  501 -0.00000000000E+00 -0.00000000000E+00 -0.61259849805E+00  0.61259849805E+00  0.00000000000E+00 0. -1.
          1    1    1    2  502    0  0.24640549198E+01 -0.20889134334E+02  0.26189862418E+03  0.26274192061E+03  0.00000000000E+00 0.  1.
         -1    1    1    2    0  501 -0.24640549198E+01  0.20889134334E+02  0.57905341622E+03  0.57943531679E+03  0.00000000000E+00 0. -1.
</event>
<event>
 4    1  0.7060698E+001  0.4697901E+02  0.7546771E-02  0.1311830E+00
          2   -1    0    0  502    0  0.00000000000E+00  0.00000000000E+00  0.60527790108E+03  0.60527790108E+03  0.00000000000E+00 0.  1.
         -2   -1    0    0    0  501 -0.00000000000E+00 -0.00000000000E+00 -0.44086938269E+01  0.44086938269E+01  0.00000000000E+00 0. -1.
          1    1    1    2  502    0  0.25541401509E+02  0.39429235062E+02  0.42720270176E+03  0.42977805454E+03  0.00000000000E+00 0.  1.
         -1    1    1    2    0  501 -0.25541401509E+02 -0.39429235062E+02  0.17366650549E+03  0.17990854036E+03  0.00000000000E+00 0. -1.
</event>
<event>
 4    1  0.7060698E+001  0.2014139E+02  0.7546771E-02  0.1531885E+00
          2   -1    0    0  502    0  0.00000000000E+00  0.00000000000E+00  0.17334332585E+04  0.17334332585E+04  0.00000000000E+00 0.  1.
         -2   -1    0    0    0  501 -0.00000000000E+00 -0.00000000000E+00 -0.26997893046E+00  0.26997893046E+00  0.00000000000E+00 0. -1.
          1    1    1    2  502    0  0.11660497946E+02  0.16422795622E+02  0.11828987364E+04  0.11830701991E+04  0.00000000000E+00 0.  1.
         -1    1    1    2    0  501 -0.11660497946E+02 -0.16422795622E+02  0.55026454320E+03  0.55063303836E+03  0.00000000000E+00 0. -1.
</event>
<event>
 4    1  0.7060698E+001  0.2192526E+02  0.7546771E-02  0.1506453E+00
          2   -1    0    0  502    0  0.00000000000E+00  0.00000000000E+00  0.57629418148E+03  0.57629418148E+03  0.00000000000E+00 0. -1.
         -2   -1    0    0    0  501 -0.00000000000E+00 -0.00000000000E+00 -0.20408900641E+01  0.20408900641E+01  0.00000000000E+00 0.  1.
          1    1    1    2  502    0  0.29080864774E+01  0.21731540977E+02  0.64771969774E+02  0.68382197307E+02  0.00000000000E+00 0.  1.
         -1    1    1    2    0  501 -0.29080864774E+01 -0.21731540977E+02  0.50948132164E+03  0.50995287424E+03  0.00000000000E+00 0. -1.
</event>
<event>
 4    1  0.7060698E+001  0.2866612E+02  0.7546771E-02  0.1431553E+00
          2   -1    0    0  502    0  0.00000000000E+00  0.00000000000E+00  0.26753820650E+03  0.26753820650E+03  0.00000000000E+00 0. -1.
         -2   -1    0    0    0  501 -0.00000000000E+00 -0.00000000000E+00 -0.34220879770E+01  0.34220879770E+01  0.00000000000E+00 0.  1.
          1    1    1    2  502    0 -0.22900213458E+02  0.17243164274E+02  0.17542131629E+03  0.17774809338E+03  0.00000000000E+00 0. -1.
         -1    1    1    2    0  501  0.22900213458E+02 -0.17243164274E+02  0.88694802236E+02  0.93212201102E+02  0.00000000000E+00 0.  1.
</event>
<event>
 4    1  0.7060698E+001  0.4195241E+02  0.7546771E-02  0.1337410E+00
          2   -1    0    0  502    0  0.00000000000E+00  0.00000000000E+00  0.39597404707E+04  0.39597404707E+04  0.00000000000E+00 0. -1.
         -2   -1    0    0    0  501 -0.00000000000E+00 -0.00000000000E+00 -0.51004229607E+00  0.51004229607E+00  0.00000000000E+00 0.  1.
          1    1    1    2  502    0  0.41815085500E+02 -0.33916364078E+01  0.12696548532E+04  0.12703477677E+04  0.00000000000E+00 0.  1.
         -1    1    1    2    0  501 -0.41815085500E+02  0.33916364078E+01  0.26895755752E+04  0.26899027453E+04  0.00000000000E+00 0. -1.
</event>
<event>
 4    1  0.7060698E+001  0.3408504E+02  0.7546771E-02  0.1387112E+00
          2   -1    0    0  502    0  0.00000000000E+00  0.00000000000E+00  0.57982363252E+02  0.57982363252E+02  0.00000000000E+00 0. -1.
         -2   -1    0    0    0  501 -0.00000000000E+00 -0.00000000000E+00 -0.20361871067E+02  0.20361871067E+02  0.00000000000E+00 0.  1.
          1    1    1    2  502    0  0.32272540133E+02  0.10966894998E+02  0.23758569430E+02  0.41548276185E+02  0.00000000000E+00 0. -1.
         -1    1    1    2    0  501 -0.32272540133E+02 -0.10966894998E+02  0.13861922755E+02  0.36795958134E+02  0.00000000000E+00 0.  1.
</event>
<event>
 4    1  0.7060698E+001  0.2466991E+02  0.7546771E-02  0.1472530E+00
          2   -1    0    0  502    0  0.00000000000E+00  0.00000000000E+00  0.35100275308E+03  0.35100275308E+03  0.00000000000E+00 0.  1.
         -2   -1    0    0    0  501 -0.00000000000E+00 -0.00000000000E+00 -0.21658281356E+01  0.21658281356E+01  0.00000000000E+00 0. -1.
          1    1    1    2  502    0 -0.55936176981E+01 -0.24027400050E+02  0.25327625501E+03  0.25447488258E+03  0.00000000000E+00 0.  1.
         -1    1    1    2    0  501  0.55936176981E+01  0.24027400050E+02  0.95560669934E+02  0.98693698636E+02  0.00000000000E+00 0. -1.
</event>
<event>
 4    1  0.7060698E+001  0.2580265E+02  0.7546771E-02  0.1460021E+00
          2   -1    0    0  502    0  0.00000000000E+00  0.00000000000E+00  0.46002596909E+01  0.46002596909E+01  0.00000000000E+00 0. -1.
         -2   -1    0    0    0  501 -0.00000000000E+00 -0.00000000000E+00 -0.15785252472E+03  0.15785252472E+03  0.00000000000E+00 0.  1.
          1    1    1    2  502    0 -0.11310832750E+01  0.25777849001E+02 -0.10004940035E+03  0.10332308241E+03  0.00000000000E+00 0.  1.
         -1    1    1    2    0  501  0.11310832750E+01 -0.25777849001E+02 -0.53202864676E+02  0.59129701996E+02  0.00000000000E+00 0. -1.
</event>
<event>
 4    1  0.7060698E+001  0.2684247E+02  0.7546771E-02  0.1449197E+00
          2   -1    0    0  502    0  0.00000000000E+00  0.00000000000E+00  0.20934469098E+02  0.20934469098E+02  0.00000000000E+00 0.  1.
         -2   -1    0    0    0  501 -0.00000000000E+00 -0.00000000000E+00 -0.42949404968E+02  0.42949404968E+02  0.00000000000E+00 0. -1.
          1    1    1    2  502    0 -0.26051120983E+01 -0.26715754294E+02 -0.25243807140E+02  0.36847902728E+02  0.00000000000E+00 0. -1.
         -1    1    1    2    0  501  0.26051120983E+01  0.26715754294E+02  0.32288712705E+01  0.27035971338E+02  0.00000000000E+00 0.  1.
</event>
<event>
 4    1  0.7060698E+001  0.2089272E+02  0.7546771E-02  0.1520802E+00
          2   -1    0    0  502    0  0.00000000000E+00  0.00000000000E+00  0.16469637030E+04  0.16469637030E+04  0.00000000000E+00 0. -1.
         -2   -1    0    0    0  501 -0.00000000000E+00 -0.00000000000E+00 -0.42495297908E+00  0.42495297908E+00  0.00000000000E+00 0.  1.
          1    1    1    2  502    0  0.20415511907E+02  0.44398723648E+01  0.13285610762E+04  0.13287253437E+04  0.00000000000E+00 0. -1.
         -1    1    1    2    0  501 -0.20415511907E+02 -0.44398723648E+01  0.31797767383E+03  0.31866331236E+03  0.00000000000E+00 0.  1.
</event>
<event>
 4    1  0.7060698E+001  0.2711032E+02  0.7546771E-02  0.1446503E+00
          2   -1    0    0  502    0  0.00000000000E+00  0.00000000000E+00  0.20911068032E+02  0.20911068032E+02  0.00000000000E+00 0. -1.
         -2   -1    0    0    0  501 -0.00000000000E+00 -0.00000000000E+00 -0.35404949558E+02  0.35404949558E+02  0.00000000000E+00 0.  1.
          1    1    1    2  502    0  0.24297789579E+02  0.12024429042E+02 -0.48452978647E+01  0.27539905294E+02  0.00000000000E+00 0.  1.
         -1    1    1    2    0  501 -0.24297789579E+02 -0.12024429042E+02 -0.96485836611E+01  0.28776112296E+02  0.00000000000E+00 0. -1.
</event>
<event>
 4    1  0.7060698E+001  0.3878012E+02  0.7546771E-02  0.1355786E+00
          2   -1    0    0  502    0  0.00000000000E+00  0.00000000000E+00  0.53229151126E+03  0.53229151126E+03  0.00000000000E+00 0. -1.
         -2   -1    0    0    0  501 -0.00000000000E+00 -0.00000000000E+00 -0.24685819041E+02  0.24685819041E+02  0.00000000000E+00 0.  1.
          1    1    1    2  502    0  0.37148846801E+02 -0.11129276130E+02 -0.82649876979E+01  0.39651073472E+02  0.00000000000E+00 0.  1.
         -1    1    1    2    0  501 -0.37148846801E+02  0.11129276130E+02  0.51587067992E+03  0.51732625683E+03  0.00000000000E+00 0. -1.
</event>
<event>
 4    1  0.7060698E+001  0.2793866E+02  0.7546771E-02  0.1438400E+00
          2   -1    0    0  502    0  0.00000000000E+00  0.00000000000E+00  0.20854547298E+03  0.20854547298E+03  0.00000000000E+00 0.  1.
         -2   -1    0    0    0  501 -0.00000000000E+00 -0.00000000000E+00 -0.51442114453E+01  0.51442114453E+01  0.00000000000E+00 0. -1.
          1    1    1    2  502    0  0.33216343848E+01  0.27740499514E+02  0.15746524840E+03  0.15992458542E+03  0.00000000000E+00 0.  1.
         -1    1    1    2    0  501 -0.33216343848E+01 -0.27740499514E+02  0.45936013133E+02  0.53765099003E+02  0.00000000000E+00 0. -1.
</event>
<event>
 4    1  0.7060698E+001  0.3345502E+02  0.7546771E-02  0.1391763E+00
          2   -1    0    0  502    0  0.00000000000E+00  0.00000000000E+00  0.19827327610E+02  0.19827327610E+02  0.00000000000E+00 0. -1.
         -2   -1    0    0    0  501 -0.00000000000E+00 -0.00000000000E+00 -0.58440079636E+02  0.58440079636E+02  0.00000000000E+00 0.  1.
          1    1    1    2  502    0  0.31130925965E+02 -0.12251684771E+02 -0.12083510468E+02  0.35570346588E+02  0.00000000000E+00 0. -1.
         -1    1    1    2    0  501 -0.31130925965E+02  0.12251684771E+02 -0.26529241558E+02  0.42697060658E+02  0.00000000000E+00 0.  1.
</event>
<event>
 4    1  0.7060698E+001  0.2312234E+02  0.7546771E-02  0.1490968E+00
          2   -1    0    0  502    0  0.00000000000E+00  0.00000000000E+00  0.34105058438E+01  0.34105058438E+01  0.00000000000E+00 0. -1.
         -2   -1    0    0    0  501 -0.00000000000E+00 -0.00000000000E+00 -0.23179335535E+03  0.23179335535E+03  0.00000000000E+00 0.  1.
          1    1    1    2  502    0 -0.17705298765E+02  0.14871624244E+02 -0.47282964990E+02  0.52633844532E+02  0.00000000000E+00 0. -1.
         -1    1    1    2    0  501  0.17705298765E+02 -0.14871624244E+02 -0.18109988452E+03  0.18257001667E+03  0.00000000000E+00 0.  1.
</event>
<event>
 4    1  0.7060698E+001  0.3830658E+02  0.7546771E-02  0.1358705E+00
          2   -1    0    0  502    0  0.00000000000E+00  0.00000000000E+00  0.10170320829E+03  0.10170320829E+03  0.00000000000E+00 0. -1.
         -2   -1    0    0    0  501 -0.00000000000E+00 -0.00000000000E+00 -0.30027070047E+02  0.30027070047E+02  0.00000000000E+00 0.  1.
          1    1    1    2  502    0 -0.13384698597E+02 -0.35892112652E+02 -0.11634829451E+02  0.40034524644E+02  0.00000000000E+00 0.  1.
         -1    1    1    2    0  501  0.13384698597E+02  0.35892112652E+02  0.83310967696E+02  0.91695753694E+02  0.00000000000E+00 0. -1.
</event>
<event>
 4    1  0.7060698E+001  0.3532288E+02  0.7546771E-02  0.1378307E+00
          2   -1    0    0  502    0  0.00000000000E+00  0.00000000000E+00  0.20481602054E+04  0.20481602054E+04  0.00000000000E+00 0. -1.
         -2   -1    0    0    0  501 -0.00000000000E+00 -0.00000000000E+00 -0.11519630429E+01  0.11519630429E+01  0.00000000000E+00 0.  1.
          1    1    1    2  502    0  0.34495640261E+02 -0.75998020284E+01  0.32015583748E+03  0.32209853533E+03  0.00000000000E+00 0.  1.
         -1    1    1    2    0  501 -0.34495640261E+02  0.75998020284E+01  0.17268524049E+04  0.17272136331E+04  0.00000000000E+00 0. -1.
</event>
<event>
 4    1  0.7060698E+001  0.4615390E+02  0.7546771E-02  0.1315768E+00
          2   -1    0    0  502    0  0.00000000000E+00  0.00000000000E+00  0.32057359844E+02  0.32057359844E+02  0.00000000000E+00 0.  1.
         -2   -1    0    0    0  501 -0.00000000000E+00 -0.00000000000E+00 -0.89220920449E+02  0.89220920449E+02  0.00000000000E+00 0. -1.
          1    1    1    2  502    0  0.33026966202E+01  0.46035575663E+02  0.20532815833E+01  0.46199545418E+02  0.00000000000E+00 0.  1.
         -1    1    1    2    0  501 -0.33026966202E+01 -0.46035575663E+02 -0.59216842189E+02  0.75078734875E+02  0.00000000000E+00 0. -1.
</event>
<event>
 4    1  0.7060698E+001  0.2728803E+02  0.7546771E-02  0.1444736E+00
          2   -1    0    0  502    0  0.00000000000E+00  0.00000000000E+00  0.83964138269E+03  0.83964138269E+03  0.00000000000E+00 0. -1.
         -2   -1    0    0    0  501 -0.00000000000E+00 -0.00000000000E+00 -0.89340199152E+00  0.89340199152E+00  0.00000000000E+00 0.  1.
          1    1    1    2  502    0 -0.25767624779E+02  0.89814211800E+01  0.38338488745E+03  0.38435479487E+03  0.00000000000E+00 0. -1.
         -1    1    1    2    0  501  0.25767624779E+02 -0.89814211800E+01  0.45536309325E+03  0.45617998981E+03  0.00000000000E+00 0.  1.
</event>
<event>
 4    1  0.7060698E+001  0.3961424E+02  0.7546771E-02  0.1350761E+00
          2   -1    0    0  502    0  0.00000000000E+00  0.00000000000E+00  0.74199650853E+02  0.74199650853E+02  0.00000000000E+00 0.  1.
         -2   -1    0    0    0  501 -0.00000000000E+00 -0.00000000000E+00 -0.33877585871E+02  0.33877585871E+02  0.00000000000E+00 0. -1.
          1    1    1    2  502    0  0.21283955004E+02  0.33410796694E+02  0.53283979424E+02  0.66396314202E+02  0.00000000000E+00 0.  1.
         -1    1    1    2    0  501 -0.21283955004E+02 -0.33410796694E+02 -0.12961914442E+02  0.41680922523E+02  0.00000000000E+00 0. -1.
</event>
<event>
 4    1  0.7060698E+001  0.7066666E+02  0.7546771E-02  0.1227349E+00
          2   -1    0    0  502    0  0.00000000000E+00  0.00000000000E+00  0.16145410334E+03  0.16145410334E+03  0.00000000000E+00 0.  1.
         -2   -1    0    0    0  501 -0.00000000000E+00 -0.00000000000E+00 -0.61114662110E+02  0.61114662110E+02  0.00000000000E+00 0. -1.
          1    1    1    2  502    0  0.29285977686E+02 -0.64312580438E+02 -0.28038899807E+02  0.76026024452E+02  0.00000000000E+00 0. -1.
         -1    1    1    2    0  501 -0.29285977686E+02  0.64312580438E+02  0.12837834104E+03  0.14654274100E+03  0.00000000000E+00 0.  1.
</event>
<event>
 4    1  0.7060698E+001  0.2239011E+02  0.7546771E-02  0.1500302E+00
          2   -1    0    0  502    0  0.00000000000E+00  0.00000000000E+00  0.84365204046E+01  0.84365204046E+01  0.00000000000E+00 0. -1.
         -2   -1    0    0    0  501 -0.00000000000E+00 -0.00000000000E+00 -0.10044804199E+03  0.10044804199E+03  0.00000000000E+00 0.  1.
          1    1    1    2  502    0  0.14924508433E+02  0.16690595257E+02 -0.80798941109E+02  0.83843817938E+02  0.00000000000E+00 0.  1.
         -1    1    1    2    0  501 -0.14924508433E+02 -0.16690595257E+02 -0.11212580475E+02  0.25040744456E+02  0.00000000000E+00 0. -1.
</event>
<event>
 4    1  0.7060698E+001  0.3203657E+02  0.7546771E-02  0.1402687E+00
          2   -1    0    0  502    0  0.00000000000E+00  0.00000000000E+00  0.59196336833E+02  0.59196336833E+02  0.00000000000E+00 0.  1.
         -2   -1    0    0    0  501 -0.00000000000E+00 -0.00000000000E+00 -0.17353366845E+02  0.17353366845E+02  0.00000000000E+00 0. -1.
          1    1    1    2  502    0  0.20132188740E+02  0.24920604598E+02  0.19779677395E+02  0.37650726352E+02  0.00000000000E+00 0.  1.
         -1    1    1    2    0  501 -0.20132188740E+02 -0.24920604598E+02  0.22063292594E+02  0.38898977327E+02  0.00000000000E+00 0. -1.
</event>
<event>
 4    1  0.7060698E+001  0.2224979E+02  0.7546771E-02  0.1502140E+00
          2   -1    0    0  502    0  0.00000000000E+00  0.00000000000E+00  0.84202915514E+03  0.84202915514E+03  0.00000000000E+00 0. -1.
         -2   -1    0    0    0  501 -0.00000000000E+00 -0.00000000000E+00 -0.71031028649E+00  0.71031028649E+00  0.00000000000E+00 0.  1.
          1    1    1    2  502    0  0.22019372304E+02 -0.31938220342E+01  0.59556232204E+03  0.59597779547E+03  0.00000000000E+00 0.  1.
         -1    1    1    2    0  501 -0.22019372304E+02  0.31938220342E+01  0.24575652281E+03  0.24676166995E+03  0.00000000000E+00 0. -1.
</event>
<event>
 4    1  0.7060698E+001  0.3060454E+02  0.7546771E-02  0.1414414E+00
          2   -1    0    0  502    0  0.00000000000E+00  0.00000000000E+00  0.73605501356E+03  0.73605501356E+03  0.00000000000E+00 0.  1.
         -2   -1    0    0    0  501 -0.00000000000E+00 -0.00000000000E+00 -0.18724095332E+01  0.18724095332E+01  0.00000000000E+00 0. -1.
          1    1    1    2  502    0 -0.10828221632E+02  0.28624943454E+02  0.15824716153E+03  0.16117940906E+03  0.00000000000E+00 0. -1.
         -1    1    1    2    0  501  0.10828221632E+02 -0.28624943454E+02  0.57593544250E+03  0.57674801404E+03  0.00000000000E+00 0.  1.
</event>
<event>
 4    1  0.7060698E+001  0.2991832E+02  0.7546771E-02  0.1420308E+00
          2   -1    0    0  502    0  0.00000000000E+00  0.00000000000E+00  0.17088710503E+01  0.17088710503E+01  0.00000000000E+00 0. -1.
         -2   -1    0    0    0  501 -0.00000000000E+00 -0.00000000000E+00 -0.56254767995E+03  0.56254767995E+03  0.00000000000E+00 0.  1.
          1    1    1    2  502    0 -0.44137038861E+01 -0.29590967115E+02 -0.35446369324E+03  0.35572407276E+03  0.00000000000E+00 0.  1.
         -1    1    1    2    0  501  0.44137038861E+01  0.29590967115E+02 -0.20637511566E+03  0.20853247824E+03  0.00000000000E+00 0. -1.
</event>
<event>
 4    1  0.7060698E+001  0.2729454E+02  0.7546771E-02  0.1444672E+00
          2   -1    0    0  502    0  0.00000000000E+00  0.00000000000E+00  0.22115942553E+03  0.22115942553E+03  0.00000000000E+00 0. -1.
         -2   -1    0    0    0  501 -0.00000000000E+00 -0.00000000000E+00 -0.47766258259E+01  0.47766258259E+01  0.00000000000E+00 0.  1.
          1    1    1    2  502    0 -0.27152508072E+02  0.27809150578E+01  0.16952578890E+03  0.17170901341E+03  0.00000000000E+00 0. -1.
         -1    1    1    2    0  501  0.27152508072E+02 -0.27809150578E+01  0.46857010803E+02  0.54227037948E+02  0.00000000000E+00 0.  1.
</event>
<event>
 4    1  0.7060698E+001  0.2276225E+02  0.7546771E-02  0.1495505E+00
          2   -1    0    0  502    0  0.00000000000E+00  0.00000000000E+00  0.72216674039E+01  0.72216674039E+01  0.00000000000E+00 0. -1.
         -2   -1    0    0    0  501 -0.00000000000E+00 -0.00000000000E+00 -0.72539244381E+02  0.72539244381E+02  0.00000000000E+00 0.  1.
          1    1    1    2  502    0  0.22550650211E+02  0.30964882432E+01 -0.28486325448E+02  0.36463554434E+02  0.00000000000E+00 0. -1.
         -1    1    1    2    0  501 -0.22550650211E+02 -0.30964882432E+01 -0.36831251529E+02  0.43297357351E+02  0.00000000000E+00 0.  1.
</event>
<event>
 4    1  0.7060698E+001  0.3356471E+02  0.7546771E-02  0.1390944E+00
          2   -1    0    0  502    0  0.00000000000E+00  0.00000000000E+00  0.18761579539E+03  0.18761579539E+03  0.00000000000E+00 0.  1.
         -2   -1    0    0    0  501 -0.00000000000E+00 -0.00000000000E+00 -0.84282194221E+01  0.84282194221E+01  0.00000000000E+00 0. -1.
          1    1    1    2  502    0 -0.32737926286E+02 -0.74039134605E+01  0.14215587860E+03  0.14606465545E+03  0.00000000000E+00 0.  1.
         -1    1    1    2    0  501  0.32737926286E+02  0.74039134605E+01  0.37031697368E+02  0.49979359359E+02  0.00000000000E+00 0. -1.
</event>
<event>
 4    1  0.7060698E+001  0.2409236E+02  0.7546771E-02  0.1479219E+00
          2   -1    0    0  502    0  0.00000000000E+00  0.00000000000E+00  0.45567849842E+03  0.45567849842E+03  0.00000000000E+00 0. -1.
         -2   -1    0    0    0  501 -0.00000000000E+00 -0.00000000000E+00 -0.15459692864E+01  0.15459692864E+01  0.00000000000E+00 0.  1.
          1    1    1    2  502    0 -0.23933574604E+02 -0.27614805305E+01  0.13114360184E+03  0.13333823935E+03  0.00000000000E+00 0.  1.
         -1    1    1    2    0  501  0.23933574604E+02  0.27614805305E+01  0.32298892729E+03  0.32388622836E+03  0.00000000000E+00 0. -1.
</event>
<event>
 4    1  0.7060698E+001  0.2292449E+02  0.7546771E-02  0.1493449E+00
          2   -1    0    0  502    0  0.00000000000E+00  0.00000000000E+00  0.30227365757E+02  0.30227365757E+02  0.00000000000E+00 0. -1.
         -2   -1    0    0    0  501 -0.00000000000E+00 -0.00000000000E+00 -0.18830470605E+02  0.18830470605E+02  0.00000000000E+00 0.  1.
          1    1    1    2  502    0  0.22024628410E+02  0.63598590371E+01 -0.10952580493E+01  0.22950635150E+02  0.00000000000E+00 0. -1.
         -1    1    1    2    0  501 -0.22024628410E+02 -0.63598590371E+01  0.12492153201E+02  0.26107201213E+02  0.00000000000E+00 0.  1.
</event>
<event>
 4    1  0.7060698E+001  0.2058250E+02  0.7546771E-02  0.1525310E+00
          2   -1    0    0  502    0  0.00000000000E+00  0.00000000000E+00  0.10047244966E+02  0.10047244966E+02  0.00000000000E+00 0.  1.
         -2   -1    0    0    0  501 -0.00000000000E+00 -0.00000000000E+00 -0.50682480770E+02  0.50682480770E+02  0.00000000000E+00 0. -1.
          1    1    1    2  502    0  0.18503631376E+02 -0.90141567996E+01 -0.32765767275E+02  0.38694119735E+02  0.00000000000E+00 0. -1.
         -1    1    1    2    0  501 -0.18503631376E+02  0.90141567996E+01 -0.78694685281E+01  0.22035606001E+02  0.00000000000E+00 0.  1.
</event>
<event>
 4    1  0.7060698E+001  0.7385198E+02  0.7546771E-02  0.1218888E+00
          2   -1    0    0  502    0  0.00000000000E+00  0.00000000000E+00  0.85550559164E+02  0.85550559164E+02  0.00000000000E+00 0. -1.
         -2   -1    0    0    0  501 -0.00000000000E+00 -0.00000000000E+00 -0.64285339178E+02  0.64285339178E+02  0.00000000000E+00 0.  1.
          1    1    1    2  502    0  0.60830467441E+02 -0.41878023449E+02  0.17449359013E+02  0.75885405362E+02  0.00000000000E+00 0. -1.
         -1    1    1    2    0  501 -0.60830467441E+02  0.41878023449E+02  0.38158609727E+01  0.73950492980E+02  0.00000000000E+00 0.  1.
</event>
<event>
 4    1  0.7060698E+001  0.2011466E+02  0.7546771E-02  0.1532290E+00
          2   -1    0    0  502    0  0.00000000000E+00  0.00000000000E+00  0.22615121340E+04  0.22615121340E+04  0.00000000000E+00 0.  1.
         -2   -1    0    0    0  501 -0.00000000000E+00 -0.00000000000E+00 -0.19501665858E+00  0.19501665858E+00  0.00000000000E+00 0. -1.
          1    1    1    2  502    0 -0.19363970790E+02 -0.54439079523E+01  0.14556850586E+04  0.14558240242E+04  0.00000000000E+00 0. -1.
         -1    1    1    2    0  501  0.19363970790E+02  0.54439079523E+01  0.80563205870E+03  0.80588312646E+03  0.00000000000E+00 0.  1.
</event>
<event>
 4    1  0.7060698E+001  0.2859484E+02  0.7546771E-02  0.1432213E+00
          2   -1    0    0  502    0  0.00000000000E+00  0.00000000000E+00  0.36431183888E+02  0.36431183888E+02  0.00000000000E+00 0.  1.
         -2   -1    0    0    0  501 -0.00000000000E+00 -0.00000000000E+00 -0.26918890699E+02  0.26918890699E+02  0.00000000000E+00 0. -1.
          1    1    1    2  502    0  0.34690490228E+00 -0.28592736631E+02  0.17670575013E+02  0.33614195697E+02  0.00000000000E+00 0.  1.
         -1    1    1    2    0  501 -0.34690490228E+00  0.28592736631E+02 -0.81582818239E+01  0.29735878890E+02  0.00000000000E+00 0. -1.
</event>
<event>
 4    1  0.7060698E+001  0.2123625E+02  0.7546771E-02  0.1515918E+00
          2   -1    0    0  502    0  0.00000000000E+00  0.00000000000E+00  0.34066043005E+02  0.34066043005E+02  0.00000000000E+00 0.  1.
         -2   -1    0    0    0  501 -0.00000000000E+00 -0.00000000000E+00 -0.16253207241E+02  0.16253207241E+02  0.00000000000E+00 0. -1.
          1    1    1    2  502    0 -0.20581555801E+02  0.52323875043E+01 -0.19295511842E+01  0.21323730582E+02  0.00000000000E+00 0. -1.
         -1    1    1    2    0  501  0.20581555801E+02 -0.52323875043E+01  0.19742386948E+02  0.28995519664E+02  0.00000000000E+00 0.  1.
</event>
<event>
 4    1  0.7060698E+001  0.2026939E+02  0.7546771E-02  0.1529957E+00
          2   -1    0    0  502    0  0.00000000000E+00  0.00000000000E+00  0.34664584161E+03  0.34664584161E+03  0.00000000000E+00 0.  1.
         -2   -1    0    0    0  501 -0.00000000000E+00 -0.00000000000E+00 -0.26343845027E+01  0.26343845027E+01  0.00000000000E+00 0. -1.
          1    1    1    2  502    0  0.13839310166E+02 -0.14809508457E+02  0.42477389858E+02  0.47065663660E+02  0.00000000000E+00 0. -1.
         -1    1    1    2    0  501 -0.13839310166E+02  0.14809508457E+02  0.30153406725E+03  0.30221456245E+03  0.00000000000E+00 0.  1.
</event>
<event>
 4    1  0.7060698E+001  0.6094652E+02  0.7546771E-02  0.1256650E+00
          2   -1    0    0  502    0  0.00000000000E+00  0.00000000000E+00  0.46557124567E+03  0.46557124567E+03  0.00000000000E+00 0. -1.
         -2   -1    0    0    0  501 -0.00000000000E+00 -0.00000000000E+00 -0.90683743192E+01  0.90683743192E+01  0.00000000000E+00 0.  1.
          1    1    1    2  502    0  0.38746635813E+02  0.47044407457E+02  0.14597174991E+03  0.15818416429E+03  0.00000000000E+00 0. -1.
         -1    1    1    2    0  501 -0.38746635813E+02 -0.47044407457E+02  0.31053112144E+03  0.31645545570E+03  0.00000000000E+00 0.  1.
</event>
<event>
 4    1  0.7060698E+001  0.2215576E+02  0.7546771E-02  0.1503380E+00
          2   -1    0    0  502    0  0.00000000000E+00  0.00000000000E+00  0.12417639316E+04  0.12417639316E+04  0.00000000000E+00 0. -1.
         -2   -1    0    0    0  501 -0.00000000000E+00 -0.00000000000E+00 -0.40268708227E+00  0.40268708227E+00  0.00000000000E+00 0.  1.
          1    1    1    2  502    0  0.22145859267E+02  0.66223154874E+00  0.70476294405E+03  0.70511111531E+03  0.00000000000E+00 0. -1.
         -1    1    1    2    0  501 -0.22145859267E+02 -0.66223154874E+00  0.53659830049E+03  0.53705550339E+03  0.00000000000E+00 0.  1.
</event>
<event>
 4    1  0.7060698E+001  0.3773792E+02  0.7546771E-02  0.1362277E+00
          2   -1    0    0  502    0  0.00000000000E+00  0.00000000000E+00  0.63568681399E+02  0.63568681399E+02  0.00000000000E+00 0.  1.
         -2   -1    0    0    0  501 -0.00000000000E+00 -0.00000000000E+00 -0.23423087530E+02  0.23423087530E+02  0.00000000000E+00 0. -1.
          1    1    1    2  502    0  0.12972994140E+02  0.35437998896E+02  0.29148366720E+02  0.47684144379E+02  0.00000000000E+00 0.  1.
         -1    1    1    2    0  501 -0.12972994140E+02 -0.35437998896E+02  0.10997227149E+02  0.39307624549E+02  0.00000000000E+00 0. -1.
</event>
<event>
 4    1  0.7060698E+001  0.2121654E+02  0.7546771E-02  0.1516196E+00
          2   -1    0    0  502    0  0.00000000000E+00  0.00000000000E+00  0.45838489905E+00  0.45838489905E+00  0.00000000000E+00 0.  1.
         -2   -1    0    0    0  501 -0.00000000000E+00 -0.00000000000E+00 -0.12828356841E+04  0.12828356841E+04  0.00000000000E+00 0. -1.
          1    1    1    2  502    0  0.16325228674E+02 -0.13550955071E+02 -0.33047270941E+03  0.33115306603E+03  0.00000000000E+00 0.  1.
         -1    1    1    2    0  501 -0.16325228674E+02  0.13550955071E+02 -0.95190458978E+03  0.95214100296E+03  0.00000000000E+00 0. -1.
</event>
<event>
 4    1  0.7060698E+001  0.3774871E+02  0.7546771E-02  0.1362208E+00
          2   -1    0    0  502    0  0.00000000000E+00  0.00000000000E+00  0.21558633829E+03  0.21558633829E+03  0.00000000000E+00 0. -1.
         -2   -1    0    0    0  501 -0.00000000000E+00 -0.00000000000E+00 -0.69183693868E+01  0.69183693868E+01  0.00000000000E+00 0.  1.
          1    1    1    2  502    0 -0.36212474803E+02 -0.10659364878E+02  0.12783246883E+03  0.13328955502E+03  0.00000000000E+00 0. -1.
         -1    1    1    2    0  501  0.36212474803E+02  0.10659364878E+02  0.80835500070E+02  0.89215152651E+02  0.00000000000E+00 0.  1.
</event>
<event>
 4    1  0.7060698E+001  0.2281921E+02  0.7546771E-02  0.1494781E+00
          2   -1    0    0  502    0  0.00000000000E+00  0.00000000000E+00  0.65322778723E+01  0.65322778723E+01  0.00000000000E+00 0. -1.
         -2   -1    0    0    0  501 -0.00000000000E+00 -0.00000000000E+00 -0.80086950095E+02  0.80086950095E+02  0.00000000000E+00 0.  1.
          1    1    1    2  502    0  0.22067298840E+02 -0.58095290652E+01 -0.33823251011E+02  0.40801085954E+02  0.00000000000E+00 0. -1.
         -1    1    1    2    0  501 -0.22067298840E+02  0.58095290652E+01 -0.39731421212E+02  0.45818142014E+02  0.00000000000E+00 0.  1.
</event>
<event>
 4    1  0.7060698E+001  0.3805271E+02  0.7546771E-02  0.1360291E+00
          2   -1    0    0  502    0  0.00000000000E+00  0.00000000000E+00  0.87427595271E+02  0.87427595271E+02  0.00000000000E+00 0. -1.
         -2   -1    0    0    0  501 -0.00000000000E+00 -0.00000000000E+00 -0.17390387282E+02  0.17390387282E+02  0.00000000000E+00 0.  1.
          1    1    1    2  502    0 -0.11401076188E+02  0.36304599225E+02  0.23582712434E+02  0.44767765065E+02  0.00000000000E+00 0.  1.
         -1    1    1    2    0  501  0.11401076188E+02 -0.36304599225E+02  0.46454495555E+02  0.60050217489E+02  0.00000000000E+00 0. -1.
</event>
<event>
 4    1  0.7060698E+001  0.2498961E+02  0.7546771E-02  0.1468920E+00
          2   -1    0    0  502    0  0.00000000000E+00  0.00000000000E+00  0.14223283277E+04  0.14223283277E+04  0.00000000000E+00 0. -1.
         -2   -1    0    0    0  501 -0.00000000000E+00 -0.00000000000E+00 -0.53289760837E+00  0.53289760837E+00  0.00000000000E+00 0.  1.
          1    1    1    2  502    0  0.79522620039E+01  0.23690544395E+02  0.41235209970E+03  0.41310862311E+03  0.00000000000E+00 0. -1.
         -1    1    1    2    0  501 -0.79522620039E+01 -0.23690544395E+02  0.10094433304E+04  0.10097526022E+04  0.00000000000E+00 0.  1.
</event>
<event>
 4    1  0.7060698E+001  0.2030494E+02  0.7546771E-02  0.1529424E+00
          2   -1    0    0  502    0  0.00000000000E+00  0.00000000000E+00  0.54990615333E+02  0.54990615333E+02  0.00000000000E+00 0.  1.
         -2   -1    0    0    0  501 -0.00000000000E+00 -0.00000000000E+00 -0.78059370329E+01  0.78059370329E+01  0.00000000000E+00 0. -1.
          1    1    1    2  502    0  0.17085617003E+02  0.10971431765E+02  0.29833939226E+02  0.36088149760E+02  0.00000000000E+00 0.  1.
         -1    1    1    2    0  501 -0.17085617003E+02 -0.10971431765E+02  0.17350739074E+02  0.26708402606E+02  0.00000000000E+00 0. -1.
</event>
<event>
 4    1  0.7060698E+001  0.2263774E+02  0.7546771E-02  0.1497098E+00
          2   -1    0    0  502    0  0.00000000000E+00  0.00000000000E+00  0.28656018608E+03  0.28656018608E+03  0.00000000000E+00 0.  1.
         -2   -1    0    0    0  501 -0.00000000000E+00 -0.00000000000E+00 -0.18107256449E+01  0.18107256449E+01  0.00000000000E+00 0. -1.
          1    1    1    2  502    0 -0.13330832015E+02 -0.18296341037E+02  0.12634318498E+03  0.12835523974E+03  0.00000000000E+00 0.  1.
         -1    1    1    2    0  501  0.13330832015E+02  0.18296341037E+02  0.15840627545E+03  0.16001567199E+03  0.00000000000E+00 0. -1.
</event>
<event>
 4    1  0.7060698E+001  0.2115643E+02  0.7546771E-02  0.1517043E+00
          2   -1    0    0  502    0  0.00000000000E+00  0.00000000000E+00  0.10987611623E+03  0.10987611623E+03  0.00000000000E+00 0.  1.
         -2   -1    0    0    0  501 -0.00000000000E+00 -0.00000000000E+00 -0.82661816062E+01  0.82661816062E+01  0.00000000000E+00 0. -1.
          1    1    1    2  502    0 -0.29566808026E+01 -0.20948812909E+02  0.92873960394E+02  0.95253174451E+02  0.00000000000E+00 0.  1.
         -1    1    1    2    0  501  0.29566808026E+01  0.20948812909E+02  0.87359742323E+01  0.22889123388E+02  0.00000000000E+00 0. -1.
</event>
<event>
 4    1  0.7060698E+001  0.2224114E+02  0.7546771E-02  0.1502253E+00
          2   -1    0    0  502    0  0.00000000000E+00  0.00000000000E+00  0.63880272603E+03  0.63880272603E+03  0.00000000000E+00 0. -1.
         -2   -1    0    0    0  501 -0.00000000000E+00 -0.00000000000E+00 -0.15526630919E+01  0.15526630919E+01  0.00000000000E+00 0.  1.
          1    1    1    2  502    0  0.46847126437E+01  0.21742169206E+02  0.54531096709E+03  0.54576434409E+03  0.00000000000E+00 0. -1.
         -1    1    1    2    0  501 -0.46847126437E+01 -0.21742169206E+02  0.91939095846E+02  0.94591045027E+02  0.00000000000E+00 0.  1.
</event>
<event>
 4    1  0.7060698E+001  0.2087790E+02  0.7546771E-02  0.1521015E+00
          2   -1    0    0  502    0  0.00000000000E+00  0.00000000000E+00  0.19962481643E+03  0.19962481643E+03  0.00000000000E+00 0.  1.
         -2   -1    0    0    0  501 -0.00000000000E+00 -0.00000000000E+00 -0.26982478216E+01  0.26982478216E+01  0.00000000000E+00 0. -1.
          1    1    1    2  502    0 -0.20851820381E+02 -0.10431481689E+01  0.14264672318E+03  0.14416648087E+03  0.00000000000E+00 0.  1.
         -1    1    1    2    0  501  0.20851820381E+02  0.10431481689E+01  0.54279845424E+02  0.58156583381E+02  0.00000000000E+00 0. -1.
</event>
<event>
 4    1  0.7060698E+001  0.1275198E+03  0.7546771E-02  0.1123178E+00
          2   -1    0    0  502    0  0.00000000000E+00  0.00000000000E+00  0.16711120362E+04  0.16711120362E+04  0.00000000000E+00 0. -1.
         -2   -1    0    0    0  501 -0.00000000000E+00 -0.00000000000E+00 -0.10135518812E+02  0.10135518812E+02  0.00000000000E+00 0.  1.
          1    1    1    2  502    0 -0.53361378696E+02  0.11581828112E+03  0.66251581381E+03  0.67467659996E+03  0.00000000000E+00 0. -1.
         -1    1    1    2    0  501  0.53361378696E+02 -0.11581828112E+03  0.99846070353E+03  0.10065709550E+04  0.00000000000E+00 0.  1.
</event>
<event>
 4    1  0.7060698E+001  0.2440226E+02  0.7546771E-02  0.1475603E+00
          2   -1    0    0  502    0  0.00000000000E+00  0.00000000000E+00  0.37614929890E+03  0.37614929890E+03  0.00000000000E+00 0. -1.
         -2   -1    0    0    0  501 -0.00000000000E+00 -0.00000000000E+00 -0.22376826904E+01  0.22376826904E+01  0.00000000000E+00 0.  1.
          1    1    1    2  502    0 -0.48434772127E+01 -0.23916746960E+02  0.28928503448E+03  0.29031242005E+03  0.00000000000E+00 0. -1.
         -1    1    1    2    0  501  0.48434772127E+01  0.23916746960E+02  0.84626581725E+02  0.88074561544E+02  0.00000000000E+00 0.  1.
</event>
<event>
 4    1  0.7060698E+001  0.2163042E+02  0.7546771E-02  0.1510451E+00
          2   -1    0    0  502    0  0.00000000000E+00  0.00000000000E+00  0.35668197224E+02  0.35668197224E+02  0.00000000000E+00 0.  1.
         -2   -1    0    0    0  501 -0.00000000000E+00 -0.00000000000E+00 -0.13159605822E+02  0.13159605822E+02  0.00000000000E+00 0. -1.
          1    1    1    2  502    0  0.16661802065E+01 -0.21566150650E+02  0.12636453506E+02  0.25051047234E+02  0.00000000000E+00 0. -1.
         -1    1    1    2    0  501 -0.16661802065E+01  0.21566150650E+02  0.98721378960E+01  0.23776755812E+02  0.00000000000E+00 0.  1.
</event>
<event>
 4    1  0.7060698E+001  0.3070109E+02  0.7546771E-02  0.1413600E+00
          2   -1    0    0  502    0  0.00000000000E+00  0.00000000000E+00  0.68669795450E+02  0.68669795450E+02  0.00000000000E+00 0.  1.
         -2   -1    0    0    0  501 -0.00000000000E+00 -0.00000000000E+00 -0.26601316195E+02  0.26601316195E+02  0.00000000000E+00 0. -1.
          1    1    1    2  502    0 -0.17523452424E+02 -0.25208840639E+02  0.54174792636E+02  0.62269295711E+02  0.00000000000E+00 0.  1.
         -1    1    1    2    0  501  0.17523452424E+02  0.25208840639E+02 -0.12106313380E+02  0.33001815933E+02  0.00000000000E+00 0. -1.
</event>
<event>
 4    1  0.7060698E+001  0.2115474E+02  0.7546771E-02  0.1517067E+00
          2   -1    0    0  502    0  0.00000000000E+00  0.00000000000E+00  0.63593819624E+01  0.63593819624E+01  0.00000000000E+00 0.  1.
         -2   -1    0    0    0  501 -0.00000000000E+00 -0.00000000000E+00 -0.72131625252E+02  0.72131625252E+02  0.00000000000E+00 0. -1.
          1    1    1    2  502    0  0.11205388250E+00  0.21154445069E+02 -0.26756635812E+02  0.34109245993E+02  0.00000000000E+00 0. -1.
         -1    1    1    2    0  501 -0.11205388250E+00 -0.21154445069E+02 -0.39015607477E+02  0.44381761221E+02  0.00000000000E+00 0.  1.
</event>
<event>
 4    1  0.7060698E+001  0.2255443E+02  0.7546771E-02  0.1498170E+00
          2   -1    0    0  502    0  0.00000000000E+00  0.00000000000E+00  0.40855521490E+03  0.40855521490E+03  0.00000000000E+00 0.  1.
         -2   -1    0    0    0  501 -0.00000000000E+00 -0.00000000000E+00 -0.14273352531E+01  0.14273352531E+01  0.00000000000E+00 0. -1.
          1    1    1    2  502    0  0.90220369364E+01  0.20671365692E+02  0.13032227484E+03  0.13225958502E+03  0.00000000000E+00 0.  1.
         -1    1    1    2    0  501 -0.90220369364E+01 -0.20671365692E+02  0.27680560481E+03  0.27772296513E+03  0.00000000000E+00 0. -1.
</event>
<event>
 4    1  0.7060698E+001  0.5610595E+02  0.7546771E-02  0.1273670E+00
          2   -1    0    0  502    0  0.00000000000E+00  0.00000000000E+00  0.22639006037E+04  0.22639006037E+04  0.00000000000E+00 0.  1.
         -2   -1    0    0    0  501 -0.00000000000E+00 -0.00000000000E+00 -0.14089102304E+01  0.14089102304E+01  0.00000000000E+00 0. -1.
          1    1    1    2  502    0 -0.11244915432E+02 -0.54967529792E+02  0.12608392350E+04  0.12620869439E+04  0.00000000000E+00 0.  1.
         -1    1    1    2    0  501  0.11244915432E+02  0.54967529792E+02  0.10016524584E+04  0.10032225700E+04  0.00000000000E+00 0. -1.
</event>
<event>
 4    1  0.7060698E+001  0.2318697E+02  0.7546771E-02  0.1490164E+00
          2   -1    0    0  502    0  0.00000000000E+00  0.00000000000E+00  0.65190409565E+02  0.65190409565E+02  0.00000000000E+00 0.  1.
         -2   -1    0    0    0  501 -0.00000000000E+00 -0.00000000000E+00 -0.87926533093E+01  0.87926533093E+01  0.00000000000E+00 0. -1.
          1    1    1    2  502    0 -0.11041335857E+02  0.20389319517E+02  0.37412679024E+02  0.44015270073E+02  0.00000000000E+00 0. -1.
         -1    1    1    2    0  501  0.11041335857E+02 -0.20389319517E+02  0.18985077232E+02  0.29967792801E+02  0.00000000000E+00 0.  1.
</event>
<event>
 4    1  0.7060698E+001  0.3528167E+02  0.7546771E-02  0.1378594E+00
          2   -1    0    0  502    0  0.00000000000E+00  0.00000000000E+00  0.16771336937E+04  0.16771336937E+04  0.00000000000E+00 0.  1.
         -2   -1    0    0    0  501 -0.00000000000E+00 -0.00000000000E+00 -0.75557974575E+00  0.75557974575E+00  0.00000000000E+00 0. -1.
          1    1    1    2  502    0  0.29110997410E+02 -0.19933537613E+02  0.94976001010E+03  0.95041510556E+03  0.00000000000E+00 0.  1.
         -1    1    1    2    0  501 -0.29110997410E+02  0.19933537613E+02  0.72661810387E+03  0.72747416790E+03  0.00000000000E+00 0. -1.
</event>
<event>
 4    1  0.7060698E+001  0.2264815E+02  0.7546771E-02  0.1496964E+00
          2   -1    0    0  502    0  0.00000000000E+00  0.00000000000E+00  0.56499586230E+03  0.56499586230E+03  0.00000000000E+00 0.  1.
         -2   -1    0    0    0  501 -0.00000000000E+00 -0.00000000000E+00 -0.94224516159E+00  0.94224516159E+00  0.00000000000E+00 0. -1.
          1    1    1    2  502    0 -0.52983195214E+01  0.22019682775E+02  0.33608058287E+03  0.33684283695E+03  0.00000000000E+00 0. -1.
         -1    1    1    2    0  501  0.52983195214E+01 -0.22019682775E+02  0.22797303427E+03  0.22909527052E+03  0.00000000000E+00 0.  1.
</event>
<event>
 4    1  0.7060698E+001  0.2051335E+02  0.7546771E-02  0.1526328E+00
          2   -1    0    0  502    0  0.00000000000E+00  0.00000000000E+00  0.38740814924E+01  0.38740814924E+01  0.00000000000E+00 0.  1.
         -2   -1    0    0    0  501 -0.00000000000E+00 -0.00000000000E+00 -0.18185792504E+03  0.18185792504E+03  0.00000000000E+00 0. -1.
          1    1    1    2  502    0 -0.16342451664E+02 -0.12398454177E+02 -0.14792549058E+03  0.14934104646E+03  0.00000000000E+00 0. -1.
         -1    1    1    2    0  501  0.16342451664E+02  0.12398454177E+02 -0.30058352969E+02  0.36390960080E+02  0.00000000000E+00 0.  1.
</event>
<event>
 4    1  0.7060698E+001  0.2051022E+02  0.7546771E-02  0.1526374E+00
          2   -1    0    0  502    0  0.00000000000E+00  0.00000000000E+00  0.47373931544E+02  0.47373931544E+02  0.00000000000E+00 0.  1.
         -2   -1    0    0    0  501 -0.00000000000E+00 -0.00000000000E+00 -0.18694887807E+02  0.18694887807E+02  0.00000000000E+00 0. -1.
          1    1    1    2  502    0 -0.57574322978E+01 -0.19685551695E+02  0.38275610142E+02  0.43424547251E+02  0.00000000000E+00 0.  1.
         -1    1    1    2    0  501  0.57574322978E+01  0.19685551695E+02 -0.95965664058E+01  0.22644272101E+02  0.00000000000E+00 0. -1.
</event>
<event>
 4    1  0.7060698E+001  0.2656474E+02  0.7546771E-02  0.1452030E+00
          2   -1    0    0  502    0  0.00000000000E+00  0.00000000000E+00  0.95245045290E+02  0.95245045290E+02  0.00000000000E+00 0. -1.
         -2   -1    0    0    0  501 -0.00000000000E+00 -0.00000000000E+00 -0.75290206392E+01  0.75290206392E+01  0.00000000000E+00 0.  1.
          1    1    1    2  502    0 -0.20322551795E+02  0.17107865050E+02  0.37374140526E+02  0.45853151888E+02  0.00000000000E+00 0. -1.
         -1    1    1    2    0  501  0.20322551795E+02 -0.17107865050E+02  0.50341884124E+02  0.56920914040E+02  0.00000000000E+00 0.  1.
</event>
<event>
 4    1  0.7060698E+001  0.2391204E+02  0.7546771E-02  0.1481353E+00
          2   -1    0    0  502    0  0.00000000000E+00  0.00000000000E+00  0.47590025014E+02  0.47590025014E+02  0.00000000000E+00 0.  1.
         -2   -1    0    0    0  501 -0.00000000000E+00 -0.00000000000E+00 -0.12354079875E+02  0.12354079875E+02  0.00000000000E+00 0. -1.
          1    1    1    2  502    0  0.23360261670E+02 -0.51072231961E+01  0.12651158106E+02  0.27052492593E+02  0.00000000000E+00 0. -1.
         -1    1    1    2    0  501 -0.23360261670E+02  0.51072231961E+01  0.22584787033E+02  0.32891612295E+02  0.00000000000E+00 0.  1.
</event>
<event>
 4    1  0.7060698E+001  0.2021354E+02  0.7546771E-02  0.1530796E+00
          2   -1    0    0  502    0  0.00000000000E+00  0.00000000000E+00  0.43621769321E+02  0.43621769321E+02  0.00000000000E+00 0. -1.
         -2   -1    0    0    0  501 -0.00000000000E+00 -0.00000000000E+00 -0.11728591601E+02  0.11728591601E+02  0.00000000000E+00 0.  1.
          1    1    1    2  502    0  0.65667369364E+01 -0.19117141031E+02  0.28366196092E+02  0.34831425408E+02  0.00000000000E+00 0. -1.
         -1    1    1    2    0  501 -0.65667369364E+01  0.19117141031E+02  0.35269816284E+01  0.20518935514E+02  0.00000000000E+00 0.  1.
</event>
<event>
 4    1  0.7060698E+001  0.4952881E+02  0.7546771E-02  0.1300228E+00
          2   -1    0    0  502    0  0.00000000000E+00  0.00000000000E+00  0.15050639151E+03  0.15050639151E+03  0.00000000000E+00 0.  1.
         -2   -1    0    0    0  501 -0.00000000000E+00 -0.00000000000E+00 -0.32841120738E+02  0.32841120738E+02  0.00000000000E+00 0. -1.
          1    1    1    2  502    0  0.44197378212E+02  0.22353844854E+02  0.12389528213E+03  0.13342842109E+03  0.00000000000E+00 0.  1.
         -1    1    1    2    0  501 -0.44197378212E+02 -0.22353844854E+02 -0.62300113558E+01  0.49919091159E+02  0.00000000000E+00 0. -1.
</event>
<event>
 4    1  0.7060698E+001  0.2787101E+02  0.7546771E-02  0.1439050E+00
          2   -1    0    0  502    0  0.00000000000E+00  0.00000000000E+00  0.52289960506E+03  0.52289960506E+03  0.00000000000E+00 0.  1.
         -2   -1    0    0    0  501 -0.00000000000E+00 -0.00000000000E+00 -0.16900001312E+01  0.16900001312E+01  0.00000000000E+00 0. -1.
          1    1    1    2  502    0  0.57585321364E+01  0.27269622958E+02  0.35183549823E+03  0.35293768691E+03  0.00000000000E+00 0.  1.
         -1    1    1    2    0  501 -0.57585321364E+01 -0.27269622958E+02  0.16937410670E+03  0.17165191828E+03  0.00000000000E+00 0. -1.
</event>
<event>
 4    1  0.7060698E+001  0.2067787E+02  0.7546771E-02  0.1523914E+00
          2   -1    0    0  502    0  0.00000000000E+00  0.00000000000E+00  0.34126068292E+03  0.34126068292E+03  0.00000000000E+00 0. -1.
         -2   -1    0    0    0  501 -0.00000000000E+00 -0.00000000000E+00 -0.17163338169E+01  0.17163338169E+01  0.00000000000E+00 0.  1.
          1    1    1    2  502    0  0.70523316915E+01 -0.19438084295E+02  0.25887996086E+03  0.25970446404E+03  0.00000000000E+00 0. -1.
         -1    1    1    2    0  501 -0.70523316915E+01  0.19438084295E+02  0.80664388244E+02  0.83272552706E+02  0.00000000000E+00 0.  1.
</event>
<event>
 4    1  0.7060698E+001  0.2195801E+02  0.7546771E-02  0.1506014E+00
          2   -1    0    0  502    0  0.00000000000E+00  0.00000000000E+00  0.64569506785E+03  0.64569506785E+03  0.00000000000E+00 0. -1.
         -2   -1    0    0    0  501 -0.00000000000E+00 -0.00000000000E+00 -0.74714934204E+00  0.74714934204E+00  0.00000000000E+00 0.  1.
          1    1    1    2  502    0  0.19312549693E+02  0.10448901014E+02  0.31473542091E+03  0.31550045845E+03  0.00000000000E+00 0. -1.
         -1    1    1    2    0  501 -0.19312549693E+02 -0.10448901014E+02  0.33021249760E+03  0.33094175874E+03  0.00000000000E+00 0.  1.
</event>
<event>
 4    1  0.7060698E+001  0.5148774E+02  0.7546771E-02  0.1291848E+00
          2   -1    0    0  502    0  0.00000000000E+00  0.00000000000E+00  0.57766924452E+03  0.57766924452E+03  0.00000000000E+00 0. -1.
         -2   -1    0    0    0  501 -0.00000000000E+00 -0.00000000000E+00 -0.48801904669E+01  0.48801904669E+01  0.00000000000E+00 0.  1.
          1    1    1    2  502    0 -0.23971221699E+02 -0.45567178428E+02  0.35753087476E+03  0.36121920439E+03  0.00000000000E+00 0.  1.
         -1    1    1    2    0  501  0.23971221699E+02  0.45567178428E+02  0.21525817929E+03  0.22133023059E+03  0.00000000000E+00 0. -1.
</event>
<event>
 4    1  0.7060698E+001  0.3878939E+02  0.7546771E-02  0.1355730E+00
          2   -1    0    0  502    0  0.00000000000E+00  0.00000000000E+00  0.31373474455E+04  0.31373474455E+04  0.00000000000E+00 0. -1.
         -2   -1    0    0    0  501 -0.00000000000E+00 -0.00000000000E+00 -0.93189590724E+00  0.93189590724E+00  0.00000000000E+00 0.  1.
          1    1    1    2  502    0 -0.33628074810E+02  0.19333116081E+02  0.47501273663E+03  0.47659386983E+03  0.00000000000E+00 0.  1.
         -1    1    1    2    0  501  0.33628074810E+02 -0.19333116081E+02  0.26614028130E+04  0.26616854716E+04  0.00000000000E+00 0. -1.
</event>
<event>
 4    1  0.7060698E+001  0.3562230E+02  0.7546771E-02  0.1376240E+00
          2   -1    0    0  502    0  0.00000000000E+00  0.00000000000E+00  0.11443122239E+04  0.11443122239E+04  0.00000000000E+00 0. -1.
         -2   -1    0    0    0  501 -0.00000000000E+00 -0.00000000000E+00 -0.11505961127E+01  0.11505961127E+01  0.00000000000E+00 0.  1.
          1    1    1    2  502    0 -0.32447568825E+02  0.14700457944E+02  0.46257625832E+03  0.46394584053E+03  0.00000000000E+00 0. -1.
         -1    1    1    2    0  501  0.32447568825E+02 -0.14700457944E+02  0.68058536948E+03  0.68151697949E+03  0.00000000000E+00 0.  1.
</event>
<event>
 4    1  0.7060698E+001  0.2727708E+02  0.7546771E-02  0.1444845E+00
          2   -1    0    0  502    0  0.00000000000E+00  0.00000000000E+00  0.70969778491E+02  0.70969778491E+02  0.00000000000E+00 0.  1.
         -2   -1    0    0    0  501 -0.00000000000E+00 -0.00000000000E+00 -0.10532810839E+02  0.10532810839E+02  0.00000000000E+00 0. -1.
          1    1    1    2  502    0 -0.27139011775E+02 -0.27409605326E+01  0.27441015413E+02  0.38691706497E+02  0.00000000000E+00 0.  1.
         -1    1    1    2    0  501  0.27139011775E+02  0.27409605326E+01  0.32995952240E+02  0.42810882833E+02  0.00000000000E+00 0. -1.
</event>
<event>
 4    1  0.7060698E+001  0.3159614E+02  0.7546771E-02  0.1406215E+00
          2   -1    0    0  502    0  0.00000000000E+00  0.00000000000E+00  0.13176019536E+04  0.13176019536E+04  0.00000000000E+00 0.  1.
         -2   -1    0    0    0  501 -0.00000000000E+00 -0.00000000000E+00 -0.83284993591E+00  0.83284993591E+00  0.00000000000E+00 0. -1.
          1    1    1    2  502    0  0.22533137638E+02  0.22148898801E+02  0.85643578169E+03  0.85701841530E+03  0.00000000000E+00 0.  1.
         -1    1    1    2    0  501 -0.22533137638E+02 -0.22148898801E+02  0.46033332195E+03  0.46141638821E+03  0.00000000000E+00 0. -1.
</event>
<event>
 4    1  0.7060698E+001  0.2281305E+02  0.7546771E-02  0.1494859E+00
          2   -1    0    0  502    0  0.00000000000E+00  0.00000000000E+00  0.36770289030E+03  0.36770289030E+03  0.00000000000E+00 0.  1.
         -2   -1    0    0    0  501 -0.00000000000E+00 -0.00000000000E+00 -0.14594513387E+01  0.14594513387E+01  0.00000000000E+00 0. -1.
          1    1    1    2  502    0 -0.16173896656E+02 -0.16088514948E+02  0.15104239263E+03  0.15275548965E+03  0.00000000000E+00 0.  1.
         -1    1    1    2    0  501  0.16173896656E+02  0.16088514948E+02  0.21520104633E+03  0.21640685199E+03  0.00000000000E+00 0. -1.
</event>
<event>
 4    1  0.7060698E+001  0.2660416E+02  0.7546771E-02  0.1451625E+00
          2   -1    0    0  502    0  0.00000000000E+00  0.00000000000E+00  0.24863338630E+02  0.24863338630E+02  0.00000000000E+00 0.  1.
         -2   -1    0    0    0  501 -0.00000000000E+00 -0.00000000000E+00 -0.42995259991E+02  0.42995259991E+02  0.00000000000E+00 0. -1.
          1    1    1    2  502    0 -0.19825089236E+02 -0.17741122525E+02 -0.28788973080E+02  0.39199318395E+02  0.00000000000E+00 0. -1.
         -1    1    1    2    0  501  0.19825089236E+02  0.17741122525E+02  0.10657051719E+02  0.28659280225E+02  0.00000000000E+00 0.  1.
</event>
<event>
 4    1  0.7060698E+001  0.3491349E+02  0.7546771E-02  0.1381172E+00
          2   -1    0    0  502    0  0.00000000000E+00  0.00000000000E+00  0.35971494698E+03  0.35971494698E+03  0.00000000000E+00 0. -1.
         -2   -1    0    0    0  501 -0.00000000000E+00 -0.00000000000E+00 -0.73448798488E+01  0.73448798488E+01  0.00000000000E+00 0.  1.
          1    1    1    2  502    0 -0.27944627199E+02 -0.20929634013E+02  0.31088103476E+03  0.31283537131E+03  0.00000000000E+00 0. -1.
         -1    1    1    2    0  501  0.27944627199E+02  0.20929634013E+02  0.41489032371E+02  0.54224455518E+02  0.00000000000E+00 0.  1.
</event>
<event>
 4    1  0.7060698E+001  0.2078992E+02  0.7546771E-02  0.1522285E+00
          2   -1    0    0  502    0  0.00000000000E+00  0.00000000000E+00  0.84493891461E+01  0.84493891461E+01  0.00000000000E+00 0.  1.
         -2   -1    0    0    0  501 -0.00000000000E+00 -0.00000000000E+00 -0.63757619749E+02  0.63757619749E+02  0.00000000000E+00 0. -1.
          1    1    1    2  502    0 -0.74837745168E+01 -0.19396237285E+02 -0.43706118063E+02  0.48398818766E+02  0.00000000000E+00 0. -1.
         -1    1    1    2    0  501  0.74837745168E+01  0.19396237285E+02 -0.11602112540E+02  0.23808190129E+02  0.00000000000E+00 0.  1.
</event>
<event>
 4    1  0.7060698E+001  0.2572922E+02  0.7546771E-02  0.1460809E+00
          2   -1    0    0  502    0  0.00000000000E+00  0.00000000000E+00  0.82319749130E+03  0.82319749130E+03  0.00000000000E+00 0. -1.
         -2   -1    0    0    0  501 -0.00000000000E+00 -0.00000000000E+00 -0.87282763518E+00  0.87282763518E+00  0.00000000000E+00 0.  1.
          1    1    1    2  502    0 -0.24676829416E+02 -0.72833263295E+01  0.52672210189E+03  0.52735013546E+03  0.00000000000E+00 0. -1.
         -1    1    1    2    0  501  0.24676829416E+02  0.72833263295E+01  0.29560256177E+03  0.29672018347E+03  0.00000000000E+00 0.  1.
</event>
<event>
 4    1  0.7060698E+001  0.2044500E+02  0.7546771E-02  0.1527338E+00
          2   -1    0    0  502    0  0.00000000000E+00  0.00000000000E+00  0.48730281317E+03  0.48730281317E+03  0.00000000000E+00 0.  1.
         -2   -1    0    0    0  501 -0.00000000000E+00 -0.00000000000E+00 -0.23739924926E+01  0.23739924926E+01  0.00000000000E+00 0. -1.
          1    1    1    2  502    0 -0.10339886542E+02  0.17637597014E+02  0.43813252335E+03  0.43860928638E+03  0.00000000000E+00 0.  1.
         -1    1    1    2    0  501  0.10339886542E+02 -0.17637597014E+02  0.46796297331E+02  0.51067519286E+02  0.00000000000E+00 0. -1.
</event>
<event>
 4    1  0.7060698E+001  0.3850002E+02  0.7546771E-02  0.1357507E+00
          2   -1    0    0  502    0  0.00000000000E+00  0.00000000000E+00  0.38514838909E+03  0.38514838909E+03  0.00000000000E+00 0. -1.
         -2   -1    0    0    0  501 -0.00000000000E+00 -0.00000000000E+00 -0.82560483738E+01  0.82560483738E+01  0.00000000000E+00 0.  1.
          1    1    1    2  502    0  0.36157516199E+02  0.13224422131E+02  0.44725015774E+02  0.59013374369E+02  0.00000000000E+00 0.  1.
         -1    1    1    2    0  501 -0.36157516199E+02 -0.13224422131E+02  0.33216732494E+03  0.33439106309E+03  0.00000000000E+00 0. -1.
</event>
<event>
 4    1  0.7060698E+001  0.2197478E+02  0.7546771E-02  0.1505789E+00
          2   -1    0    0  502    0  0.00000000000E+00  0.00000000000E+00  0.92770760664E+01  0.92770760664E+01  0.00000000000E+00 0.  1.
         -2   -1    0    0    0  501 -0.00000000000E+00 -0.00000000000E+00 -0.97040050498E+02  0.97040050498E+02  0.00000000000E+00 0. -1.
          1    1    1    2  502    0 -0.30809574567E+01  0.21757730992E+02 -0.80076263946E+02  0.83036734066E+02  0.00000000000E+00 0. -1.
         -1    1    1    2    0  501  0.30809574567E+01 -0.21757730992E+02 -0.76867104851E+01  0.23280392498E+02  0.00000000000E+00 0.  1.
</event>
<event>
 4    1  0.7060698E+001  0.2432564E+02  0.7546771E-02  0.1476491E+00
          2   -1    0    0  502    0  0.00000000000E+00  0.00000000000E+00  0.23974552187E+01  0.23974552187E+01  0.00000000000E+00 0. -1.
         -2   -1    0    0    0  501 -0.00000000000E+00 -0.00000000000E+00 -0.29520986877E+03  0.29520986877E+03  0.00000000000E+00 0.  1.
          1    1    1    2  502    0  0.22191692652E+02  0.99632150578E+01 -0.20665260085E+03  0.20807939426E+03  0.00000000000E+00 0. -1.
         -1    1    1    2    0  501 -0.22191692652E+02 -0.99632150578E+01 -0.86159812707E+02  0.89527929735E+02  0.00000000000E+00 0.  1.
</event>
<event>
 4    1  0.7060698E+001  0.2128675E+02  0.7546771E-02  0.1515210E+00
          2   -1    0    0  502    0  0.00000000000E+00  0.00000000000E+00  0.63430720783E+03  0.63430720783E+03  0.00000000000E+00 0. -1.
         -2   -1    0    0    0  501 -0.00000000000E+00 -0.00000000000E+00 -0.71500051714E+00  0.71500051714E+00  0.00000000000E+00 0.  1.
          1    1    1    2  502    0 -0.14465351615E+02  0.15616630892E+02  0.30731466381E+03  0.30805101550E+03  0.00000000000E+00 0.  1.
         -1    1    1    2    0  501  0.14465351615E+02 -0.15616630892E+02  0.32627754350E+03  0.32697119284E+03  0.00000000000E+00 0. -1.
</event>
<event>
 4    1  0.7060698E+001  0.4391190E+02  0.7546771E-02  0.1326971E+00
          2   -1    0    0  502    0  0.00000000000E+00  0.00000000000E+00  0.12352925724E+03  0.12352925724E+03  0.00000000000E+00 0. -1.
         -2   -1    0    0    0  501 -0.00000000000E+00 -0.00000000000E+00 -0.15800695066E+02  0.15800695066E+02  0.00000000000E+00 0.  1.
          1    1    1    2  502    0 -0.40658252280E+02  0.16588002058E+02  0.61523448185E+02  0.75586969560E+02  0.00000000000E+00 0.  1.
         -1    1    1    2    0  501  0.40658252280E+02 -0.16588002058E+02  0.46205113993E+02  0.63742982750E+02  0.00000000000E+00 0. -1.
</event>
<event>
 4    1  0.7060698E+001  0.2265070E+02  0.7546771E-02  0.1496931E+00
          2   -1    0    0  502    0  0.00000000000E+00  0.00000000000E+00  0.23942545545E+03  0.23942545545E+03  0.00000000000E+00 0.  1.
         -2   -1    0    0    0  501 -0.00000000000E+00 -0.00000000000E+00 -0.26778823576E+01  0.26778823576E+01  0.00000000000E+00 0. -1.
          1    1    1    2  502    0 -0.16316445009E+02 -0.15710760712E+02  0.17248190639E+03  0.17396281905E+03  0.00000000000E+00 0.  1.
         -1    1    1    2    0  501  0.16316445009E+02  0.15710760712E+02  0.64265666706E+02  0.68140518762E+02  0.00000000000E+00 0. -1.
</event>
<event>
 4    1  0.7060698E+001  0.3036499E+02  0.7546771E-02  0.1416451E+00
          2   -1    0    0  502    0  0.00000000000E+00  0.00000000000E+00  0.99539281229E+03  0.99539281229E+03  0.00000000000E+00 0. -1.
         -2   -1    0    0    0  501 -0.00000000000E+00 -0.00000000000E+00 -0.22246757025E+01  0.22246757025E+01  0.00000000000E+00 0.  1.
          1    1    1    2  502    0  0.30192139010E+02 -0.32353537324E+01  0.87765061393E+03  0.87817574147E+03  0.00000000000E+00 0. -1.
         -1    1    1    2    0  501 -0.30192139010E+02  0.32353537324E+01  0.11551752265E+03  0.11944174652E+03  0.00000000000E+00 0.  1.
</event>
<event>
 4    1  0.7060698E+001  0.3982316E+02  0.7546771E-02  0.1349525E+00
          2   -1    0    0  502    0  0.00000000000E+00  0.00000000000E+00  0.26404046160E+02  0.26404046160E+02  0.00000000000E+00 0. -1.
         -2   -1    0    0    0  501 -0.00000000000E+00 -0.00000000000E+00 -0.60573756409E+02  0.60573756409E+02  0.00000000000E+00 0.  1.
          1    1    1    2  502    0  0.38674050047E+02 -0.94974821428E+01 -0.13088209859E+02  0.41918797113E+02  0.00000000000E+00 0. -1.
         -1    1    1    2    0  501 -0.38674050047E+02  0.94974821428E+01 -0.21081500389E+02  0.45059005456E+02  0.00000000000E+00 0.  1.
</event>
<event>
 4    1  0.7060698E+001  0.2451848E+02  0.7546771E-02  0.1474263E+00
          2   -1    0    0  502    0  0.00000000000E+00  0.00000000000E+00  0.12044375467E+04  0.12044375467E+04  0.00000000000E+00 0. -1.
         -2   -1    0    0    0  501 -0.00000000000E+00 -0.00000000000E+00 -0.50650163513E+00  0.50650163513E+00  0.00000000000E+00 0.  1.
          1    1    1    2  502    0  0.20138198052E+02  0.13986027903E+02  0.67470879883E+03  0.67515414479E+03  0.00000000000E+00 0. -1.
         -1    1    1    2    0  501 -0.20138198052E+02 -0.13986027903E+02  0.52922224623E+03  0.52978990355E+03  0.00000000000E+00 0.  1.
</event>
<event>
 4    1  0.7060698E+001  0.5000945E+02  0.7546771E-02  0.1298131E+00
          2   -1    0    0  502    0  0.00000000000E+00  0.00000000000E+00  0.50397932428E+02  0.50397932428E+02  0.00000000000E+00 0.  1.
         -2   -1    0    0    0  501 -0.00000000000E+00 -0.00000000000E+00 -0.23841497250E+03  0.23841497250E+03  0.00000000000E+00 0. -1.
          1    1    1    2  502    0  0.47654596687E+02  0.15165247827E+02 -0.22251069731E+03  0.22806129822E+03  0.00000000000E+00 0. -1.
         -1    1    1    2    0  501 -0.47654596687E+02 -0.15165247827E+02  0.34493657245E+02  0.60751606704E+02  0.00000000000E+00 0.  1.
</event>
<event>
 4    1  0.7060698E+001  0.3047565E+02  0.7546771E-02  0.1415507E+00
          2   -1    0    0  502    0  0.00000000000E+00  0.00000000000E+00  0.43652240035E+00  0.43652240035E+00  0.00000000000E+00 0. -1.
         -2   -1    0    0    0  501 -0.00000000000E+00 -0.00000000000E+00 -0.22282367902E+04  0.22282367902E+04  0.00000000000E+00 0.  1.
          1    1    1    2  502    0 -0.96063222152E+01 -0.28922025492E+02 -0.87713616153E+03  0.87766543218E+03  0.00000000000E+00 0. -1.
         -1    1    1    2    0  501  0.96063222152E+01  0.28922025492E+02 -0.13506641063E+04  0.13510078805E+04  0.00000000000E+00 0.  1.
</event>
<event>
 4    1  0.7060698E+001  0.2582802E+02  0.7546771E-02  0.1459750E+00
          2   -1    0    0  502    0  0.00000000000E+00  0.00000000000E+00  0.10843251929E+04  0.10843251929E+04  0.00000000000E+00 0.  1.
         -2   -1    0    0    0  501 -0.00000000000E+00 -0.00000000000E+00 -0.63643481588E+00  0.63643481588E+00  0.00000000000E+00 0. -1.
          1    1    1    2  502    0 -0.11666846557E+02  0.23042817090E+02  0.64091356001E+03  0.64143376753E+03  0.00000000000E+00 0. -1.
         -1    1    1    2    0  501  0.11666846557E+02 -0.23042817090E+02  0.44277519808E+03  0.44352786019E+03  0.00000000000E+00 0.  1.
</event>
<event>
 4    1  0.7060698E+001  0.2050670E+02  0.7546771E-02  0.1526426E+00
          2   -1    0    0  502    0  0.00000000000E+00  0.00000000000E+00  0.24594775590E+01  0.24594775590E+01  0.00000000000E+00 0. -1.
         -2   -1    0    0    0  501 -0.00000000000E+00 -0.00000000000E+00 -0.18245866995E+03  0.18245866995E+03  0.00000000000E+00 0.  1.
          1    1    1    2  502    0 -0.99108499841E+01  0.17952708305E+02 -0.11318893576E+03  0.11503156028E+03  0.00000000000E+00 0.  1.
         -1    1    1    2    0  501  0.99108499841E+01 -0.17952708305E+02 -0.66810256633E+02  0.69886587227E+02  0.00000000000E+00 0. -1.
</event>
<event>
 4    1  0.7060698E+001  0.2820310E+02  0.7546771E-02  0.1435883E+00
          2   -1    0    0  502    0  0.00000000000E+00  0.00000000000E+00  0.17835499226E+04  0.17835499226E+04  0.00000000000E+00 0. -1.
         -2   -1    0    0    0  501 -0.00000000000E+00 -0.00000000000E+00 -0.65842526056E+00  0.65842526056E+00  0.00000000000E+00 0.  1.
          1    1    1    2  502    0 -0.14145417803E+02  0.24399220996E+02  0.38469643677E+03  0.38572887278E+03  0.00000000000E+00 0.  1.
         -1    1    1    2    0  501  0.14145417803E+02 -0.24399220996E+02  0.13981950605E+04  0.13984794750E+04  0.00000000000E+00 0. -1.
</event>
<event>
 4    1  0.7060698E+001  0.2311820E+02  0.7546771E-02  0.1491019E+00
          2   -1    0    0  502    0  0.00000000000E+00  0.00000000000E+00  0.13478217182E+03  0.13478217182E+03  0.00000000000E+00 0.  1.
         -2   -1    0    0    0  501 -0.00000000000E+00 -0.00000000000E+00 -0.44737398207E+01  0.44737398207E+01  0.00000000000E+00 0. -1.
          1    1    1    2  502    0 -0.55739304669E+01 -0.22436189450E+02  0.41681168284E+02  0.47663099851E+02  0.00000000000E+00 0. -1.
         -1    1    1    2    0  501  0.55739304669E+01  0.22436189450E+02  0.88627263712E+02  0.91592811786E+02  0.00000000000E+00 0.  1.
</event>
<event>
 4    1  0.7060698E+001  0.4492331E+02  0.7546771E-02  0.1321823E+00
          2   -1    0    0  502    0  0.00000000000E+00  0.00000000000E+00  0.91363069474E+03  0.91363069474E+03  0.00000000000E+00 0.  1.
         -2   -1    0    0    0  501 -0.00000000000E+00 -0.00000000000E+00 -0.29817066610E+01  0.29817066610E+01  0.00000000000E+00 0. -1.
          1    1    1    2  502    0 -0.39157483328E+02  0.22018076295E+02  0.68865053469E+03  0.69011423918E+03  0.00000000000E+00 0.  1.
         -1    1    1    2    0  501  0.39157483328E+02 -0.22018076295E+02  0.22199845339E+03  0.22649816223E+03  0.00000000000E+00 0. -1.
</event>
<event>
 4    1  0.7060698E+001  0.2144138E+02  0.7546771E-02  0.1513055E+00
          2   -1    0    0  502    0  0.00000000000E+00  0.00000000000E+00  0.12521084111E+04  0.12521084111E+04  0.00000000000E+00 0.  1.
         -2   -1    0    0    0  501 -0.00000000000E+00 -0.00000000000E+00 -0.70662759177E+00  0.70662759177E+00  0.00000000000E+00 0. -1.
          1    1    1    2  502    0 -0.13906186716E+02  0.16320261522E+02  0.10598673909E+04  0.10600842511E+04  0.00000000000E+00 0.  1.
         -1    1    1    2    0  501  0.13906186716E+02 -0.16320261522E+02  0.19153439258E+03  0.19273078764E+03  0.00000000000E+00 0. -1.
</event>
<event>
 4    1  0.7060698E+001  0.2130533E+02  0.7546771E-02  0.1514950E+00
          2   -1    0    0  502    0  0.00000000000E+00  0.00000000000E+00  0.66959782553E+00  0.66959782553E+00  0.00000000000E+00 0. -1.
         -2   -1    0    0    0  501 -0.00000000000E+00 -0.00000000000E+00 -0.95141111443E+03  0.95141111443E+03  0.00000000000E+00 0.  1.
          1    1    1    2  502    0  0.57102841863E+01  0.20525826262E+02 -0.22012926733E+03  0.22115788755E+03  0.00000000000E+00 0.  1.
         -1    1    1    2    0  501 -0.57102841863E+01 -0.20525826262E+02 -0.73061224928E+03  0.73092282471E+03  0.00000000000E+00 0. -1.
</event>
<event>
 4    1  0.7060698E+001  0.2082603E+02  0.7546771E-02  0.1521763E+00
          2   -1    0    0  502    0  0.00000000000E+00  0.00000000000E+00  0.11320920747E+03  0.11320920747E+03  0.00000000000E+00 0.  1.
         -2   -1    0    0    0  501 -0.00000000000E+00 -0.00000000000E+00 -0.38506806110E+01  0.38506806110E+01  0.00000000000E+00 0. -1.
          1    1    1    2  502    0 -0.19707185028E+01  0.20732574050E+02  0.50512677840E+02  0.54637477803E+02  0.00000000000E+00 0. -1.
         -1    1    1    2    0  501  0.19707185028E+01 -0.20732574050E+02  0.58845849024E+02  0.62422410282E+02  0.00000000000E+00 0.  1.
</event>
<event>
 4    1  0.7060698E+001  0.4949195E+02  0.7546771E-02  0.1300390E+00
          2   -1    0    0  502    0  0.00000000000E+00  0.00000000000E+00  0.38233784535E+02  0.38233784535E+02  0.00000000000E+00 0.  1.
         -2   -1    0    0    0  501 -0.00000000000E+00 -0.00000000000E+00 -0.64162410746E+02  0.64162410746E+02  0.00000000000E+00 0. -1.
          1    1    1    2  502    0 -0.13541441175E+02  0.47603387830E+02 -0.14957651718E+02  0.51702848151E+02  0.00000000000E+00 0.  1.
         -1    1    1    2    0  501  0.13541441175E+02 -0.47603387830E+02 -0.10970974494E+02  0.50693347131E+02  0.00000000000E+00 0. -1.
</event>
<event>
 4    1  0.7060698E+001  0.2158780E+02  0.7546771E-02  0.1511036E+00
          2   -1    0    0  502    0  0.00000000000E+00  0.00000000000E+00  0.87802526372E+02  0.87802526372E+02  0.00000000000E+00 0. -1.
         -2   -1    0    0    0  501 -0.00000000000E+00 -0.00000000000E+00 -0.94324247963E+01  0.94324247963E+01  0.00000000000E+00 0.  1.
          1    1    1    2  502    0  0.19709816347E+01  0.21497638628E+02  0.71334679359E+02  0.74529656610E+02  0.00000000000E+00 0. -1.
         -1    1    1    2    0  501 -0.19709816347E+01 -0.21497638628E+02  0.70354222166E+01  0.22705294558E+02  0.00000000000E+00 0.  1.
</event>
<event>
 4    1  0.7060698E+001  0.3447199E+02  0.7546771E-02  0.1384314E+00
          2   -1    0    0  502    0  0.00000000000E+00  0.00000000000E+00  0.13552929548E+04  0.13552929548E+04  0.00000000000E+00 0. -1.
         -2   -1    0    0    0  501 -0.00000000000E+00 -0.00000000000E+00 -0.92669074175E+00  0.92669074175E+00  0.00000000000E+00 0.  1.
          1    1    1    2  502    0 -0.12514674144E+02  0.32120101707E+02  0.83452771254E+03  0.83523937946E+03  0.00000000000E+00 0. -1.
         -1    1    1    2    0  501  0.12514674144E+02 -0.32120101707E+02  0.51983855154E+03  0.52098026611E+03  0.00000000000E+00 0.  1.
</event>
<event>
 4    1  0.7060698E+001  0.2207489E+02  0.7546771E-02  0.1504453E+00
          2   -1    0    0  502    0  0.00000000000E+00  0.00000000000E+00  0.15753039062E+02  0.15753039062E+02  0.00000000000E+00 0. -1.
         -2   -1    0    0    0  501 -0.00000000000E+00 -0.00000000000E+00 -0.33530408065E+02  0.33530408065E+02  0.00000000000E+00 0.  1.
          1    1    1    2  502    0 -0.15945990630E+02 -0.15265190563E+02 -0.15746070188E+02  0.27115298016E+02  0.00000000000E+00 0.  1.
         -1    1    1    2    0  501  0.15945990630E+02  0.15265190563E+02 -0.20312988146E+01  0.22168149110E+02  0.00000000000E+00 0. -1.
</event>
<event>
 4    1  0.7060698E+001  0.2666111E+02  0.7546771E-02  0.1451042E+00
          2   -1    0    0  502    0  0.00000000000E+00  0.00000000000E+00  0.16706094453E+02  0.16706094453E+02  0.00000000000E+00 0.  1.
         -2   -1    0    0    0  501 -0.00000000000E+00 -0.00000000000E+00 -0.73221235159E+02  0.73221235159E+02  0.00000000000E+00 0. -1.
          1    1    1    2  502    0  0.25708650166E+02  0.70625742120E+01  0.84433225737E+00  0.26674473656E+02  0.00000000000E+00 0.  1.
         -1    1    1    2    0  501 -0.25708650166E+02 -0.70625742120E+01 -0.57359472963E+02  0.63252855955E+02  0.00000000000E+00 0. -1.
</event>
<event>
 4    1  0.7060698E+001  0.2019873E+02  0.7546771E-02  0.1531019E+00
          2   -1    0    0  502    0  0.00000000000E+00  0.00000000000E+00  0.60424779385E+01  0.60424779385E+01  0.00000000000E+00 0.  1.
         -2   -1    0    0    0  501 -0.00000000000E+00 -0.00000000000E+00 -0.82401363851E+02  0.82401363851E+02  0.00000000000E+00 0. -1.
          1    1    1    2  502    0  0.95552571275E+01 -0.17795662307E+02 -0.56972210598E+02  0.60446847032E+02  0.00000000000E+00 0.  1.
         -1    1    1    2    0  501 -0.95552571275E+01  0.17795662307E+02 -0.19386675315E+02  0.27996994758E+02  0.00000000000E+00 0. -1.
</event>
<event>
 4    1  0.7060698E+001  0.4470798E+02  0.7546771E-02  0.1322906E+00
          2   -1    0    0  502    0  0.00000000000E+00  0.00000000000E+00  0.75417876345E+03  0.75417876345E+03  0.00000000000E+00 0. -1.
         -2   -1    0    0    0  501 -0.00000000000E+00 -0.00000000000E+00 -0.45219029383E+01  0.45219029383E+01  0.00000000000E+00 0.  1.
          1    1    1    2  502    0 -0.40893260707E+02 -0.18070553036E+02  0.13077430968E+03  0.13820536795E+03  0.00000000000E+00 0.  1.
         -1    1    1    2    0  501  0.40893260707E+02  0.18070553036E+02  0.61888255083E+03  0.62049529844E+03  0.00000000000E+00 0. -1.
</event>
<event>
 4    1  0.7060698E+001  0.2429922E+02  0.7546771E-02  0.1476798E+00
          2   -1    0    0  502    0  0.00000000000E+00  0.00000000000E+00  0.44332722071E+02  0.44332722071E+02  0.00000000000E+00 0. -1.
         -2   -1    0    0    0  501 -0.00000000000E+00 -0.00000000000E+00 -0.13362790418E+02  0.13362790418E+02  0.00000000000E+00 0.  1.
          1    1    1    2  502    0  0.21860879121E+02 -0.10609144312E+02  0.17142967603E+02  0.29737742302E+02  0.00000000000E+00 0.  1.
         -1    1    1    2    0  501 -0.21860879121E+02  0.10609144312E+02  0.13826964049E+02  0.27957770187E+02  0.00000000000E+00 0. -1.
</event>
<event>
 4    1  0.7060698E+001  0.3423326E+02  0.7546771E-02  0.1386035E+00
          2   -1    0    0  502    0  0.00000000000E+00  0.00000000000E+00  0.18178955738E+03  0.18178955738E+03  0.00000000000E+00 0. -1.
         -2   -1    0    0    0  501 -0.00000000000E+00 -0.00000000000E+00 -0.68185899412E+01  0.68185899412E+01  0.00000000000E+00 0.  1.
          1    1    1    2  502    0 -0.26937145395E+02 -0.21125963515E+02  0.10951352157E+03  0.11473938968E+03  0.00000000000E+00 0. -1.
         -1    1    1    2    0  501  0.26937145395E+02  0.21125963515E+02  0.65457445870E+02  0.73868757647E+02  0.00000000000E+00 0.  1.
</event>
<event>
 4    1  0.7060698E+001  0.2040096E+02  0.7546771E-02  0.1527992E+00
          2   -1    0    0  502    0  0.00000000000E+00  0.00000000000E+00  0.46237380159E+03  0.46237380159E+03  0.00000000000E+00 0.  1.
         -2   -1    0    0    0  501 -0.00000000000E+00 -0.00000000000E+00 -0.18523037188E+01  0.18523037188E+01  0.00000000000E+00 0. -1.
          1    1    1    2  502    0  0.19576688190E+02  0.57404190807E+01  0.63842757574E+02  0.67023106660E+02  0.00000000000E+00 0. -1.
         -1    1    1    2    0  501 -0.19576688190E+02 -0.57404190807E+01  0.39667874030E+03  0.39720299865E+03  0.00000000000E+00 0.  1.
</event>
<event>
 4    1  0.7060698E+001  0.3713243E+02  0.7546771E-02  0.1366162E+00
          2   -1    0    0  502    0  0.00000000000E+00  0.00000000000E+00  0.93368732656E+01  0.93368732656E+01  0.00000000000E+00 0. -1.
         -2   -1    0    0    0  501 -0.00000000000E+00 -0.00000000000E+00 -0.15201326726E+03  0.15201326726E+03  0.00000000000E+00 0.  1.
          1    1    1    2  502    0  0.12635457560E+02 -0.34916509250E+02 -0.84967870585E+02  0.92727323038E+02  0.00000000000E+00 0. -1.
         -1    1    1    2    0  501 -0.12635457560E+02  0.34916509250E+02 -0.57708523412E+02  0.68622817490E+02  0.00000000000E+00 0.  1.
</event>
<event>
 4    1  0.7060698E+001  0.2126988E+02  0.7546771E-02  0.1515446E+00
          2   -1    0    0  502    0  0.00000000000E+00  0.00000000000E+00  0.18781753657E+04  0.18781753657E+04  0.00000000000E+00 0. -1.
         -2   -1    0    0    0  501 -0.00000000000E+00 -0.00000000000E+00 -0.24344261339E+00  0.24344261339E+00  0.00000000000E+00 0.  1.
          1    1    1    2  502    0  0.12824332041E+02  0.16968927699E+02  0.10353968065E+04  0.10356152543E+04  0.00000000000E+00 0.  1.
         -1    1    1    2    0  501 -0.12824332041E+02 -0.16968927699E+02  0.84253511661E+03  0.84280355405E+03  0.00000000000E+00 0. -1.
</event>
<event>
 4    1  0.7060698E+001  0.2462982E+02  0.7546771E-02  0.1472987E+00
          2   -1    0    0  502    0  0.00000000000E+00  0.00000000000E+00  0.58408575061E+03  0.58408575061E+03  0.00000000000E+00 0. -1.
         -2   -1    0    0    0  501 -0.00000000000E+00 -0.00000000000E+00 -0.10516956194E+01  0.10516956194E+01  0.00000000000E+00 0.  1.
          1    1    1    2  502    0 -0.53449025646E+00  0.24624022726E+02  0.25886282065E+03  0.26003189821E+03  0.00000000000E+00 0.  1.
         -1    1    1    2    0  501  0.53449025646E+00 -0.24624022726E+02  0.32417123435E+03  0.32510554802E+03  0.00000000000E+00 0. -1.
</event>
<event>
 4    1  0.7060698E+001  0.6291593E+02  0.7546771E-02  0.1250235E+00
          2   -1    0    0  502    0  0.00000000000E+00  0.00000000000E+00  0.76434987306E+02  0.76434987306E+02  0.00000000000E+00 0.  1.
         -2   -1    0    0    0  501 -0.00000000000E+00 -0.00000000000E+00 -0.57404742287E+02  0.57404742287E+02  0.00000000000E+00 0. -1.
          1    1    1    2  502    0  0.33476159261E+02 -0.53270644018E+02  0.30447743246E+02  0.69896207492E+02  0.00000000000E+00 0.  1.
         -1    1    1    2    0  501 -0.33476159261E+02  0.53270644018E+02 -0.11417498227E+02  0.63943522101E+02  0.00000000000E+00 0. -1.
</event>
<event>
 4    1  0.7060698E+001  0.2013868E+02  0.7546771E-02  0.1531926E+00
          2   -1    0    0  502    0  0.00000000000E+00  0.00000000000E+00  0.42125386956E+01  0.42125386956E+01  0.00000000000E+00 0. -1.
         -2   -1    0    0    0  501 -0.00000000000E+00 -0.00000000000E+00 -0.18592016545E+03  0.18592016545E+03  0.00000000000E+00 0.  1.
          1    1    1    2  502    0 -0.33063068149E+01  0.19865413647E+02 -0.15686607687E+03  0.15815350896E+03  0.00000000000E+00 0.  1.
         -1    1    1    2    0  501  0.33063068149E+01 -0.19865413647E+02 -0.24841549893E+02  0.31979195193E+02  0.00000000000E+00 0. -1.
</event>
<event>
 4    1  0.7060698E+001  0.2964265E+02  0.7546771E-02  0.1422728E+00
          2   -1    0    0  502    0  0.00000000000E+00  0.00000000000E+00  0.18544371423E+03  0.18544371423E+03  0.00000000000E+00 0.  1.
         -2   -1    0    0    0  501 -0.00000000000E+00 -0.00000000000E+00 -0.59184240412E+01  0.59184240412E+01  0.00000000000E+00 0. -1.
          1    1    1    2  502    0  0.29291473245E+02  0.45492931955E+01  0.13248825544E+03  0.13576385492E+03  0.00000000000E+00 0.  1.
         -1    1    1    2    0  501 -0.29291473245E+02 -0.45492931955E+01  0.47037034743E+02  0.55598283345E+02  0.00000000000E+00 0. -1.
</event>
<event>
 4    1  0.7060698E+001  0.3583355E+02  0.7546771E-02  0.1374796E+00
          2   -1    0    0  502    0  0.00000000000E+00  0.00000000000E+00  0.34494259135E+03  0.34494259135E+03  0.00000000000E+00 0.  1.
         -2   -1    0    0    0  501 -0.00000000000E+00 -0.00000000000E+00 -0.95700054099E+01  0.95700054099E+01  0.00000000000E+00 0. -1.
          1    1    1    2  502    0  0.23972883837E+02 -0.26633513742E+02  0.30624425956E+03  0.30833356893E+03  0.00000000000E+00 0.  1.
         -1    1    1    2    0  501 -0.23972883837E+02  0.26633513742E+02  0.29128326375E+02  0.46179027828E+02  0.00000000000E+00 0. -1.
</event>
<event>
 4    1  0.7060698E+001  0.2848885E+02  0.7546771E-02  0.1433200E+00
          2   -1    0    0  502    0  0.00000000000E+00  0.00000000000E+00  0.21326818817E+03  0.21326818817E+03  0.00000000000E+00 0. -1.
         -2   -1    0    0    0  501 -0.00000000000E+00 -0.00000000000E+00 -0.45391704381E+01  0.45391704381E+01  0.00000000000E+00 0.  1.
          1    1    1    2  502    0 -0.18883406538E+02 -0.21331465362E+02  0.14814430902E+03  0.15085871122E+03  0.00000000000E+00 0. -1.
         -1    1    1    2    0  501  0.18883406538E+02  0.21331465362E+02  0.60584708714E+02  0.66948647387E+02  0.00000000000E+00 0.  1.
</event>
<event>
 4    1  0.7060698E+001  0.9236909E+02  0.7546771E-02  0.1177731E+00
          2   -1    0    0  502    0  0.00000000000E+00  0.00000000000E+00  0.45869369733E+03  0.45869369733E+03  0.00000000000E+00 0. -1.
         -2   -1    0    0    0  501 -0.00000000000E+00 -0.00000000000E+00 -0.19937154520E+02  0.19937154520E+02  0.00000000000E+00 0.  1.
          1    1    1    2  502    0 -0.73684722252E+02  0.55701084610E+02  0.15741886493E+03  0.18251780230E+03  0.00000000000E+00 0.  1.
         -1    1    1    2    0  501  0.73684722252E+02 -0.55701084610E+02  0.28133767788E+03  0.29611304955E+03  0.00000000000E+00 0. -1.
</event>
<event>
 4    1  0.7060698E+001  0.2718217E+02  0.7546771E-02  0.1445787E+00
          2   -1    0    0  502    0  0.00000000000E+00  0.00000000000E+00  0.11643643246E+03  0.11643643246E+03  0.00000000000E+00 0. -1.
         -2   -1    0    0    0  501 -0.00000000000E+00 -0.00000000000E+00 -0.63608848687E+01  0.63608848687E+01  0.00000000000E+00 0.  1.
          1    1    1    2  502    0  0.80778490693E+01 -0.25954165058E+02  0.58037954319E+02  0.64088021275E+02  0.00000000000E+00 0. -1.
         -1    1    1    2    0  501 -0.80778490693E+01  0.25954165058E+02  0.52037593270E+02  0.58709296051E+02  0.00000000000E+00 0.  1.
</event>
<event>
 4    1  0.7060698E+001  0.3877051E+02  0.7546771E-02  0.1355845E+00
          2   -1    0    0  502    0  0.00000000000E+00  0.00000000000E+00  0.23506782990E+04  0.23506782990E+04  0.00000000000E+00 0. -1.
         -2   -1    0    0    0  501 -0.00000000000E+00 -0.00000000000E+00 -0.18602350784E+01  0.18602350784E+01  0.00000000000E+00 0.  1.
          1    1    1    2  502    0  0.34212243091E+02 -0.18239377372E+02  0.22152161508E+03  0.22488881344E+03  0.00000000000E+00 0.  1.
         -1    1    1    2    0  501 -0.34212243091E+02  0.18239377372E+02  0.21272964488E+04  0.21276497206E+04  0.00000000000E+00 0. -1.
</event>
<event>
 4    1  0.7060698E+001  0.3221835E+02  0.7546771E-02  0.1401250E+00
          2   -1    0    0  502    0  0.00000000000E+00  0.00000000000E+00  0.93110421882E+03  0.93110421882E+03  0.00000000000E+00 0. -1.
         -2   -1    0    0    0  501 -0.00000000000E+00 -0.00000000000E+00 -0.12335258789E+01  0.12335258789E+01  0.00000000000E+00 0.  1.
          1    1    1    2  502    0  0.28103728079E+02  0.15754435744E+02  0.60954230635E+03  0.61039318886E+03  0.00000000000E+00 0. -1.
         -1    1    1    2    0  501 -0.28103728079E+02 -0.15754435744E+02  0.32032838660E+03  0.32194455584E+03  0.00000000000E+00 0.  1.
</event>
<event>
 4    1  0.7060698E+001  0.2516253E+02  0.7546771E-02  0.1466993E+00
          2   -1    0    0  502    0  0.00000000000E+00  0.00000000000E+00  0.57620934967E+03  0.57620934967E+03  0.00000000000E+00 0.  1.
         -2   -1    0    0    0  501 -0.00000000000E+00 -0.00000000000E+00 -0.13331038554E+01  0.13331038554E+01  0.00000000000E+00 0. -1.
          1    1    1    2  502    0  0.24845769777E+02 -0.39800054214E+01  0.16638128981E+03  0.16827324896E+03  0.00000000000E+00 0. -1.
         -1    1    1    2    0  501 -0.24845769777E+02  0.39800054214E+01  0.40849495601E+03  0.40926920456E+03  0.00000000000E+00 0.  1.
</event>
<event>
 4    1  0.7060698E+001  0.2089468E+02  0.7546771E-02  0.1520774E+00
          2   -1    0    0  502    0  0.00000000000E+00  0.00000000000E+00  0.18300794810E+03  0.18300794810E+03  0.00000000000E+00 0.  1.
         -2   -1    0    0    0  501 -0.00000000000E+00 -0.00000000000E+00 -0.27484538539E+01  0.27484538539E+01  0.00000000000E+00 0. -1.
          1    1    1    2  502    0  0.14549120982E+02  0.14997027861E+02  0.56383743955E+02  0.60130810309E+02  0.00000000000E+00 0. -1.
         -1    1    1    2    0  501 -0.14549120982E+02 -0.14997027861E+02  0.12387575029E+03  0.12562559165E+03  0.00000000000E+00 0.  1.
</event>
<event>
 4    1  0.7060698E+001  0.4834655E+02  0.7546771E-02  0.1305505E+00
          2   -1    0    0  502    0  0.00000000000E+00  0.00000000000E+00  0.17421626635E+04  0.17421626635E+04  0.00000000000E+00 0. -1.
         -2   -1    0    0    0  501 -0.00000000000E+00 -0.00000000000E+00 -0.14026503225E+01  0.14026503225E+01  0.00000000000E+00 0.  1.
          1    1    1    2  502    0  0.47084128725E+02  0.10976065501E+02  0.10521681483E+04  0.10532783115E+04  0.00000000000E+00 0. -1.
         -1    1    1    2    0  501 -0.47084128725E+02 -0.10976065501E+02  0.68859186483E+03  0.69028700227E+03  0.00000000000E+00 0.  1.
</event>
<event>
 4    1  0.7060698E+001  0.2774187E+02  0.7546771E-02  0.1440295E+00
          2   -1    0    0  502    0  0.00000000000E+00  0.00000000000E+00  0.45008935652E+02  0.45008935652E+02  0.00000000000E+00 0.  1.
         -2   -1    0    0    0  501 -0.00000000000E+00 -0.00000000000E+00 -0.17717759268E+02  0.17717759268E+02  0.00000000000E+00 0. -1.
          1    1    1    2  502    0 -0.13239532382E+02 -0.24378806722E+02  0.19506301188E+02  0.33913230765E+02  0.00000000000E+00 0.  1.
         -1    1    1    2    0  501  0.13239532382E+02  0.24378806722E+02  0.77848751959E+01  0.28813464156E+02  0.00000000000E+00 0. -1.
</event>
<event>
 4    1  0.7060698E+001  0.2308272E+02  0.7546771E-02  0.1491462E+00
          2   -1    0    0  502    0  0.00000000000E+00  0.00000000000E+00  0.96087385574E+02  0.96087385574E+02  0.00000000000E+00 0. -1.
         -2   -1    0    0    0  501 -0.00000000000E+00 -0.00000000000E+00 -0.55687015318E+01  0.55687015318E+01  0.00000000000E+00 0.  1.
          1    1    1    2  502    0 -0.12276033017E+02 -0.19547656386E+02  0.41948662760E+02  0.47880081079E+02  0.00000000000E+00 0. -1.
         -1    1    1    2    0  501  0.12276033017E+02  0.19547656386E+02  0.48570021283E+02  0.53776006027E+02  0.00000000000E+00 0.  1.
</event>
<event>
 4    1  0.7060698E+001  0.2788593E+02  0.7546771E-02  0.1438906E+00
          2   -1    0    0  502    0  0.00000000000E+00  0.00000000000E+00  0.14660564396E+03  0.14660564396E+03  0.00000000000E+00 0.  1.
         -2   -1    0    0    0  501 -0.00000000000E+00 -0.00000000000E+00 -0.60574877402E+01  0.60574877402E+01  0.00000000000E+00 0. -1.
          1    1    1    2  502    0 -0.27776879468E+02  0.24637192984E+01  0.97191889575E+02  0.10111324515E+03  0.00000000000E+00 0.  1.
         -1    1    1    2    0  501  0.27776879468E+02 -0.24637192984E+01  0.43356266640E+02  0.51549886545E+02  0.00000000000E+00 0. -1.
</event>
<event>
 4    1  0.7060698E+001  0.2126827E+02  0.7546771E-02  0.1515469E+00
          2   -1    0    0  502    0  0.00000000000E+00  0.00000000000E+00  0.28744811763E+02  0.28744811763E+02  0.00000000000E+00 0. -1.
         -2   -1    0    0    0  501 -0.00000000000E+00 -0.00000000000E+00 -0.33971311829E+02  0.33971311829E+02  0.00000000000E+00 0.  1.
          1    1    1    2  502    0  0.70809816294E+01  0.20054895757E+02  0.20361203028E+02  0.29443466735E+02  0.00000000000E+00 0. -1.
         -1    1    1    2    0  501 -0.70809816294E+01 -0.20054895757E+02 -0.25587703094E+02  0.33272656856E+02  0.00000000000E+00 0.  1.
</event>
<event>
 4    1  0.7060698E+001  0.2394060E+02  0.7546771E-02  0.1481013E+00
          2   -1    0    0  502    0  0.00000000000E+00  0.00000000000E+00  0.38802317328E+03  0.38802317328E+03  0.00000000000E+00 0. -1.
         -2   -1    0    0    0  501 -0.00000000000E+00 -0.00000000000E+00 -0.19439784426E+01  0.19439784426E+01  0.00000000000E+00 0.  1.
          1    1    1    2  502    0  0.15079465664E+02  0.18594676216E+02  0.97485275110E+02  0.10038192632E+03  0.00000000000E+00 0. -1.
         -1    1    1    2    0  501 -0.15079465664E+02 -0.18594676216E+02  0.28859391973E+03  0.28958522541E+03  0.00000000000E+00 0.  1.
</event>
<event>
 4    1  0.7060698E+001  0.3226844E+02  0.7546771E-02  0.1400856E+00
          2   -1    0    0  502    0  0.00000000000E+00  0.00000000000E+00  0.65230872539E+01  0.65230872539E+01  0.00000000000E+00 0.  1.
         -2   -1    0    0    0  501 -0.00000000000E+00 -0.00000000000E+00 -0.23634212564E+03  0.23634212564E+03  0.00000000000E+00 0. -1.
          1    1    1    2  502    0  0.14227689773E+02 -0.28962477533E+02 -0.18409404603E+03  0.18690069568E+03  0.00000000000E+00 0.  1.
         -1    1    1    2    0  501 -0.14227689773E+02  0.28962477533E+02 -0.45724992346E+02  0.55964517207E+02  0.00000000000E+00 0. -1.
</event>
<event>
 4    1  0.7060698E+001  0.2274279E+02  0.7546771E-02  0.1495753E+00
          2   -1    0    0  502    0  0.00000000000E+00  0.00000000000E+00  0.14955354872E+04  0.14955354872E+04  0.00000000000E+00 0.  1.
         -2   -1    0    0    0  501 -0.00000000000E+00 -0.00000000000E+00 -0.68202933468E+00  0.68202933468E+00  0.00000000000E+00 0. -1.
          1    1    1    2  502    0 -0.18718219099E+02 -0.12917535805E+02  0.12726539218E+04  0.12728571165E+04  0.00000000000E+00 0.  1.
         -1    1    1    2    0  501  0.18718219099E+02  0.12917535805E+02  0.22219953609E+03  0.22336040002E+03  0.00000000000E+00 0. -1.
</event>
<event>
 4    1  0.7060698E+001  0.2148715E+02  0.7546771E-02  0.1512422E+00
          2   -1    0    0  502    0  0.00000000000E+00  0.00000000000E+00  0.11840565366E+04  0.11840565366E+04  0.00000000000E+00 0. -1.
         -2   -1    0    0    0  501 -0.00000000000E+00 -0.00000000000E+00 -0.49639762367E+00  0.49639762367E+00  0.00000000000E+00 0.  1.
          1    1    1    2  502    0  0.20810099506E+02  0.53513849933E+01  0.86607714107E+03  0.86634364535E+03  0.00000000000E+00 0. -1.
         -1    1    1    2    0  501 -0.20810099506E+02 -0.53513849933E+01  0.31748299789E+03  0.31820928886E+03  0.00000000000E+00 0.  1.
</event>
<event>
 4    1  0.7060698E+001  0.3188472E+02  0.7546771E-02  0.1403896E+00
          2   -1    0    0  502    0  0.00000000000E+00  0.00000000000E+00  0.36106054801E+03  0.36106054801E+03  0.00000000000E+00 0.  1.
         -2   -1    0    0    0  501 -0.00000000000E+00 -0.00000000000E+00 -0.42494557458E+01  0.42494557458E+01  0.00000000000E+00 0. -1.
          1    1    1    2  502    0 -0.28208425957E+02 -0.14863385698E+02  0.28450267068E+03  0.28628378430E+03  0.00000000000E+00 0.  1.
         -1    1    1    2    0  501  0.28208425957E+02  0.14863385698E+02  0.72308421585E+02  0.79026219457E+02  0.00000000000E+00 0. -1.
</event>
<event>
 4    1  0.7060698E+001  0.3954885E+02  0.7546771E-02  0.1351150E+00
          2   -1    0    0  502    0  0.00000000000E+00  0.00000000000E+00  0.66581273907E+03  0.66581273907E+03  0.00000000000E+00 0. -1.
         -2   -1    0    0    0  501 -0.00000000000E+00 -0.00000000000E+00 -0.28540720752E+01  0.28540720752E+01  0.00000000000E+00 0.  1.
          1    1    1    2  502    0 -0.22499132258E+02  0.32525388085E+02  0.47209961677E+03  0.47375326910E+03  0.00000000000E+00 0. -1.
         -1    1    1    2    0  501  0.22499132258E+02 -0.32525388085E+02  0.19085905022E+03  0.19491354205E+03  0.00000000000E+00 0.  1.
</event>
<event>
 4    1  0.7060698E+001  0.3545176E+02  0.7546771E-02  0.1377415E+00
          2   -1    0    0  502    0  0.00000000000E+00  0.00000000000E+00  0.30311763561E+03  0.30311763561E+03  0.00000000000E+00 0. -1.
         -2   -1    0    0    0  501 -0.00000000000E+00 -0.00000000000E+00 -0.80427013439E+01  0.80427013439E+01  0.00000000000E+00 0.  1.
          1    1    1    2  502    0  0.26138614481E+02 -0.23949946618E+02  0.39248755678E+02  0.52889431196E+02  0.00000000000E+00 0.  1.
         -1    1    1    2    0  501 -0.26138614481E+02  0.23949946618E+02  0.25582617858E+03  0.25827090575E+03  0.00000000000E+00 0. -1.
</event>
<event>
 4    1  0.7060698E+001  0.2039530E+02  0.7546771E-02  0.1528076E+00
          2   -1    0    0  502    0  0.00000000000E+00  0.00000000000E+00  0.84610606116E+01  0.84610606116E+01  0.00000000000E+00 0.  1.
         -2   -1    0    0    0  501 -0.00000000000E+00 -0.00000000000E+00 -0.72413357442E+02  0.72413357442E+02  0.00000000000E+00 0. -1.
          1    1    1    2  502    0  0.19295042709E+02  0.66082963076E+01 -0.90627337047E+01  0.22318185308E+02  0.00000000000E+00 0.  1.
         -1    1    1    2    0  501 -0.19295042709E+02 -0.66082963076E+01 -0.54889563126E+02  0.58556232746E+02  0.00000000000E+00 0. -1.
</event>
<event>
 4    1  0.7060698E+001  0.2087937E+02  0.7546771E-02  0.1520994E+00
          2   -1    0    0  502    0  0.00000000000E+00  0.00000000000E+00  0.55977855795E+02  0.55977855795E+02  0.00000000000E+00 0.  1.
         -2   -1    0    0    0  501 -0.00000000000E+00 -0.00000000000E+00 -0.79162315649E+01  0.79162315649E+01  0.00000000000E+00 0. -1.
          1    1    1    2  502    0 -0.14945879702E+02  0.14579738059E+02  0.28098938421E+02  0.35007119595E+02  0.00000000000E+00 0.  1.
         -1    1    1    2    0  501  0.14945879702E+02 -0.14579738059E+02  0.19962685809E+02  0.28886967765E+02  0.00000000000E+00 0. -1.
</event>
<event>
 4    1  0.7060698E+001  0.2689888E+02  0.7546771E-02  0.1448627E+00
          2   -1    0    0  502    0  0.00000000000E+00  0.00000000000E+00  0.11095455534E+04  0.11095455534E+04  0.00000000000E+00 0. -1.
         -2   -1    0    0    0  501 -0.00000000000E+00 -0.00000000000E+00 -0.14581566683E+01  0.14581566683E+01  0.00000000000E+00 0.  1.
          1    1    1    2  502    0 -0.17576261696E+02  0.20362336072E+02  0.96705558676E+03  0.96742961377E+03  0.00000000000E+00 0. -1.
         -1    1    1    2    0  501  0.17576261696E+02 -0.20362336072E+02  0.14103180998E+03  0.14357409631E+03  0.00000000000E+00 0.  1.
</event>
<event>
 4    1  0.7060698E+001  0.7790651E+02  0.7546771E-02  0.1208793E+00
          2   -1    0    0  502    0  0.00000000000E+00  0.00000000000E+00  0.76358574299E+03  0.76358574299E+03  0.00000000000E+00 0.  1.
         -2   -1    0    0    0  501 -0.00000000000E+00 -0.00000000000E+00 -0.20773812070E+02  0.20773812070E+02  0.00000000000E+00 0. -1.
          1    1    1    2  502    0  0.72568415936E+02  0.28341657617E+02  0.67955418614E+03  0.68400534826E+03  0.00000000000E+00 0.  1.
         -1    1    1    2    0  501 -0.72568415936E+02 -0.28341657617E+02  0.63257744783E+02  0.10035420680E+03  0.00000000000E+00 0. -1.
</event>
<event>
 4    1  0.7060698E+001  0.2570970E+02  0.7546771E-02  0.1461018E+00
          2   -1    0    0  502    0  0.00000000000E+00  0.00000000000E+00  0.13144322862E+01  0.13144322862E+01  0.00000000000E+00 0. -1.
         -2   -1    0    0    0  501 -0.00000000000E+00 -0.00000000000E+00 -0.55890304348E+03  0.55890304348E+03  0.00000000000E+00 0.  1.
          1    1    1    2  502    0  0.70551047396E+01 -0.24722741066E+02 -0.19010302542E+03  0.19183364852E+03  0.00000000000E+00 0. -1.
         -1    1    1    2    0  501 -0.70551047396E+01  0.24722741066E+02 -0.36748558577E+03  0.36838382725E+03  0.00000000000E+00 0.  1.
</event>
<event>
 4    1  0.7060698E+001  0.3858524E+02  0.7546771E-02  0.1356982E+00
          2   -1    0    0  502    0  0.00000000000E+00  0.00000000000E+00  0.16164213880E+04  0.16164213880E+04  0.00000000000E+00 0.  1.
         -2   -1    0    0    0  501 -0.00000000000E+00 -0.00000000000E+00 -0.10194202596E+01  0.10194202596E+01  0.00000000000E+00 0. -1.
          1    1    1    2  502    0 -0.37037338628E+02  0.10819261482E+02  0.55649389368E+03  0.55782996923E+03  0.00000000000E+00 0. -1.
         -1    1    1    2    0  501  0.37037338628E+02 -0.10819261482E+02  0.10589080740E+04  0.10596108390E+04  0.00000000000E+00 0.  1.
</event>
<event>
 4    1  0.7060698E+001  0.2017028E+02  0.7546771E-02  0.1531449E+00
          2   -1    0    0  502    0  0.00000000000E+00  0.00000000000E+00  0.32195093911E+01  0.32195093911E+01  0.00000000000E+00 0.  1.
         -2   -1    0    0    0  501 -0.00000000000E+00 -0.00000000000E+00 -0.16367013804E+03  0.16367013804E+03  0.00000000000E+00 0. -1.
          1    1    1    2  502    0  0.11648134385E+02  0.16466967740E+02 -0.40388299624E+02  0.45144820386E+02  0.00000000000E+00 0.  1.
         -1    1    1    2    0  501 -0.11648134385E+02 -0.16466967740E+02 -0.12006232903E+03  0.12174482705E+03  0.00000000000E+00 0. -1.
</event>
<event>
 4    1  0.7060698E+001  0.2224740E+02  0.7546771E-02  0.1502171E+00
          2   -1    0    0  502    0  0.00000000000E+00  0.00000000000E+00  0.10316411691E+02  0.10316411691E+02  0.00000000000E+00 0. -1.
         -2   -1    0    0    0  501 -0.00000000000E+00 -0.00000000000E+00 -0.51719623212E+02  0.51719623212E+02  0.00000000000E+00 0.  1.
          1    1    1    2  502    0 -0.10597568130E+01  0.22222148858E+02 -0.12357225391E+02  0.25448929324E+02  0.00000000000E+00 0.  1.
         -1    1    1    2    0  501  0.10597568130E+01 -0.22222148858E+02 -0.29045986130E+02  0.36587105579E+02  0.00000000000E+00 0. -1.
</event>
<event>
 4    1  0.7060698E+001  0.2927947E+02  0.7546771E-02  0.1425963E+00
          2   -1    0    0  502    0  0.00000000000E+00  0.00000000000E+00  0.10853466242E+03  0.10853466242E+03  0.00000000000E+00 0.  1.
         -2   -1    0    0    0  501 -0.00000000000E+00 -0.00000000000E+00 -0.79248132231E+01  0.79248132231E+01  0.00000000000E+00 0. -1.
          1    1    1    2  502    0  0.25525438265E+02 -0.14343607604E+02  0.46964914279E+02  0.55344288332E+02  0.00000000000E+00 0.  1.
         -1    1    1    2    0  501 -0.25525438265E+02  0.14343607604E+02  0.53644934915E+02  0.61115187308E+02  0.00000000000E+00 0. -1.
</event>
<event>
 4    1  0.7060698E+001  0.2542158E+02  0.7546771E-02  0.1464142E+00
          2   -1    0    0  502    0  0.00000000000E+00  0.00000000000E+00  0.28332343987E+01  0.28332343987E+01  0.00000000000E+00 0. -1.
         -2   -1    0    0    0  501 -0.00000000000E+00 -0.00000000000E+00 -0.22908444800E+03  0.22908444800E+03  0.00000000000E+00 0.  1.
          1    1    1    2  502    0 -0.19020160307E+02 -0.16866834923E+02 -0.10551840140E+03  0.10853750344E+03  0.00000000000E+00 0. -1.
         -1    1    1    2    0  501  0.19020160307E+02  0.16866834923E+02 -0.12073281220E+03  0.12338017896E+03  0.00000000000E+00 0.  1.
</event>
<event>
 4    1  0.7060698E+001  0.2122969E+02  0.7546771E-02  0.1516011E+00
          2   -1    0    0  502    0  0.00000000000E+00  0.00000000000E+00  0.93671994254E+00  0.93671994254E+00  0.00000000000E+00 0.  1.
         -2   -1    0    0    0  501 -0.00000000000E+00 -0.00000000000E+00 -0.48260772110E+03  0.48260772110E+03  0.00000000000E+00 0. -1.
          1    1    1    2  502    0 -0.93864649231E+01 -0.19041903742E+02 -0.25413758282E+03  0.25502276530E+03  0.00000000000E+00 0. -1.
         -1    1    1    2    0  501  0.93864649231E+01  0.19041903742E+02 -0.22753341834E+03  0.22852167574E+03  0.00000000000E+00 0.  1.
</event>
<event>
 4    1  0.7060698E+001  0.2901327E+02  0.7546771E-02  0.1428369E+00
          2   -1    0    0  502    0  0.00000000000E+00  0.00000000000E+00  0.18237378835E+04  0.18237378835E+04  0.00000000000E+00 0. -1.
         -2   -1    0    0    0  501 -0.00000000000E+00 -0.00000000000E+00 -0.60780647417E+00  0.60780647417E+00  0.00000000000E+00 0.  1.
          1    1    1    2  502    0 -0.22483174193E+02  0.18337843859E+02  0.13590031383E+04  0.13593128042E+04  0.00000000000E+00 0. -1.
         -1    1    1    2    0  501  0.22483174193E+02 -0.18337843859E+02  0.46412693866E+03  0.46503288575E+03  0.00000000000E+00 0.  1.
</event>
<event>
 4    1  0.7060698E+001  0.3262207E+02  0.7546771E-02  0.1398098E+00
          2   -1    0    0  502    0  0.00000000000E+00  0.00000000000E+00  0.72453201900E+02  0.72453201900E+02  0.00000000000E+00 0.  1.
         -2   -1    0    0    0  501 -0.00000000000E+00 -0.00000000000E+00 -0.15666652352E+02  0.15666652352E+02  0.00000000000E+00 0. -1.
          1    1    1    2  502    0  0.17260858613E+02  0.27681441256E+02  0.39404840263E+02  0.51156044279E+02  0.00000000000E+00 0.  1.
         -1    1    1    2    0  501 -0.17260858613E+02 -0.27681441256E+02  0.17381709284E+02  0.36963809973E+02  0.00000000000E+00 0. -1.
</event>
<event>
 4    1  0.7060698E+001  0.2579207E+02  0.7546771E-02  0.1460134E+00
          2   -1    0    0  502    0  0.00000000000E+00  0.00000000000E+00  0.47909496331E+02  0.47909496331E+02  0.00000000000E+00 0. -1.
         -2   -1    0    0    0  501 -0.00000000000E+00 -0.00000000000E+00 -0.14042812182E+02  0.14042812182E+02  0.00000000000E+00 0.  1.
          1    1    1    2  502    0  0.25781899095E+02 -0.72437762443E+00  0.20215427048E+02  0.32770330096E+02  0.00000000000E+00 0. -1.
         -1    1    1    2    0  501 -0.25781899095E+02  0.72437762443E+00  0.13651257102E+02  0.29181978417E+02  0.00000000000E+00 0.  1.
</event>
<event>
 4    1  0.7060698E+001  0.2126076E+02  0.7546771E-02  0.1515574E+00
          2   -1    0    0  502    0  0.00000000000E+00  0.00000000000E+00  0.16027236781E+03  0.16027236781E+03  0.00000000000E+00 0.  1.
         -2   -1    0    0    0  501 -0.00000000000E+00 -0.00000000000E+00 -0.29392322120E+01  0.29392322120E+01  0.00000000000E+00 0. -1.
          1    1    1    2  502    0 -0.70022668215E+01 -0.20074565942E+02  0.62252706250E+02  0.65783123777E+02  0.00000000000E+00 0. -1.
         -1    1    1    2    0  501  0.70022668215E+01  0.20074565942E+02  0.95080429348E+02  0.97428476245E+02  0.00000000000E+00 0.  1.
</event>
<event>
 4    1  0.7060698E+001  0.4178800E+02  0.7546771E-02  0.1338315E+00
          2   -1    0    0  502    0  0.00000000000E+00  0.00000000000E+00  0.61122528459E+03  0.61122528459E+03  0.00000000000E+00 0. -1.
         -2   -1    0    0    0  501 -0.00000000000E+00 -0.00000000000E+00 -0.39492224452E+01  0.39492224452E+01  0.00000000000E+00 0.  1.
          1    1    1    2  502    0 -0.15742522528E+02 -0.38709301205E+02  0.14187509514E+03  0.14790124961E+03  0.00000000000E+00 0.  1.
         -1    1    1    2    0  501  0.15742522528E+02  0.38709301205E+02  0.46540096700E+03  0.46727325742E+03  0.00000000000E+00 0. -1.
</event>
<event>
 4    1  0.7060698E+001  0.3259165E+02  0.7546771E-02  0.1398334E+00
          2   -1    0    0  502    0  0.00000000000E+00  0.00000000000E+00  0.26839941175E+04  0.26839941175E+04  0.00000000000E+00 0.  1.
         -2   -1    0    0    0  501 -0.00000000000E+00 -0.00000000000E+00 -0.40024863182E+00  0.40024863182E+00  0.00000000000E+00 0. -1.
          1    1    1    2  502    0  0.31707352423E+02 -0.75405303459E+01  0.11996494035E+04  0.12000920411E+04  0.00000000000E+00 0.  1.
         -1    1    1    2    0  501 -0.31707352423E+02  0.75405303459E+01  0.14839444654E+04  0.14843023251E+04  0.00000000000E+00 0. -1.
</event>
<event>
 4    1  0.7060698E+001  0.2124994E+02  0.7546771E-02  0.1515726E+00
          2   -1    0    0  502    0  0.00000000000E+00  0.00000000000E+00  0.19851896895E+04  0.19851896895E+04  0.00000000000E+00 0. -1.
         -2   -1    0    0    0  501 -0.00000000000E+00 -0.00000000000E+00 -0.22974012651E+00  0.22974012651E+00  0.00000000000E+00 0.  1.
          1    1    1    2  502    0  0.11539013626E+02  0.17844072064E+02  0.89367579122E+03  0.89392839733E+03  0.00000000000E+00 0.  1.
         -1    1    1    2    0  501 -0.11539013626E+02 -0.17844072064E+02  0.10912841581E+04  0.10914910323E+04  0.00000000000E+00 0. -1.
</event>
<event>
 4    1  0.7060698E+001  0.2331107E+02  0.7546771E-02  0.1488629E+00
          2   -1    0    0  502    0  0.00000000000E+00  0.00000000000E+00  0.33853412320E+03  0.33853412320E+03  0.00000000000E+00 0. -1.
         -2   -1    0    0    0  501 -0.00000000000E+00 -0.00000000000E+00 -0.18081843889E+01  0.18081843889E+01  0.00000000000E+00 0.  1.
          1    1    1    2  502    0 -0.10403427957E+02 -0.20860835641E+02  0.22538267464E+03  0.22658498583E+03  0.00000000000E+00 0. -1.
         -1    1    1    2    0  501  0.10403427957E+02  0.20860835641E+02  0.11134326417E+03  0.11375732176E+03  0.00000000000E+00 0.  1.
</event>
<event>
 4    1  0.7060698E+001  0.2563579E+02  0.7546771E-02  0.1461815E+00
          2   -1    0    0  502    0  0.00000000000E+00  0.00000000000E+00  0.12786219351E+04  0.12786219351E+04  0.00000000000E+00 0. -1.
         -2   -1    0    0    0  501 -0.00000000000E+00 -0.00000000000E+00 -0.83136477543E+00  0.83136477543E+00  0.00000000000E+00 0.  1.
          1    1    1    2  502    0  0.24547108897E+02  0.73914232101E+01  0.24363096144E+03  0.24497599691E+03  0.00000000000E+00 0.  1.
         -1    1    1    2    0  501 -0.24547108897E+02 -0.73914232101E+01  0.10341596089E+04  0.10344773030E+04  0.00000000000E+00 0. -1.
</event>
<event>
 4    1  0.7060698E+001  0.3732729E+02  0.7546771E-02  0.1364902E+00
          2   -1    0    0  502    0  0.00000000000E+00  0.00000000000E+00  0.11614260019E+03  0.11614260019E+03  0.00000000000E+00 0. -1.
         -2   -1    0    0    0  501 -0.00000000000E+00 -0.00000000000E+00 -0.14847355655E+02  0.14847355655E+02  0.00000000000E+00 0.  1.
          1    1    1    2  502    0 -0.12312374450E+02 -0.35238214561E+02  0.21949275790E+02  0.43302390670E+02  0.00000000000E+00 0.  1.
         -1    1    1    2    0  501  0.12312374450E+02  0.35238214561E+02  0.79345968746E+02  0.87687565175E+02  0.00000000000E+00 0. -1.
</event>
<event>
 4    1  0.7060698E+001  0.2677785E+02  0.7546771E-02  0.1449852E+00
          2   -1    0    0  502    0  0.00000000000E+00  0.00000000000E+00  0.35970787070E+02  0.35970787070E+02  0.00000000000E+00 0. -1.
         -2   -1    0    0    0  501 -0.00000000000E+00 -0.00000000000E+00 -0.21503303988E+02  0.21503303988E+02  0.00000000000E+00 0.  1.
          1    1    1    2  502    0  0.17080027144E+02 -0.20623433302E+02 -0.52869752532E+00  0.26783070202E+02  0.00000000000E+00 0.  1.
         -1    1    1    2    0  501 -0.17080027144E+02  0.20623433302E+02  0.14996180607E+02  0.30691020856E+02  0.00000000000E+00 0. -1.
</event>
<event>
 4    1  0.7060698E+001  0.2152287E+02  0.7546771E-02  0.1511929E+00
          2   -1    0    0  502    0  0.00000000000E+00  0.00000000000E+00  0.19242709836E+04  0.19242709836E+04  0.00000000000E+00 0.  1.
         -2   -1    0    0    0  501 -0.00000000000E+00 -0.00000000000E+00 -0.28033261168E+00  0.28033261168E+00  0.00000000000E+00 0. -1.
          1    1    1    2  502    0 -0.40074924836E+01 -0.21146483709E+02  0.13236658867E+04  0.13238408565E+04  0.00000000000E+00 0.  1.
         -1    1    1    2    0  501  0.40074924836E+01  0.21146483709E+02  0.60032476430E+03  0.60071045970E+03  0.00000000000E+00 0. -1.
</event>
<event>
 4    1  0.7060698E+001  0.3736925E+02  0.7546771E-02  0.1364632E+00
          2   -1    0    0  502    0  0.00000000000E+00  0.00000000000E+00  0.12299883334E+03  0.12299883334E+03  0.00000000000E+00 0. -1.
         -2   -1    0    0    0  501 -0.00000000000E+00 -0.00000000000E+00 -0.11965297317E+02  0.11965297317E+02  0.00000000000E+00 0.  1.
          1    1    1    2  502    0  0.27421866014E+01  0.37268506174E+02  0.40256995948E+02  0.54928015280E+02  0.00000000000E+00 0.  1.
         -1    1    1    2    0  501 -0.27421866014E+01 -0.37268506174E+02  0.70776540073E+02  0.80036115376E+02  0.00000000000E+00 0. -1.
</event>
<event>
 4    1  0.7060698E+001  0.2041288E+02  0.7546771E-02  0.1527815E+00
          2   -1    0    0  502    0  0.00000000000E+00  0.00000000000E+00  0.38528503260E+03  0.38528503260E+03  0.00000000000E+00 0. -1.
         -2   -1    0    0    0  501 -0.00000000000E+00 -0.00000000000E+00 -0.12038980010E+01  0.12038980010E+01  0.00000000000E+00 0.  1.
          1    1    1    2  502    0  0.19090502486E+02  0.72276014359E+01  0.13042356661E+03  0.13201133373E+03  0.00000000000E+00 0.  1.
         -1    1    1    2    0  501 -0.19090502486E+02 -0.72276014359E+01  0.25365756799E+03  0.25447759686E+03  0.00000000000E+00 0. -1.
</event>
<event>
 4    1  0.7060698E+001  0.2936216E+02  0.7546771E-02  0.1425221E+00
          2   -1    0    0  502    0  0.00000000000E+00  0.00000000000E+00  0.15934249576E+04  0.15934249576E+04  0.00000000000E+00 0. -1.
         -2   -1    0    0    0  501 -0.00000000000E+00 -0.00000000000E+00 -0.68023980592E+00  0.68023980592E+00  0.00000000000E+00 0.  1.
          1    1    1    2  502    0 -0.28735010141E+02 -0.60361818367E+01  0.11569063671E+04  0.11572789113E+04  0.00000000000E+00 0. -1.
         -1    1    1    2    0  501  0.28735010141E+02  0.60361818367E+01  0.43583835069E+03  0.43682628610E+03  0.00000000000E+00 0.  1.
</event>
<event>
 4    1  0.7060698E+001  0.3981734E+02  0.7546771E-02  0.1349559E+00
          2   -1    0    0  502    0  0.00000000000E+00  0.00000000000E+00  0.15891345109E+03  0.15891345109E+03  0.00000000000E+00 0. -1.
         -2   -1    0    0    0  501 -0.00000000000E+00 -0.00000000000E+00 -0.22212772192E+02  0.22212772192E+02  0.00000000000E+00 0.  1.
          1    1    1    2  502    0 -0.39292514007E+02 -0.64435394387E+01  0.13556626683E+03  0.14129272295E+03  0.00000000000E+00 0. -1.
         -1    1    1    2    0  501  0.39292514007E+02  0.64435394387E+01  0.11344120659E+01  0.39833500326E+02  0.00000000000E+00 0.  1.
</event>
<event>
 4    1  0.7060698E+001  0.2270156E+02  0.7546771E-02  0.1496280E+00
          2   -1    0    0  502    0  0.00000000000E+00  0.00000000000E+00  0.23441938193E+04  0.23441938193E+04  0.00000000000E+00 0.  1.
         -2   -1    0    0    0  501 -0.00000000000E+00 -0.00000000000E+00 -0.26519795676E+00  0.26519795676E+00  0.00000000000E+00 0. -1.
          1    1    1    2  502    0 -0.64973846469E+01  0.21751891297E+02  0.68720370620E+03  0.68757857340E+03  0.00000000000E+00 0. -1.
         -1    1    1    2    0  501  0.64973846469E+01 -0.21751891297E+02  0.16567249151E+04  0.16568804439E+04  0.00000000000E+00 0.  1.
</event>
<event>
 4    1  0.7060698E+001  0.3898397E+02  0.7546771E-02  0.1354545E+00
          2   -1    0    0  502    0  0.00000000000E+00  0.00000000000E+00  0.76376387264E+03  0.76376387264E+03  0.00000000000E+00 0. -1.
         -2   -1    0    0    0  501 -0.00000000000E+00 -0.00000000000E+00 -0.29389582762E+01  0.29389582762E+01  0.00000000000E+00 0.  1.
          1    1    1    2  502    0  0.10250804594E+02 -0.37612108830E+02  0.16255823843E+03  0.16716737303E+03  0.00000000000E+00 0.  1.
         -1    1    1    2    0  501 -0.10250804594E+02  0.37612108830E+02  0.59826667593E+03  0.59953545788E+03  0.00000000000E+00 0. -1.
</event>
<event>
 4    1  0.7060698E+001  0.2177246E+02  0.7546771E-02  0.1508516E+00
          2   -1    0    0  502    0  0.00000000000E+00  0.00000000000E+00  0.82964783464E+02  0.82964783464E+02  0.00000000000E+00 0. -1.
         -2   -1    0    0    0  501 -0.00000000000E+00 -0.00000000000E+00 -0.13482488857E+02  0.13482488857E+02  0.00000000000E+00 0.  1.
          1    1    1    2  502    0  0.20787128757E+02 -0.64757355182E+01  0.71346975245E+02  0.74595112099E+02  0.00000000000E+00 0. -1.
         -1    1    1    2    0  501 -0.20787128757E+02  0.64757355182E+01 -0.18646806390E+01  0.21852160221E+02  0.00000000000E+00 0.  1.
</event>
<event>
 4    1  0.7060698E+001  0.4915804E+02  0.7546771E-02  0.1301865E+00
          2   -1    0    0  502    0  0.00000000000E+00  0.00000000000E+00  0.22168624877E+02  0.22168624877E+02  0.00000000000E+00 0.  1.
         -2   -1    0    0    0  501 -0.00000000000E+00 -0.00000000000E+00 -0.10916104764E+03  0.10916104764E+03  0.00000000000E+00 0. -1.
          1    1    1    2  502    0 -0.25767479718E+02 -0.41863472712E+02 -0.41021544507E+02  0.64025623560E+02  0.00000000000E+00 0. -1.
         -1    1    1    2    0  501  0.25767479718E+02  0.41863472712E+02 -0.45970878261E+02  0.67304048961E+02  0.00000000000E+00 0.  1.
</event>
<event>
 4    1  0.7060698E+001  0.2585284E+02  0.7546771E-02  0.1459485E+00
          2   -1    0    0  502    0  0.00000000000E+00  0.00000000000E+00  0.21479176712E+03  0.21479176712E+03  0.00000000000E+00 0. -1.
         -2   -1    0    0    0  501 -0.00000000000E+00 -0.00000000000E+00 -0.50944076237E+01  0.50944076237E+01  0.00000000000E+00 0.  1.
          1    1    1    2  502    0 -0.38786730063E+01  0.25560231981E+02  0.36260482179E+02  0.44533045383E+02  0.00000000000E+00 0.  1.
         -1    1    1    2    0  501  0.38786730063E+01 -0.25560231981E+02  0.17343687731E+03  0.17535312936E+03  0.00000000000E+00 0. -1.
</event>
<event>
 4    1  0.7060698E+001  0.3960882E+02  0.7546771E-02  0.1350793E+00
          2   -1    0    0  502    0  0.00000000000E+00  0.00000000000E+00  0.23838454263E+04  0.23838454263E+04  0.00000000000E+00 0. -1.
         -2   -1    0    0    0  501 -0.00000000000E+00 -0.00000000000E+00 -0.71288713262E+00  0.71288713262E+00  0.00000000000E+00 0.  1.
          1    1    1    2  502    0  0.15102668125E+02 -0.36616495059E+02  0.15220304055E+04  0.15225457017E+04  0.00000000000E+00 0. -1.
         -1    1    1    2    0  501 -0.15102668125E+02  0.36616495059E+02  0.86110213366E+03  0.86201261179E+03  0.00000000000E+00 0.  1.
</event>
<event>
 4    1  0.7060698E+001  0.2146184E+02  0.7546771E-02  0.1512772E+00
          2   -1    0    0  502    0  0.00000000000E+00  0.00000000000E+00  0.32967370450E+03  0.32967370450E+03  0.00000000000E+00 0.  1.
         -2   -1    0    0    0  501 -0.00000000000E+00 -0.00000000000E+00 -0.37910134912E+01  0.37910134912E+01  0.00000000000E+00 0. -1.
          1    1    1    2  502    0  0.10527994130E+02 -0.18702192651E+02  0.29543344423E+03  0.29621196910E+03  0.00000000000E+00 0.  1.
         -1    1    1    2    0  501 -0.10527994130E+02  0.18702192651E+02  0.30449246781E+02  0.37252748890E+02  0.00000000000E+00 0. -1.
</event>
<event>
 4    1  0.7060698E+001  0.5829502E+02  0.7546771E-02  0.1265738E+00
          2   -1    0    0  502    0  0.00000000000E+00  0.00000000000E+00  0.21964627484E+03  0.21964627484E+03  0.00000000000E+00 0. -1.
         -2   -1    0    0    0  501 -0.00000000000E+00 -0.00000000000E+00 -0.16984440602E+02  0.16984440602E+02  0.00000000000E+00 0.  1.
          1    1    1    2  502    0 -0.26645689466E+02  0.51848977101E+02  0.13664049707E+03  0.14855616659E+03  0.00000000000E+00 0. -1.
         -1    1    1    2    0  501  0.26645689466E+02 -0.51848977101E+02  0.66021337172E+02  0.88074548852E+02  0.00000000000E+00 0.  1.
</event>
<event>
 4    1  0.7060698E+001  0.2012510E+02  0.7546771E-02  0.1532132E+00
          2   -1    0    0  502    0  0.00000000000E+00  0.00000000000E+00  0.17614287472E+04  0.17614287472E+04  0.00000000000E+00 0.  1.
         -2   -1    0    0    0  501 -0.00000000000E+00 -0.00000000000E+00 -0.22998193656E+00  0.22998193656E+00  0.00000000000E+00 0. -1.
          1    1    1    2  502    0 -0.15446037477E+02 -0.12901140221E+02  0.89276703405E+03  0.89299383905E+03  0.00000000000E+00 0.  1.
         -1    1    1    2    0  501  0.15446037477E+02  0.12901140221E+02  0.86843173119E+03  0.86866489007E+03  0.00000000000E+00 0. -1.
</event>
<event>
 4    1  0.7060698E+001  0.2333728E+02  0.7546771E-02  0.1488306E+00
          2   -1    0    0  502    0  0.00000000000E+00  0.00000000000E+00  0.15749570943E+02  0.15749570943E+02  0.00000000000E+00 0. -1.
         -2   -1    0    0    0  501 -0.00000000000E+00 -0.00000000000E+00 -0.36009853926E+02  0.36009853926E+02  0.00000000000E+00 0.  1.
          1    1    1    2  502    0  0.22864669734E+02  0.46728249791E+01 -0.49741164739E+01  0.23861480466E+02  0.00000000000E+00 0. -1.
         -1    1    1    2    0  501 -0.22864669734E+02 -0.46728249791E+01 -0.15286166509E+02  0.27897944403E+02  0.00000000000E+00 0.  1.
</event>
<event>
 4    1  0.7060698E+001  0.3717860E+02  0.7546771E-02  0.1365862E+00
          2   -1    0    0  502    0  0.00000000000E+00  0.00000000000E+00  0.71371171592E+01  0.71371171592E+01  0.00000000000E+00 0.  1.
         -2   -1    0    0    0  501 -0.00000000000E+00 -0.00000000000E+00 -0.19387313609E+03  0.19387313609E+03  0.00000000000E+00 0. -1.
          1    1    1    2  502    0 -0.15250329737E+02  0.33906867922E+02 -0.96618192298E+02  0.10352450595E+03  0.00000000000E+00 0.  1.
         -1    1    1    2    0  501  0.15250329737E+02 -0.33906867922E+02 -0.90117826629E+02  0.97485747295E+02  0.00000000000E+00 0. -1.
</event>
<event>
 4    1  0.7060698E+001  0.2052750E+02  0.7546771E-02  0.1526119E+00
          2   -1    0    0  502    0  0.00000000000E+00  0.00000000000E+00  0.78530522460E+03  0.78530522460E+03  0.00000000000E+00 0.  1.
         -2   -1    0    0    0  501 -0.00000000000E+00 -0.00000000000E+00 -0.54149832676E+00  0.54149832676E+00  0.00000000000E+00 0. -1.
          1    1    1    2  502    0  0.10568487533E+02  0.17597879830E+02  0.42983269771E+03  0.43032258403E+03  0.00000000000E+00 0.  1.
         -1    1    1    2    0  501 -0.10568487533E+02 -0.17597879830E+02  0.35493102856E+03  0.35552413889E+03  0.00000000000E+00 0. -1.
</event>
<event>
 4    1  0.7060698E+001  0.2229202E+02  0.7546771E-02  0.1501585E+00
          2   -1    0    0  502    0  0.00000000000E+00  0.00000000000E+00  0.15191923352E+03  0.15191923352E+03  0.00000000000E+00 0.  1.
         -2   -1    0    0    0  501 -0.00000000000E+00 -0.00000000000E+00 -0.45452248726E+01  0.45452248726E+01  0.00000000000E+00 0. -1.
          1    1    1    2  502    0 -0.21699802859E+02  0.51042060889E+01  0.11510830275E+03  0.11724698600E+03  0.00000000000E+00 0.  1.
         -1    1    1    2    0  501  0.21699802859E+02 -0.51042060889E+01  0.32265705901E+02  0.39217472397E+02  0.00000000000E+00 0. -1.
</event>
<event>
 4    1  0.7060698E+001  0.2806872E+02  0.7546771E-02  0.1437158E+00
          2   -1    0    0  502    0  0.00000000000E+00  0.00000000000E+00  0.18971382757E+04  0.18971382757E+04  0.00000000000E+00 0.  1.
         -2   -1    0    0    0  501 -0.00000000000E+00 -0.00000000000E+00 -0.41547713392E+00  0.41547713392E+00  0.00000000000E+00 0. -1.
          1    1    1    2  502    0 -0.12328780452E+02 -0.25216145768E+02  0.96877087760E+03  0.96917741725E+03  0.00000000000E+00 0. -1.
         -1    1    1    2    0  501  0.12328780452E+02  0.25216145768E+02  0.92795192098E+03  0.92837633559E+03  0.00000000000E+00 0.  1.
</event>
<event>
 4    1  0.7060698E+001  0.2134752E+02  0.7546771E-02  0.1514361E+00
          2   -1    0    0  502    0  0.00000000000E+00  0.00000000000E+00  0.55117033965E+02  0.55117033965E+02  0.00000000000E+00 0.  1.
         -2   -1    0    0    0  501 -0.00000000000E+00 -0.00000000000E+00 -0.92535171086E+01  0.92535171086E+01  0.00000000000E+00 0. -1.
          1    1    1    2  502    0  0.21336794302E+02  0.67667663785E+00  0.33434428805E+02  0.39668346473E+02  0.00000000000E+00 0.  1.
         -1    1    1    2    0  501 -0.21336794302E+02 -0.67667663785E+00  0.12429088052E+02  0.24702204601E+02  0.00000000000E+00 0. -1.
</event>
<event>
 4    1  0.7060698E+001  0.2346976E+02  0.7546771E-02  0.1486682E+00
          2   -1    0    0  502    0  0.00000000000E+00  0.00000000000E+00  0.49809294689E+02  0.49809294689E+02  0.00000000000E+00 0. -1.
         -2   -1    0    0    0  501 -0.00000000000E+00 -0.00000000000E+00 -0.12686045284E+02  0.12686045284E+02  0.00000000000E+00 0.  1.
          1    1    1    2  502    0 -0.12944969114E+02  0.19576959019E+02  0.29753039224E+02  0.37895552415E+02  0.00000000000E+00 0.  1.
         -1    1    1    2    0  501  0.12944969114E+02 -0.19576959019E+02  0.73702101804E+01  0.24599787557E+02  0.00000000000E+00 0. -1.
</event>
<event>
 4    1  0.7060698E+001  0.3204067E+02  0.7546771E-02  0.1402654E+00
          2   -1    0    0  502    0  0.00000000000E+00  0.00000000000E+00  0.36628875860E+04  0.36628875860E+04  0.00000000000E+00 0. -1.
         -2   -1    0    0    0  501 -0.00000000000E+00 -0.00000000000E+00 -0.29148912460E+00  0.29148912460E+00  0.00000000000E+00 0.  1.
          1    1    1    2  502    0  0.28917427122E+02 -0.13798072157E+02  0.14719956726E+04  0.14723443431E+04  0.00000000000E+00 0.  1.
         -1    1    1    2    0  501 -0.28917427122E+02  0.13798072157E+02  0.21906004243E+04  0.21908347320E+04  0.00000000000E+00 0. -1.
</event>
<event>
 4    1  0.7060698E+001  0.2323533E+02  0.7546771E-02  0.1489564E+00
          2   -1    0    0  502    0  0.00000000000E+00  0.00000000000E+00  0.12640127444E+04  0.12640127444E+04  0.00000000000E+00 0. -1.
         -2   -1    0    0    0  501 -0.00000000000E+00 -0.00000000000E+00 -0.64778452298E+00  0.64778452298E+00  0.00000000000E+00 0.  1.
          1    1    1    2  502    0  0.98827563640E-01 -0.23235117120E+02  0.26262110709E+03  0.26364697291E+03  0.00000000000E+00 0.  1.
         -1    1    1    2    0  501 -0.98827563640E-01  0.23235117120E+02  0.10007438527E+04  0.10010135560E+04  0.00000000000E+00 0. -1.
</event>
<event>
 4    1  0.7060698E+001  0.2477051E+02  0.7546771E-02  0.1471387E+00
          2   -1    0    0  502    0  0.00000000000E+00  0.00000000000E+00  0.82269832612E+03  0.82269832612E+03  0.00000000000E+00 0. -1.
         -2   -1    0    0    0  501 -0.00000000000E+00 -0.00000000000E+00 -0.74583142957E+00  0.74583142957E+00  0.00000000000E+00 0.  1.
          1    1    1    2  502    0 -0.17453051465E+02 -0.17577514683E+02  0.40885804628E+03  0.40960771481E+03  0.00000000000E+00 0. -1.
         -1    1    1    2    0  501  0.17453051465E+02  0.17577514683E+02  0.41309444842E+03  0.41383644274E+03  0.00000000000E+00 0.  1.
</event>
<event>
 4    1  0.7060698E+001  0.5818130E+02  0.7546771E-02  0.1266140E+00
          2   -1    0    0  502    0  0.00000000000E+00  0.00000000000E+00  0.15782405461E+03  0.15782405461E+03  0.00000000000E+00 0. -1.
         -2   -1    0    0    0  501 -0.00000000000E+00 -0.00000000000E+00 -0.21546434819E+02  0.21546434819E+02  0.00000000000E+00 0.  1.
          1    1    1    2  502    0 -0.24540115940E+02 -0.52752689525E+02  0.74190302505E+02  0.94282896266E+02  0.00000000000E+00 0. -1.
         -1    1    1    2    0  501  0.24540115940E+02  0.52752689525E+02  0.62087317284E+02  0.85087593162E+02  0.00000000000E+00 0.  1.
</event>
<event>
 4    1  0.7060698E+001  0.3186820E+02  0.7546771E-02  0.1404028E+00
          2   -1    0    0  502    0  0.00000000000E+00  0.00000000000E+00  0.10709250003E+04  0.10709250003E+04  0.00000000000E+00 0.  1.
         -2   -1    0    0    0  501 -0.00000000000E+00 -0.00000000000E+00 -0.15614368172E+01  0.15614368172E+01  0.00000000000E+00 0. -1.
          1    1    1    2  502    0  0.25637977659E+02  0.18928187040E+02  0.87070583862E+03  0.87128883820E+03  0.00000000000E+00 0.  1.
         -1    1    1    2    0  501 -0.25637977659E+02 -0.18928187040E+02  0.19865772491E+03  0.20119759897E+03  0.00000000000E+00 0. -1.
</event>
<event>
 4    1  0.7060698E+001  0.2625983E+02  0.7546771E-02  0.1455188E+00
          2   -1    0    0  502    0  0.00000000000E+00  0.00000000000E+00  0.11659996601E+02  0.11659996601E+02  0.00000000000E+00 0.  1.
         -2   -1    0    0    0  501 -0.00000000000E+00 -0.00000000000E+00 -0.68243001583E+02  0.68243001583E+02  0.00000000000E+00 0. -1.
          1    1    1    2  502    0  0.22943479473E+02 -0.12774019643E+02 -0.13700579471E+02  0.29618992320E+02  0.00000000000E+00 0. -1.
         -1    1    1    2    0  501 -0.22943479473E+02  0.12774019643E+02 -0.42882425510E+02  0.50284005865E+02  0.00000000000E+00 0.  1.
</event>
<event>
 4    1  0.7060698E+001  0.2133514E+02  0.7546771E-02  0.1514533E+00
          2   -1    0    0  502    0  0.00000000000E+00  0.00000000000E+00  0.27412775368E+01  0.27412775368E+01  0.00000000000E+00 0. -1.
         -2   -1    0    0    0  501 -0.00000000000E+00 -0.00000000000E+00 -0.39427311926E+03  0.39427311926E+03  0.00000000000E+00 0.  1.
          1    1    1    2  502    0  0.15110358862E+01 -0.21281562347E+02 -0.34679405067E+03  0.34744971105E+03  0.00000000000E+00 0.  1.
         -1    1    1    2    0  501 -0.15110358862E+01  0.21281562347E+02 -0.44737791056E+02  0.49564685754E+02  0.00000000000E+00 0. -1.
</event>
<event>
 4    1  0.7060698E+001  0.5237420E+02  0.7546771E-02  0.1288194E+00
          2   -1    0    0  502    0  0.00000000000E+00  0.00000000000E+00  0.73034852297E+03  0.73034852297E+03  0.00000000000E+00 0. -1.
         -2   -1    0    0    0  501 -0.00000000000E+00 -0.00000000000E+00 -0.39003289787E+01  0.39003289787E+01  0.00000000000E+00 0.  1.
          1    1    1    2  502    0 -0.39923170245E+02  0.33899807441E+02  0.43389040244E+03  0.43703997277E+03  0.00000000000E+00 0. -1.
         -1    1    1    2    0  501  0.39923170245E+02 -0.33899807441E+02  0.29255779155E+03  0.29720887918E+03  0.00000000000E+00 0.  1.
</event>
<event>
 4    1  0.7060698E+001  0.3776548E+02  0.7546771E-02  0.1362102E+00
          2   -1    0    0  502    0  0.00000000000E+00  0.00000000000E+00  0.92056140593E+03  0.92056140593E+03  0.00000000000E+00 0.  1.
         -2   -1    0    0    0  501 -0.00000000000E+00 -0.00000000000E+00 -0.17367987391E+01  0.17367987391E+01  0.00000000000E+00 0. -1.
          1    1    1    2  502    0  0.32727510081E+02 -0.18845191858E+02  0.30789612106E+03  0.31020356629E+03  0.00000000000E+00 0. -1.
         -1    1    1    2    0  501 -0.32727510081E+02  0.18845191858E+02  0.61092848613E+03  0.61209463839E+03  0.00000000000E+00 0.  1.
</event>
<event>
 4    1  0.7060698E+001  0.2717570E+02  0.7546771E-02  0.1445851E+00
          2   -1    0    0  502    0  0.00000000000E+00  0.00000000000E+00  0.10135148951E+03  0.10135148951E+03  0.00000000000E+00 0.  1.
         -2   -1    0    0    0  501 -0.00000000000E+00 -0.00000000000E+00 -0.12775675198E+02  0.12775675198E+02  0.00000000000E+00 0. -1.
          1    1    1    2  502    0 -0.51858574384E+01 -0.26676311504E+02  0.68843920834E+01  0.28034150018E+02  0.00000000000E+00 0. -1.
         -1    1    1    2    0  501  0.51858574384E+01  0.26676311504E+02  0.81691422229E+02  0.86093014691E+02  0.00000000000E+00 0.  1.
</event>
<event>
 4    1  0.7060698E+001  0.2297368E+02  0.7546771E-02  0.1492829E+00
          2   -1    0    0  502    0  0.00000000000E+00  0.00000000000E+00  0.32634190467E+03  0.32634190467E+03  0.00000000000E+00 0. -1.
         -2   -1    0    0    0  501 -0.00000000000E+00 -0.00000000000E+00 -0.35885811848E+01  0.35885811848E+01  0.00000000000E+00 0.  1.
          1    1    1    2  502    0  0.12041864931E+02  0.19564855030E+02  0.28364281890E+03  0.28457167599E+03  0.00000000000E+00 0. -1.
         -1    1    1    2    0  501 -0.12041864931E+02 -0.19564855030E+02  0.39110504593E+02  0.45358809871E+02  0.00000000000E+00 0.  1.
</event>
<event>
 4    1  0.7060698E+001  0.2172518E+02  0.7546771E-02  0.1509158E+00
          2   -1    0    0  502    0  0.00000000000E+00  0.00000000000E+00  0.62726448174E+03  0.62726448174E+03  0.00000000000E+00 0. -1.
         -2   -1    0    0    0  501 -0.00000000000E+00 -0.00000000000E+00 -0.10109133304E+01  0.10109133304E+01  0.00000000000E+00 0.  1.
          1    1    1    2  502    0 -0.19184832484E+02  0.10194382692E+02  0.47196870815E+03  0.47246845895E+03  0.00000000000E+00 0. -1.
         -1    1    1    2    0  501  0.19184832484E+02 -0.10194382692E+02  0.15428486027E+03  0.15580693612E+03  0.00000000000E+00 0.  1.
</event>
<event>
 4    1  0.7060698E+001  0.2225467E+02  0.7546771E-02  0.1502075E+00
          2   -1    0    0  502    0  0.00000000000E+00  0.00000000000E+00  0.58912577665E+03  0.58912577665E+03  0.00000000000E+00 0.  1.
         -2   -1    0    0    0  501 -0.00000000000E+00 -0.00000000000E+00 -0.88397001059E+00  0.88397001059E+00  0.00000000000E+00 0. -1.
          1    1    1    2  502    0  0.82004807778E+01  0.20688708202E+02  0.35939905895E+03  0.36008742564E+03  0.00000000000E+00 0.  1.
         -1    1    1    2    0  501 -0.82004807778E+01 -0.20688708202E+02  0.22884274769E+03  0.22992232102E+03  0.00000000000E+00 0. -1.
</event>
<event>
 4    1  0.7060698E+001  0.2286012E+02  0.7546771E-02  0.1494262E+00
          2   -1    0    0  502    0  0.00000000000E+00  0.00000000000E+00  0.30075603125E+02  0.30075603125E+02  0.00000000000E+00 0. -1.
         -2   -1    0    0    0  501 -0.00000000000E+00 -0.00000000000E+00 -0.25588265602E+02  0.25588265602E+02  0.00000000000E+00 0.  1.
          1    1    1    2  502    0 -0.98853345793E+01 -0.20612261848E+02  0.18011135893E+02  0.29103027238E+02  0.00000000000E+00 0. -1.
         -1    1    1    2    0  501  0.98853345793E+01  0.20612261848E+02 -0.13523798370E+02  0.26560841489E+02  0.00000000000E+00 0.  1.
</event>
<event>
 4    1  0.7060698E+001  0.3524742E+02  0.7546771E-02  0.1378832E+00
          2   -1    0    0  502    0  0.00000000000E+00  0.00000000000E+00  0.57351877221E+02  0.57351877221E+02  0.00000000000E+00 0. -1.
         -2   -1    0    0    0  501 -0.00000000000E+00 -0.00000000000E+00 -0.28602545534E+02  0.28602545534E+02  0.00000000000E+00 0.  1.
          1    1    1    2  502    0  0.20618994377E+02 -0.28587368329E+02  0.35544599420E+02  0.50057957460E+02  0.00000000000E+00 0. -1.
         -1    1    1    2    0  501 -0.20618994377E+02  0.28587368329E+02 -0.67952677327E+01  0.35896465295E+02  0.00000000000E+00 0.  1.
</event>
<event>
 4    1  0.7060698E+001  0.2886093E+02  0.7546771E-02  0.1429760E+00
          2   -1    0    0  502    0  0.00000000000E+00  0.00000000000E+00  0.15603273362E+04  0.15603273362E+04  0.00000000000E+00 0. -1.
         -2   -1    0    0    0  501 -0.00000000000E+00 -0.00000000000E+00 -0.53738231979E+00  0.53738231979E+00  0.00000000000E+00 0.  1.
          1    1    1    2  502    0 -0.17526776043E+02 -0.22929570556E+02  0.71646262935E+03  0.71704368928E+03  0.00000000000E+00 0.  1.
         -1    1    1    2    0  501  0.17526776043E+02  0.22929570556E+02  0.84332732458E+03  0.84382102929E+03  0.00000000000E+00 0. -1.
</event>
<event>
 4    1  0.7060698E+001  0.2604792E+02  0.7546771E-02  0.1457414E+00
          2   -1    0    0  502    0  0.00000000000E+00  0.00000000000E+00  0.49484751658E+02  0.49484751658E+02  0.00000000000E+00 0.  1.
         -2   -1    0    0    0  501 -0.00000000000E+00 -0.00000000000E+00 -0.15967263392E+02  0.15967263392E+02  0.00000000000E+00 0. -1.
          1    1    1    2  502    0  0.70127783296E+01 -0.25086155574E+02  0.29060171396E+02  0.39025476588E+02  0.00000000000E+00 0.  1.
         -1    1    1    2    0  501 -0.70127783296E+01  0.25086155574E+02  0.44573168703E+01  0.26426538461E+02  0.00000000000E+00 0. -1.
</event>
<event>
 4    1  0.7060698E+001  0.5589816E+02  0.7546771E-02  0.1274444E+00
          2   -1    0    0  502    0  0.00000000000E+00  0.00000000000E+00  0.24947398170E+04  0.24947398170E+04  0.00000000000E+00 0.  1.
         -2   -1    0    0    0  501 -0.00000000000E+00 -0.00000000000E+00 -0.14052406109E+01  0.14052406109E+01  0.00000000000E+00 0. -1.
          1    1    1    2  502    0 -0.14201316365E+02  0.54064101213E+02  0.83516303307E+03  0.83703159811E+03  0.00000000000E+00 0.  1.
         -1    1    1    2    0  501  0.14201316365E+02 -0.54064101213E+02  0.16581715433E+04  0.16591134594E+04  0.00000000000E+00 0. -1.
</event>
<event>
 4    1  0.7060698E+001  0.2186371E+02  0.7546771E-02  0.1507282E+00
          2   -1    0    0  502    0  0.00000000000E+00  0.00000000000E+00  0.88059393874E+03  0.88059393874E+03  0.00000000000E+00 0.  1.
         -2   -1    0    0    0  501 -0.00000000000E+00 -0.00000000000E+00 -0.68456240414E+00  0.68456240414E+00  0.00000000000E+00 0. -1.
          1    1    1    2  502    0  0.21861792891E+02  0.28979304763E+00  0.64044587935E+03  0.64081896534E+03  0.00000000000E+00 0.  1.
         -1    1    1    2    0  501 -0.21861792891E+02 -0.28979304763E+00  0.23946349698E+03  0.24045953580E+03  0.00000000000E+00 0. -1.
</event>
<event>
 4    1  0.7060698E+001  0.3412419E+02  0.7546771E-02  0.1386827E+00
          2   -1    0    0  502    0  0.00000000000E+00  0.00000000000E+00  0.23709063965E+04  0.23709063965E+04  0.00000000000E+00 0. -1.
         -2   -1    0    0    0  501 -0.00000000000E+00 -0.00000000000E+00 -0.77836981345E+00  0.77836981345E+00  0.00000000000E+00 0.  1.
          1    1    1    2  502    0 -0.33341285581E+02  0.72676587300E+01  0.46471242428E+03  0.46596362248E+03  0.00000000000E+00 0.  1.
         -1    1    1    2    0  501  0.33341285581E+02 -0.72676587300E+01  0.19054156024E+04  0.19057211439E+04  0.00000000000E+00 0. -1.
</event>
<event>
 4    1  0.7060698E+001  0.2896743E+02  0.7546771E-02  0.1428787E+00
          2   -1    0    0  502    0  0.00000000000E+00  0.00000000000E+00  0.36104718500E+01  0.36104718500E+01  0.00000000000E+00 0.  1.
         -2   -1    0    0    0  501 -0.00000000000E+00 -0.00000000000E+00 -0.35925834474E+03  0.35925834474E+03  0.00000000000E+00 0. -1.
          1    1    1    2  502    0  0.63420353276E+01 -0.28264653598E+02 -0.28563356152E+03  0.28709866514E+03  0.00000000000E+00 0. -1.
         -1    1    1    2    0  501 -0.63420353276E+01  0.28264653598E+02 -0.70014311372E+02  0.75770151458E+02  0.00000000000E+00 0.  1.
</event>
<event>
 4    1  0.7060698E+001  0.2393204E+02  0.7546771E-02  0.1481115E+00
          2   -1    0    0  502    0  0.00000000000E+00  0.00000000000E+00  0.36456367236E+03  0.36456367236E+03  0.00000000000E+00 0.  1.
         -2   -1    0    0    0  501 -0.00000000000E+00 -0.00000000000E+00 -0.36471859835E+01  0.36471859835E+01  0.00000000000E+00 0. -1.
          1    1    1    2  502    0 -0.17854406479E+02 -0.15936202618E+02  0.31936298770E+03  0.32025842737E+03  0.00000000000E+00 0.  1.
         -1    1    1    2    0  501  0.17854406479E+02  0.15936202618E+02  0.41553498674E+02  0.47952430977E+02  0.00000000000E+00 0. -1.
</event>
<event>
 4    1  0.7060698E+001  0.2822983E+02  0.7546771E-02  0.1435631E+00
          2   -1    0    0  502    0  0.00000000000E+00  0.00000000000E+00  0.17304322712E+04  0.17304322712E+04  0.00000000000E+00 0. -1.
         -2   -1    0    0    0  501 -0.00000000000E+00 -0.00000000000E+00 -0.10574058198E+01  0.10574058198E+01  0.00000000000E+00 0.  1.
          1    1    1    2  502    0  0.64166137953E+01 -0.27490914745E+02  0.15151308304E+04  0.15153937959E+04  0.00000000000E+00 0. -1.
         -1    1    1    2    0  501 -0.64166137953E+01  0.27490914745E+02  0.21424403495E+03  0.21609588112E+03  0.00000000000E+00 0.  1.
</event>
<event>
 4    1  0.7060698E+001  0.2574368E+02  0.7546771E-02  0.1460653E+00
          2   -1    0    0  502    0  0.00000000000E+00  0.00000000000E+00  0.15509949170E+01  0.15509949170E+01  0.00000000000E+00 0.  1.
         -2   -1    0    0    0  501 -0.00000000000E+00 -0.00000000000E+00 -0.13515642556E+04  0.13515642556E+04  0.00000000000E+00 0. -1.
          1    1    1    2  502    0  0.11671142315E+02  0.22946051605E+02 -0.11552604544E+03  0.11835963849E+03  0.00000000000E+00 0.  1.
         -1    1    1    2    0  501 -0.11671142315E+02 -0.22946051605E+02 -0.12344872153E+04  0.12347556121E+04  0.00000000000E+00 0. -1.
</event>
<event>
 4    1  0.7060698E+001  0.3434799E+02  0.7546771E-02  0.1385206E+00
          2   -1    0    0  502    0  0.00000000000E+00  0.00000000000E+00  0.13711352266E+04  0.13711352266E+04  0.00000000000E+00 0. -1.
         -2   -1    0    0    0  501 -0.00000000000E+00 -0.00000000000E+00 -0.14589875220E+01  0.14589875220E+01  0.00000000000E+00 0.  1.
          1    1    1    2  502    0  0.16526603637E+02  0.30110728081E+02  0.11244145324E+04  0.11249390318E+04  0.00000000000E+00 0. -1.
         -1    1    1    2    0  501 -0.16526603637E+02 -0.30110728081E+02  0.24526170673E+03  0.24765518239E+03  0.00000000000E+00 0.  1.
</event>
<event>
 4    1  0.7060698E+001  0.4770639E+02  0.7546771E-02  0.1308435E+00
          2   -1    0    0  502    0  0.00000000000E+00  0.00000000000E+00  0.40491176731E+03  0.40491176731E+03  0.00000000000E+00 0.  1.
         -2   -1    0    0    0  501 -0.00000000000E+00 -0.00000000000E+00 -0.58735002827E+01  0.58735002827E+01  0.00000000000E+00 0. -1.
          1    1    1    2  502    0  0.24768464410E+02 -0.40772822751E+02  0.15691036537E+03  0.16400232518E+03  0.00000000000E+00 0. -1.
         -1    1    1    2    0  501 -0.24768464410E+02  0.40772822751E+02  0.24212790165E+03  0.24678294241E+03  0.00000000000E+00 0.  1.
</event>
<event>
 4    1  0.7060698E+001  0.2068743E+02  0.7546771E-02  0.1523775E+00
          2   -1    0    0  502    0  0.00000000000E+00  0.00000000000E+00  0.47350131292E+02  0.47350131292E+02  0.00000000000E+00 0.  1.
         -2   -1    0    0    0  501 -0.00000000000E+00 -0.00000000000E+00 -0.90401006597E+01  0.90401006597E+01  0.00000000000E+00 0. -1.
          1    1    1    2  502    0  0.17493706457E+02 -0.11042639027E+02  0.18768813979E+02  0.27932741012E+02  0.00000000000E+00 0.  1.
         -1    1    1    2    0  501 -0.17493706457E+02  0.11042639027E+02  0.19541216654E+02  0.28457490940E+02  0.00000000000E+00 0. -1.
</event>
<event>
 4    1  0.7060698E+001  0.2055695E+02  0.7546771E-02  0.1525685E+00
          2   -1    0    0  502    0  0.00000000000E+00  0.00000000000E+00  0.16285263651E+02  0.16285263651E+02  0.00000000000E+00 0. -1.
         -2   -1    0    0    0  501 -0.00000000000E+00 -0.00000000000E+00 -0.26027894129E+02  0.26027894129E+02  0.00000000000E+00 0.  1.
          1    1    1    2  502    0 -0.17763213118E+02 -0.10346801435E+02 -0.60353207894E+01  0.21424591880E+02  0.00000000000E+00 0. -1.
         -1    1    1    2    0  501  0.17763213118E+02  0.10346801435E+02 -0.37073096894E+01  0.20888565900E+02  0.00000000000E+00 0.  1.
</event>
<event>
 4    1  0.7060698E+001  0.2149288E+02  0.7546771E-02  0.1512343E+00
          2   -1    0    0  502    0  0.00000000000E+00  0.00000000000E+00  0.11960781322E+03  0.11960781322E+03  0.00000000000E+00 0. -1.
         -2   -1    0    0    0  501 -0.00000000000E+00 -0.00000000000E+00 -0.39305794202E+01  0.39305794202E+01  0.00000000000E+00 0.  1.
          1    1    1    2  502    0 -0.13474481843E+02  0.16744618377E+02  0.65988463740E+02  0.69400441298E+02  0.00000000000E+00 0.  1.
         -1    1    1    2    0  501  0.13474481843E+02 -0.16744618377E+02  0.49688770060E+02  0.54137951343E+02  0.00000000000E+00 0. -1.
</event>
<event>
 4    1  0.7060698E+001  0.2766007E+02  0.7546771E-02  0.1441088E+00
          2   -1    0    0  502    0  0.00000000000E+00  0.00000000000E+00  0.23167402527E+03  0.23167402527E+03  0.00000000000E+00 0. -1.
         -2   -1    0    0    0  501 -0.00000000000E+00 -0.00000000000E+00 -0.33140586235E+01  0.33140586235E+01  0.00000000000E+00 0.  1.
          1    1    1    2  502    0  0.16668314213E+02 -0.22073669799E+02  0.10721025293E+03  0.11072090105E+03  0.00000000000E+00 0.  1.
         -1    1    1    2    0  501 -0.16668314213E+02  0.22073669799E+02  0.12114971372E+03  0.12426718284E+03  0.00000000000E+00 0. -1.
</event>
<event>
 4    1  0.7060698E+001  0.2178424E+02  0.7546771E-02  0.1508356E+00
          2   -1    0    0  502    0  0.00000000000E+00  0.00000000000E+00  0.39788509436E+01  0.39788509436E+01  0.00000000000E+00 0.  1.
         -2   -1    0    0    0  501 -0.00000000000E+00 -0.00000000000E+00 -0.22660854629E+03  0.22660854629E+03  0.00000000000E+00 0. -1.
          1    1    1    2  502    0 -0.55698363390E+01 -0.21060155941E+02 -0.31964748551E+02  0.38682016430E+02  0.00000000000E+00 0.  1.
         -1    1    1    2    0  501  0.55698363390E+01  0.21060155941E+02 -0.19066494679E+03  0.19190538080E+03  0.00000000000E+00 0. -1.
</event>
<event>
 4    1  0.7060698E+001  0.2258065E+02  0.7546771E-02  0.1497832E+00
          2   -1    0    0  502    0  0.00000000000E+00  0.00000000000E+00  0.71243487710E+02  0.71243487710E+02  0.00000000000E+00 0.  1.
         -2   -1    0    0    0  501 -0.00000000000E+00 -0.00000000000E+00 -0.71807371821E+01  0.71807371821E+01  0.00000000000E+00 0. -1.
          1    1    1    2  502    0 -0.10400888478E+02  0.20042630977E+02  0.34288609485E+02  0.41055989551E+02  0.00000000000E+00 0. -1.
         -1    1    1    2    0  501  0.10400888478E+02 -0.20042630977E+02  0.29774141043E+02  0.37368235341E+02  0.00000000000E+00 0.  1.
</event>
<event>
 4    1  0.7060698E+001  0.6634806E+02  0.7546771E-02  0.1239666E+00
          2   -1    0    0  502    0  0.00000000000E+00  0.00000000000E+00  0.12490621387E+04  0.12490621387E+04  0.00000000000E+00 0. -1.
         -2   -1    0    0    0  501 -0.00000000000E+00 -0.00000000000E+00 -0.42580419768E+01  0.42580419768E+01  0.00000000000E+00 0.  1.
          1    1    1    2  502    0  0.24286247558E+00 -0.66347620199E+02  0.88253759421E+03  0.88502806220E+03  0.00000000000E+00 0.  1.
         -1    1    1    2    0  501 -0.24286247558E+00  0.66347620199E+02  0.36226650249E+03  0.36829211845E+03  0.00000000000E+00 0. -1.
</event>
<event>
 4    1  0.7060698E+001  0.4136366E+02  0.7546771E-02  0.1340675E+00
          2   -1    0    0  502    0  0.00000000000E+00  0.00000000000E+00  0.26524954352E+02  0.26524954352E+02  0.00000000000E+00 0.  1.
         -2   -1    0    0    0  501 -0.00000000000E+00 -0.00000000000E+00 -0.81175671358E+02  0.81175671358E+02  0.00000000000E+00 0. -1.
          1    1    1    2  502    0  0.37962541868E+02 -0.16425532893E+02 -0.29207856712E+01  0.41466657749E+02  0.00000000000E+00 0.  1.
         -1    1    1    2    0  501 -0.37962541868E+02  0.16425532893E+02 -0.51729931335E+02  0.66233967961E+02  0.00000000000E+00 0. -1.
</event>
<event>
 4    1  0.7060698E+001  0.2445370E+02  0.7546771E-02  0.1475009E+00
          2   -1    0    0  502    0  0.00000000000E+00  0.00000000000E+00  0.13710947809E+04  0.13710947809E+04  0.00000000000E+00 0. -1.
         -2   -1    0    0    0  501 -0.00000000000E+00 -0.00000000000E+00 -0.43983526843E+00  0.43983526843E+00  0.00000000000E+00 0.  1.
          1    1    1    2  502    0  0.22838647377E+02  0.87395397854E+01  0.74822126994E+03  0.74862076658E+03  0.00000000000E+00 0.  1.
         -1    1    1    2    0  501 -0.22838647377E+02 -0.87395397854E+01  0.62243367574E+03  0.62291384963E+03  0.00000000000E+00 0. -1.
</event>
<event>
 4    1  0.7060698E+001  0.2147887E+02  0.7546771E-02  0.1512536E+00
          2   -1    0    0  502    0  0.00000000000E+00  0.00000000000E+00  0.15987865141E+04  0.15987865141E+04  0.00000000000E+00 0. -1.
         -2   -1    0    0    0  501 -0.00000000000E+00 -0.00000000000E+00 -0.83947017565E+00  0.83947017565E+00  0.00000000000E+00 0.  1.
          1    1    1    2  502    0  0.20431215203E+02  0.66262719287E+01  0.14469021262E+04  0.14470615415E+04  0.00000000000E+00 0. -1.
         -1    1    1    2    0  501 -0.20431215203E+02 -0.66262719287E+01  0.15104491765E+03  0.15256444272E+03  0.00000000000E+00 0.  1.
</event>
<event>
 4    1  0.7060698E+001  0.4215407E+02  0.7546771E-02  0.1336305E+00
          2   -1    0    0  502    0  0.00000000000E+00  0.00000000000E+00  0.30191330688E+02  0.30191330688E+02  0.00000000000E+00 0.  1.
         -2   -1    0    0    0  501 -0.00000000000E+00 -0.00000000000E+00 -0.63368778096E+02  0.63368778096E+02  0.00000000000E+00 0. -1.
          1    1    1    2  502    0 -0.23686452057E+02  0.34870005673E+02 -0.41060896988E+01  0.42353574575E+02  0.00000000000E+00 0. -1.
         -1    1    1    2    0  501  0.23686452057E+02 -0.34870005673E+02 -0.29071357709E+02  0.51206534209E+02  0.00000000000E+00 0.  1.
</event>
<event>
 4    1  0.7060698E+001  0.2158119E+02  0.7546771E-02  0.1511126E+00
          2   -1    0    0  502    0  0.00000000000E+00  0.00000000000E+00  0.32931703011E+03  0.32931703011E+03  0.00000000000E+00 0. -1.
         -2   -1    0    0    0  501 -0.00000000000E+00 -0.00000000000E+00 -0.18172814458E+01  0.18172814458E+01  0.00000000000E+00 0.  1.
          1    1    1    2  502    0 -0.16577326282E+02 -0.13818111506E+02  0.24171744463E+03  0.24267894632E+03  0.00000000000E+00 0. -1.
         -1    1    1    2    0  501  0.16577326282E+02  0.13818111506E+02  0.85782304041E+02  0.88455365235E+02  0.00000000000E+00 0.  1.
</event>
<event>
 4    1  0.7060698E+001  0.5073374E+02  0.7546771E-02  0.1295022E+00
          2   -1    0    0  502    0  0.00000000000E+00  0.00000000000E+00  0.64659739668E+03  0.64659739668E+03  0.00000000000E+00 0.  1.
         -2   -1    0    0    0  501 -0.00000000000E+00 -0.00000000000E+00 -0.47994248195E+01  0.47994248195E+01  0.00000000000E+00 0. -1.
          1    1    1    2  502    0 -0.48422306843E+02  0.15139123431E+02  0.18637833692E+03  0.19316003037E+03  0.00000000000E+00 0. -1.
         -1    1    1    2    0  501  0.48422306843E+02 -0.15139123431E+02  0.45541963494E+03  0.45823679113E+03  0.00000000000E+00 0.  1.
</event>
<event>
 4    1  0.7060698E+001  0.2097317E+02  0.7546771E-02  0.1519648E+00
          2   -1    0    0  502    0  0.00000000000E+00  0.00000000000E+00  0.81895111018E+03  0.81895111018E+03  0.00000000000E+00 0.  1.
         -2   -1    0    0    0  501 -0.00000000000E+00 -0.00000000000E+00 -0.66278840144E+00  0.66278840144E+00  0.00000000000E+00 0. -1.
          1    1    1    2  502    0  0.18404667642E+02  0.10056944852E+02  0.23069799835E+03  0.23164939105E+03  0.00000000000E+00 0. -1.
         -1    1    1    2    0  501 -0.18404667642E+02 -0.10056944852E+02  0.58759032342E+03  0.58796450753E+03  0.00000000000E+00 0.  1.
</event>
<event>
 4    1  0.7060698E+001  0.3566456E+02  0.7546771E-02  0.1375950E+00
          2   -1    0    0  502    0  0.00000000000E+00  0.00000000000E+00  0.14620374058E+04  0.14620374058E+04  0.00000000000E+00 0.  1.
         -2   -1    0    0    0  501 -0.00000000000E+00 -0.00000000000E+00 -0.87248970328E+00  0.87248970328E+00  0.00000000000E+00 0. -1.
          1    1    1    2  502    0 -0.71305916975E+01 -0.34944468114E+02  0.76971674741E+03  0.77054255718E+03  0.00000000000E+00 0. -1.
         -1    1    1    2    0  501  0.71305916975E+01  0.34944468114E+02  0.69144816866E+03  0.69236733829E+03  0.00000000000E+00 0.  1.
</event>
<event>
 4    1  0.7060698E+001  0.4889224E+02  0.7546771E-02  0.1303048E+00
          2   -1    0    0  502    0  0.00000000000E+00  0.00000000000E+00  0.29184213382E+02  0.29184213382E+02  0.00000000000E+00 0.  1.
         -2   -1    0    0    0  501 -0.00000000000E+00 -0.00000000000E+00 -0.83182718747E+02  0.83182718747E+02  0.00000000000E+00 0. -1.
          1    1    1    2  502    0 -0.45720801440E+01  0.48677991429E+02 -0.33951459957E+02  0.59524384915E+02  0.00000000000E+00 0. -1.
         -1    1    1    2    0  501  0.45720801440E+01 -0.48677991429E+02 -0.20047045409E+02  0.52842547213E+02  0.00000000000E+00 0.  1.
</event>
<event>
 4    1  0.7060698E+001  0.2574651E+02  0.7546771E-02  0.1460623E+00
          2   -1    0    0  502    0  0.00000000000E+00  0.00000000000E+00  0.73889445213E+03  0.73889445213E+03  0.00000000000E+00 0.  1.
         -2   -1    0    0    0  501 -0.00000000000E+00 -0.00000000000E+00 -0.13723199664E+01  0.13723199664E+01  0.00000000000E+00 0. -1.
          1    1    1    2  502    0  0.96174749206E+01  0.23882778560E+02  0.15095744623E+03  0.15313730280E+03  0.00000000000E+00 0.  1.
         -1    1    1    2    0  501 -0.96174749206E+01 -0.23882778560E+02  0.58656468593E+03  0.58712946929E+03  0.00000000000E+00 0. -1.
</event>
<event>
 4    1  0.7060698E+001  0.2284208E+02  0.7546771E-02  0.1494491E+00
          2   -1    0    0  502    0  0.00000000000E+00  0.00000000000E+00  0.12074506053E+04  0.12074506053E+04  0.00000000000E+00 0. -1.
         -2   -1    0    0    0  501 -0.00000000000E+00 -0.00000000000E+00 -0.54035797772E+00  0.54035797772E+00  0.00000000000E+00 0.  1.
          1    1    1    2  502    0  0.22837085202E+02  0.47785492556E+00  0.33312944044E+03  0.33391164235E+03  0.00000000000E+00 0.  1.
         -1    1    1    2    0  501 -0.22837085202E+02 -0.47785492556E+00  0.87378080686E+03  0.87407932091E+03  0.00000000000E+00 0. -1.
</event>
<event>
 4    1  0.7060698E+001  0.2972765E+02  0.7546771E-02  0.1421978E+00
          2   -1    0    0  502    0  0.00000000000E+00  0.00000000000E+00  0.10907977278E+03  0.10907977278E+03  0.00000000000E+00 0. -1.
         -2   -1    0    0    0  501 -0.00000000000E+00 -0.00000000000E+00 -0.86426117403E+01  0.86426117403E+01  0.00000000000E+00 0.  1.
          1    1    1    2  502    0  0.21417337471E+02  0.20616272694E+02  0.64943889758E+02  0.71424378618E+02  0.00000000000E+00 0. -1.
         -1    1    1    2    0  501 -0.21417337471E+02 -0.20616272694E+02  0.35493271277E+02  0.46298005898E+02  0.00000000000E+00 0.  1.
</event>
<event>
 4    1  0.7060698E+001  0.2633515E+02  0.7546771E-02  0.1454403E+00
          2   -1    0    0  502    0  0.00000000000E+00  0.00000000000E+00  0.94685680425E+03  0.94685680425E+03  0.00000000000E+00 0. -1.
         -2   -1    0    0    0  501 -0.00000000000E+00 -0.00000000000E+00 -0.91221484005E+00  0.91221484005E+00  0.00000000000E+00 0.  1.
          1    1    1    2  502    0 -0.25846502681E+02 -0.50495889877E+01  0.26261505591E+03  0.26393220273E+03  0.00000000000E+00 0.  1.
         -1    1    1    2    0  501  0.25846502681E+02  0.50495889877E+01  0.68332953350E+03  0.68383681636E+03  0.00000000000E+00 0. -1.
</event>
<event>
 4    1  0.7060698E+001  0.2052977E+02  0.7546771E-02  0.1526086E+00
          2   -1    0    0  502    0  0.00000000000E+00  0.00000000000E+00  0.33811979494E+02  0.33811979494E+02  0.00000000000E+00 0. -1.
         -2   -1    0    0    0  501 -0.00000000000E+00 -0.00000000000E+00 -0.14483818365E+02  0.14483818365E+02  0.00000000000E+00 0.  1.
          1    1    1    2  502    0 -0.53508934573E+01 -0.19820176266E+02  0.18679172049E+02  0.27755772669E+02  0.00000000000E+00 0. -1.
         -1    1    1    2    0  501  0.53508934573E+01  0.19820176266E+02  0.64898907896E+00  0.20540025190E+02  0.00000000000E+00 0.  1.
</event>
<event>
 4    1  0.7060698E+001  0.2054575E+02  0.7546771E-02  0.1525850E+00
          2   -1    0    0  502    0  0.00000000000E+00  0.00000000000E+00  0.79791632846E+03  0.79791632846E+03  0.00000000000E+00 0. -1.
         -2   -1    0    0    0  501 -0.00000000000E+00 -0.00000000000E+00 -0.71379270766E+00  0.71379270766E+00  0.00000000000E+00 0.  1.
          1    1    1    2  502    0 -0.78230531221E+01  0.18998097096E+02  0.60175635222E+03  0.60210699654E+03  0.00000000000E+00 0. -1.
         -1    1    1    2    0  501  0.78230531221E+01 -0.18998097096E+02  0.19544618354E+03  0.19652312462E+03  0.00000000000E+00 0.  1.
</event>
<event>
 4    1  0.7060698E+001  0.2256887E+02  0.7546771E-02  0.1497984E+00
          2   -1    0    0  502    0  0.00000000000E+00  0.00000000000E+00  0.14952566561E+03  0.14952566561E+03  0.00000000000E+00 0. -1.
         -2   -1    0    0    0  501 -0.00000000000E+00 -0.00000000000E+00 -0.34747294579E+01  0.34747294579E+01  0.00000000000E+00 0.  1.
          1    1    1    2  502    0  0.22518968965E+02 -0.15000298978E+01  0.62302941863E+02  0.66264701144E+02  0.00000000000E+00 0.  1.
         -1    1    1    2    0  501 -0.22518968965E+02  0.15000298978E+01  0.83747994291E+02  0.86735693926E+02  0.00000000000E+00 0. -1.
</event>
<event>
 4    1  0.7060698E+001  0.3602007E+02  0.7546771E-02  0.1373530E+00
          2   -1    0    0  502    0  0.00000000000E+00  0.00000000000E+00  0.25965559582E+03  0.25965559582E+03  0.00000000000E+00 0.  1.
         -2   -1    0    0    0  501 -0.00000000000E+00 -0.00000000000E+00 -0.49968000200E+01  0.49968000200E+01  0.00000000000E+00 0. -1.
          1    1    1    2  502    0 -0.19063563802E+02 -0.30561836508E+02  0.12717480397E+03  0.13217744165E+03  0.00000000000E+00 0. -1.
         -1    1    1    2    0  501  0.19063563802E+02  0.30561836508E+02  0.12748399183E+03  0.13247495419E+03  0.00000000000E+00 0.  1.
</event>
<event>
 4    1  0.7060698E+001  0.2745860E+02  0.7546771E-02  0.1443055E+00
          2   -1    0    0  502    0  0.00000000000E+00  0.00000000000E+00  0.13058917820E+03  0.13058917820E+03  0.00000000000E+00 0. -1.
         -2   -1    0    0    0  501 -0.00000000000E+00 -0.00000000000E+00 -0.67109671844E+01  0.67109671844E+01  0.00000000000E+00 0.  1.
          1    1    1    2  502    0 -0.22253483661E+02  0.16085925197E+02  0.36282764382E+02  0.45501796840E+02  0.00000000000E+00 0.  1.
         -1    1    1    2    0  501  0.22253483661E+02 -0.16085925197E+02  0.87595446637E+02  0.91798348548E+02  0.00000000000E+00 0. -1.
</event>
<event>
 4    1  0.7060698E+001  0.2350139E+02  0.7546771E-02  0.1486296E+00
          2   -1    0    0  502    0  0.00000000000E+00  0.00000000000E+00  0.11767840051E+02  0.11767840051E+02  0.00000000000E+00 0.  1.
         -2   -1    0    0    0  501 -0.00000000000E+00 -0.00000000000E+00 -0.49677856482E+02  0.49677856482E+02  0.00000000000E+00 0. -1.
          1    1    1    2  502    0 -0.13950516441E+02  0.18912917978E+02 -0.26175000522E+02  0.35177351062E+02  0.00000000000E+00 0. -1.
         -1    1    1    2    0  501  0.13950516441E+02 -0.18912917978E+02 -0.11735015908E+02  0.26268345471E+02  0.00000000000E+00 0.  1.
</event>
<event>
 4    1  0.7060698E+001  0.2478974E+02  0.7546771E-02  0.1471169E+00
          2   -1    0    0  502    0  0.00000000000E+00  0.00000000000E+00  0.44015264265E+02  0.44015264265E+02  0.00000000000E+00 0. -1.
         -2   -1    0    0    0  501 -0.00000000000E+00 -0.00000000000E+00 -0.13978127152E+02  0.13978127152E+02  0.00000000000E+00 0.  1.
          1    1    1    2  502    0  0.16288175171E+02  0.18687597849E+02  0.16010513623E+02  0.29510464420E+02  0.00000000000E+00 0. -1.
         -1    1    1    2    0  501 -0.16288175171E+02 -0.18687597849E+02  0.14026623490E+02  0.28482926997E+02  0.00000000000E+00 0.  1.
</event>
<event>
 4    1  0.7060698E+001  0.3799014E+02  0.7546771E-02  0.1360684E+00
          2   -1    0    0  502    0  0.00000000000E+00  0.00000000000E+00  0.23865663303E+04  0.23865663303E+04  0.00000000000E+00 0. -1.
         -2   -1    0    0    0  501 -0.00000000000E+00 -0.00000000000E+00 -0.62794377634E+00  0.62794377634E+00  0.00000000000E+00 0.  1.
          1    1    1    2  502    0  0.19195976221E+01  0.37941615321E+02  0.14224154700E+04  0.14229227036E+04  0.00000000000E+00 0. -1.
         -1    1    1    2    0  501 -0.19195976221E+01 -0.37941615321E+02  0.96352291647E+03  0.96427157046E+03  0.00000000000E+00 0.  1.
</event>
<event>
 4    1  0.7060698E+001  0.3275746E+02  0.7546771E-02  0.1397054E+00
          2   -1    0    0  502    0  0.00000000000E+00  0.00000000000E+00  0.22704548192E+04  0.22704548192E+04  0.00000000000E+00 0.  1.
         -2   -1    0    0    0  501 -0.00000000000E+00 -0.00000000000E+00 -0.48829748580E+00  0.48829748580E+00  0.00000000000E+00 0. -1.
          1    1    1    2  502    0 -0.25858641300E+02 -0.20109254895E+02  0.93149532109E+03  0.93207112640E+03  0.00000000000E+00 0. -1.
         -1    1    1    2    0  501  0.25858641300E+02  0.20109254895E+02  0.13384712006E+04  0.13388719903E+04  0.00000000000E+00 0.  1.
</event>
<event>
 4    1  0.7060698E+001  0.2103715E+02  0.7546771E-02  0.1518735E+00
          2   -1    0    0  502    0  0.00000000000E+00  0.00000000000E+00  0.30537857256E+03  0.30537857256E+03  0.00000000000E+00 0. -1.
         -2   -1    0    0    0  501 -0.00000000000E+00 -0.00000000000E+00 -0.17581857372E+01  0.17581857372E+01  0.00000000000E+00 0.  1.
          1    1    1    2  502    0 -0.13984443072E+02 -0.15716144226E+02  0.87434481122E+02  0.89929696577E+02  0.00000000000E+00 0.  1.
         -1    1    1    2    0  501  0.13984443072E+02  0.15716144226E+02  0.21618590570E+03  0.21720706172E+03  0.00000000000E+00 0. -1.
</event>
<event>
 4    1  0.7060698E+001  0.2565577E+02  0.7546771E-02  0.1461599E+00
          2   -1    0    0  502    0  0.00000000000E+00  0.00000000000E+00  0.66914571297E+01  0.66914571297E+01  0.00000000000E+00 0.  1.
         -2   -1    0    0    0  501 -0.00000000000E+00 -0.00000000000E+00 -0.10207152362E+03  0.10207152362E+03  0.00000000000E+00 0. -1.
          1    1    1    2  502    0 -0.98334841104E+01 -0.23696436946E+02 -0.58050164355E+02  0.63466842645E+02  0.00000000000E+00 0.  1.
         -1    1    1    2    0  501  0.98334841104E+01  0.23696436946E+02 -0.37329902133E+02  0.45296138102E+02  0.00000000000E+00 0. -1.
</event>
<event>
 4    1  0.7060698E+001  0.2130278E+02  0.7546771E-02  0.1514986E+00
          2   -1    0    0  502    0  0.00000000000E+00  0.00000000000E+00  0.11676182488E+02  0.11676182488E+02  0.00000000000E+00 0.  1.
         -2   -1    0    0    0  501 -0.00000000000E+00 -0.00000000000E+00 -0.49452130639E+02  0.49452130639E+02  0.00000000000E+00 0. -1.
          1    1    1    2  502    0  0.21254932039E+02  0.14269964778E+01 -0.33029136708E+02  0.39303082915E+02  0.00000000000E+00 0. -1.
         -1    1    1    2    0  501 -0.21254932039E+02 -0.14269964778E+01 -0.47468114428E+01  0.21825230212E+02  0.00000000000E+00 0.  1.
</event>
<event>
 4    1  0.7060698E+001  0.2228864E+02  0.7546771E-02  0.1501629E+00
          2   -1    0    0  502    0  0.00000000000E+00  0.00000000000E+00  0.10710056016E+03  0.10710056016E+03  0.00000000000E+00 0. -1.
         -2   -1    0    0    0  501 -0.00000000000E+00 -0.00000000000E+00 -0.69895207403E+01  0.69895207403E+01  0.00000000000E+00 0.  1.
          1    1    1    2  502    0 -0.16714133926E+02 -0.14745212720E+02  0.83140011953E+02  0.86075810531E+02  0.00000000000E+00 0. -1.
         -1    1    1    2    0  501  0.16714133926E+02  0.14745212720E+02  0.16971027469E+02  0.28014270371E+02  0.00000000000E+00 0.  1.
</event>
<event>
 4    1  0.7060698E+001  0.5844513E+02  0.7546771E-02  0.1265209E+00
          2   -1    0    0  502    0  0.00000000000E+00  0.00000000000E+00  0.15334309419E+04  0.15334309419E+04  0.00000000000E+00 0. -1.
         -2   -1    0    0    0  501 -0.00000000000E+00 -0.00000000000E+00 -0.31426337511E+01  0.31426337511E+01  0.00000000000E+00 0.  1.
          1    1    1    2  502    0  0.44419376993E+02  0.37983583541E+02  0.11797169275E+04  0.11811637747E+04  0.00000000000E+00 0.  1.
         -1    1    1    2    0  501 -0.44419376993E+02 -0.37983583541E+02  0.35057138069E+03  0.35540980097E+03  0.00000000000E+00 0. -1.
</event>
<event>
 4    1  0.7060698E+001  0.3500252E+02  0.7546771E-02  0.1380546E+00
          2   -1    0    0  502    0  0.00000000000E+00  0.00000000000E+00  0.16348688141E+02  0.16348688141E+02  0.00000000000E+00 0.  1.
         -2   -1    0    0    0  501 -0.00000000000E+00 -0.00000000000E+00 -0.83888426347E+02  0.83888426347E+02  0.00000000000E+00 0. -1.
          1    1    1    2  502    0 -0.15220712754E+02  0.31519931917E+02 -0.50138512363E+02  0.61147744249E+02  0.00000000000E+00 0. -1.
         -1    1    1    2    0  501  0.15220712754E+02 -0.31519931917E+02 -0.17401225844E+02  0.39089370239E+02  0.00000000000E+00 0.  1.
</event>
<event>
 4    1  0.7060698E+001  0.5011910E+02  0.7546771E-02  0.1297657E+00
          2   -1    0    0  502    0  0.00000000000E+00  0.00000000000E+00  0.32048689957E+02  0.32048689957E+02  0.00000000000E+00 0.  1.
         -2   -1    0    0    0  501 -0.00000000000E+00 -0.00000000000E+00 -0.86240512088E+02  0.86240512088E+02  0.00000000000E+00 0. -1.
          1    1    1    2  502    0  0.16494329523E+02 -0.47327171510E+02 -0.44953790884E+02  0.67325829994E+02  0.00000000000E+00 0. -1.
         -1    1    1    2    0  501 -0.16494329523E+02  0.47327171510E+02 -0.92380312462E+01  0.50963372051E+02  0.00000000000E+00 0.  1.
</event>
<event>
 4    1  0.7060698E+001  0.3831235E+02  0.7546771E-02  0.1358670E+00
          2   -1    0    0  502    0  0.00000000000E+00  0.00000000000E+00  0.20226064558E+02  0.20226064558E+02  0.00000000000E+00 0. -1.
         -2   -1    0    0    0  501 -0.00000000000E+00 -0.00000000000E+00 -0.72781159041E+02  0.72781159041E+02  0.00000000000E+00 0.  1.
          1    1    1    2  502    0  0.37670562117E+02 -0.69831953807E+01 -0.23781732821E+02  0.45093315291E+02  0.00000000000E+00 0. -1.
         -1    1    1    2    0  501 -0.37670562117E+02  0.69831953807E+01 -0.28773361663E+02  0.47913908308E+02  0.00000000000E+00 0.  1.
</event>
<event>
 4    1  0.7060698E+001  0.2008785E+02  0.7546771E-02  0.1532697E+00
          2   -1    0    0  502    0  0.00000000000E+00  0.00000000000E+00  0.27957268618E+01  0.27957268618E+01  0.00000000000E+00 0.  1.
         -2   -1    0    0    0  501 -0.00000000000E+00 -0.00000000000E+00 -0.14434687078E+03  0.14434687078E+03  0.00000000000E+00 0. -1.
          1    1    1    2  502    0 -0.13541687611E+02  0.14837261143E+02 -0.70112270646E+02  0.72933203115E+02  0.00000000000E+00 0.  1.
         -1    1    1    2    0  501  0.13541687611E+02 -0.14837261143E+02 -0.71438873275E+02  0.74209394529E+02  0.00000000000E+00 0. -1.
</event>
<event>
 4    1  0.7060698E+001  0.4208549E+02  0.7546771E-02  0.1336680E+00
          2   -1    0    0  502    0  0.00000000000E+00  0.00000000000E+00  0.12917127083E+04  0.12917127083E+04  0.00000000000E+00 0.  1.
         -2   -1    0    0    0  501 -0.00000000000E+00 -0.00000000000E+00 -0.15077035431E+01  0.15077035431E+01  0.00000000000E+00 0. -1.
          1    1    1    2  502    0  0.54505382628E+00  0.42081963214E+02  0.45053688854E+03  0.45249826148E+03  0.00000000000E+00 0. -1.
         -1    1    1    2    0  501 -0.54505382628E+00 -0.42081963214E+02  0.83966811624E+03  0.84072215038E+03  0.00000000000E+00 0.  1.
</event>
<event>
 4    1  0.7060698E+001  0.2764154E+02  0.7546771E-02  0.1441268E+00
          2   -1    0    0  502    0  0.00000000000E+00  0.00000000000E+00  0.10957066591E+03  0.10957066591E+03  0.00000000000E+00 0. -1.
         -2   -1    0    0    0  501 -0.00000000000E+00 -0.00000000000E+00 -0.69773392640E+01  0.69773392640E+01  0.00000000000E+00 0.  1.
          1    1    1    2  502    0 -0.27629971823E+02  0.79975709510E+00  0.52721038779E+02  0.59527832854E+02  0.00000000000E+00 0. -1.
         -1    1    1    2    0  501  0.27629971823E+02 -0.79975709510E+00  0.49872287866E+02  0.57020172319E+02  0.00000000000E+00 0.  1.
</event>
<event>
 4    1  0.7060698E+001  0.2222559E+02  0.7546771E-02  0.1502458E+00
          2   -1    0    0  502    0  0.00000000000E+00  0.00000000000E+00  0.12902709840E+01  0.12902709840E+01  0.00000000000E+00 0. -1.
         -2   -1    0    0    0  501 -0.00000000000E+00 -0.00000000000E+00 -0.41263710291E+03  0.41263710291E+03  0.00000000000E+00 0.  1.
          1    1    1    2  502    0  0.44217162961E+01  0.21781302224E+02 -0.15006453269E+03  0.15170148540E+03  0.00000000000E+00 0. -1.
         -1    1    1    2    0  501 -0.44217162961E+01 -0.21781302224E+02 -0.26128229923E+03  0.26222588849E+03  0.00000000000E+00 0.  1.
</event>
<event>
 4    1  0.7060698E+001  0.2264316E+02  0.7546771E-02  0.1497028E+00
          2   -1    0    0  502    0  0.00000000000E+00  0.00000000000E+00  0.75790262095E+03  0.75790262095E+03  0.00000000000E+00 0.  1.
         -2   -1    0    0    0  501 -0.00000000000E+00 -0.00000000000E+00 -0.12155029867E+01  0.12155029867E+01  0.00000000000E+00 0. -1.
          1    1    1    2  502    0 -0.10648601389E+02 -0.19982995686E+02  0.63109948376E+03  0.63150555914E+03  0.00000000000E+00 0.  1.
         -1    1    1    2    0  501  0.10648601389E+02  0.19982995686E+02  0.12558763420E+03  0.12761256479E+03  0.00000000000E+00 0. -1.
</event>
<event>
 4    1  0.7060698E+001  0.5715940E+02  0.7546771E-02  0.1269802E+00
          2   -1    0    0  502    0  0.00000000000E+00  0.00000000000E+00  0.71015930574E+03  0.71015930574E+03  0.00000000000E+00 0. -1.
         -2   -1    0    0    0  501 -0.00000000000E+00 -0.00000000000E+00 -0.61184432851E+01  0.61184432851E+01  0.00000000000E+00 0.  1.
          1    1    1    2  502    0  0.26362897859E+00  0.57158787816E+02  0.17364424156E+03  0.18281006305E+03  0.00000000000E+00 0.  1.
         -1    1    1    2    0  501 -0.26362897859E+00 -0.57158787816E+02  0.53039662089E+03  0.53346768597E+03  0.00000000000E+00 0. -1.
</event>
<event>
 4    1  0.7060698E+001  0.2537883E+02  0.7546771E-02  0.1464610E+00
          2   -1    0    0  502    0  0.00000000000E+00  0.00000000000E+00  0.46316047679E+01  0.46316047679E+01  0.00000000000E+00 0.  1.
         -2   -1    0    0    0  501 -0.00000000000E+00 -0.00000000000E+00 -0.14013146327E+03  0.14013146327E+03  0.00000000000E+00 0. -1.
          1    1    1    2  502    0  0.17731839288E+02 -0.18156732588E+02 -0.74070125806E+02  0.78297309020E+02  0.00000000000E+00 0.  1.
         -1    1    1    2    0  501 -0.17731839288E+02  0.18156732588E+02 -0.61429732697E+02  0.66465759020E+02  0.00000000000E+00 0. -1.
</event>
<event>
 4    1  0.7060698E+001  0.2756430E+02  0.7546771E-02  0.1442021E+00
          2   -1    0    0  502    0  0.00000000000E+00  0.00000000000E+00  0.11723772685E+03  0.11723772685E+03  0.00000000000E+00 0. -1.
         -2   -1    0    0    0  501 -0.00000000000E+00 -0.00000000000E+00 -0.64809050656E+01  0.64809050656E+01  0.00000000000E+00 0.  1.
          1    1    1    2  502    0 -0.27315692397E+02 -0.36937032914E+01  0.55093811996E+02  0.61604534048E+02  0.00000000000E+00 0.  1.
         -1    1    1    2    0  501  0.27315692397E+02  0.36937032914E+01  0.55663009791E+02  0.62114097869E+02  0.00000000000E+00 0. -1.
</event>
<event>
 4    1  0.7060698E+001  0.2176276E+02  0.7546771E-02  0.1508647E+00
          2   -1    0    0  502    0  0.00000000000E+00  0.00000000000E+00  0.82490778368E+03  0.82490778368E+03  0.00000000000E+00 0. -1.
         -2   -1    0    0    0  501 -0.00000000000E+00 -0.00000000000E+00 -0.57557133866E+00  0.57557133866E+00  0.00000000000E+00 0.  1.
          1    1    1    2  502    0  0.21762553384E+02  0.95768009038E-01  0.43270204011E+03  0.43324897393E+03  0.00000000000E+00 0. -1.
         -1    1    1    2    0  501 -0.21762553384E+02 -0.95768009038E-01  0.39163017223E+03  0.39223438108E+03  0.00000000000E+00 0.  1.
</event>
<event>
 4    1  0.7060698E+001  0.2133803E+02  0.7546771E-02  0.1514493E+00
          2   -1    0    0  502    0  0.00000000000E+00  0.00000000000E+00  0.28749234881E+04  0.28749234881E+04  0.00000000000E+00 0. -1.
         -2   -1    0    0    0  501 -0.00000000000E+00 -0.00000000000E+00 -0.15869774068E+00  0.15869774068E+00  0.00000000000E+00 0.  1.
          1    1    1    2  502    0  0.13940989551E+02  0.16154264867E+02  0.13723959647E+04  0.13725618366E+04  0.00000000000E+00 0. -1.
         -1    1    1    2    0  501 -0.13940989551E+02 -0.16154264867E+02  0.15023688257E+04  0.15025203493E+04  0.00000000000E+00 0.  1.
</event>
<event>
 4    1  0.7060698E+001  0.2059795E+02  0.7546771E-02  0.1525083E+00
          2   -1    0    0  502    0  0.00000000000E+00  0.00000000000E+00  0.10776550998E+04  0.10776550998E+04  0.00000000000E+00 0.  1.
         -2   -1    0    0    0  501 -0.00000000000E+00 -0.00000000000E+00 -0.42409035169E+00  0.42409035169E+00  0.00000000000E+00 0. -1.
          1    1    1    2  502    0 -0.97787199780E+01  0.18128762335E+02  0.39432350317E+03  0.39486111551E+03  0.00000000000E+00 0. -1.
         -1    1    1    2    0  501  0.97787199780E+01 -0.18128762335E+02  0.68290750633E+03  0.68321807469E+03  0.00000000000E+00 0.  1.
</event>
<event>
 4    1  0.7060698E+001  0.2254735E+02  0.7546771E-02  0.1498262E+00
          2   -1    0    0  502    0  0.00000000000E+00  0.00000000000E+00  0.56945886592E+01  0.56945886592E+01  0.00000000000E+00 0.  1.
         -2   -1    0    0    0  501 -0.00000000000E+00 -0.00000000000E+00 -0.92822085855E+02  0.92822085855E+02  0.00000000000E+00 0. -1.
          1    1    1    2  502    0  0.22412317979E+02 -0.24639580180E+01 -0.53193256324E+02  0.57774610380E+02  0.00000000000E+00 0.  1.
         -1    1    1    2    0  501 -0.22412317979E+02  0.24639580180E+01 -0.33934240872E+02  0.40742064134E+02  0.00000000000E+00 0. -1.
</event>
<event>
 4    1  0.7060698E+001  0.2521666E+02  0.7546771E-02  0.1466394E+00
          2   -1    0    0  502    0  0.00000000000E+00  0.00000000000E+00  0.55808718000E+03  0.55808718000E+03  0.00000000000E+00 0.  1.
         -2   -1    0    0    0  501 -0.00000000000E+00 -0.00000000000E+00 -0.34519157745E+01  0.34519157745E+01  0.00000000000E+00 0. -1.
          1    1    1    2  502    0 -0.22531119903E+01 -0.25115797623E+02  0.47510737036E+02  0.53788009236E+02  0.00000000000E+00 0. -1.
         -1    1    1    2    0  501  0.22531119903E+01  0.25115797623E+02  0.50712452719E+03  0.50775108654E+03  0.00000000000E+00 0.  1.
</event>
<event>
 4    1  0.7060698E+001  0.4961385E+02  0.7546771E-02  0.1299855E+00
          2   -1    0    0  502    0  0.00000000000E+00  0.00000000000E+00  0.72727472982E+02  0.72727472982E+02  0.00000000000E+00 0.  1.
         -2   -1    0    0    0  501 -0.00000000000E+00 -0.00000000000E+00 -0.34052475492E+02  0.34052475492E+02  0.00000000000E+00 0. -1.
          1    1    1    2  502    0 -0.14596768831E+02 -0.47418013555E+02  0.15180067000E+02  0.51884179707E+02  0.00000000000E+00 0. -1.
         -1    1    1    2    0  501  0.14596768831E+02  0.47418013555E+02  0.23494930491E+02  0.54895768767E+02  0.00000000000E+00 0.  1.
</event>
<event>
 4    1  0.7060698E+001  0.3096294E+02  0.7546771E-02  0.1411409E+00
          2   -1    0    0  502    0  0.00000000000E+00  0.00000000000E+00  0.54148616530E+02  0.54148616530E+02  0.00000000000E+00 0.  1.
         -2   -1    0    0    0  501 -0.00000000000E+00 -0.00000000000E+00 -0.21467292680E+02  0.21467292680E+02  0.00000000000E+00 0. -1.
          1    1    1    2  502    0 -0.30837710098E+02 -0.27820103678E+01  0.32168367594E+02  0.44648715765E+02  0.00000000000E+00 0.  1.
         -1    1    1    2    0  501  0.30837710098E+02  0.27820103678E+01  0.51295625575E+00  0.30967193445E+02  0.00000000000E+00 0. -1.
</event>
<event>
 4    1  0.7060698E+001  0.2286269E+02  0.7546771E-02  0.1494230E+00
          2   -1    0    0  502    0  0.00000000000E+00  0.00000000000E+00  0.32160347496E+02  0.32160347496E+02  0.00000000000E+00 0. -1.
         -2   -1    0    0    0  501 -0.00000000000E+00 -0.00000000000E+00 -0.16500205302E+02  0.16500205302E+02  0.00000000000E+00 0.  1.
          1    1    1    2  502    0 -0.49691810698E+01  0.22316136230E+02  0.48521326208E+01  0.23371903810E+02  0.00000000000E+00 0.  1.
         -1    1    1    2    0  501  0.49691810698E+01 -0.22316136230E+02  0.10808009573E+02  0.25288648988E+02  0.00000000000E+00 0. -1.
</event>
<event>
 4    1  0.7060698E+001  0.2044160E+02  0.7546771E-02  0.1527389E+00
          2   -1    0    0  502    0  0.00000000000E+00  0.00000000000E+00  0.24730232264E+04  0.24730232264E+04  0.00000000000E+00 0.  1.
         -2   -1    0    0    0  501 -0.00000000000E+00 -0.00000000000E+00 -0.17216002696E+00  0.17216002696E+00  0.00000000000E+00 0. -1.
          1    1    1    2  502    0 -0.16855580856E+02 -0.11564963573E+02  0.14048373486E+04  0.14049860622E+04  0.00000000000E+00 0.  1.
         -1    1    1    2    0  501  0.16855580856E+02  0.11564963573E+02  0.10680137178E+04  0.10682093242E+04  0.00000000000E+00 0. -1.
</event>
<event>
 4    1  0.7060698E+001  0.2994623E+02  0.7546771E-02  0.1420064E+00
          2   -1    0    0  502    0  0.00000000000E+00  0.00000000000E+00  0.14021786166E+04  0.14021786166E+04  0.00000000000E+00 0. -1.
         -2   -1    0    0    0  501 -0.00000000000E+00 -0.00000000000E+00 -0.10637113533E+01  0.10637113533E+01  0.00000000000E+00 0.  1.
          1    1    1    2  502    0 -0.19640108627E+02 -0.22606254260E+02  0.11436061751E+04  0.11439981907E+04  0.00000000000E+00 0. -1.
         -1    1    1    2    0  501  0.19640108627E+02  0.22606254260E+02  0.25750873019E+03  0.25924413730E+03  0.00000000000E+00 0.  1.
</event>
<event>
 4    1  0.7060698E+001  0.4830962E+02  0.7546771E-02  0.1305672E+00
          2   -1    0    0  502    0  0.00000000000E+00  0.00000000000E+00  0.29877960717E+02  0.29877960717E+02  0.00000000000E+00 0. -1.
         -2   -1    0    0    0  501 -0.00000000000E+00 -0.00000000000E+00 -0.10005305360E+03  0.10005305360E+03  0.00000000000E+00 0.  1.
          1    1    1    2  502    0 -0.47117846811E+02  0.10664349793E+02 -0.46647692196E+01  0.48534316895E+02  0.00000000000E+00 0. -1.
         -1    1    1    2    0  501  0.47117846811E+02 -0.10664349793E+02 -0.65510323665E+02  0.81396697423E+02  0.00000000000E+00 0.  1.
</event>
<event>
 4    1  0.7060698E+001  0.2221506E+02  0.7546771E-02  0.1502597E+00
          2   -1    0    0  502    0  0.00000000000E+00  0.00000000000E+00  0.39705517834E+01  0.39705517834E+01  0.00000000000E+00 0. -1.
         -2   -1    0    0    0  501 -0.00000000000E+00 -0.00000000000E+00 -0.12781516781E+03  0.12781516781E+03  0.00000000000E+00 0.  1.
          1    1    1    2  502    0 -0.74269208832E+01  0.20936805935E+02 -0.72861760706E+02  0.76173126296E+02  0.00000000000E+00 0.  1.
         -1    1    1    2    0  501  0.74269208832E+01 -0.20936805935E+02 -0.50982855319E+02  0.55612593295E+02  0.00000000000E+00 0. -1.
</event>
<event>
 4    1  0.7060698E+001  0.2629807E+02  0.7546771E-02  0.1454789E+00
          2   -1    0    0  502    0  0.00000000000E+00  0.00000000000E+00  0.49264611878E+01  0.49264611878E+01  0.00000000000E+00 0.  1.
         -2   -1    0    0    0  501 -0.00000000000E+00 -0.00000000000E+00 -0.16067803219E+03  0.16067803219E+03  0.00000000000E+00 0. -1.
          1    1    1    2  502    0 -0.57744454001E+01 -0.25656268716E+02 -0.48447471610E+02  0.55124820630E+02  0.00000000000E+00 0.  1.
         -1    1    1    2    0  501  0.57744454001E+01  0.25656268716E+02 -0.10730409939E+03  0.11047967274E+03  0.00000000000E+00 0. -1.
</event>
<event>
 4    1  0.7060698E+001  0.5084036E+02  0.7546771E-02  0.1294569E+00
          2   -1    0    0  502    0  0.00000000000E+00  0.00000000000E+00  0.58243610795E+02  0.58243610795E+02  0.00000000000E+00 0. -1.
         -2   -1    0    0    0  501 -0.00000000000E+00 -0.00000000000E+00 -0.58116056406E+02  0.58116056406E+02  0.00000000000E+00 0.  1.
          1    1    1    2  502    0 -0.46192750453E+02 -0.21236107865E+02 -0.28223100684E+02  0.58148825301E+02  0.00000000000E+00 0.  1.
         -1    1    1    2    0  501  0.46192750453E+02  0.21236107865E+02  0.28350655074E+02  0.58210841900E+02  0.00000000000E+00 0. -1.
</event>
<event>
 4    1  0.7060698E+001  0.5071758E+02  0.7546771E-02  0.1295091E+00
          2   -1    0    0  502    0  0.00000000000E+00  0.00000000000E+00  0.18804697537E+04  0.18804697537E+04  0.00000000000E+00 0. -1.
         -2   -1    0    0    0  501 -0.00000000000E+00 -0.00000000000E+00 -0.14559215045E+01  0.14559215045E+01  0.00000000000E+00 0.  1.
          1    1    1    2  502    0  0.48928862952E+02  0.13350616790E+02  0.11708873948E+04  0.11719853088E+04  0.00000000000E+00 0.  1.
         -1    1    1    2    0  501 -0.48928862952E+02 -0.13350616790E+02  0.70812643734E+03  0.70994036641E+03  0.00000000000E+00 0. -1.
</event>
<event>
 4    1  0.7060698E+001  0.2430022E+02  0.7546771E-02  0.1476786E+00
          2   -1    0    0  502    0  0.00000000000E+00  0.00000000000E+00  0.59512679687E+01  0.59512679687E+01  0.00000000000E+00 0. -1.
         -2   -1    0    0    0  501 -0.00000000000E+00 -0.00000000000E+00 -0.16807376742E+03  0.16807376742E+03  0.00000000000E+00 0.  1.
          1    1    1    2  502    0  0.23849433483E+02  0.46588895392E+01 -0.13675252775E+03  0.13889476079E+03  0.00000000000E+00 0. -1.
         -1    1    1    2    0  501 -0.23849433483E+02 -0.46588895392E+01 -0.25369971702E+02  0.35130274599E+02  0.00000000000E+00 0.  1.
</event>
<event>
 4    1  0.7060698E+001  0.2053866E+02  0.7546771E-02  0.1525955E+00
          2   -1    0    0  502    0  0.00000000000E+00  0.00000000000E+00  0.21658217257E+02  0.21658217257E+02  0.00000000000E+00 0.  1.
         -2   -1    0    0    0  501 -0.00000000000E+00 -0.00000000000E+00 -0.20676849314E+02  0.20676849314E+02  0.00000000000E+00 0. -1.
          1    1    1    2  502    0 -0.76348356991E+01  0.19066881281E+02 -0.46084324734E+01  0.21049330816E+02  0.00000000000E+00 0. -1.
         -1    1    1    2    0  501  0.76348356991E+01 -0.19066881281E+02  0.55898004162E+01  0.21285735755E+02  0.00000000000E+00 0.  1.
</event>
<event>
 4    1  0.7060698E+001  0.2080137E+02  0.7546771E-02  0.1522120E+00
          2   -1    0    0  502    0  0.00000000000E+00  0.00000000000E+00  0.23988284590E+01  0.23988284590E+01  0.00000000000E+00 0.  1.
         -2   -1    0    0    0  501 -0.00000000000E+00 -0.00000000000E+00 -0.18817917892E+03  0.18817917892E+03  0.00000000000E+00 0. -1.
          1    1    1    2  502    0  0.10013545908E+02  0.18232547927E+02 -0.73489126007E+02  0.76376361178E+02  0.00000000000E+00 0.  1.
         -1    1    1    2    0  501 -0.10013545908E+02 -0.18232547927E+02 -0.11229122446E+03  0.11420164620E+03  0.00000000000E+00 0. -1.
</event>
<event>
 4    1  0.7060698E+001  0.2222609E+02  0.7546771E-02  0.1502452E+00
          2   -1    0    0  502    0  0.00000000000E+00  0.00000000000E+00  0.12224013119E+04  0.12224013119E+04  0.00000000000E+00 0.  1.
         -2   -1    0    0    0  501 -0.00000000000E+00 -0.00000000000E+00 -0.76442297342E+00  0.76442297342E+00  0.00000000000E+00 0. -1.
          1    1    1    2  502    0 -0.12885751090E+02 -0.18109569579E+02  0.19094225438E+03  0.19223148441E+03  0.00000000000E+00 0. -1.
         -1    1    1    2    0  501  0.12885751090E+02  0.18109569579E+02  0.10306946345E+04  0.10309342504E+04  0.00000000000E+00 0.  1.
</event>
<event>
 4    1  0.7060698E+001  0.3114832E+02  0.7546771E-02  0.1409873E+00
          2   -1    0    0  502    0  0.00000000000E+00  0.00000000000E+00  0.18971881417E+04  0.18971881417E+04  0.00000000000E+00 0. -1.
         -2   -1    0    0    0  501 -0.00000000000E+00 -0.00000000000E+00 -0.91102163717E+00  0.91102163717E+00  0.00000000000E+00 0.  1.
          1    1    1    2  502    0 -0.12253746896E+02  0.28636752721E+02  0.31957351377E+03  0.32108791416E+03  0.00000000000E+00 0.  1.
         -1    1    1    2    0  501  0.12253746896E+02 -0.28636752721E+02  0.15767036063E+04  0.15770112492E+04  0.00000000000E+00 0. -1.
</event>
<event>
 4    1  0.7060698E+001  0.2257817E+02  0.7546771E-02  0.1497864E+00
          2   -1    0    0  502    0  0.00000000000E+00  0.00000000000E+00  0.41736356451E+03  0.41736356451E+03  0.00000000000E+00 0.  1.
         -2   -1    0    0    0  501 -0.00000000000E+00 -0.00000000000E+00 -0.15573685489E+01  0.15573685489E+01  0.00000000000E+00 0. -1.
          1    1    1    2  502    0  0.19385124387E+02  0.11575442903E+02  0.11061800891E+03  0.11289870602E+03  0.00000000000E+00 0. -1.
         -1    1    1    2    0  501 -0.19385124387E+02 -0.11575442903E+02  0.30518818705E+03  0.30602222704E+03  0.00000000000E+00 0.  1.
</event>
<event>
 4    1  0.7060698E+001  0.2903560E+02  0.7546771E-02  0.1428166E+00
          2   -1    0    0  502    0  0.00000000000E+00  0.00000000000E+00  0.13346698529E+03  0.13346698529E+03  0.00000000000E+00 0. -1.
         -2   -1    0    0    0  501 -0.00000000000E+00 -0.00000000000E+00 -0.68303030852E+01  0.68303030852E+01  0.00000000000E+00 0.  1.
          1    1    1    2  502    0  0.17098018507E+02  0.23467500635E+02  0.82554980636E+02  0.87512231436E+02  0.00000000000E+00 0. -1.
         -1    1    1    2    0  501 -0.17098018507E+02 -0.23467500635E+02  0.44081701569E+02  0.52785056940E+02  0.00000000000E+00 0.  1.
</event>
<event>
 4    1  0.7060698E+001  0.3254877E+02  0.7546771E-02  0.1398667E+00
          2   -1    0    0  502    0  0.00000000000E+00  0.00000000000E+00  0.84536873340E+01  0.84536873340E+01  0.00000000000E+00 0. -1.
         -2   -1    0    0    0  501 -0.00000000000E+00 -0.00000000000E+00 -0.13326329881E+03  0.13326329881E+03  0.00000000000E+00 0.  1.
          1    1    1    2  502    0  0.32401076049E+02  0.30972166355E+01 -0.79703624124E+02  0.86093496726E+02  0.00000000000E+00 0. -1.
         -1    1    1    2    0  501 -0.32401076049E+02 -0.30972166355E+01 -0.45105987351E+02  0.55623489417E+02  0.00000000000E+00 0.  1.
</event>
<event>
 4    1  0.7060698E+001  0.2400758E+02  0.7546771E-02  0.1480219E+00
          2   -1    0    0  502    0  0.00000000000E+00  0.00000000000E+00  0.65975729207E+02  0.65975729207E+02  0.00000000000E+00 0. -1.
         -2   -1    0    0    0  501 -0.00000000000E+00 -0.00000000000E+00 -0.89633125880E+01  0.89633125880E+01  0.00000000000E+00 0.  1.
          1    1    1    2  502    0 -0.23764519076E+02 -0.34075852788E+01  0.34473195702E+02  0.42009108848E+02  0.00000000000E+00 0. -1.
         -1    1    1    2    0  501  0.23764519076E+02  0.34075852788E+01  0.22539220917E+02  0.32929932947E+02  0.00000000000E+00 0.  1.
</event>
<event>
 4    1  0.7060698E+001  0.3302023E+02  0.7546771E-02  0.1395043E+00
          2   -1    0    0  502    0  0.00000000000E+00  0.00000000000E+00  0.25339930233E+03  0.25339930233E+03  0.00000000000E+00 0.  1.
         -2   -1    0    0    0  501 -0.00000000000E+00 -0.00000000000E+00 -0.43040049953E+01  0.43040049953E+01  0.00000000000E+00 0. -1.
          1    1    1    2  502    0 -0.27905786827E+02 -0.17652274596E+02  0.12242445658E+03  0.12679938212E+03  0.00000000000E+00 0.  1.
         -1    1    1    2    0  501  0.27905786827E+02  0.17652274596E+02  0.12667084075E+03  0.13090392520E+03  0.00000000000E+00 0. -1.
</event>
<event>
 4    1  0.7060698E+001  0.3437404E+02  0.7546771E-02  0.1385018E+00
          2   -1    0    0  502    0  0.00000000000E+00  0.00000000000E+00  0.54476388340E+03  0.54476388340E+03  0.00000000000E+00 0. -1.
         -2   -1    0    0    0  501 -0.00000000000E+00 -0.00000000000E+00 -0.56467078698E+01  0.56467078698E+01  0.00000000000E+00 0.  1.
          1    1    1    2  502    0 -0.43284332840E+01  0.34100430014E+02  0.48553571572E+03  0.48675096908E+03  0.00000000000E+00 0. -1.
         -1    1    1    2    0  501  0.43284332840E+01 -0.34100430014E+02  0.53581459810E+02  0.63659622189E+02  0.00000000000E+00 0.  1.
</event>
<event>
 4    1  0.7060698E+001  0.6774981E+02  0.7546771E-02  0.1235555E+00
          2   -1    0    0  502    0  0.00000000000E+00  0.00000000000E+00  0.53220738603E+02  0.53220738603E+02  0.00000000000E+00 0. -1.
         -2   -1    0    0    0  501 -0.00000000000E+00 -0.00000000000E+00 -0.88164710707E+02  0.88164710707E+02  0.00000000000E+00 0.  1.
          1    1    1    2  502    0 -0.67526535346E+02 -0.54958188176E+01 -0.70412582035E+01  0.68114729078E+02  0.00000000000E+00 0.  1.
         -1    1    1    2    0  501  0.67526535346E+02  0.54958188176E+01 -0.27902713901E+02  0.73270720232E+02  0.00000000000E+00 0. -1.
</event>
<event>
 4    1  0.7060698E+001  0.2363009E+02  0.7546771E-02  0.1484734E+00
          2   -1    0    0  502    0  0.00000000000E+00  0.00000000000E+00  0.16102493105E+04  0.16102493105E+04  0.00000000000E+00 0. -1.
         -2   -1    0    0    0  501 -0.00000000000E+00 -0.00000000000E+00 -0.27174589142E+01  0.27174589142E+01  0.00000000000E+00 0.  1.
          1    1    1    2  502    0 -0.20743638449E+02  0.11317356769E+02  0.15570373681E+04  0.15572166666E+04  0.00000000000E+00 0. -1.
         -1    1    1    2    0  501  0.20743638449E+02 -0.11317356769E+02  0.50494483474E+02  0.55750102795E+02  0.00000000000E+00 0.  1.
</event>
<event>
 4    1  0.7060698E+001  0.2634322E+02  0.7546771E-02  0.1454320E+00
          2   -1    0    0  502    0  0.00000000000E+00  0.00000000000E+00  0.60203907404E+03  0.60203907404E+03  0.00000000000E+00 0. -1.
         -2   -1    0    0    0  501 -0.00000000000E+00 -0.00000000000E+00 -0.11958223088E+01  0.11958223088E+01  0.00000000000E+00 0.  1.
          1    1    1    2  502    0 -0.21968022385E+02  0.14538603505E+02  0.35770382007E+03  0.35867253574E+03  0.00000000000E+00 0. -1.
         -1    1    1    2    0  501  0.21968022385E+02 -0.14538603505E+02  0.24313943165E+03  0.24456236060E+03  0.00000000000E+00 0.  1.
</event>
<event>
 4    1  0.7060698E+001  0.3363514E+02  0.7546771E-02  0.1390421E+00
          2   -1    0    0  502    0  0.00000000000E+00  0.00000000000E+00  0.32244999198E+02  0.32244999198E+02  0.00000000000E+00 0.  1.
         -2   -1    0    0    0  501 -0.00000000000E+00 -0.00000000000E+00 -0.35694319744E+02  0.35694319744E+02  0.00000000000E+00 0. -1.
          1    1    1    2  502    0  0.79339151554E+01  0.32686019989E+02  0.27128115441E+01  0.33744366328E+02  0.00000000000E+00 0.  1.
         -1    1    1    2    0  501 -0.79339151554E+01 -0.32686019989E+02 -0.61621320895E+01  0.34194952614E+02  0.00000000000E+00 0. -1.
</event>
<event>
 4    1  0.7060698E+001  0.2012995E+02  0.7546771E-02  0.1532058E+00
          2   -1    0    0  502    0  0.00000000000E+00  0.00000000000E+00  0.56073421301E+03  0.56073421301E+03  0.00000000000E+00 0.  1.
         -2   -1    0    0    0  501 -0.00000000000E+00 -0.00000000000E+00 -0.13391225942E+01  0.13391225942E+01  0.00000000000E+00 0. -1.
          1    1    1    2  502    0 -0.65287903528E+01  0.19041789907E+02  0.47037946921E+03  0.47081000406E+03  0.00000000000E+00 0.  1.
         -1    1    1    2    0  501  0.65287903528E+01 -0.19041789907E+02  0.89015621199E+02  0.91263331540E+02  0.00000000000E+00 0. -1.
</event>
<event>
 4    1  0.7060698E+001  0.6734818E+02  0.7546771E-02  0.1236722E+00
          2   -1    0    0  502    0  0.00000000000E+00  0.00000000000E+00  0.11627938192E+04  0.11627938192E+04  0.00000000000E+00 0. -1.
         -2   -1    0    0    0  501 -0.00000000000E+00 -0.00000000000E+00 -0.39046881592E+01  0.39046881592E+01  0.00000000000E+00 0.  1.
          1    1    1    2  502    0  0.44044952121E+02 -0.50949190384E+02  0.56093841684E+03  0.56496697717E+03  0.00000000000E+00 0.  1.
         -1    1    1    2    0  501 -0.44044952121E+02  0.50949190384E+02  0.59795071422E+03  0.60173153020E+03  0.00000000000E+00 0. -1.
</event>
<event>
 4    1  0.7060698E+001  0.2186370E+02  0.7546771E-02  0.1507282E+00
          2   -1    0    0  502    0  0.00000000000E+00  0.00000000000E+00  0.24531434248E+04  0.24531434248E+04  0.00000000000E+00 0.  1.
         -2   -1    0    0    0  501 -0.00000000000E+00 -0.00000000000E+00 -0.19499562799E+00  0.19499562799E+00  0.00000000000E+00 0. -1.
          1    1    1    2  502    0  0.19358611176E+02  0.10161959027E+02  0.11942063166E+04  0.11944064417E+04  0.00000000000E+00 0. -1.
         -1    1    1    2    0  501 -0.19358611176E+02 -0.10161959027E+02  0.12587421126E+04  0.12589319788E+04  0.00000000000E+00 0.  1.
</event>
<event>
 4    1  0.7060698E+001  0.2161005E+02  0.7546771E-02  0.1510730E+00
          2   -1    0    0  502    0  0.00000000000E+00  0.00000000000E+00  0.39115294281E+01  0.39115294281E+01  0.00000000000E+00 0.  1.
         -2   -1    0    0    0  501 -0.00000000000E+00 -0.00000000000E+00 -0.25006195949E+03  0.25006195949E+03  0.00000000000E+00 0. -1.
          1    1    1    2  502    0 -0.21395816614E+02 -0.30353605750E+01 -0.21487192158E+03  0.21595586833E+03  0.00000000000E+00 0. -1.
         -1    1    1    2    0  501  0.21395816614E+02  0.30353605750E+01 -0.31278508482E+02  0.38017620588E+02  0.00000000000E+00 0.  1.
</event>
<event>
 4    1  0.7060698E+001  0.2112914E+02  0.7546771E-02  0.1517429E+00
          2   -1    0    0  502    0  0.00000000000E+00  0.00000000000E+00  0.86999294489E+02  0.86999294489E+02  0.00000000000E+00 0. -1.
         -2   -1    0    0    0  501 -0.00000000000E+00 -0.00000000000E+00 -0.52662574757E+01  0.52662574757E+01  0.00000000000E+00 0.  1.
          1    1    1    2  502    0 -0.18902141877E+02  0.94418981279E+01  0.48245044649E+02  0.52669011202E+02  0.00000000000E+00 0. -1.
         -1    1    1    2    0  501  0.18902141877E+02 -0.94418981279E+01  0.33487992364E+02  0.39596540763E+02  0.00000000000E+00 0.  1.
</event>
<event>
 4    1  0.7060698E+001  0.3116431E+02  0.7546771E-02  0.1409741E+00
          2   -1    0    0  502    0  0.00000000000E+00  0.00000000000E+00  0.85248835092E+01  0.85248835092E+01  0.00000000000E+00 0.  1.
         -2   -1    0    0    0  501 -0.00000000000E+00 -0.00000000000E+00 -0.12146439751E+03  0.12146439751E+03  0.00000000000E+00 0. -1.
          1    1    1    2  502    0 -0.15072095691E+02  0.27277209539E+02 -0.40279104689E+02  0.50927600604E+02  0.00000000000E+00 0. -1.
         -1    1    1    2    0  501  0.15072095691E+02 -0.27277209539E+02 -0.72660409310E+02  0.79061680413E+02  0.00000000000E+00 0.  1.
</event>
<event>
 4    1  0.7060698E+001  0.2794634E+02  0.7546771E-02  0.1438327E+00
          2   -1    0    0  502    0  0.00000000000E+00  0.00000000000E+00  0.17123804321E+03  0.17123804321E+03  0.00000000000E+00 0. -1.
         -2   -1    0    0    0  501 -0.00000000000E+00 -0.00000000000E+00 -0.74764273502E+01  0.74764273502E+01  0.00000000000E+00 0.  1.
          1    1    1    2  502    0  0.18108642859E+02 -0.21285556063E+02  0.26079807571E+02  0.38225046841E+02  0.00000000000E+00 0.  1.
         -1    1    1    2    0  501 -0.18108642859E+02  0.21285556063E+02  0.13768180829E+03  0.14048942372E+03  0.00000000000E+00 0. -1.
</event>
<event>
 4    1  0.7060698E+001  0.2187529E+02  0.7546771E-02  0.1507126E+00
          2   -1    0    0  502    0  0.00000000000E+00  0.00000000000E+00  0.25786820685E+02  0.25786820685E+02  0.00000000000E+00 0.  1.
         -2   -1    0    0    0  501 -0.00000000000E+00 -0.00000000000E+00 -0.21784986139E+02  0.21784986139E+02  0.00000000000E+00 0. -1.
          1    1    1    2  502    0  0.54789545443E+01 -0.21178042651E+02  0.11156807382E+02  0.24556115010E+02  0.00000000000E+00 0.  1.
         -1    1    1    2    0  501 -0.54789545443E+01  0.21178042651E+02 -0.71549728358E+01  0.23015691814E+02  0.00000000000E+00 0. -1.
</event>
<event>
 4    1  0.7060698E+001  0.2327091E+02  0.7546771E-02  0.1489124E+00
          2   -1    0    0  502    0  0.00000000000E+00  0.00000000000E+00  0.22788783085E+02  0.22788783085E+02  0.00000000000E+00 0. -1.
         -2   -1    0    0    0  501 -0.00000000000E+00 -0.00000000000E+00 -0.33650748242E+02  0.33650748242E+02  0.00000000000E+00 0.  1.
          1    1    1    2  502    0 -0.22586684987E+00  0.23269816404E+02  0.98657763304E+01  0.25275856343E+02  0.00000000000E+00 0. -1.
         -1    1    1    2    0  501  0.22586684987E+00 -0.23269816404E+02 -0.20727741487E+02  0.31163674983E+02  0.00000000000E+00 0.  1.
</event>
<event>
 4    1  0.7060698E+001  0.2016937E+02  0.7546771E-02  0.1531462E+00
          2   -1    0    0  502    0  0.00000000000E+00  0.00000000000E+00  0.21389041370E+04  0.21389041370E+04  0.00000000000E+00 0.  1.
         -2   -1    0    0    0  501 -0.00000000000E+00 -0.00000000000E+00 -0.19765920621E+00  0.19765920621E+00  0.00000000000E+00 0. -1.
          1    1    1    2  502    0  0.19604813699E+02  0.47386339329E+01  0.86147475054E+03  0.86171082690E+03  0.00000000000E+00 0.  1.
         -1    1    1    2    0  501 -0.19604813699E+02 -0.47386339329E+01  0.12772317272E+04  0.12773909693E+04  0.00000000000E+00 0. -1.
</event>
<event>
 4    1  0.7060698E+001  0.2040471E+02  0.7546771E-02  0.1527936E+00
          2   -1    0    0  502    0  0.00000000000E+00  0.00000000000E+00  0.25457785556E+03  0.25457785556E+03  0.00000000000E+00 0. -1.
         -2   -1    0    0    0  501 -0.00000000000E+00 -0.00000000000E+00 -0.21414077118E+01  0.21414077118E+01  0.00000000000E+00 0.  1.
          1    1    1    2  502    0  0.15968347579E+02 -0.12702917804E+02  0.63825920912E+02  0.67008211627E+02  0.00000000000E+00 0.  1.
         -1    1    1    2    0  501 -0.15968347579E+02  0.12702917804E+02  0.18861052693E+03  0.18971105164E+03  0.00000000000E+00 0. -1.
</event>
<event>
 4    1  0.7060698E+001  0.2545955E+02  0.7546771E-02  0.1463728E+00
          2   -1    0    0  502    0  0.00000000000E+00  0.00000000000E+00  0.12723578373E+01  0.12723578373E+01  0.00000000000E+00 0. -1.
         -2   -1    0    0    0  501 -0.00000000000E+00 -0.00000000000E+00 -0.52176980573E+03  0.52176980573E+03  0.00000000000E+00 0.  1.
          1    1    1    2  502    0  0.22206789208E+02  0.12451786357E+02 -0.22004500795E+03  0.22151296574E+03  0.00000000000E+00 0.  1.
         -1    1    1    2    0  501 -0.22206789208E+02 -0.12451786357E+02 -0.30045243994E+03  0.30152919782E+03  0.00000000000E+00 0. -1.
</event>
<event>
 4    1  0.7060698E+001  0.4994537E+02  0.7546771E-02  0.1298409E+00
          2   -1    0    0  502    0  0.00000000000E+00  0.00000000000E+00  0.21744998407E+02  0.21744998407E+02  0.00000000000E+00 0. -1.
         -2   -1    0    0    0  501 -0.00000000000E+00 -0.00000000000E+00 -0.11599017385E+03  0.11599017385E+03  0.00000000000E+00 0.  1.
          1    1    1    2  502    0 -0.74745164311E+01 -0.49382908823E+02 -0.54335294467E+02  0.73802874636E+02  0.00000000000E+00 0.  1.
         -1    1    1    2    0  501  0.74745164311E+01  0.49382908823E+02 -0.39909880980E+02  0.63932297625E+02  0.00000000000E+00 0. -1.
</event>
<event>
 4    1  0.7060698E+001  0.2836728E+03  0.7546771E-02  0.1007838E+00
          2   -1    0    0  502    0  0.00000000000E+00  0.00000000000E+00  0.90719011101E+02  0.90719011101E+02  0.00000000000E+00 0. -1.
         -2   -1    0    0    0  501 -0.00000000000E+00 -0.00000000000E+00 -0.12361956417E+04  0.12361956417E+04  0.00000000000E+00 0.  1.
          1    1    1    2  502    0 -0.29547366751E+02 -0.28212975013E+03 -0.92534196042E+03  0.96784708839E+03  0.00000000000E+00 0.  1.
         -1    1    1    2    0  501  0.29547366751E+02  0.28212975013E+03 -0.22013467016E+03  0.35906756439E+03  0.00000000000E+00 0. -1.
</event>
<event>
 4    1  0.7060698E+001  0.4676107E+02  0.7546771E-02  0.1312861E+00
          2   -1    0    0  502    0  0.00000000000E+00  0.00000000000E+00  0.22787058333E+02  0.22787058333E+02  0.00000000000E+00 0. -1.
         -2   -1    0    0    0  501 -0.00000000000E+00 -0.00000000000E+00 -0.13269772696E+03  0.13269772696E+03  0.00000000000E+00 0.  1.
          1    1    1    2  502    0  0.24067166975E+02  0.40092010305E+02 -0.14048598095E+02  0.48825822317E+02  0.00000000000E+00 0. -1.
         -1    1    1    2    0  501 -0.24067166975E+02 -0.40092010305E+02 -0.95862070534E+02  0.10665896298E+03  0.00000000000E+00 0.  1.
</event>
<event>
 4    1  0.7060698E+001  0.2118098E+02  0.7546771E-02  0.1516696E+00
          2   -1    0    0  502    0  0.00000000000E+00  0.00000000000E+00  0.46620756691E+03  0.46620756691E+03  0.00000000000E+00 0. -1.
         -2   -1    0    0    0  501 -0.00000000000E+00 -0.00000000000E+00 -0.10053653747E+01  0.10053653747E+01  0.00000000000E+00 0.  1.
          1    1    1    2  502    0  0.12022805850E+02 -0.17438067188E+02  0.18425517216E+03  0.18546860251E+03  0.00000000000E+00 0.  1.
         -1    1    1    2    0  501 -0.12022805850E+02  0.17438067188E+02  0.28094702938E+03  0.28174432978E+03  0.00000000000E+00 0. -1.
</event>
<event>
 4    1  0.7060698E+001  0.2357699E+02  0.7546771E-02  0.1485377E+00
          2   -1    0    0  502    0  0.00000000000E+00  0.00000000000E+00  0.33217048584E+01  0.33217048584E+01  0.00000000000E+00 0.  1.
         -2   -1    0    0    0  501 -0.00000000000E+00 -0.00000000000E+00 -0.38147482209E+03  0.38147482209E+03  0.00000000000E+00 0. -1.
          1    1    1    2  502    0 -0.40489975244E+01 -0.23226713594E+02 -0.33322355389E+03  0.33405659921E+03  0.00000000000E+00 0. -1.
         -1    1    1    2    0  501  0.40489975244E+01  0.23226713594E+02 -0.44929563341E+02  0.50739927743E+02  0.00000000000E+00 0.  1.
</event>
<event>
 4    1  0.7060698E+001  0.3250555E+02  0.7546771E-02  0.1399002E+00
          2   -1    0    0  502    0  0.00000000000E+00  0.00000000000E+00  0.13355164887E+04  0.13355164887E+04  0.00000000000E+00 0. -1.
         -2   -1    0    0    0  501 -0.00000000000E+00 -0.00000000000E+00 -0.97539522105E+00  0.97539522105E+00  0.00000000000E+00 0.  1.
          1    1    1    2  502    0 -0.25808638887E+02  0.19761708254E+02  0.37684885083E+03  0.37824815574E+03  0.00000000000E+00 0.  1.
         -1    1    1    2    0  501  0.25808638887E+02 -0.19761708254E+02  0.95769224266E+03  0.95824372819E+03  0.00000000000E+00 0. -1.
</event>
<event>
 4    1  0.7060698E+001  0.2412426E+02  0.7546771E-02  0.1478844E+00
          2   -1    0    0  502    0  0.00000000000E+00  0.00000000000E+00  0.17082814072E+04  0.17082814072E+04  0.00000000000E+00 0. -1.
         -2   -1    0    0    0  501 -0.00000000000E+00 -0.00000000000E+00 -0.36848614097E+00  0.36848614097E+00  0.00000000000E+00 0.  1.
          1    1    1    2  502    0 -0.19477978449E+02  0.14233348931E+02  0.10886338140E+04  0.10889010795E+04  0.00000000000E+00 0. -1.
         -1    1    1    2    0  501  0.19477978449E+02 -0.14233348931E+02  0.61927910699E+03  0.61974881381E+03  0.00000000000E+00 0.  1.
</event>
<event>
 4    1  0.7060698E+001  0.2383413E+02  0.7546771E-02  0.1482281E+00
          2   -1    0    0  502    0  0.00000000000E+00  0.00000000000E+00  0.78531624325E+03  0.78531624325E+03  0.00000000000E+00 0. -1.
         -2   -1    0    0    0  501 -0.00000000000E+00 -0.00000000000E+00 -0.83471665911E+00  0.83471665911E+00  0.00000000000E+00 0.  1.
          1    1    1    2  502    0  0.90323855879E+01  0.22056332563E+02  0.24867003442E+03  0.24980963114E+03  0.00000000000E+00 0.  1.
         -1    1    1    2    0  501 -0.90323855879E+01 -0.22056332563E+02  0.53581149218E+03  0.53634132877E+03  0.00000000000E+00 0. -1.
</event>
<event>
 4    1  0.7060698E+001  0.2265982E+02  0.7546771E-02  0.1496815E+00
          2   -1    0    0  502    0  0.00000000000E+00  0.00000000000E+00  0.20426941750E+03  0.20426941750E+03  0.00000000000E+00 0.  1.
         -2   -1    0    0    0  501 -0.00000000000E+00 -0.00000000000E+00 -0.25286368214E+01  0.25286368214E+01  0.00000000000E+00 0. -1.
          1    1    1    2  502    0  0.66729156975E+01 -0.21655009826E+02  0.10882359694E+03  0.11115773705E+03  0.00000000000E+00 0. -1.
         -1    1    1    2    0  501 -0.66729156975E+01  0.21655009826E+02  0.92917183735E+02  0.95640317271E+02  0.00000000000E+00 0.  1.
</event>
<event>
 4    1  0.7060698E+001  0.5328851E+02  0.7546771E-02  0.1284511E+00
          2   -1    0    0  502    0  0.00000000000E+00  0.00000000000E+00  0.20250880651E+04  0.20250880651E+04  0.00000000000E+00 0.  1.
         -2   -1    0    0    0  501 -0.00000000000E+00 -0.00000000000E+00 -0.36061501674E+01  0.36061501674E+01  0.00000000000E+00 0. -1.
          1    1    1    2  502    0  0.42957450157E+02 -0.31532881171E+02  0.21776255031E+03  0.22418785301E+03  0.00000000000E+00 0. -1.
         -1    1    1    2    0  501 -0.42957450157E+02  0.31532881171E+02  0.18037193647E+04  0.18045063623E+04  0.00000000000E+00 0.  1.
</event>
<event>
 4    1  0.7060698E+001  0.2253552E+02  0.7546771E-02  0.1498414E+00
          2   -1    0    0  502    0  0.00000000000E+00  0.00000000000E+00  0.12100216330E+02  0.12100216330E+02  0.00000000000E+00 0. -1.
         -2   -1    0    0    0  501 -0.00000000000E+00 -0.00000000000E+00 -0.47347514696E+02  0.47347514696E+02  0.00000000000E+00 0.  1.
          1    1    1    2  502    0  0.25734241053E+00  0.22534053288E+02 -0.27640590691E+02  0.35663034594E+02  0.00000000000E+00 0.  1.
         -1    1    1    2    0  501 -0.25734241053E+00 -0.22534053288E+02 -0.76067076744E+01  0.23784696431E+02  0.00000000000E+00 0. -1.
</event>
<event>
 4    1  0.7060698E+001  0.2021907E+02  0.7546771E-02  0.1530713E+00
          2   -1    0    0  502    0  0.00000000000E+00  0.00000000000E+00  0.97395959640E+03  0.97395959640E+03  0.00000000000E+00 0.  1.
         -2   -1    0    0    0  501 -0.00000000000E+00 -0.00000000000E+00 -0.88052539452E+00  0.88052539452E+00  0.00000000000E+00 0. -1.
          1    1    1    2  502    0  0.95030333374E+01 -0.17846658373E+02  0.13394035555E+03  0.13545785212E+03  0.00000000000E+00 0. -1.
         -1    1    1    2    0  501 -0.95030333374E+01  0.17846658373E+02  0.83913871545E+03  0.83938226967E+03  0.00000000000E+00 0.  1.
</event>
<event>
 4    1  0.7060698E+001  0.2795320E+02  0.7546771E-02  0.1438261E+00
          2   -1    0    0  502    0  0.00000000000E+00  0.00000000000E+00  0.18958908851E+04  0.18958908851E+04  0.00000000000E+00 0.  1.
         -2   -1    0    0    0  501 -0.00000000000E+00 -0.00000000000E+00 -0.41227106004E+00  0.41227106004E+00  0.00000000000E+00 0. -1.
          1    1    1    2  502    0  0.84919245026E+01  0.26632101359E+02  0.93114772925E+03  0.93156721459E+03  0.00000000000E+00 0.  1.
         -1    1    1    2    0  501 -0.84919245026E+01 -0.26632101359E+02  0.96433088483E+03  0.96473594162E+03  0.00000000000E+00 0. -1.
</event>
<event>
 4    1  0.7060698E+001  0.2557493E+02  0.7546771E-02  0.1462473E+00
          2   -1    0    0  502    0  0.00000000000E+00  0.00000000000E+00  0.13880165704E+01  0.13880165704E+01  0.00000000000E+00 0.  1.
         -2   -1    0    0    0  501 -0.00000000000E+00 -0.00000000000E+00 -0.10030149522E+04  0.10030149522E+04  0.00000000000E+00 0. -1.
          1    1    1    2  502    0  0.25512586988E+02 -0.17845964106E+01 -0.86648552242E+03  0.86686287119E+03  0.00000000000E+00 0. -1.
         -1    1    1    2    0  501 -0.25512586988E+02  0.17845964106E+01 -0.13514141325E+03  0.13754009762E+03  0.00000000000E+00 0.  1.
</event>
<event>
 4    1  0.7060698E+001  0.4094982E+02  0.7546771E-02  0.1343008E+00
          2   -1    0    0  502    0  0.00000000000E+00  0.00000000000E+00  0.63584420658E+01  0.63584420658E+01  0.00000000000E+00 0. -1.
         -2   -1    0    0    0  501 -0.00000000000E+00 -0.00000000000E+00 -0.26582867424E+03  0.26582867424E+03  0.00000000000E+00 0.  1.
          1    1    1    2  502    0  0.35425135298E+02  0.20541364246E+02 -0.11763190792E+03  0.12455582530E+03  0.00000000000E+00 0. -1.
         -1    1    1    2    0  501 -0.35425135298E+02 -0.20541364246E+02 -0.14183832425E+03  0.14763129100E+03  0.00000000000E+00 0.  1.
</event>
<event>
 4    1  0.7060698E+001  0.2420611E+02  0.7546771E-02  0.1477884E+00
          2   -1    0    0  502    0  0.00000000000E+00  0.00000000000E+00  0.91319925232E+03  0.91319925232E+03  0.00000000000E+00 0. -1.
         -2   -1    0    0    0  501 -0.00000000000E+00 -0.00000000000E+00 -0.87138770660E+00  0.87138770660E+00  0.00000000000E+00 0.  1.
          1    1    1    2  502    0  0.24182580825E+02  0.10670283007E+01  0.69084571275E+03  0.69126965403E+03  0.00000000000E+00 0. -1.
         -1    1    1    2    0  501 -0.24182580825E+02 -0.10670283007E+01  0.22148215186E+03  0.22280098599E+03  0.00000000000E+00 0.  1.
</event>
<event>
 4    1  0.7060698E+001  0.2139334E+02  0.7546771E-02  0.1513723E+00
          2   -1    0    0  502    0  0.00000000000E+00  0.00000000000E+00  0.31690296427E+03  0.31690296427E+03  0.00000000000E+00 0.  1.
         -2   -1    0    0    0  501 -0.00000000000E+00 -0.00000000000E+00 -0.19132520925E+01  0.19132520925E+01  0.00000000000E+00 0. -1.
          1    1    1    2  502    0  0.51560198344E+01  0.20762714264E+02  0.78567125895E+02  0.81427686419E+02  0.00000000000E+00 0.  1.
         -1    1    1    2    0  501 -0.51560198344E+01 -0.20762714264E+02  0.23642258628E+03  0.23738852995E+03  0.00000000000E+00 0. -1.
</event>
<event>
 4    1  0.7060698E+001  0.2183370E+02  0.7546771E-02  0.1507687E+00
          2   -1    0    0  502    0  0.00000000000E+00  0.00000000000E+00  0.20723624613E+04  0.20723624613E+04  0.00000000000E+00 0.  1.
         -2   -1    0    0    0  501 -0.00000000000E+00 -0.00000000000E+00 -0.25403958787E+00  0.25403958787E+00  0.00000000000E+00 0. -1.
          1    1    1    2  502    0 -0.83863521480E+01 -0.20158860969E+02  0.71748147302E+03  0.71781360722E+03  0.00000000000E+00 0.  1.
         -1    1    1    2    0  501  0.83863521480E+01  0.20158860969E+02  0.13546269487E+04  0.13548028936E+04  0.00000000000E+00 0. -1.
</event>
<event>
 4    1  0.7060698E+001  0.3608091E+02  0.7546771E-02  0.1373119E+00
          2   -1    0    0  502    0  0.00000000000E+00  0.00000000000E+00  0.77404350203E+03  0.77404350203E+03  0.00000000000E+00 0.  1.
         -2   -1    0    0    0  501 -0.00000000000E+00 -0.00000000000E+00 -0.23274792857E+01  0.23274792857E+01  0.00000000000E+00 0. -1.
          1    1    1    2  502    0 -0.35020531188E+02 -0.86829948467E+01  0.18140901570E+03  0.18496232854E+03  0.00000000000E+00 0. -1.
         -1    1    1    2    0  501  0.35020531188E+02  0.86829948467E+01  0.59030700704E+03  0.59140865277E+03  0.00000000000E+00 0.  1.
</event>
<event>
 4    1  0.7060698E+001  0.2263255E+02  0.7546771E-02  0.1497165E+00
          2   -1    0    0  502    0  0.00000000000E+00  0.00000000000E+00  0.87746758832E+01  0.87746758832E+01  0.00000000000E+00 0.  1.
         -2   -1    0    0    0  501 -0.00000000000E+00 -0.00000000000E+00 -0.58376331471E+02  0.58376331471E+02  0.00000000000E+00 0. -1.
          1    1    1    2  502    0  0.21888703306E+02 -0.57547320446E+01 -0.24751300185E+02  0.33538919693E+02  0.00000000000E+00 0. -1.
         -1    1    1    2    0  501 -0.21888703306E+02  0.57547320446E+01 -0.24850355403E+02  0.33612087662E+02  0.00000000000E+00 0.  1.
</event>
<event>
 4    1  0.7060698E+001  0.4538661E+02  0.7546771E-02  0.1319517E+00
          2   -1    0    0  502    0  0.00000000000E+00  0.00000000000E+00  0.17638624200E+02  0.17638624200E+02  0.00000000000E+00 0.  1.
         -2   -1    0    0    0  501 -0.00000000000E+00 -0.00000000000E+00 -0.12550392851E+03  0.12550392851E+03  0.00000000000E+00 0. -1.
          1    1    1    2  502    0  0.40143172302E+02  0.21177111984E+02 -0.72795912972E+02  0.85785717342E+02  0.00000000000E+00 0. -1.
         -1    1    1    2    0  501 -0.40143172302E+02 -0.21177111984E+02 -0.35069391337E+02  0.57356835366E+02  0.00000000000E+00 0.  1.
</event>
<event>
 4    1  0.7060698E+001  0.2798243E+02  0.7546771E-02  0.1437981E+00
          2   -1    0    0  502    0  0.00000000000E+00  0.00000000000E+00  0.73320384078E+03  0.73320384078E+03  0.00000000000E+00 0.  1.
         -2   -1    0    0    0  501 -0.00000000000E+00 -0.00000000000E+00 -0.11137434414E+01  0.11137434414E+01  0.00000000000E+00 0. -1.
          1    1    1    2  502    0 -0.25937186616E+02  0.10501372310E+02  0.29158583876E+03  0.29292544757E+03  0.00000000000E+00 0.  1.
         -1    1    1    2    0  501  0.25937186616E+02 -0.10501372310E+02  0.44050425857E+03  0.44139213664E+03  0.00000000000E+00 0. -1.
</event>
<event>
 4    1  0.7060698E+001  0.1151986E+03  0.7546771E-02  0.1139799E+00
          2   -1    0    0  502    0  0.00000000000E+00  0.00000000000E+00  0.14789522068E+03  0.14789522068E+03  0.00000000000E+00 0.  1.
         -2   -1    0    0    0  501 -0.00000000000E+00 -0.00000000000E+00 -0.94209627448E+02  0.94209627448E+02  0.00000000000E+00 0. -1.
          1    1    1    2  502    0 -0.14577795276E+02  0.11427248659E+03  0.44776652755E+00  0.11519945226E+03  0.00000000000E+00 0. -1.
         -1    1    1    2    0  501  0.14577795276E+02 -0.11427248659E+03  0.53237826705E+02  0.12690539586E+03  0.00000000000E+00 0.  1.
</event>
<event>
 4    1  0.7060698E+001  0.2472547E+02  0.7546771E-02  0.1471898E+00
          2   -1    0    0  502    0  0.00000000000E+00  0.00000000000E+00  0.66254637070E+02  0.66254637070E+02  0.00000000000E+00 0. -1.
         -2   -1    0    0    0  501 -0.00000000000E+00 -0.00000000000E+00 -0.10660247455E+02  0.10660247455E+02  0.00000000000E+00 0.  1.
          1    1    1    2  502    0  0.21440175789E+02 -0.12315337993E+02  0.41897162538E+02  0.48648955965E+02  0.00000000000E+00 0. -1.
         -1    1    1    2    0  501 -0.21440175789E+02  0.12315337993E+02  0.13697227077E+02  0.28265928560E+02  0.00000000000E+00 0.  1.
</event>
<event>
 4    1  0.7060698E+001  0.2646784E+02  0.7546771E-02  0.1453028E+00
          2   -1    0    0  502    0  0.00000000000E+00  0.00000000000E+00  0.12696304797E+04  0.12696304797E+04  0.00000000000E+00 0. -1.
         -2   -1    0    0    0  501 -0.00000000000E+00 -0.00000000000E+00 -0.70113494551E+00  0.70113494551E+00  0.00000000000E+00 0.  1.
          1    1    1    2  502    0 -0.13800800769E+01  0.26431835815E+02  0.34130264265E+03  0.34232738781E+03  0.00000000000E+00 0.  1.
         -1    1    1    2    0  501  0.13800800769E+01 -0.26431835815E+02  0.92762670213E+03  0.92800422686E+03  0.00000000000E+00 0. -1.
</event>
<event>
 4    1  0.7060698E+001  0.2718995E+02  0.7546771E-02  0.1445709E+00
          2   -1    0    0  502    0  0.00000000000E+00  0.00000000000E+00  0.38615950208E+03  0.38615950208E+03  0.00000000000E+00 0. -1.
         -2   -1    0    0    0  501 -0.00000000000E+00 -0.00000000000E+00 -0.32064851238E+01  0.32064851238E+01  0.00000000000E+00 0.  1.
          1    1    1    2  502    0 -0.20574784251E+02  0.17775593410E+02  0.67897123194E+02  0.73138996480E+02  0.00000000000E+00 0.  1.
         -1    1    1    2    0  501  0.20574784251E+02 -0.17775593410E+02  0.31505589376E+03  0.31622699073E+03  0.00000000000E+00 0. -1.
</event>
<event>
 4    1  0.7060698E+001  0.3086716E+02  0.7546771E-02  0.1412207E+00
          2   -1    0    0  502    0  0.00000000000E+00  0.00000000000E+00  0.67980868900E+03  0.67980868900E+03  0.00000000000E+00 0.  1.
         -2   -1    0    0    0  501 -0.00000000000E+00 -0.00000000000E+00 -0.15264441204E+01  0.15264441204E+01  0.00000000000E+00 0. -1.
          1    1    1    2  502    0  0.31695066354E+01 -0.30704006377E+02  0.24169337930E+03  0.24365646180E+03  0.00000000000E+00 0. -1.
         -1    1    1    2    0  501 -0.31695066354E+01  0.30704006377E+02  0.43658886558E+03  0.43767867132E+03  0.00000000000E+00 0.  1.
</event>
<event>
 4    1  0.7060698E+001  0.2024890E+02  0.7546771E-02  0.1530264E+00
          2   -1    0    0  502    0  0.00000000000E+00  0.00000000000E+00  0.85741576473E+01  0.85741576473E+01  0.00000000000E+00 0. -1.
         -2   -1    0    0    0  501 -0.00000000000E+00 -0.00000000000E+00 -0.26335663390E+03  0.26335663390E+03  0.00000000000E+00 0.  1.
          1    1    1    2  502    0 -0.49781598562E-01  0.20248835468E+02 -0.25039449766E+03  0.25121190711E+03  0.00000000000E+00 0.  1.
         -1    1    1    2    0  501  0.49781598562E-01 -0.20248835468E+02 -0.43879785887E+01  0.20718884432E+02  0.00000000000E+00 0. -1.
</event>
<event>
 4    1  0.7060698E+001  0.3252537E+02  0.7546771E-02  0.1398848E+00
          2   -1    0    0  502    0  0.00000000000E+00  0.00000000000E+00  0.11216119240E+04  0.11216119240E+04  0.00000000000E+00 0. -1.
         -2   -1    0    0    0  501 -0.00000000000E+00 -0.00000000000E+00 -0.12198222214E+01  0.12198222214E+01  0.00000000000E+00 0.  1.
          1    1    1    2  502    0 -0.74707049757E+00 -0.32516789651E+02  0.29284419755E+03  0.29464491131E+03  0.00000000000E+00 0.  1.
         -1    1    1    2    0  501  0.74707049757E+00  0.32516789651E+02  0.82754790422E+03  0.82818683491E+03  0.00000000000E+00 0. -1.
</event>
<event>
 4    1  0.7060698E+001  0.2322559E+02  0.7546771E-02  0.1489685E+00
          2   -1    0    0  502    0  0.00000000000E+00  0.00000000000E+00  0.39623001611E+03  0.39623001611E+03  0.00000000000E+00 0. -1.
         -2   -1    0    0    0  501 -0.00000000000E+00 -0.00000000000E+00 -0.13749456687E+01  0.13749456687E+01  0.00000000000E+00 0.  1.
          1    1    1    2  502    0  0.43924145800E+01 -0.22806466177E+02  0.21715868967E+03  0.21839717192E+03  0.00000000000E+00 0. -1.
         -1    1    1    2    0  501 -0.43924145800E+01  0.22806466177E+02  0.17769638078E+03  0.17920778986E+03  0.00000000000E+00 0.  1.
</event>
<event>
 4    1  0.7060698E+001  0.2005381E+02  0.7546771E-02  0.1533215E+00
          2   -1    0    0  502    0  0.00000000000E+00  0.00000000000E+00  0.60406599934E+03  0.60406599934E+03  0.00000000000E+00 0. -1.
         -2   -1    0    0    0  501 -0.00000000000E+00 -0.00000000000E+00 -0.12186760360E+01  0.12186760360E+01  0.00000000000E+00 0.  1.
          1    1    1    2  502    0 -0.11467400932E+02 -0.16451570821E+02  0.50527803115E+03  0.50567582919E+03  0.00000000000E+00 0. -1.
         -1    1    1    2    0  501  0.11467400932E+02  0.16451570821E+02  0.97569292154E+02  0.99608846183E+02  0.00000000000E+00 0.  1.
</event>
<event>
 4    1  0.7060698E+001  0.2346711E+02  0.7546771E-02  0.1486714E+00
          2   -1    0    0  502    0  0.00000000000E+00  0.00000000000E+00  0.24083701686E+03  0.24083701686E+03  0.00000000000E+00 0. -1.
         -2   -1    0    0    0  501 -0.00000000000E+00 -0.00000000000E+00 -0.23346873730E+01  0.23346873730E+01  0.00000000000E+00 0.  1.
          1    1    1    2  502    0 -0.23288624005E+02 -0.28888534641E+01  0.13669501754E+03  0.13869474865E+03  0.00000000000E+00 0. -1.
         -1    1    1    2    0  501  0.23288624005E+02  0.28888534641E+01  0.10180731195E+03  0.10447695558E+03  0.00000000000E+00 0.  1.
</event>
<event>
 4    1  0.7060698E+001  0.2585265E+02  0.7546771E-02  0.1459487E+00
          2   -1    0    0  502    0  0.00000000000E+00  0.00000000000E+00  0.61490369503E+01  0.61490369503E+01  0.00000000000E+00 0.  1.
         -2   -1    0    0    0  501 -0.00000000000E+00 -0.00000000000E+00 -0.11682584638E+03  0.11682584638E+03  0.00000000000E+00 0. -1.
          1    1    1    2  502    0  0.25388669916E+02 -0.48759414099E+01 -0.71561329629E+02  0.76087996839E+02  0.00000000000E+00 0. -1.
         -1    1    1    2    0  501 -0.25388669916E+02  0.48759414099E+01 -0.39115479799E+02  0.46886886489E+02  0.00000000000E+00 0.  1.
</event>
<event>
 4    1  0.7060698E+001  0.2158179E+02  0.7546771E-02  0.1511118E+00
          2   -1    0    0  502    0  0.00000000000E+00  0.00000000000E+00  0.16777794157E+04  0.16777794157E+04  0.00000000000E+00 0.  1.
         -2   -1    0    0    0  501 -0.00000000000E+00 -0.00000000000E+00 -0.29150159447E+00  0.29150159447E+00  0.00000000000E+00 0. -1.
          1    1    1    2  502    0 -0.40544059603E+01 -0.21197533708E+02  0.10218853517E+04  0.10221132255E+04  0.00000000000E+00 0.  1.
         -1    1    1    2    0  501  0.40544059603E+01  0.21197533708E+02  0.65560256244E+03  0.65595769186E+03  0.00000000000E+00 0. -1.
</event>
<event>
 4    1  0.7060698E+001  0.2319277E+02  0.7546771E-02  0.1490092E+00
          2   -1    0    0  502    0  0.00000000000E+00  0.00000000000E+00  0.84543615189E+03  0.84543615189E+03  0.00000000000E+00 0.  1.
         -2   -1    0    0    0  501 -0.00000000000E+00 -0.00000000000E+00 -0.70882261702E+00  0.70882261702E+00  0.00000000000E+00 0. -1.
          1    1    1    2  502    0  0.22806776905E+02  0.42137150696E+01  0.28698583276E+03  0.28792146963E+03  0.00000000000E+00 0. -1.
         -1    1    1    2    0  501 -0.22806776905E+02 -0.42137150696E+01  0.55774149651E+03  0.55822350488E+03  0.00000000000E+00 0.  1.
</event>
<event>
 4    1  0.7060698E+001  0.2571079E+02  0.7546771E-02  0.1461007E+00
          2   -1    0    0  502    0  0.00000000000E+00  0.00000000000E+00  0.18655542688E+04  0.18655542688E+04  0.00000000000E+00 0.  1.
         -2   -1    0    0    0  501 -0.00000000000E+00 -0.00000000000E+00 -0.41268452313E+00  0.41268452313E+00  0.00000000000E+00 0. -1.
          1    1    1    2  502    0 -0.17325605744E+02  0.18996525698E+02  0.58177310429E+03  0.58234095638E+03  0.00000000000E+00 0. -1.
         -1    1    1    2    0  501  0.17325605744E+02 -0.18996525698E+02  0.12833684799E+04  0.12836259969E+04  0.00000000000E+00 0.  1.
</event>
<event>
 4    1  0.7060698E+001  0.4953552E+02  0.7546771E-02  0.1300199E+00
          2   -1    0    0  502    0  0.00000000000E+00  0.00000000000E+00  0.44340257187E+01  0.44340257187E+01  0.00000000000E+00 0.  1.
         -2   -1    0    0    0  501 -0.00000000000E+00 -0.00000000000E+00 -0.65276219380E+03  0.65276219380E+03  0.00000000000E+00 0. -1.
          1    1    1    2  502    0  0.38548323465E+01  0.49385298216E+02 -0.19595783322E+03  0.20212184397E+03  0.00000000000E+00 0.  1.
         -1    1    1    2    0  501 -0.38548323465E+01 -0.49385298216E+02 -0.45237033486E+03  0.45507437554E+03  0.00000000000E+00 0. -1.
</event>
<event>
 4    1  0.7060698E+001  0.2039366E+02  0.7546771E-02  0.1528101E+00
          2   -1    0    0  502    0  0.00000000000E+00  0.00000000000E+00  0.77976925250E+02  0.77976925250E+02  0.00000000000E+00 0. -1.
         -2   -1    0    0    0  501 -0.00000000000E+00 -0.00000000000E+00 -0.58129896830E+01  0.58129896830E+01  0.00000000000E+00 0.  1.
          1    1    1    2  502    0  0.19639636067E+02  0.54941812920E+01  0.24051420607E+02  0.31533667185E+02  0.00000000000E+00 0. -1.
         -1    1    1    2    0  501 -0.19639636067E+02 -0.54941812920E+01  0.48112514960E+02  0.52256247748E+02  0.00000000000E+00 0.  1.
</event>
<event>
 4    1  0.7060698E+001  0.3377263E+02  0.7546771E-02  0.1389403E+00
          2   -1    0    0  502    0  0.00000000000E+00  0.00000000000E+00  0.33991715787E+03  0.33991715787E+03  0.00000000000E+00 0. -1.
         -2   -1    0    0    0  501 -0.00000000000E+00 -0.00000000000E+00 -0.33401711693E+02  0.33401711693E+02  0.00000000000E+00 0.  1.
          1    1    1    2  502    0  0.25525575832E+02  0.22114150774E+02 -0.23777822895E+02  0.41303456849E+02  0.00000000000E+00 0.  1.
         -1    1    1    2    0  501 -0.25525575832E+02 -0.22114150774E+02  0.33029326907E+03  0.33201541272E+03  0.00000000000E+00 0. -1.
</event>
<event>
 4    1  0.7060698E+001  0.2146830E+02  0.7546771E-02  0.1512683E+00
          2   -1    0    0  502    0  0.00000000000E+00  0.00000000000E+00  0.14013135194E+04  0.14013135194E+04  0.00000000000E+00 0.  1.
         -2   -1    0    0    0  501 -0.00000000000E+00 -0.00000000000E+00 -0.37137379504E+00  0.37137379504E+00  0.00000000000E+00 0. -1.
          1    1    1    2  502    0  0.16767058105E+02 -0.13407224474E+02  0.46344817668E+03  0.46394514802E+03  0.00000000000E+00 0.  1.
         -1    1    1    2    0  501 -0.16767058105E+02  0.13407224474E+02  0.93749396888E+03  0.93773974513E+03  0.00000000000E+00 0. -1.
</event>
<event>
 4    1  0.7060698E+001  0.2573606E+02  0.7546771E-02  0.1460735E+00
          2   -1    0    0  502    0  0.00000000000E+00  0.00000000000E+00  0.33584762844E+03  0.33584762844E+03  0.00000000000E+00 0.  1.
         -2   -1    0    0    0  501 -0.00000000000E+00 -0.00000000000E+00 -0.19968059246E+01  0.19968059246E+01  0.00000000000E+00 0. -1.
          1    1    1    2  502    0  0.25654368244E+02  0.20489555383E+01  0.14815807278E+03  0.15037672479E+03  0.00000000000E+00 0.  1.
         -1    1    1    2    0  501 -0.25654368244E+02 -0.20489555383E+01  0.18569274974E+03  0.18746770957E+03  0.00000000000E+00 0. -1.
</event>
<event>
 4    1  0.7060698E+001  0.2482055E+02  0.7546771E-02  0.1470821E+00
          2   -1    0    0  502    0  0.00000000000E+00  0.00000000000E+00  0.37874406165E+03  0.37874406165E+03  0.00000000000E+00 0. -1.
         -2   -1    0    0    0  501 -0.00000000000E+00 -0.00000000000E+00 -0.16932282605E+01  0.16932282605E+01  0.00000000000E+00 0.  1.
          1    1    1    2  502    0  0.25195245702E+01  0.24692345732E+02  0.15078828664E+03  0.15281743136E+03  0.00000000000E+00 0.  1.
         -1    1    1    2    0  501 -0.25195245702E+01 -0.24692345732E+02  0.22626254676E+03  0.22761985855E+03  0.00000000000E+00 0. -1.
</event>
<event>
 4    1  0.7060698E+001  0.2663932E+02  0.7546771E-02  0.1451265E+00
          2   -1    0    0  502    0  0.00000000000E+00  0.00000000000E+00  0.14632625771E+03  0.14632625771E+03  0.00000000000E+00 0. -1.
         -2   -1    0    0    0  501 -0.00000000000E+00 -0.00000000000E+00 -0.10501758007E+02  0.10501758007E+02  0.00000000000E+00 0.  1.
          1    1    1    2  502    0  0.14185859009E+02  0.22548053912E+02  0.10386531964E+02  0.28592540588E+02  0.00000000000E+00 0.  1.
         -1    1    1    2    0  501 -0.14185859009E+02 -0.22548053912E+02  0.12543796774E+03  0.12823547513E+03  0.00000000000E+00 0. -1.
</event>
<event>
 4    1  0.7060698E+001  0.2515749E+02  0.7546771E-02  0.1467049E+00
          2   -1    0    0  502    0  0.00000000000E+00  0.00000000000E+00  0.53584680784E+02  0.53584680784E+02  0.00000000000E+00 0. -1.
         -2   -1    0    0    0  501 -0.00000000000E+00 -0.00000000000E+00 -0.14606671795E+02  0.14606671795E+02  0.00000000000E+00 0.  1.
          1    1    1    2  502    0  0.20915303683E+02  0.13980323954E+02  0.45730439912E+01  0.25569750045E+02  0.00000000000E+00 0.  1.
         -1    1    1    2    0  501 -0.20915303683E+02 -0.13980323954E+02  0.34404964998E+02  0.42621602534E+02  0.00000000000E+00 0. -1.
</event>
<event>
 4    1  0.7060698E+001  0.2095618E+02  0.7546771E-02  0.1519891E+00
          2   -1    0    0  502    0  0.00000000000E+00  0.00000000000E+00  0.19251444360E+01  0.19251444360E+01  0.00000000000E+00 0. -1.
         -2   -1    0    0    0  501 -0.00000000000E+00 -0.00000000000E+00 -0.24238576855E+03  0.24238576855E+03  0.00000000000E+00 0.  1.
          1    1    1    2  502    0  0.82177221257E+01 -0.19277721692E+02 -0.14986676177E+03  0.15132484196E+03  0.00000000000E+00 0. -1.
         -1    1    1    2    0  501 -0.82177221257E+01  0.19277721692E+02 -0.90593862344E+02  0.92986071026E+02  0.00000000000E+00 0.  1.
</event>
<event>
 4    1  0.7060698E+001  0.2762297E+02  0.7546771E-02  0.1441449E+00
          2   -1    0    0  502    0  0.00000000000E+00  0.00000000000E+00  0.30153232675E+01  0.30153232675E+01  0.00000000000E+00 0.  1.
         -2   -1    0    0    0  501 -0.00000000000E+00 -0.00000000000E+00 -0.25949937050E+03  0.25949937050E+03  0.00000000000E+00 0. -1.
          1    1    1    2  502    0 -0.26703345174E+02 -0.70682269956E+01 -0.14893408789E+03  0.15147406052E+03  0.00000000000E+00 0. -1.
         -1    1    1    2    0  501  0.26703345174E+02  0.70682269956E+01 -0.10754995935E+03  0.11104063325E+03  0.00000000000E+00 0.  1.
</event>
<event>
 4    1  0.7060698E+001  0.2118695E+02  0.7546771E-02  0.1516612E+00
          2   -1    0    0  502    0  0.00000000000E+00  0.00000000000E+00  0.35447394152E+03  0.35447394152E+03  0.00000000000E+00 0.  1.
         -2   -1    0    0    0  501 -0.00000000000E+00 -0.00000000000E+00 -0.19356101086E+01  0.19356101086E+01  0.00000000000E+00 0. -1.
          1    1    1    2  502    0 -0.34527906950E+01 -0.20903705445E+02  0.71481742901E+02  0.74555524498E+02  0.00000000000E+00 0. -1.
         -1    1    1    2    0  501  0.34527906950E+01  0.20903705445E+02  0.28105658851E+03  0.28185402713E+03  0.00000000000E+00 0.  1.
</event>
<event>
 4    1  0.7060698E+001  0.2678472E+02  0.7546771E-02  0.1449783E+00
          2   -1    0    0  502    0  0.00000000000E+00  0.00000000000E+00  0.10055951790E+04  0.10055951790E+04  0.00000000000E+00 0. -1.
         -2   -1    0    0    0  501 -0.00000000000E+00 -0.00000000000E+00 -0.10704565629E+01  0.10704565629E+01  0.00000000000E+00 0.  1.
          1    1    1    2  502    0  0.58231023386E+01 -0.26144075248E+02  0.21157822134E+03  0.21326688664E+03  0.00000000000E+00 0.  1.
         -1    1    1    2    0  501 -0.58231023386E+01  0.26144075248E+02  0.79294650106E+03  0.79339874889E+03  0.00000000000E+00 0. -1.
</event>
<event>
 4    1  0.7060698E+001  0.3352311E+02  0.7546771E-02  0.1391254E+00
          2   -1    0    0  502    0  0.00000000000E+00  0.00000000000E+00  0.23742781820E+03  0.23742781820E+03  0.00000000000E+00 0. -1.
         -2   -1    0    0    0  501 -0.00000000000E+00 -0.00000000000E+00 -0.47340610847E+01  0.47340610847E+01  0.00000000000E+00 0.  1.
          1    1    1    2  502    0  0.19061275312E+02 -0.27576562299E+02  0.11795711670E+03  0.12262822018E+03  0.00000000000E+00 0.  1.
         -1    1    1    2    0  501 -0.19061275312E+02  0.27576562299E+02  0.11473664041E+03  0.11953365910E+03  0.00000000000E+00 0. -1.
</event>
<event>
 4    1  0.7060698E+001  0.2659810E+02  0.7546771E-02  0.1451688E+00
          2   -1    0    0  502    0  0.00000000000E+00  0.00000000000E+00  0.21310242885E+04  0.21310242885E+04  0.00000000000E+00 0.  1.
         -2   -1    0    0    0  501 -0.00000000000E+00 -0.00000000000E+00 -0.35383871154E+00  0.35383871154E+00  0.00000000000E+00 0. -1.
          1    1    1    2  502    0  0.40835328231E+01 -0.26282762601E+02  0.80046474587E+03  0.80090652903E+03  0.00000000000E+00 0. -1.
         -1    1    1    2    0  501 -0.40835328231E+01  0.26282762601E+02  0.13302057039E+04  0.13304715982E+04  0.00000000000E+00 0.  1.
</event>
<event>
 4    1  0.7060698E+001  0.2046694E+02  0.7546771E-02  0.1527013E+00
          2   -1    0    0  502    0  0.00000000000E+00  0.00000000000E+00  0.91425475859E+03  0.91425475859E+03  0.00000000000E+00 0.  1.
         -2   -1    0    0    0  501 -0.00000000000E+00 -0.00000000000E+00 -0.51436200698E+00  0.51436200698E+00  0.00000000000E+00 0. -1.
          1    1    1    2  502    0  0.29812757956E+01  0.20248647039E+02  0.30571076528E+03  0.30639511700E+03  0.00000000000E+00 0.  1.
         -1    1    1    2    0  501 -0.29812757956E+01 -0.20248647039E+02  0.60802963130E+03  0.60837400359E+03  0.00000000000E+00 0. -1.
</event>
<event>
 4    1  0.7060698E+001  0.2958336E+02  0.7546771E-02  0.1423252E+00
          2   -1    0    0  502    0  0.00000000000E+00  0.00000000000E+00  0.11991298865E+02  0.11991298865E+02  0.00000000000E+00 0. -1.
         -2   -1    0    0    0  501 -0.00000000000E+00 -0.00000000000E+00 -0.97982173049E+02  0.97982173049E+02  0.00000000000E+00 0.  1.
          1    1    1    2  502    0 -0.28748387236E+02  0.69789418776E+01 -0.70769331049E+02  0.76703804440E+02  0.00000000000E+00 0.  1.
         -1    1    1    2    0  501  0.28748387236E+02 -0.69789418776E+01 -0.15221543136E+02  0.33269667474E+02  0.00000000000E+00 0. -1.
</event>
<event>
 4    1  0.7060698E+001  0.3256437E+02  0.7546771E-02  0.1398546E+00
          2   -1    0    0  502    0  0.00000000000E+00  0.00000000000E+00  0.12541048645E+04  0.12541048645E+04  0.00000000000E+00 0.  1.
         -2   -1    0    0    0  501 -0.00000000000E+00 -0.00000000000E+00 -0.94563375527E+00  0.94563375527E+00  0.00000000000E+00 0. -1.
          1    1    1    2  502    0 -0.89773274096E+01 -0.31302488936E+02  0.42245289174E+03  0.42370612925E+03  0.00000000000E+00 0. -1.
         -1    1    1    2    0  501  0.89773274096E+01  0.31302488936E+02  0.83070633899E+03  0.83134436899E+03  0.00000000000E+00 0.  1.
</event>
<event>
 4    1  0.7060698E+001  0.2853769E+02  0.7546771E-02  0.1432744E+00
          2   -1    0    0  502    0  0.00000000000E+00  0.00000000000E+00  0.79219685754E+02  0.79219685754E+02  0.00000000000E+00 0.  1.
         -2   -1    0    0    0  501 -0.00000000000E+00 -0.00000000000E+00 -0.11224543799E+02  0.11224543799E+02  0.00000000000E+00 0. -1.
          1    1    1    2  502    0  0.27609776979E+02 -0.72180465194E+01  0.47113976791E+02  0.55082908324E+02  0.00000000000E+00 0.  1.
         -1    1    1    2    0  501 -0.27609776979E+02  0.72180465194E+01  0.20881165165E+02  0.35361321228E+02  0.00000000000E+00 0. -1.
</event>
<event>
 4    1  0.7060698E+001  0.2016040E+02  0.7546771E-02  0.1531598E+00
          2   -1    0    0  502    0  0.00000000000E+00  0.00000000000E+00  0.53292913741E+03  0.53292913741E+03  0.00000000000E+00 0.  1.
         -2   -1    0    0    0  501 -0.00000000000E+00 -0.00000000000E+00 -0.10121167745E+01  0.10121167745E+01  0.00000000000E+00 0. -1.
          1    1    1    2  502    0 -0.16876875816E+02 -0.11027818062E+02  0.13341784903E+03  0.13493244290E+03  0.00000000000E+00 0. -1.
         -1    1    1    2    0  501  0.16876875816E+02  0.11027818062E+02  0.39849917160E+03  0.39900881128E+03  0.00000000000E+00 0.  1.
</event>
<event>
 4    1  0.7060698E+001  0.3080582E+02  0.7546771E-02  0.1412720E+00
          2   -1    0    0  502    0  0.00000000000E+00  0.00000000000E+00  0.23941113992E+03  0.23941113992E+03  0.00000000000E+00 0. -1.
         -2   -1    0    0    0  501 -0.00000000000E+00 -0.00000000000E+00 -0.63963970268E+01  0.63963970268E+01  0.00000000000E+00 0.  1.
          1    1    1    2  502    0 -0.53833455539E+01  0.30331805822E+02  0.40715128897E+02  0.51056053264E+02  0.00000000000E+00 0.  1.
         -1    1    1    2    0  501  0.53833455539E+01 -0.30331805822E+02  0.19229961400E+03  0.19475148369E+03  0.00000000000E+00 0. -1.
</event>
<event>
 4    1  0.7060698E+001  0.2778138E+02  0.7546771E-02  0.1439913E+00
          2   -1    0    0  502    0  0.00000000000E+00  0.00000000000E+00  0.12747462678E+04  0.12747462678E+04  0.00000000000E+00 0.  1.
         -2   -1    0    0    0  501 -0.00000000000E+00 -0.00000000000E+00 -0.63262954320E+00  0.63262954320E+00  0.00000000000E+00 0. -1.
          1    1    1    2  502    0 -0.11766276689E+02 -0.25166642819E+02  0.50489908743E+03  0.50566282607E+03  0.00000000000E+00 0. -1.
         -1    1    1    2    0  501  0.11766276689E+02  0.25166642819E+02  0.76921455079E+03  0.76971607124E+03  0.00000000000E+00 0.  1.
</event>
<event>
 4    1  0.7060698E+001  0.2056308E+02  0.7546771E-02  0.1525595E+00
          2   -1    0    0  502    0  0.00000000000E+00  0.00000000000E+00  0.64315677118E+03  0.64315677118E+03  0.00000000000E+00 0.  1.
         -2   -1    0    0    0  501 -0.00000000000E+00 -0.00000000000E+00 -0.11534067684E+01  0.11534067684E+01  0.00000000000E+00 0. -1.
          1    1    1    2  502    0  0.68431447491E+01  0.19391020540E+02  0.10975116674E+03  0.11166091039E+03  0.00000000000E+00 0. -1.
         -1    1    1    2    0  501 -0.68431447491E+01 -0.19391020540E+02  0.53225219767E+03  0.53264926756E+03  0.00000000000E+00 0.  1.
</event>
<event>
 4    1  0.7060698E+001  0.3241012E+02  0.7546771E-02  0.1399746E+00
          2   -1    0    0  502    0  0.00000000000E+00  0.00000000000E+00  0.15227884057E+03  0.15227884057E+03  0.00000000000E+00 0.  1.
         -2   -1    0    0    0  501 -0.00000000000E+00 -0.00000000000E+00 -0.97370497413E+01  0.97370497413E+01  0.00000000000E+00 0. -1.
          1    1    1    2  502    0 -0.23115586424E+02  0.22717515613E+02  0.11501325699E+03  0.11949253171E+03  0.00000000000E+00 0. -1.
         -1    1    1    2    0  501  0.23115586424E+02 -0.22717515613E+02  0.27528533839E+02  0.42523358600E+02  0.00000000000E+00 0.  1.
</event>
<event>
 4    1  0.7060698E+001  0.3075510E+02  0.7546771E-02  0.1413146E+00
          2   -1    0    0  502    0  0.00000000000E+00  0.00000000000E+00  0.64469688474E+01  0.64469688474E+01  0.00000000000E+00 0. -1.
         -2   -1    0    0    0  501 -0.00000000000E+00 -0.00000000000E+00 -0.14928863351E+03  0.14928863351E+03  0.00000000000E+00 0.  1.
          1    1    1    2  502    0 -0.11265886783E+02 -0.28617403376E+02 -0.61199658526E+02  0.68492876890E+02  0.00000000000E+00 0. -1.
         -1    1    1    2    0  501  0.11265886783E+02  0.28617403376E+02 -0.81642006136E+02  0.87242725466E+02  0.00000000000E+00 0.  1.
</event>
<event>
 4    1  0.7060698E+001  0.2053248E+02  0.7546771E-02  0.1526046E+00
          2   -1    0    0  502    0  0.00000000000E+00  0.00000000000E+00  0.11232657482E+02  0.11232657482E+02  0.00000000000E+00 0.  1.
         -2   -1    0    0    0  501 -0.00000000000E+00 -0.00000000000E+00 -0.18107641981E+03  0.18107641981E+03  0.00000000000E+00 0. -1.
          1    1    1    2  502    0 -0.13013217250E+02  0.15882032398E+02 -0.17053339456E+03  0.17176501808E+03  0.00000000000E+00 0. -1.
         -1    1    1    2    0  501  0.13013217250E+02 -0.15882032398E+02  0.68963223078E+00  0.20544059212E+02  0.00000000000E+00 0.  1.
</event>
<event>
 4    1  0.7060698E+001  0.2454988E+02  0.7546771E-02  0.1473902E+00
          2   -1    0    0  502    0  0.00000000000E+00  0.00000000000E+00  0.17656474680E+01  0.17656474680E+01  0.00000000000E+00 0. -1.
         -2   -1    0    0    0  501 -0.00000000000E+00 -0.00000000000E+00 -0.35496900454E+03  0.35496900454E+03  0.00000000000E+00 0.  1.
          1    1    1    2  502    0 -0.87918943746E+01 -0.22921587445E+02 -0.21154447397E+03  0.21296422480E+03  0.00000000000E+00 0.  1.
         -1    1    1    2    0  501  0.87918943746E+01  0.22921587445E+02 -0.14165888310E+03  0.14377042721E+03  0.00000000000E+00 0. -1.
</event>
<event>
 4    1  0.7060698E+001  0.7816728E+02  0.7546771E-02  0.1208167E+00
          2   -1    0    0  502    0  0.00000000000E+00  0.00000000000E+00  0.55076859173E+03  0.55076859173E+03  0.00000000000E+00 0. -1.
         -2   -1    0    0    0  501 -0.00000000000E+00 -0.00000000000E+00 -0.20352696514E+02  0.20352696514E+02  0.00000000000E+00 0.  1.
          1    1    1    2  502    0  0.56153694299E+02  0.54377260496E+02  0.45781255916E+03  0.46443779257E+03  0.00000000000E+00 0. -1.
         -1    1    1    2    0  501 -0.56153694299E+02 -0.54377260496E+02  0.72603336052E+02  0.10668349567E+03  0.00000000000E+00 0.  1.
</event>
<event>
 4    1  0.7060698E+001  0.2156203E+02  0.7546771E-02  0.1511390E+00
          2   -1    0    0  502    0  0.00000000000E+00  0.00000000000E+00  0.79961786798E+01  0.79961786798E+01  0.00000000000E+00 0.  1.
         -2   -1    0    0    0  501 -0.00000000000E+00 -0.00000000000E+00 -0.10038181924E+03  0.10038181924E+03  0.00000000000E+00 0. -1.
          1    1    1    2  502    0  0.18233364547E+02  0.11509370732E+02 -0.81343997989E+02  0.84153236457E+02  0.00000000000E+00 0. -1.
         -1    1    1    2    0  501 -0.18233364547E+02 -0.11509370732E+02 -0.11041642575E+02  0.24224761467E+02  0.00000000000E+00 0.  1.
</event>
<event>
 4    1  0.7060698E+001  0.2413722E+02  0.7546771E-02  0.1478691E+00
          2   -1    0    0  502    0  0.00000000000E+00  0.00000000000E+00  0.78414161584E+03  0.78414161584E+03  0.00000000000E+00 0.  1.
         -2   -1    0    0    0  501 -0.00000000000E+00 -0.00000000000E+00 -0.84034918536E+00  0.84034918536E+00  0.00000000000E+00 0. -1.
          1    1    1    2  502    0  0.81898897727E+01  0.22705314166E+02  0.25805291333E+03  0.25917930408E+03  0.00000000000E+00 0. -1.
         -1    1    1    2    0  501 -0.81898897727E+01 -0.22705314166E+02  0.52524835332E+03  0.52580266094E+03  0.00000000000E+00 0.  1.
</event>
<event>
 4    1  0.7060698E+001  0.2033403E+02  0.7546771E-02  0.1528989E+00
          2   -1    0    0  502    0  0.00000000000E+00  0.00000000000E+00  0.82980171903E+02  0.82980171903E+02  0.00000000000E+00 0.  1.
         -2   -1    0    0    0  501 -0.00000000000E+00 -0.00000000000E+00 -0.53739180330E+01  0.53739180330E+01  0.00000000000E+00 0. -1.
          1    1    1    2  502    0  0.45105621082E+00  0.20329023042E+02  0.26884902488E+02  0.33708613311E+02  0.00000000000E+00 0.  1.
         -1    1    1    2    0  501 -0.45105621082E+00 -0.20329023042E+02  0.50721351382E+02  0.54645476625E+02  0.00000000000E+00 0. -1.
</event>
<event>
 4    1  0.7060698E+001  0.2420193E+02  0.7546771E-02  0.1477933E+00
          2   -1    0    0  502    0  0.00000000000E+00  0.00000000000E+00  0.14025433186E+02  0.14025433186E+02  0.00000000000E+00 0. -1.
         -2   -1    0    0    0  501 -0.00000000000E+00 -0.00000000000E+00 -0.41969337564E+02  0.41969337564E+02  0.00000000000E+00 0.  1.
          1    1    1    2  502    0 -0.79289439334E+01 -0.22866247536E+02 -0.12005221996E+02  0.27015898717E+02  0.00000000000E+00 0.  1.
         -1    1    1    2    0  501  0.79289439334E+01  0.22866247536E+02 -0.15938682382E+02  0.28978872034E+02  0.00000000000E+00 0. -1.
</event>
<event>
 4    1  0.7060698E+001  0.3017643E+02  0.7546771E-02  0.1418069E+00
          2   -1    0    0  502    0  0.00000000000E+00  0.00000000000E+00  0.38088874793E+03  0.38088874793E+03  0.00000000000E+00 0.  1.
         -2   -1    0    0    0  501 -0.00000000000E+00 -0.00000000000E+00 -0.28882647983E+01  0.28882647983E+01  0.00000000000E+00 0. -1.
          1    1    1    2  502    0  0.43297968580E+01  0.29864185124E+02  0.26863919253E+03  0.27032874885E+03  0.00000000000E+00 0.  1.
         -1    1    1    2    0  501 -0.43297968580E+01 -0.29864185124E+02  0.10936129060E+03  0.11344826388E+03  0.00000000000E+00 0. -1.
</event>
<event>
 4    1  0.7060698E+001  0.2095757E+02  0.7546771E-02  0.1519871E+00
          2   -1    0    0  502    0  0.00000000000E+00  0.00000000000E+00  0.63434678136E+03  0.63434678136E+03  0.00000000000E+00 0. -1.
         -2   -1    0    0    0  501 -0.00000000000E+00 -0.00000000000E+00 -0.69890124406E+00  0.69890124406E+00  0.00000000000E+00 0.  1.
          1    1    1    2  502    0 -0.20426124240E+02 -0.46897040191E+01  0.34745499542E+03  0.34808647448E+03  0.00000000000E+00 0. -1.
         -1    1    1    2    0  501  0.20426124240E+02  0.46897040191E+01  0.28619288470E+03  0.28695920812E+03  0.00000000000E+00 0.  1.
</event>
<event>
 4    1  0.7060698E+001  0.2329997E+02  0.7546771E-02  0.1488765E+00
          2   -1    0    0  502    0  0.00000000000E+00  0.00000000000E+00  0.44138756456E+01  0.44138756456E+01  0.00000000000E+00 0. -1.
         -2   -1    0    0    0  501 -0.00000000000E+00 -0.00000000000E+00 -0.15984510593E+03  0.15984510593E+03  0.00000000000E+00 0.  1.
          1    1    1    2  502    0 -0.10795873684E+02  0.20647946674E+02 -0.38282276545E+02  0.44815413508E+02  0.00000000000E+00 0. -1.
         -1    1    1    2    0  501  0.10795873684E+02 -0.20647946674E+02 -0.11714895374E+03  0.11944356807E+03  0.00000000000E+00 0.  1.
</event>
<event>
 4    1  0.7060698E+001  0.4118738E+02  0.7546771E-02  0.1341665E+00
          2   -1    0    0  502    0  0.00000000000E+00  0.00000000000E+00  0.24789685294E+04  0.24789685294E+04  0.00000000000E+00 0.  1.
         -2   -1    0    0    0  501 -0.00000000000E+00 -0.00000000000E+00 -0.70419354915E+00  0.70419354915E+00  0.00000000000E+00 0. -1.
          1    1    1    2  502    0  0.29891069434E+02 -0.28335915300E+02  0.10308319944E+04  0.10316544968E+04  0.00000000000E+00 0. -1.
         -1    1    1    2    0  501 -0.29891069434E+02  0.28335915300E+02  0.14474323415E+04  0.14480182262E+04  0.00000000000E+00 0.  1.
</event>
<event>
 4    1  0.7060698E+001  0.2096308E+02  0.7546771E-02  0.1519793E+00
          2   -1    0    0  502    0  0.00000000000E+00  0.00000000000E+00  0.95140428293E+02  0.95140428293E+02  0.00000000000E+00 0.  1.
         -2   -1    0    0    0  501 -0.00000000000E+00 -0.00000000000E+00 -0.48909186671E+01  0.48909186671E+01  0.00000000000E+00 0. -1.
          1    1    1    2  502    0 -0.67282137904E+01 -0.19854008760E+02  0.33330879142E+02  0.39375094019E+02  0.00000000000E+00 0.  1.
         -1    1    1    2    0  501  0.67282137904E+01  0.19854008760E+02  0.56918630484E+02  0.60656252941E+02  0.00000000000E+00 0. -1.
</event>
<event>
 4    1  0.7060698E+001  0.2567665E+02  0.7546771E-02  0.1461374E+00
          2   -1    0    0  502    0  0.00000000000E+00  0.00000000000E+00  0.33175630913E+02  0.33175630913E+02  0.00000000000E+00 0.  1.
         -2   -1    0    0    0  501 -0.00000000000E+00 -0.00000000000E+00 -0.22776664318E+02  0.22776664318E+02  0.00000000000E+00 0. -1.
          1    1    1    2  502    0 -0.24013866140E+02 -0.90898188374E+01 -0.47898327531E+01  0.26119591714E+02  0.00000000000E+00 0. -1.
         -1    1    1    2    0  501  0.24013866140E+02  0.90898188374E+01  0.15188799348E+02  0.29832703517E+02  0.00000000000E+00 0.  1.
</event>
<event>
 4    1  0.7060698E+001  0.2102963E+02  0.7546771E-02  0.1518842E+00
          2   -1    0    0  502    0  0.00000000000E+00  0.00000000000E+00  0.22772349659E+04  0.22772349659E+04  0.00000000000E+00 0. -1.
         -2   -1    0    0    0  501 -0.00000000000E+00 -0.00000000000E+00 -0.21450543552E+00  0.21450543552E+00  0.00000000000E+00 0.  1.
          1    1    1    2  502    0 -0.18330919574E+02 -0.10306438095E+02  0.14888394921E+04  0.14889880048E+04  0.00000000000E+00 0. -1.
         -1    1    1    2    0  501  0.18330919574E+02  0.10306438095E+02  0.78818096839E+03  0.78846146653E+03  0.00000000000E+00 0.  1.
</event>
<event>
 4    1  0.7060698E+001  0.2287470E+02  0.7546771E-02  0.1494078E+00
          2   -1    0    0  502    0  0.00000000000E+00  0.00000000000E+00  0.43475101783E+01  0.43475101783E+01  0.00000000000E+00 0. -1.
         -2   -1    0    0    0  501 -0.00000000000E+00 -0.00000000000E+00 -0.27978864246E+03  0.27978864246E+03  0.00000000000E+00 0.  1.
          1    1    1    2  502    0 -0.40041019325E+01 -0.22521528034E+02 -0.30477529357E+02  0.38106847849E+02  0.00000000000E+00 0. -1.
         -1    1    1    2    0  501  0.40041019325E+01  0.22521528034E+02 -0.24496360293E+03  0.24602930479E+03  0.00000000000E+00 0.  1.
</event>
<event>
 4    1  0.7060698E+001  0.2489788E+02  0.7546771E-02  0.1469949E+00
          2   -1    0    0  502    0  0.00000000000E+00  0.00000000000E+00  0.11233299103E+04  0.11233299103E+04  0.00000000000E+00 0. -1.
         -2   -1    0    0    0  501 -0.00000000000E+00 -0.00000000000E+00 -0.57775635905E+00  0.57775635905E+00  0.00000000000E+00 0.  1.
          1    1    1    2  502    0  0.12578111951E+02 -0.21487099249E+02  0.68038261739E+03  0.68083802067E+03  0.00000000000E+00 0.  1.
         -1    1    1    2    0  501 -0.12578111951E+02  0.21487099249E+02  0.44236953654E+03  0.44306964599E+03  0.00000000000E+00 0. -1.
</event>
<event>
 4    1  0.7060698E+001  0.2459126E+02  0.7546771E-02  0.1473428E+00
          2   -1    0    0  502    0  0.00000000000E+00  0.00000000000E+00  0.10259413350E+02  0.10259413350E+02  0.00000000000E+00 0.  1.
         -2   -1    0    0    0  501 -0.00000000000E+00 -0.00000000000E+00 -0.69031892711E+02  0.69031892711E+02  0.00000000000E+00 0. -1.
          1    1    1    2  502    0 -0.23256806718E+02  0.79906730212E+01 -0.44541831444E+02  0.50879314681E+02  0.00000000000E+00 0. -1.
         -1    1    1    2    0  501  0.23256806718E+02 -0.79906730212E+01 -0.14230647917E+02  0.28411991380E+02  0.00000000000E+00 0.  1.
</event>
<event>
 4    1  0.7060698E+001  0.2534016E+02  0.7546771E-02  0.1465034E+00
          2   -1    0    0  502    0  0.00000000000E+00  0.00000000000E+00  0.20668837656E+04  0.20668837656E+04  0.00000000000E+00 0. -1.
         -2   -1    0    0    0  501 -0.00000000000E+00 -0.00000000000E+00 -0.41031546255E+00  0.41031546255E+00  0.00000000000E+00 0.  1.
          1    1    1    2  502    0  0.12758073548E+02  0.21894186611E+02  0.15426106898E+04  0.15428188047E+04  0.00000000000E+00 0. -1.
         -1    1    1    2    0  501 -0.12758073548E+02 -0.21894186611E+02  0.52386276026E+03  0.52447527629E+03  0.00000000000E+00 0.  1.
</event>
<event>
 4    1  0.7060698E+001  0.2077917E+02  0.7546771E-02  0.1522441E+00
          2   -1    0    0  502    0  0.00000000000E+00  0.00000000000E+00  0.10160242220E+03  0.10160242220E+03  0.00000000000E+00 0.  1.
         -2   -1    0    0    0  501 -0.00000000000E+00 -0.00000000000E+00 -0.47008463073E+01  0.47008463073E+01  0.00000000000E+00 0. -1.
          1    1    1    2  502    0 -0.13696351308E+02 -0.15626386808E+02  0.31983775228E+02  0.38141000009E+02  0.00000000000E+00 0. -1.
         -1    1    1    2    0  501  0.13696351308E+02  0.15626386808E+02  0.64917800669E+02  0.68162268503E+02  0.00000000000E+00 0.  1.
</event>
<event>
 4    1  0.7060698E+001  0.2727725E+02  0.7546771E-02  0.1444843E+00
          2   -1    0    0  502    0  0.00000000000E+00  0.00000000000E+00  0.14530781006E+03  0.14530781006E+03  0.00000000000E+00 0. -1.
         -2   -1    0    0    0  501 -0.00000000000E+00 -0.00000000000E+00 -0.11159497488E+02  0.11159497488E+02  0.00000000000E+00 0.  1.
          1    1    1    2  502    0 -0.23730946564E+02 -0.13449553400E+02  0.12462527902E+03  0.12757550111E+03  0.00000000000E+00 0. -1.
         -1    1    1    2    0  501  0.23730946564E+02  0.13449553400E+02  0.95230335509E+01  0.28891806442E+02  0.00000000000E+00 0.  1.
</event>
<event>
 4    1  0.7060698E+001  0.2108078E+02  0.7546771E-02  0.1518115E+00
          2   -1    0    0  502    0  0.00000000000E+00  0.00000000000E+00  0.17445958448E+03  0.17445958448E+03  0.00000000000E+00 0. -1.
         -2   -1    0    0    0  501 -0.00000000000E+00 -0.00000000000E+00 -0.27576403570E+01  0.27576403570E+01  0.00000000000E+00 0.  1.
          1    1    1    2  502    0 -0.86423013067E+01 -0.19227838154E+02  0.61378441168E+02  0.64897705446E+02  0.00000000000E+00 0.  1.
         -1    1    1    2    0  501  0.86423013067E+01  0.19227838154E+02  0.11032350296E+03  0.11231951939E+03  0.00000000000E+00 0. -1.
</event>
<event>
 4    1  0.7060698E+001  0.2080144E+02  0.7546771E-02  0.1522119E+00
          2   -1    0    0  502    0  0.00000000000E+00  0.00000000000E+00  0.21244364893E+01  0.21244364893E+01  0.00000000000E+00 0. -1.
         -2   -1    0    0    0  501 -0.00000000000E+00 -0.00000000000E+00 -0.20538432764E+03  0.20538432764E+03  0.00000000000E+00 0.  1.
          1    1    1    2  502    0  0.14087473983E+02 -0.15304992377E+02 -0.11108860308E+03  0.11301936758E+03  0.00000000000E+00 0.  1.
         -1    1    1    2    0  501 -0.14087473983E+02  0.15304992377E+02 -0.92171288076E+02  0.94489396550E+02  0.00000000000E+00 0. -1.
</event>
<event>
 4    1  0.7060698E+001  0.2134273E+02  0.7546771E-02  0.1514427E+00
          2   -1    0    0  502    0  0.00000000000E+00  0.00000000000E+00  0.45989879504E+03  0.45989879504E+03  0.00000000000E+00 0. -1.
         -2   -1    0    0    0  501 -0.00000000000E+00 -0.00000000000E+00 -0.10657997152E+01  0.10657997152E+01  0.00000000000E+00 0.  1.
          1    1    1    2  502    0 -0.23370281678E+01 -0.21214395157E+02  0.16813828234E+03  0.16948744570E+03  0.00000000000E+00 0.  1.
         -1    1    1    2    0  501  0.23370281678E+01  0.21214395157E+02  0.29069471299E+03  0.29147714906E+03  0.00000000000E+00 0. -1.
</event>
<event>
 4    1  0.7060698E+001  0.2998958E+02  0.7546771E-02  0.1419687E+00
          2   -1    0    0  502    0  0.00000000000E+00  0.00000000000E+00  0.12821473987E+03  0.12821473987E+03  0.00000000000E+00 0. -1.
         -2   -1    0    0    0  501 -0.00000000000E+00 -0.00000000000E+00 -0.70507987997E+01  0.70507987997E+01  0.00000000000E+00 0.  1.
          1    1    1    2  502    0 -0.24472221457E+02 -0.17334507152E+02  0.65428173675E+02  0.71973749880E+02  0.00000000000E+00 0.  1.
         -1    1    1    2    0  501  0.24472221457E+02  0.17334507152E+02  0.55735767398E+02  0.63291788794E+02  0.00000000000E+00 0. -1.
</event>
<event>
 4    1  0.7060698E+001  0.2201349E+02  0.7546771E-02  0.1505272E+00
          2   -1    0    0  502    0  0.00000000000E+00  0.00000000000E+00  0.21002816188E+02  0.21002816188E+02  0.00000000000E+00 0.  1.
         -2   -1    0    0    0  501 -0.00000000000E+00 -0.00000000000E+00 -0.23699725182E+02  0.23699725182E+02  0.00000000000E+00 0. -1.
          1    1    1    2  502    0  0.19072095609E+02 -0.10993139968E+02  0.22868052939E+01  0.22131955081E+02  0.00000000000E+00 0.  1.
         -1    1    1    2    0  501 -0.19072095609E+02  0.10993139968E+02 -0.49837142878E+01  0.22570586288E+02  0.00000000000E+00 0. -1.
</event>
<event>
 4    1  0.7060698E+001  0.2177192E+02  0.7546771E-02  0.1508523E+00
          2   -1    0    0  502    0  0.00000000000E+00  0.00000000000E+00  0.28901565726E+02  0.28901565726E+02  0.00000000000E+00 0. -1.
         -2   -1    0    0    0  501 -0.00000000000E+00 -0.00000000000E+00 -0.16951099887E+02  0.16951099887E+02  0.00000000000E+00 0.  1.
          1    1    1    2  502    0 -0.11555492971E+02 -0.18452288199E+02  0.18454032354E+01  0.21849985600E+02  0.00000000000E+00 0.  1.
         -1    1    1    2    0  501  0.11555492971E+02  0.18452288199E+02  0.10105062603E+02  0.24002680013E+02  0.00000000000E+00 0. -1.
</event>
<event>
 4    1  0.7060698E+001  0.2639198E+02  0.7546771E-02  0.1453813E+00
          2   -1    0    0  502    0  0.00000000000E+00  0.00000000000E+00  0.17852624136E+02  0.17852624136E+02  0.00000000000E+00 0. -1.
         -2   -1    0    0    0  501 -0.00000000000E+00 -0.00000000000E+00 -0.42140845474E+02  0.42140845474E+02  0.00000000000E+00 0.  1.
          1    1    1    2  502    0  0.21192429242E+02 -0.15729511452E+02 -0.39756153140E+01  0.26689737819E+02  0.00000000000E+00 0. -1.
         -1    1    1    2    0  501 -0.21192429242E+02  0.15729511452E+02 -0.20312606024E+02  0.33303731791E+02  0.00000000000E+00 0.  1.
</event>
<event>
 4    1  0.7060698E+001  0.2780726E+02  0.7546771E-02  0.1439663E+00
          2   -1    0    0  502    0  0.00000000000E+00  0.00000000000E+00  0.26280609611E+03  0.26280609611E+03  0.00000000000E+00 0.  1.
         -2   -1    0    0    0  501 -0.00000000000E+00 -0.00000000000E+00 -0.41175453040E+01  0.41175453040E+01  0.00000000000E+00 0. -1.
          1    1    1    2  502    0  0.21504237345E+02  0.17629848007E+02  0.58040984407E+02  0.64358368806E+02  0.00000000000E+00 0. -1.
         -1    1    1    2    0  501 -0.21504237345E+02 -0.17629848007E+02  0.20064756640E+03  0.20256527261E+03  0.00000000000E+00 0.  1.
</event>
<event>
 4    1  0.7060698E+001  0.5084478E+02  0.7546771E-02  0.1294551E+00
          2   -1    0    0  502    0  0.00000000000E+00  0.00000000000E+00  0.39892267493E+03  0.39892267493E+03  0.00000000000E+00 0.  1.
         -2   -1    0    0    0  501 -0.00000000000E+00 -0.00000000000E+00 -0.64812441893E+01  0.64812441893E+01  0.00000000000E+00 0. -1.
          1    1    1    2  502    0  0.17221395545E+02  0.47839477830E+02  0.19395452304E+03  0.20050822705E+03  0.00000000000E+00 0. -1.
         -1    1    1    2    0  501 -0.17221395545E+02 -0.47839477830E+02  0.19848690770E+03  0.20489569207E+03  0.00000000000E+00 0.  1.
</event>
<event>
 4    1  0.7060698E+001  0.2098940E+02  0.7546771E-02  0.1519416E+00
          2   -1    0    0  502    0  0.00000000000E+00  0.00000000000E+00  0.18797276440E+04  0.18797276440E+04  0.00000000000E+00 0.  1.
         -2   -1    0    0    0  501 -0.00000000000E+00 -0.00000000000E+00 -0.24040917351E+00  0.24040917351E+00  0.00000000000E+00 0. -1.
          1    1    1    2  502    0  0.20708931018E+02 -0.34198303913E+01  0.79078327743E+03  0.79106178451E+03  0.00000000000E+00 0.  1.
         -1    1    1    2    0  501 -0.20708931018E+02  0.34198303913E+01  0.10887039574E+04  0.10889062686E+04  0.00000000000E+00 0. -1.
</event>
<event>
 4    1  0.7060698E+001  0.2571572E+02  0.7546771E-02  0.1460954E+00
          2   -1    0    0  502    0  0.00000000000E+00  0.00000000000E+00  0.14108040366E+04  0.14108040366E+04  0.00000000000E+00 0.  1.
         -2   -1    0    0    0  501 -0.00000000000E+00 -0.00000000000E+00 -0.46873921778E+00  0.46873921778E+00  0.00000000000E+00 0. -1.
          1    1    1    2  502    0 -0.80087447749E+01  0.24436824005E+02  0.70595350851E+03  0.70642172570E+03  0.00000000000E+00 0. -1.
         -1    1    1    2    0  501  0.80087447749E+01 -0.24436824005E+02  0.70438178887E+03  0.70485105012E+03  0.00000000000E+00 0.  1.
</event>
<event>
 4    1  0.7060698E+001  0.2226309E+02  0.7546771E-02  0.1501965E+00
          2   -1    0    0  502    0  0.00000000000E+00  0.00000000000E+00  0.18828133212E+03  0.18828133212E+03  0.00000000000E+00 0. -1.
         -2   -1    0    0    0  501 -0.00000000000E+00 -0.00000000000E+00 -0.26324883628E+01  0.26324883628E+01  0.00000000000E+00 0.  1.
          1    1    1    2  502    0 -0.18109589705E+02 -0.12949438722E+02  0.93067469056E+02  0.95693254721E+02  0.00000000000E+00 0. -1.
         -1    1    1    2    0  501  0.18109589705E+02  0.12949438722E+02  0.92581374699E+02  0.95220565760E+02  0.00000000000E+00 0.  1.
</event>
<event>
 4    1  0.7060698E+001  0.2174487E+02  0.7546771E-02  0.1508890E+00
          2   -1    0    0  502    0  0.00000000000E+00  0.00000000000E+00  0.14010825646E+03  0.14010825646E+03  0.00000000000E+00 0. -1.
         -2   -1    0    0    0  501 -0.00000000000E+00 -0.00000000000E+00 -0.54012505546E+01  0.54012505546E+01  0.00000000000E+00 0.  1.
          1    1    1    2  502    0  0.12321644588E+02 -0.17916925775E+02  0.11191716094E+03  0.11401004372E+03  0.00000000000E+00 0. -1.
         -1    1    1    2    0  501 -0.12321644588E+02  0.17916925775E+02  0.22789844956E+02  0.31499463292E+02  0.00000000000E+00 0.  1.
</event>
<event>
 4    1  0.7060698E+001  0.2592102E+02  0.7546771E-02  0.1458758E+00
          2   -1    0    0  502    0  0.00000000000E+00  0.00000000000E+00  0.64412434668E+02  0.64412434668E+02  0.00000000000E+00 0.  1.
         -2   -1    0    0    0  501 -0.00000000000E+00 -0.00000000000E+00 -0.10735276885E+02  0.10735276885E+02  0.00000000000E+00 0. -1.
          1    1    1    2  502    0  0.24400594006E+02 -0.87470238102E+01  0.20514953536E+02  0.33056961929E+02  0.00000000000E+00 0.  1.
         -1    1    1    2    0  501 -0.24400594006E+02  0.87470238102E+01  0.33162204248E+02  0.42090749624E+02  0.00000000000E+00 0. -1.
</event>
<event>
 4    1  0.7060698E+001  0.3919929E+02  0.7546771E-02  0.1353243E+00
          2   -1    0    0  502    0  0.00000000000E+00  0.00000000000E+00  0.20819304000E+03  0.20819304000E+03  0.00000000000E+00 0.  1.
         -2   -1    0    0    0  501 -0.00000000000E+00 -0.00000000000E+00 -0.80839732938E+01  0.80839732938E+01  0.00000000000E+00 0. -1.
          1    1    1    2  502    0  0.26532476557E+02  0.28855021433E+02  0.13195288563E+03  0.13765227423E+03  0.00000000000E+00 0. -1.
         -1    1    1    2    0  501 -0.26532476557E+02 -0.28855021433E+02  0.68156181073E+02  0.78624739062E+02  0.00000000000E+00 0.  1.
</event>
<event>
 4    1  0.7060698E+001  0.3324378E+02  0.7546771E-02  0.1393349E+00
          2   -1    0    0  502    0  0.00000000000E+00  0.00000000000E+00  0.95723436551E+02  0.95723436551E+02  0.00000000000E+00 0. -1.
         -2   -1    0    0    0  501 -0.00000000000E+00 -0.00000000000E+00 -0.12024764910E+02  0.12024764910E+02  0.00000000000E+00 0.  1.
          1    1    1    2  502    0 -0.30778156402E+02 -0.12563998287E+02  0.31090817795E+02  0.45516897034E+02  0.00000000000E+00 0.  1.
         -1    1    1    2    0  501  0.30778156402E+02  0.12563998287E+02  0.52607853846E+02  0.62231304427E+02  0.00000000000E+00 0. -1.
</event>
<event>
 4    1  0.7060698E+001  0.2330557E+02  0.7546771E-02  0.1488696E+00
          2   -1    0    0  502    0  0.00000000000E+00  0.00000000000E+00  0.25304701516E+01  0.25304701516E+01  0.00000000000E+00 0. -1.
         -2   -1    0    0    0  501 -0.00000000000E+00 -0.00000000000E+00 -0.23233942121E+03  0.23233942121E+03  0.00000000000E+00 0.  1.
          1    1    1    2  502    0 -0.23270410230E+02 -0.12797070269E+01 -0.82495207162E+02  0.85724027244E+02  0.00000000000E+00 0.  1.
         -1    1    1    2    0  501  0.23270410230E+02  0.12797070269E+01 -0.14731374389E+03  0.14914586411E+03  0.00000000000E+00 0. -1.
</event>
<event>
 4    1  0.7060698E+001  0.2337250E+02  0.7546771E-02  0.1487873E+00
          2   -1    0    0  502    0  0.00000000000E+00  0.00000000000E+00  0.11722519095E+04  0.11722519095E+04  0.00000000000E+00 0. -1.
         -2   -1    0    0    0  501 -0.00000000000E+00 -0.00000000000E+00 -0.67864672492E+00  0.67864672492E+00  0.00000000000E+00 0.  1.
          1    1    1    2  502    0  0.22163427413E+02  0.74200043892E+01  0.25750560957E+03  0.25856413699E+03  0.00000000000E+00 0.  1.
         -1    1    1    2    0  501 -0.22163427413E+02 -0.74200043892E+01  0.91406765320E+03  0.91436641923E+03  0.00000000000E+00 0. -1.
</event>
<event>
 4    1  0.7060698E+001  0.2287815E+02  0.7546771E-02  0.1494034E+00
          2   -1    0    0  502    0  0.00000000000E+00  0.00000000000E+00  0.38873068813E+01  0.38873068813E+01  0.00000000000E+00 0.  1.
         -2   -1    0    0    0  501 -0.00000000000E+00 -0.00000000000E+00 -0.15419882224E+03  0.15419882224E+03  0.00000000000E+00 0. -1.
          1    1    1    2  502    0  0.44637647948E+01 -0.22438461099E+02 -0.10330259818E+03  0.10580565450E+03  0.00000000000E+00 0. -1.
         -1    1    1    2    0  501 -0.44637647948E+01  0.22438461099E+02 -0.47008917175E+02  0.52280474621E+02  0.00000000000E+00 0.  1.
</event>
<event>
 4    1  0.7060698E+001  0.3341602E+02  0.7546771E-02  0.1392054E+00
          2   -1    0    0  502    0  0.00000000000E+00  0.00000000000E+00  0.28740534723E+02  0.28740534723E+02  0.00000000000E+00 0.  1.
         -2   -1    0    0    0  501 -0.00000000000E+00 -0.00000000000E+00 -0.54503653045E+02  0.54503653045E+02  0.00000000000E+00 0. -1.
          1    1    1    2  502    0 -0.32293264944E+02 -0.85892760680E+01  0.94227922354E+01  0.34719153757E+02  0.00000000000E+00 0.  1.
         -1    1    1    2    0  501  0.32293264944E+02  0.85892760680E+01 -0.35185910557E+02  0.48525034012E+02  0.00000000000E+00 0. -1.
</event>
<event>
 4    1  0.7060698E+001  0.2078969E+02  0.7546771E-02  0.1522289E+00
          2   -1    0    0  502    0  0.00000000000E+00  0.00000000000E+00  0.15385379543E+03  0.15385379543E+03  0.00000000000E+00 0.  1.
         -2   -1    0    0    0  501 -0.00000000000E+00 -0.00000000000E+00 -0.44997701057E+01  0.44997701057E+01  0.00000000000E+00 0. -1.
          1    1    1    2  502    0 -0.20651842080E+02  0.23901223072E+01  0.26146491795E+02  0.33404345513E+02  0.00000000000E+00 0. -1.
         -1    1    1    2    0  501  0.20651842080E+02 -0.23901223072E+01  0.12320753353E+03  0.12494922002E+03  0.00000000000E+00 0.  1.
</event>
<event>
 4    1  0.7060698E+001  0.5161723E+02  0.7546771E-02  0.1291309E+00
          2   -1    0    0  502    0  0.00000000000E+00  0.00000000000E+00  0.12067118352E+03  0.12067118352E+03  0.00000000000E+00 0. -1.
         -2   -1    0    0    0  501 -0.00000000000E+00 -0.00000000000E+00 -0.23319634918E+02  0.23319634918E+02  0.00000000000E+00 0.  1.
          1    1    1    2  502    0 -0.46128001250E+02  0.23163461446E+02  0.65279624170E+02  0.83221197884E+02  0.00000000000E+00 0.  1.
         -1    1    1    2    0  501  0.46128001250E+02 -0.23163461446E+02  0.32071924434E+02  0.60769620555E+02  0.00000000000E+00 0. -1.
</event>
<event>
 4    1  0.7060698E+001  0.4875090E+02  0.7546771E-02  0.1303681E+00
          2   -1    0    0  502    0  0.00000000000E+00  0.00000000000E+00  0.56961845979E+02  0.56961845979E+02  0.00000000000E+00 0. -1.
         -2   -1    0    0    0  501 -0.00000000000E+00 -0.00000000000E+00 -0.65054985273E+02  0.65054985273E+02  0.00000000000E+00 0.  1.
          1    1    1    2  502    0  0.45622334154E+02  0.17182936715E+02 -0.40582497486E+02  0.63431772717E+02  0.00000000000E+00 0.  1.
         -1    1    1    2    0  501 -0.45622334154E+02 -0.17182936715E+02  0.32489358192E+02  0.58585058535E+02  0.00000000000E+00 0. -1.
</event>
<event>
 4    1  0.7060698E+001  0.2832869E+02  0.7546771E-02  0.1434699E+00
          2   -1    0    0  502    0  0.00000000000E+00  0.00000000000E+00  0.31867964989E+04  0.31867964989E+04  0.00000000000E+00 0.  1.
         -2   -1    0    0    0  501 -0.00000000000E+00 -0.00000000000E+00 -0.25553246533E+00  0.25553246533E+00  0.00000000000E+00 0. -1.
          1    1    1    2  502    0 -0.20915727187E+01 -0.28251376604E+02  0.17852151217E+04  0.17854398745E+04  0.00000000000E+00 0. -1.
         -1    1    1    2    0  501  0.20915727187E+01  0.28251376604E+02  0.14013258447E+04  0.14016121568E+04  0.00000000000E+00 0.  1.
</event>
<event>
 4    1  0.7060698E+001  0.4913426E+02  0.7546771E-02  0.1301970E+00
          2   -1    0    0  502    0  0.00000000000E+00  0.00000000000E+00  0.20447987094E+01  0.20447987094E+01  0.00000000000E+00 0. -1.
         -2   -1    0    0    0  501 -0.00000000000E+00 -0.00000000000E+00 -0.13118806678E+04  0.13118806678E+04  0.00000000000E+00 0.  1.
          1    1    1    2  502    0 -0.32104400539E+02 -0.37195195304E+02 -0.86270791226E+03  0.86410596396E+03  0.00000000000E+00 0.  1.
         -1    1    1    2    0  501  0.32104400539E+02  0.37195195304E+02 -0.44712795681E+03  0.44981950252E+03  0.00000000000E+00 0. -1.
</event>
<event>
 4    1  0.7060698E+001  0.2829564E+02  0.7546771E-02  0.1435010E+00
          2   -1    0    0  502    0  0.00000000000E+00  0.00000000000E+00  0.62941498600E+03  0.62941498600E+03  0.00000000000E+00 0. -1.
         -2   -1    0    0    0  501 -0.00000000000E+00 -0.00000000000E+00 -0.12800316460E+01  0.12800316460E+01  0.00000000000E+00 0.  1.
          1    1    1    2  502    0 -0.27886537622E+02  0.47941976607E+01  0.33897892815E+03  0.34015784137E+03  0.00000000000E+00 0. -1.
         -1    1    1    2    0  501  0.27886537622E+02 -0.47941976607E+01  0.28915602620E+03  0.29053717628E+03  0.00000000000E+00 0.  1.
</event>
<event>
 4    1  0.7060698E+001  0.3631338E+02  0.7546771E-02  0.1371558E+00
          2   -1    0    0  502    0  0.00000000000E+00  0.00000000000E+00  0.82173378099E+02  0.82173378099E+02  0.00000000000E+00 0. -1.
         -2   -1    0    0    0  501 -0.00000000000E+00 -0.00000000000E+00 -0.34039153868E+02  0.34039153868E+02  0.00000000000E+00 0.  1.
          1    1    1    2  502    0  0.28284595033E+02  0.22773738249E+02 -0.18177512590E+02  0.40608908308E+02  0.00000000000E+00 0.  1.
         -1    1    1    2    0  501 -0.28284595033E+02 -0.22773738249E+02  0.66311736821E+02  0.75603623658E+02  0.00000000000E+00 0. -1.
</event>
<event>
 4    1  0.7060698E+001  0.2234967E+02  0.7546771E-02  0.1500830E+00
          2   -1    0    0  502    0  0.00000000000E+00  0.00000000000E+00  0.55270345528E+02  0.55270345528E+02  0.00000000000E+00 0.  1.
         -2   -1    0    0    0  501 -0.00000000000E+00 -0.00000000000E+00 -0.12833919659E+02  0.12833919659E+02  0.00000000000E+00 0. -1.
          1    1    1    2  502    0 -0.20626091151E+02  0.86065255234E+01  0.39738576965E+02  0.45592350421E+02  0.00000000000E+00 0.  1.
         -1    1    1    2    0  501  0.20626091151E+02 -0.86065255234E+01  0.26978489047E+01  0.22511914767E+02  0.00000000000E+00 0. -1.
</event>
<event>
 4    1  0.7060698E+001  0.2902655E+02  0.7546771E-02  0.1428248E+00
          2   -1    0    0  502    0  0.00000000000E+00  0.00000000000E+00  0.15251573330E+02  0.15251573330E+02  0.00000000000E+00 0. -1.
         -2   -1    0    0    0  501 -0.00000000000E+00 -0.00000000000E+00 -0.88262745913E+02  0.88262745913E+02  0.00000000000E+00 0.  1.
          1    1    1    2  502    0 -0.28821760213E+02  0.34419418632E+01 -0.48486141312E+01  0.29428725500E+02  0.00000000000E+00 0.  1.
         -1    1    1    2    0  501  0.28821760213E+02 -0.34419418632E+01 -0.68162558452E+02  0.74085593743E+02  0.00000000000E+00 0. -1.
</event>
<event>
 4    1  0.7060698E+001  0.3561415E+02  0.7546771E-02  0.1376296E+00
          2   -1    0    0  502    0  0.00000000000E+00  0.00000000000E+00  0.57406384289E+02  0.57406384289E+02  0.00000000000E+00 0.  1.
         -2   -1    0    0    0  501 -0.00000000000E+00 -0.00000000000E+00 -0.24157232987E+02  0.24157232987E+02  0.00000000000E+00 0. -1.
          1    1    1    2  502    0 -0.29024445840E+02  0.20638538620E+02  0.28541386337E+02  0.45639658924E+02  0.00000000000E+00 0.  1.
         -1    1    1    2    0  501  0.29024445840E+02 -0.20638538620E+02  0.47077649651E+01  0.35923958352E+02  0.00000000000E+00 0. -1.
</event>
<event>
 4    1  0.7060698E+001  0.2135528E+02  0.7546771E-02  0.1514252E+00
          2   -1    0    0  502    0  0.00000000000E+00  0.00000000000E+00  0.13864860976E+03  0.13864860976E+03  0.00000000000E+00 0. -1.
         -2   -1    0    0    0  501 -0.00000000000E+00 -0.00000000000E+00 -0.77282749448E+01  0.77282749448E+01  0.00000000000E+00 0.  1.
          1    1    1    2  502    0  0.19637713829E+02  0.83909691314E+01  0.12092856759E+03  0.12279970125E+03  0.00000000000E+00 0. -1.
         -1    1    1    2    0  501 -0.19637713829E+02 -0.83909691314E+01  0.99917672233E+01  0.23577183454E+02  0.00000000000E+00 0.  1.
</event>
<event>
 4    1  0.7060698E+001  0.2030669E+02  0.7546771E-02  0.1529398E+00
          2   -1    0    0  502    0  0.00000000000E+00  0.00000000000E+00  0.23777539965E+04  0.23777539965E+04  0.00000000000E+00 0. -1.
         -2   -1    0    0    0  501 -0.00000000000E+00 -0.00000000000E+00 -0.17376337902E+00  0.17376337902E+00  0.00000000000E+00 0.  1.
          1    1    1    2  502    0  0.12402158949E+02  0.16079429103E+02  0.11363094720E+04  0.11364909052E+04  0.00000000000E+00 0. -1.
         -1    1    1    2    0  501 -0.12402158949E+02 -0.16079429103E+02  0.12412707612E+04  0.12414368547E+04  0.00000000000E+00 0.  1.
</event>
<event>
 4    1  0.7060698E+001  0.2709916E+02  0.7546771E-02  0.1446615E+00
          2   -1    0    0  502    0  0.00000000000E+00  0.00000000000E+00  0.18394654832E+02  0.18394654832E+02  0.00000000000E+00 0. -1.
         -2   -1    0    0    0  501 -0.00000000000E+00 -0.00000000000E+00 -0.44111570833E+02  0.44111570833E+02  0.00000000000E+00 0.  1.
          1    1    1    2  502    0  0.26600651470E+02  0.51739582376E+01 -0.32276019005E+01  0.27290692855E+02  0.00000000000E+00 0.  1.
         -1    1    1    2    0  501 -0.26600651470E+02 -0.51739582376E+01 -0.22489314100E+02  0.35215532810E+02  0.00000000000E+00 0. -1.
</event>
<event>
 4    1  0.7060698E+001  0.5664041E+02  0.7546771E-02  0.1271695E+00
          2   -1    0    0  502    0  0.00000000000E+00  0.00000000000E+00  0.74789736494E+03  0.74789736494E+03  0.00000000000E+00 0. -1.
         -2   -1    0    0    0  501 -0.00000000000E+00 -0.00000000000E+00 -0.45117248736E+01  0.45117248736E+01  0.00000000000E+00 0.  1.
          1    1    1    2  502    0 -0.42317164194E+02 -0.37648292685E+02  0.28820769354E+03  0.29372063418E+03  0.00000000000E+00 0.  1.
         -1    1    1    2    0  501  0.42317164194E+02  0.37648292685E+02  0.45517794653E+03  0.45868845564E+03  0.00000000000E+00 0. -1.
</event>
<event>
 4    1  0.7060698E+001  0.2277879E+02  0.7546771E-02  0.1495295E+00
          2   -1    0    0  502    0  0.00000000000E+00  0.00000000000E+00  0.17785051481E+04  0.17785051481E+04  0.00000000000E+00 0. -1.
         -2   -1    0    0    0  501 -0.00000000000E+00 -0.00000000000E+00 -0.30338791401E+00  0.30338791401E+00  0.00000000000E+00 0.  1.
          1    1    1    2  502    0 -0.16879251604E+02 -0.15295888307E+02  0.10633199894E+04  0.10635639488E+04  0.00000000000E+00 0. -1.
         -1    1    1    2    0  501  0.16879251604E+02  0.15295888307E+02  0.71488177078E+03  0.71524458721E+03  0.00000000000E+00 0.  1.
</event>
<event>
 4    1  0.7060698E+001  0.2240112E+02  0.7546771E-02  0.1500158E+00
          2   -1    0    0  502    0  0.00000000000E+00  0.00000000000E+00  0.68544422875E+02  0.68544422875E+02  0.00000000000E+00 0. -1.
         -2   -1    0    0    0  501 -0.00000000000E+00 -0.00000000000E+00 -0.15586665833E+02  0.15586665833E+02  0.00000000000E+00 0.  1.
          1    1    1    2  502    0 -0.19640950920E+02  0.10772344426E+02  0.57111919473E+02  0.61348037486E+02  0.00000000000E+00 0. -1.
         -1    1    1    2    0  501  0.19640950920E+02 -0.10772344426E+02 -0.41541624308E+01  0.22783051222E+02  0.00000000000E+00 0.  1.
</event>
<event>
 4    1  0.7060698E+001  0.4049915E+02  0.7546771E-02  0.1345585E+00
          2   -1    0    0  502    0  0.00000000000E+00  0.00000000000E+00  0.24859990071E+04  0.24859990071E+04  0.00000000000E+00 0. -1.
         -2   -1    0    0    0  501 -0.00000000000E+00 -0.00000000000E+00 -0.69913300913E+00  0.69913300913E+00  0.00000000000E+00 0.  1.
          1    1    1    2  502    0  0.35461661825E+01  0.40343602090E+02  0.15376830216E+04  0.15382162580E+04  0.00000000000E+00 0. -1.
         -1    1    1    2    0  501 -0.35461661825E+01 -0.40343602090E+02  0.94761685251E+03  0.94848188211E+03  0.00000000000E+00 0.  1.
</event>
<event>
 4    1  0.7060698E+001  0.3567898E+02  0.7546771E-02  0.1375852E+00
          2   -1    0    0  502    0  0.00000000000E+00  0.00000000000E+00  0.70169287634E+02  0.70169287634E+02  0.00000000000E+00 0. -1.
         -2   -1    0    0    0  501 -0.00000000000E+00 -0.00000000000E+00 -0.18141797543E+02  0.18141797543E+02  0.00000000000E+00 0.  1.
          1    1    1    2  502    0  0.35472247671E+02  0.38352734898E+01  0.26119718381E+02  0.44217975597E+02  0.00000000000E+00 0. -1.
         -1    1    1    2    0  501 -0.35472247671E+02 -0.38352734898E+01  0.25907771710E+02  0.44093109581E+02  0.00000000000E+00 0.  1.
</event>
<event>
 4    1  0.7060698E+001  0.2339509E+02  0.7546771E-02  0.1487596E+00
          2   -1    0    0  502    0  0.00000000000E+00  0.00000000000E+00  0.40081768809E+03  0.40081768809E+03  0.00000000000E+00 0.  1.
         -2   -1    0    0    0  501 -0.00000000000E+00 -0.00000000000E+00 -0.14461570386E+01  0.14461570386E+01  0.00000000000E+00 0. -1.
          1    1    1    2  502    0  0.17781941188E+02 -0.15203055564E+02  0.24717573058E+03  0.24828043040E+03  0.00000000000E+00 0.  1.
         -1    1    1    2    0  501 -0.17781941188E+02  0.15203055564E+02  0.15219580047E+03  0.15398341473E+03  0.00000000000E+00 0. -1.
</event>
<event>
 4    1  0.7060698E+001  0.2187515E+02  0.7546771E-02  0.1507128E+00
          2   -1    0    0  502    0  0.00000000000E+00  0.00000000000E+00  0.11846858412E+02  0.11846858412E+02  0.00000000000E+00 0. -1.
         -2   -1    0    0    0  501 -0.00000000000E+00 -0.00000000000E+00 -0.40677538145E+02  0.40677538145E+02  0.00000000000E+00 0.  1.
          1    1    1    2  502    0  0.15139402652E+02  0.15789888064E+02 -0.16614432338E+02  0.27469281746E+02  0.00000000000E+00 0.  1.
         -1    1    1    2    0  501 -0.15139402652E+02 -0.15789888064E+02 -0.12216247395E+02  0.25055114810E+02  0.00000000000E+00 0. -1.
</event>
<event>
 4    1  0.7060698E+001  0.2451403E+02  0.7546771E-02  0.1474314E+00
          2   -1    0    0  502    0  0.00000000000E+00  0.00000000000E+00  0.11193282916E+03  0.11193282916E+03  0.00000000000E+00 0.  1.
         -2   -1    0    0    0  501 -0.00000000000E+00 -0.00000000000E+00 -0.55949334882E+01  0.55949334882E+01  0.00000000000E+00 0. -1.
          1    1    1    2  502    0 -0.10813151849E+02  0.22000308194E+02  0.41353318365E+02  0.48073222831E+02  0.00000000000E+00 0.  1.
         -1    1    1    2    0  501  0.10813151849E+02 -0.22000308194E+02  0.64984577308E+02  0.69454539819E+02  0.00000000000E+00 0. -1.
</event>
<event>
 4    1  0.7060698E+001  0.2097898E+02  0.7546771E-02  0.1519565E+00
          2   -1    0    0  502    0  0.00000000000E+00  0.00000000000E+00  0.31414066120E+02  0.31414066120E+02  0.00000000000E+00 0. -1.
         -2   -1    0    0    0  501 -0.00000000000E+00 -0.00000000000E+00 -0.15645885423E+02  0.15645885423E+02  0.00000000000E+00 0.  1.
          1    1    1    2  502    0 -0.20063613688E+02 -0.61293719365E+01  0.15492071300E+02  0.26079150058E+02  0.00000000000E+00 0. -1.
         -1    1    1    2    0  501  0.20063613688E+02  0.61293719365E+01  0.27610939737E+00  0.20980801485E+02  0.00000000000E+00 0.  1.
</event>
<event>
 4    1  0.7060698E+001  0.3111543E+02  0.7546771E-02  0.1410145E+00
          2   -1    0    0  502    0  0.00000000000E+00  0.00000000000E+00  0.26833127288E+03  0.26833127288E+03  0.00000000000E+00 0.  1.
         -2   -1    0    0    0  501 -0.00000000000E+00 -0.00000000000E+00 -0.36100273432E+01  0.36100273432E+01  0.00000000000E+00 0. -1.
          1    1    1    2  502    0 -0.10983412351E+02 -0.29112446512E+02  0.12923052243E+03  0.13292365409E+03  0.00000000000E+00 0. -1.
         -1    1    1    2    0  501  0.10983412351E+02  0.29112446512E+02  0.13549072310E+03  0.13901764613E+03  0.00000000000E+00 0.  1.
</event>
<event>
 4    1  0.7060698E+001  0.2241249E+02  0.7546771E-02  0.1500010E+00
          2   -1    0    0  502    0  0.00000000000E+00  0.00000000000E+00  0.28913709722E+03  0.28913709722E+03  0.00000000000E+00 0.  1.
         -2   -1    0    0    0  501 -0.00000000000E+00 -0.00000000000E+00 -0.17390576276E+01  0.17390576276E+01  0.00000000000E+00 0. -1.
          1    1    1    2  502    0  0.44891943187E+01 -0.21958297095E+02  0.14831447952E+03  0.14999834837E+03  0.00000000000E+00 0. -1.
         -1    1    1    2    0  501 -0.44891943187E+01  0.21958297095E+02  0.13908356007E+03  0.14087780648E+03  0.00000000000E+00 0.  1.
</event>
<event>
 4    1  0.7060698E+001  0.2154268E+02  0.7546771E-02  0.1511656E+00
          2   -1    0    0  502    0  0.00000000000E+00  0.00000000000E+00  0.29416304994E+02  0.29416304994E+02  0.00000000000E+00 0. -1.
         -2   -1    0    0    0  501 -0.00000000000E+00 -0.00000000000E+00 -0.10990118670E+03  0.10990118670E+03  0.00000000000E+00 0.  1.
          1    1    1    2  502    0 -0.20380533971E+02 -0.69800216803E+01  0.24222886182E+02  0.32416586535E+02  0.00000000000E+00 0. -1.
         -1    1    1    2    0  501  0.20380533971E+02  0.69800216803E+01 -0.10470776789E+03  0.10690090516E+03  0.00000000000E+00 0.  1.
</event>
<event>
 4    1  0.7060698E+001  0.5234165E+02  0.7546771E-02  0.1288327E+00
          2   -1    0    0  502    0  0.00000000000E+00  0.00000000000E+00  0.52586091444E+02  0.52586091444E+02  0.00000000000E+00 0.  1.
         -2   -1    0    0    0  501 -0.00000000000E+00 -0.00000000000E+00 -0.90664507121E+02  0.90664507121E+02  0.00000000000E+00 0. -1.
          1    1    1    2  502    0 -0.14763933892E+02  0.50216279541E+02  0.27675215639E+02  0.59207820730E+02  0.00000000000E+00 0.  1.
         -1    1    1    2    0  501  0.14763933892E+02 -0.50216279541E+02 -0.65753631317E+02  0.84042777835E+02  0.00000000000E+00 0. -1.
</event>
<event>
 4    1  0.7060698E+001  0.2689151E+02  0.7546771E-02  0.1448701E+00
          2   -1    0    0  502    0  0.00000000000E+00  0.00000000000E+00  0.11264600005E+03  0.11264600005E+03  0.00000000000E+00 0. -1.
         -2   -1    0    0    0  501 -0.00000000000E+00 -0.00000000000E+00 -0.76402250831E+01  0.76402250831E+01  0.00000000000E+00 0.  1.
          1    1    1    2  502    0  0.18083860262E+02 -0.19902952243E+02  0.28464451685E+02  0.39158377389E+02  0.00000000000E+00 0.  1.
         -1    1    1    2    0  501 -0.18083860262E+02  0.19902952243E+02  0.76541323280E+02  0.81127847743E+02  0.00000000000E+00 0. -1.
</event>
<event>
 4    1  0.7060698E+001  0.2907128E+02  0.7546771E-02  0.1427842E+00
          2   -1    0    0  502    0  0.00000000000E+00  0.00000000000E+00  0.11322569642E+02  0.11322569642E+02  0.00000000000E+00 0.  1.
         -2   -1    0    0    0  501 -0.00000000000E+00 -0.00000000000E+00 -0.79706354370E+02  0.79706354370E+02  0.00000000000E+00 0. -1.
          1    1    1    2  502    0 -0.28582873201E+02 -0.53064539316E+01 -0.22719194664E+02  0.36895811415E+02  0.00000000000E+00 0.  1.
         -1    1    1    2    0  501  0.28582873201E+02  0.53064539316E+01 -0.45664590063E+02  0.54133112597E+02  0.00000000000E+00 0. -1.
</event>
<event>
 4    1  0.7060698E+001  0.2060128E+02  0.7546771E-02  0.1525034E+00
          2   -1    0    0  502    0  0.00000000000E+00  0.00000000000E+00  0.29784210503E+03  0.29784210503E+03  0.00000000000E+00 0. -1.
         -2   -1    0    0    0  501 -0.00000000000E+00 -0.00000000000E+00 -0.21145869517E+01  0.21145869517E+01  0.00000000000E+00 0.  1.
          1    1    1    2  502    0  0.17065220520E+02 -0.11540843325E+02  0.23351293405E+03  0.23441992916E+03  0.00000000000E+00 0. -1.
         -1    1    1    2    0  501 -0.17065220520E+02  0.11540843325E+02  0.62214584024E+02  0.65536762823E+02  0.00000000000E+00 0.  1.
</event>
<event>
 4    1  0.7060698E+001  0.2604095E+02  0.7546771E-02  0.1457487E+00
          2   -1    0    0  502    0  0.00000000000E+00  0.00000000000E+00  0.10816711505E+04  0.10816711505E+04  0.00000000000E+00 0.  1.
         -2   -1    0    0    0  501 -0.00000000000E+00 -0.00000000000E+00 -0.64468601219E+00  0.64468601219E+00  0.00000000000E+00 0. -1.
          1    1    1    2  502    0  0.25835273169E+02 -0.32664855344E+01  0.45070173009E+03  0.45145340931E+03  0.00000000000E+00 0. -1.
         -1    1    1    2    0  501 -0.25835273169E+02  0.32664855344E+01  0.63032473440E+03  0.63086242721E+03  0.00000000000E+00 0.  1.
</event>
<event>
 4    1  0.7060698E+001  0.2199035E+02  0.7546771E-02  0.1505581E+00
          2   -1    0    0  502    0  0.00000000000E+00  0.00000000000E+00  0.49182990784E+03  0.49182990784E+03  0.00000000000E+00 0. -1.
         -2   -1    0    0    0  501 -0.00000000000E+00 -0.00000000000E+00 -0.60022067877E+01  0.60022067877E+01  0.00000000000E+00 0.  1.
          1    1    1    2  502    0 -0.11504520487E+02  0.18740902302E+02  0.47053132628E+03  0.47104490701E+03  0.00000000000E+00 0. -1.
         -1    1    1    2    0  501  0.11504520487E+02 -0.18740902302E+02  0.15296374773E+02  0.26787207617E+02  0.00000000000E+00 0.  1.
</event>
<event>
 4    1  0.7060698E+001  0.3714100E+02  0.7546771E-02  0.1366106E+00
          2   -1    0    0  502    0  0.00000000000E+00  0.00000000000E+00  0.23407511883E+03  0.23407511883E+03  0.00000000000E+00 0. -1.
         -2   -1    0    0    0  501 -0.00000000000E+00 -0.00000000000E+00 -0.60874389275E+01  0.60874389275E+01  0.00000000000E+00 0.  1.
          1    1    1    2  502    0  0.36760652845E+02  0.53016955125E+01  0.92544388746E+02  0.99719193044E+02  0.00000000000E+00 0. -1.
         -1    1    1    2    0  501 -0.36760652845E+02 -0.53016955125E+01  0.13544329116E+03  0.14044336472E+03  0.00000000000E+00 0.  1.
</event>
<event>
 4    1  0.7060698E+001  0.4555611E+02  0.7546771E-02  0.1318682E+00
          2   -1    0    0  502    0  0.00000000000E+00  0.00000000000E+00  0.21106760223E+04  0.21106760223E+04  0.00000000000E+00 0. -1.
         -2   -1    0    0    0  501 -0.00000000000E+00 -0.00000000000E+00 -0.17864604306E+01  0.17864604306E+01  0.00000000000E+00 0.  1.
          1    1    1    2  502    0  0.37895599917E+02  0.25284045819E+02  0.17626713328E+04  0.17632599318E+04  0.00000000000E+00 0. -1.
         -1    1    1    2    0  501 -0.37895599917E+02 -0.25284045819E+02  0.34621822903E+03  0.34920255094E+03  0.00000000000E+00 0.  1.
</event>
<event>
 4    1  0.7060698E+001  0.2543312E+02  0.7546771E-02  0.1464016E+00
          2   -1    0    0  502    0  0.00000000000E+00  0.00000000000E+00  0.43868001115E+03  0.43868001115E+03  0.00000000000E+00 0.  1.
         -2   -1    0    0    0  501 -0.00000000000E+00 -0.00000000000E+00 -0.21686612694E+01  0.21686612694E+01  0.00000000000E+00 0. -1.
          1    1    1    2  502    0  0.74682757234E+01  0.24311901083E+02  0.34296149946E+03  0.34390323317E+03  0.00000000000E+00 0.  1.
         -1    1    1    2    0  501 -0.74682757234E+01 -0.24311901083E+02  0.93549850424E+02  0.96945439247E+02  0.00000000000E+00 0. -1.
</event>
<event>
 4    1  0.7060698E+001  0.2506836E+02  0.7546771E-02  0.1468040E+00
          2   -1    0    0  502    0  0.00000000000E+00  0.00000000000E+00  0.14847273725E+03  0.14847273725E+03  0.00000000000E+00 0. -1.
         -2   -1    0    0    0  501 -0.00000000000E+00 -0.00000000000E+00 -0.53736329164E+01  0.53736329164E+01  0.00000000000E+00 0.  1.
          1    1    1    2  502    0 -0.25034459497E+02 -0.13033301698E+01  0.36102833917E+02  0.43952672827E+02  0.00000000000E+00 0.  1.
         -1    1    1    2    0  501  0.25034459497E+02  0.13033301698E+01  0.10699627042E+03  0.10989369734E+03  0.00000000000E+00 0. -1.
</event>
<event>
 4    1  0.7060698E+001  0.2201285E+02  0.7546771E-02  0.1505280E+00
          2   -1    0    0  502    0  0.00000000000E+00  0.00000000000E+00  0.11884828170E+04  0.11884828170E+04  0.00000000000E+00 0.  1.
         -2   -1    0    0    0  501 -0.00000000000E+00 -0.00000000000E+00 -0.65840560357E+00  0.65840560357E+00  0.00000000000E+00 0. -1.
          1    1    1    2  502    0  0.11308963175E+02  0.18885783593E+02  0.96079164759E+03  0.96104378441E+03  0.00000000000E+00 0.  1.
         -1    1    1    2    0  501 -0.11308963175E+02 -0.18885783593E+02  0.22703276386E+03  0.22809743825E+03  0.00000000000E+00 0. -1.
</event>
<event>
 4    1  0.7060698E+001  0.2352338E+02  0.7546771E-02  0.1486029E+00
          2   -1    0    0  502    0  0.00000000000E+00  0.00000000000E+00  0.15154521535E+03  0.15154521535E+03  0.00000000000E+00 0. -1.
         -2   -1    0    0    0  501 -0.00000000000E+00 -0.00000000000E+00 -0.48762153597E+01  0.48762153597E+01  0.00000000000E+00 0.  1.
          1    1    1    2  502    0  0.17549746344E+02  0.15663831076E+02  0.34136524319E+02  0.41456621827E+02  0.00000000000E+00 0.  1.
         -1    1    1    2    0  501 -0.17549746344E+02 -0.15663831076E+02  0.11253247567E+03  0.11496480888E+03  0.00000000000E+00 0. -1.
</event>
<event>
 4    1  0.7060698E+001  0.6619814E+02  0.7546771E-02  0.1240113E+00
          2   -1    0    0  502    0  0.00000000000E+00  0.00000000000E+00  0.19774450803E+02  0.19774450803E+02  0.00000000000E+00 0.  1.
         -2   -1    0    0    0  501 -0.00000000000E+00 -0.00000000000E+00 -0.22227424832E+03  0.22227424832E+03  0.00000000000E+00 0. -1.
          1    1    1    2  502    0 -0.52700690921E+00  0.66196044718E+02 -0.94628399894E+02  0.11548475284E+03  0.00000000000E+00 0.  1.
         -1    1    1    2    0  501  0.52700690921E+00 -0.66196044718E+02 -0.10787139762E+03  0.12656394628E+03  0.00000000000E+00 0. -1.
</event>
<event>
 4    1  0.7060698E+001  0.2089505E+02  0.7546771E-02  0.1520768E+00
          2   -1    0    0  502    0  0.00000000000E+00  0.00000000000E+00  0.14311330493E+03  0.14311330493E+03  0.00000000000E+00 0.  1.
         -2   -1    0    0    0  501 -0.00000000000E+00 -0.00000000000E+00 -0.31475628795E+01  0.31475628795E+01  0.00000000000E+00 0. -1.
          1    1    1    2  502    0  0.12577867215E+02  0.16685339387E+02  0.82808290240E+02  0.85403841989E+02  0.00000000000E+00 0.  1.
         -1    1    1    2    0  501 -0.12577867215E+02 -0.16685339387E+02  0.57157451807E+02  0.60857025816E+02  0.00000000000E+00 0. -1.
</event>
<event>
 4    1  0.7060698E+001  0.2667802E+02  0.7546771E-02  0.1450870E+00
          2   -1    0    0  502    0  0.00000000000E+00  0.00000000000E+00  0.16729170664E+03  0.16729170664E+03  0.00000000000E+00 0. -1.
         -2   -1    0    0    0  501 -0.00000000000E+00 -0.00000000000E+00 -0.42819847641E+01  0.42819847641E+01  0.00000000000E+00 0.  1.
          1    1    1    2  502    0  0.19712111576E+02  0.17976350587E+02  0.88397262775E+02  0.92335218575E+02  0.00000000000E+00 0.  1.
         -1    1    1    2    0  501 -0.19712111576E+02 -0.17976350587E+02  0.74612459105E+02  0.79238472833E+02  0.00000000000E+00 0. -1.
</event>
<event>
 4    1  0.7060698E+001  0.2241637E+02  0.7546771E-02  0.1499960E+00
          2   -1    0    0  502    0  0.00000000000E+00  0.00000000000E+00  0.75972030828E+01  0.75972030828E+01  0.00000000000E+00 0.  1.
         -2   -1    0    0    0  501 -0.00000000000E+00 -0.00000000000E+00 -0.13581277846E+03  0.13581277846E+03  0.00000000000E+00 0. -1.
          1    1    1    2  502    0  0.22416309012E+02 -0.52122820117E-01 -0.12750197604E+02  0.25788779836E+02  0.00000000000E+00 0.  1.
         -1    1    1    2    0  501 -0.22416309012E+02  0.52122820117E-01 -0.11546537778E+03  0.11762120171E+03  0.00000000000E+00 0. -1.
</event>
<event>
 4    1  0.7060698E+001  0.2212895E+02  0.7546771E-02  0.1503735E+00
          2   -1    0    0  502    0  0.00000000000E+00  0.00000000000E+00  0.95058488534E+02  0.95058488534E+02  0.00000000000E+00 0. -1.
         -2   -1    0    0    0  501 -0.00000000000E+00 -0.00000000000E+00 -0.10768551155E+02  0.10768551155E+02  0.00000000000E+00 0.  1.
          1    1    1    2  502    0  0.15641038549E+02  0.15654024806E+02  0.39291194425E+01  0.22475065275E+02  0.00000000000E+00 0.  1.
         -1    1    1    2    0  501 -0.15641038549E+02 -0.15654024806E+02  0.80360817936E+02  0.83351974415E+02  0.00000000000E+00 0. -1.
</event>
<event>
 4    1  0.7060698E+001  0.4223696E+02  0.7546771E-02  0.1335853E+00
          2   -1    0    0  502    0  0.00000000000E+00  0.00000000000E+00  0.62564077537E+03  0.62564077537E+03  0.00000000000E+00 0. -1.
         -2   -1    0    0    0  501 -0.00000000000E+00 -0.00000000000E+00 -0.31166389758E+01  0.31166389758E+01  0.00000000000E+00 0.  1.
          1    1    1    2  502    0  0.41289420014E+02  0.88963468921E+01  0.21955207612E+03  0.22357789542E+03  0.00000000000E+00 0.  1.
         -1    1    1    2    0  501 -0.41289420014E+02 -0.88963468921E+01  0.40297206027E+03  0.40517951892E+03  0.00000000000E+00 0. -1.
</event>
<event>
 4    1  0.7060698E+001  0.3786948E+02  0.7546771E-02  0.1361444E+00
          2   -1    0    0  502    0  0.00000000000E+00  0.00000000000E+00  0.29136304945E+03  0.29136304945E+03  0.00000000000E+00 0.  1.
         -2   -1    0    0    0  501 -0.00000000000E+00 -0.00000000000E+00 -0.30613127710E+02  0.30613127710E+02  0.00000000000E+00 0. -1.
          1    1    1    2  502    0  0.20525362921E+02  0.31824624223E+02 -0.17104396179E+02  0.41553069666E+02  0.00000000000E+00 0. -1.
         -1    1    1    2    0  501 -0.20525362921E+02 -0.31824624223E+02  0.27785431792E+03  0.28042310749E+03  0.00000000000E+00 0.  1.
</event>
<event>
 4    1  0.7060698E+001  0.2153338E+02  0.7546771E-02  0.1511784E+00
          2   -1    0    0  502    0  0.00000000000E+00  0.00000000000E+00  0.91389639899E+03  0.91389639899E+03  0.00000000000E+00 0.  1.
         -2   -1    0    0    0  501 -0.00000000000E+00 -0.00000000000E+00 -0.59135972580E+00  0.59135972580E+00  0.00000000000E+00 0. -1.
          1    1    1    2  502    0  0.18584477861E+02 -0.10876744451E+02  0.62896918058E+03  0.62933768082E+03  0.00000000000E+00 0.  1.
         -1    1    1    2    0  501 -0.18584477861E+02  0.10876744451E+02  0.28433585869E+03  0.28515007790E+03  0.00000000000E+00 0. -1.
</event>
<event>
 4    1  0.7060698E+001  0.3119274E+02  0.7546771E-02  0.1409507E+00
          2   -1    0    0  502    0  0.00000000000E+00  0.00000000000E+00  0.66581466868E+03  0.66581466868E+03  0.00000000000E+00 0.  1.
         -2   -1    0    0    0  501 -0.00000000000E+00 -0.00000000000E+00 -0.14673301139E+01  0.14673301139E+01  0.00000000000E+00 0. -1.
          1    1    1    2  502    0 -0.30940814680E+02 -0.39563903377E+01  0.35347649503E+03  0.35485013678E+03  0.00000000000E+00 0.  1.
         -1    1    1    2    0  501  0.30940814680E+02  0.39563903377E+01  0.31087084354E+03  0.31243186201E+03  0.00000000000E+00 0. -1.
</event>
<event>
 4    1  0.7060698E+001  0.2878315E+02  0.7546771E-02  0.1430474E+00
          2   -1    0    0  502    0  0.00000000000E+00  0.00000000000E+00  0.11188151370E+03  0.11188151370E+03  0.00000000000E+00 0.  1.
         -2   -1    0    0    0  501 -0.00000000000E+00 -0.00000000000E+00 -0.82116589635E+01  0.82116589635E+01  0.00000000000E+00 0. -1.
          1    1    1    2  502    0  0.26867267999E+02 -0.10325668969E+02  0.33013640230E+02  0.43799200570E+02  0.00000000000E+00 0. -1.
         -1    1    1    2    0  501 -0.26867267999E+02  0.10325668969E+02  0.70656214511E+02  0.76293972098E+02  0.00000000000E+00 0.  1.
</event>
<event>
 4    1  0.7060698E+001  0.2162768E+02  0.7546771E-02  0.1510489E+00
          2   -1    0    0  502    0  0.00000000000E+00  0.00000000000E+00  0.46740332947E+03  0.46740332947E+03  0.00000000000E+00 0.  1.
         -2   -1    0    0    0  501 -0.00000000000E+00 -0.00000000000E+00 -0.25063863341E+01  0.25063863341E+01  0.00000000000E+00 0. -1.
          1    1    1    2  502    0  0.19003333975E+02 -0.10326174537E+02  0.50344410140E+02  0.54793395725E+02  0.00000000000E+00 0. -1.
         -1    1    1    2    0  501 -0.19003333975E+02  0.10326174537E+02  0.41455253300E+03  0.41511632008E+03  0.00000000000E+00 0.  1.
</event>
<event>
 4    1  0.7060698E+001  0.3956284E+02  0.7546771E-02  0.1351067E+00
          2   -1    0    0  502    0  0.00000000000E+00  0.00000000000E+00  0.12070706878E+04  0.12070706878E+04  0.00000000000E+00 0. -1.
         -2   -1    0    0    0  501 -0.00000000000E+00 -0.00000000000E+00 -0.15946506725E+01  0.15946506725E+01  0.00000000000E+00 0.  1.
          1    1    1    2  502    0  0.39504983909E+02 -0.21387459127E+01  0.86396003953E+03  0.86486540450E+03  0.00000000000E+00 0. -1.
         -1    1    1    2    0  501 -0.39504983909E+02  0.21387459127E+01  0.34151599756E+03  0.34379993394E+03  0.00000000000E+00 0.  1.
</event>
<event>
 4    1  0.7060698E+001  0.2544478E+02  0.7546771E-02  0.1463889E+00
          2   -1    0    0  502    0  0.00000000000E+00  0.00000000000E+00  0.27163097706E+03  0.27163097706E+03  0.00000000000E+00 0.  1.
         -2   -1    0    0    0  501 -0.00000000000E+00 -0.00000000000E+00 -0.30306293647E+01  0.30306293647E+01  0.00000000000E+00 0. -1.
          1    1    1    2  502    0 -0.14313006280E+02 -0.21037454093E+02  0.19775898396E+03  0.19938919821E+03  0.00000000000E+00 0.  1.
         -1    1    1    2    0  501  0.14313006280E+02  0.21037454093E+02  0.70841363737E+02  0.75272408223E+02  0.00000000000E+00 0. -1.
</event>
<event>
 4    1  0.7060698E+001  0.2696083E+02  0.7546771E-02  0.1448002E+00
          2   -1    0    0  502    0  0.00000000000E+00  0.00000000000E+00  0.75940322634E+01  0.75940322634E+01  0.00000000000E+00 0. -1.
         -2   -1    0    0    0  501 -0.00000000000E+00 -0.00000000000E+00 -0.16422229340E+03  0.16422229340E+03  0.00000000000E+00 0.  1.
          1    1    1    2  502    0 -0.26782199467E+02 -0.30984280081E+01 -0.13379929810E+03  0.13648860259E+03  0.00000000000E+00 0. -1.
         -1    1    1    2    0  501  0.26782199467E+02  0.30984280081E+01 -0.22828963038E+02  0.35327723077E+02  0.00000000000E+00 0.  1.
</event>
<event>
 4    1  0.7060698E+001  0.3199050E+02  0.7546771E-02  0.1403053E+00
          2   -1    0    0  502    0  0.00000000000E+00  0.00000000000E+00  0.73198317121E+01  0.73198317121E+01  0.00000000000E+00 0.  1.
         -2   -1    0    0    0  501 -0.00000000000E+00 -0.00000000000E+00 -0.15364126784E+03  0.15364126784E+03  0.00000000000E+00 0. -1.
          1    1    1    2  502    0 -0.29313640603E+02  0.12810258142E+02 -0.49014234003E+02  0.58530226157E+02  0.00000000000E+00 0.  1.
         -1    1    1    2    0  501  0.29313640603E+02 -0.12810258142E+02 -0.97307202130E+02  0.10243087340E+03  0.00000000000E+00 0. -1.
</event>
<event>
 4    1  0.7060698E+001  0.3302470E+02  0.7546771E-02  0.1395009E+00
          2   -1    0    0  502    0  0.00000000000E+00  0.00000000000E+00  0.63611701301E+02  0.63611701301E+02  0.00000000000E+00 0.  1.
         -2   -1    0    0    0  501 -0.00000000000E+00 -0.00000000000E+00 -0.17552834865E+02  0.17552834865E+02  0.00000000000E+00 0. -1.
          1    1    1    2  502    0  0.17857762485E+02 -0.27780049144E+02  0.16844482088E+02  0.37072461319E+02  0.00000000000E+00 0. -1.
         -1    1    1    2    0  501 -0.17857762485E+02  0.27780049144E+02  0.29214384349E+02  0.44092074847E+02  0.00000000000E+00 0.  1.
</event>
<event>
 4    1  0.7060698E+001  0.2117266E+02  0.7546771E-02  0.1516814E+00
          2   -1    0    0  502    0  0.00000000000E+00  0.00000000000E+00  0.22294081094E+02  0.22294081094E+02  0.00000000000E+00 0.  1.
         -2   -1    0    0    0  501 -0.00000000000E+00 -0.00000000000E+00 -0.24245883077E+02  0.24245883077E+02  0.00000000000E+00 0. -1.
          1    1    1    2  502    0  0.96834935700E+01  0.18828471869E+02  0.86376745011E+01  0.22866806104E+02  0.00000000000E+00 0.  1.
         -1    1    1    2    0  501 -0.96834935700E+01 -0.18828471869E+02 -0.10589476484E+02  0.23673158066E+02  0.00000000000E+00 0. -1.
</event>
<event>
 4    1  0.7060698E+001  0.3104517E+02  0.7546771E-02  0.1410726E+00
          2   -1    0    0  502    0  0.00000000000E+00  0.00000000000E+00  0.41412633183E+01  0.41412633183E+01  0.00000000000E+00 0. -1.
         -2   -1    0    0    0  501 -0.00000000000E+00 -0.00000000000E+00 -0.40797133368E+03  0.40797133368E+03  0.00000000000E+00 0.  1.
          1    1    1    2  502    0  0.27993184947E+02 -0.13423268323E+02 -0.33696281619E+03  0.33838992602E+03  0.00000000000E+00 0.  1.
         -1    1    1    2    0  501 -0.27993184947E+02  0.13423268323E+02 -0.66867254171E+02  0.73722670979E+02  0.00000000000E+00 0. -1.
</event>
<event>
 4    1  0.7060698E+001  0.4507209E+02  0.7546771E-02  0.1321079E+00
          2   -1    0    0  502    0  0.00000000000E+00  0.00000000000E+00  0.14385090417E+04  0.14385090417E+04  0.00000000000E+00 0. -1.
         -2   -1    0    0    0  501 -0.00000000000E+00 -0.00000000000E+00 -0.16184865421E+01  0.16184865421E+01  0.00000000000E+00 0.  1.
          1    1    1    2  502    0  0.30808800467E+02  0.32898495192E+02  0.97550225067E+03  0.97654295053E+03  0.00000000000E+00 0.  1.
         -1    1    1    2    0  501 -0.30808800467E+02 -0.32898495192E+02  0.46138830448E+03  0.46358457770E+03  0.00000000000E+00 0. -1.
</event>
<event>
 4    1  0.7060698E+001  0.2193394E+02  0.7546771E-02  0.1506337E+00
          2   -1    0    0  502    0  0.00000000000E+00  0.00000000000E+00  0.74854847555E+03  0.74854847555E+03  0.00000000000E+00 0. -1.
         -2   -1    0    0    0  501 -0.00000000000E+00 -0.00000000000E+00 -0.72137798667E+00  0.72137798667E+00  0.00000000000E+00 0.  1.
          1    1    1    2  502    0 -0.13696590752E+02  0.17131871599E+02  0.25019549036E+03  0.25115509355E+03  0.00000000000E+00 0.  1.
         -1    1    1    2    0  501  0.13696590752E+02 -0.17131871599E+02  0.49763160720E+03  0.49811475998E+03  0.00000000000E+00 0. -1.
</event>
<event>
 4    1  0.7060698E+001  0.2505390E+02  0.7546771E-02  0.1468201E+00
          2   -1    0    0  502    0  0.00000000000E+00  0.00000000000E+00  0.53628949641E+03  0.53628949641E+03  0.00000000000E+00 0.  1.
         -2   -1    0    0    0  501 -0.00000000000E+00 -0.00000000000E+00 -0.12357678510E+01  0.12357678510E+01  0.00000000000E+00 0. -1.
          1    1    1    2  502    0  0.13872012579E+01 -0.25015468379E+02  0.32931841934E+03  0.33027007025E+03  0.00000000000E+00 0.  1.
         -1    1    1    2    0  501 -0.13872012579E+01  0.25015468379E+02  0.20573530922E+03  0.20725519401E+03  0.00000000000E+00 0. -1.
</event>
<event>
 4    1  0.7060698E+001  0.7569956E+02  0.7546771E-02  0.1214199E+00
          2   -1    0    0  502    0  0.00000000000E+00  0.00000000000E+00  0.15454454327E+04  0.15454454327E+04  0.00000000000E+00 0. -1.
         -2   -1    0    0    0  501 -0.00000000000E+00 -0.00000000000E+00 -0.46934002974E+01  0.46934002974E+01  0.00000000000E+00 0.  1.
          1    1    1    2  502    0 -0.12675214106E+02 -0.74630840958E+02  0.41522282512E+03  0.42206684065E+03  0.00000000000E+00 0.  1.
         -1    1    1    2    0  501  0.12675214106E+02  0.74630840958E+02  0.11255292072E+04  0.11280719923E+04  0.00000000000E+00 0. -1.
</event>
<event>
 4    1  0.7060698E+001  0.2339412E+02  0.7546771E-02  0.1487608E+00
          2   -1    0    0  502    0  0.00000000000E+00  0.00000000000E+00  0.48537321664E+03  0.48537321664E+03  0.00000000000E+00 0.  1.
         -2   -1    0    0    0  501 -0.00000000000E+00 -0.00000000000E+00 -0.19202514140E+01  0.19202514140E+01  0.00000000000E+00 0. -1.
          1    1    1    2  502    0 -0.15883664237E+02 -0.17175393814E+02  0.85182987764E+02  0.88337004402E+02  0.00000000000E+00 0. -1.
         -1    1    1    2    0  501  0.15883664237E+02  0.17175393814E+02  0.39826997746E+03  0.39895646365E+03  0.00000000000E+00 0.  1.
</event>
<event>
 4    1  0.7060698E+001  0.2367513E+02  0.7546771E-02  0.1484190E+00
          2   -1    0    0  502    0  0.00000000000E+00  0.00000000000E+00  0.38200995785E+02  0.38200995785E+02  0.00000000000E+00 0.  1.
         -2   -1    0    0    0  501 -0.00000000000E+00 -0.00000000000E+00 -0.15888011877E+02  0.15888011877E+02  0.00000000000E+00 0. -1.
          1    1    1    2  502    0  0.22181520364E+02  0.82759793978E+01  0.36767185776E+01  0.23958921932E+02  0.00000000000E+00 0. -1.
         -1    1    1    2    0  501 -0.22181520364E+02 -0.82759793978E+01  0.18636265330E+02  0.30130085730E+02  0.00000000000E+00 0.  1.
</event>
<event>
 4    1  0.7060698E+001  0.2075622E+02  0.7546771E-02  0.1522774E+00
          2   -1    0    0  502    0  0.00000000000E+00  0.00000000000E+00  0.27784690644E+03  0.27784690644E+03  0.00000000000E+00 0.  1.
         -2   -1    0    0    0  501 -0.00000000000E+00 -0.00000000000E+00 -0.25204953458E+01  0.25204953458E+01  0.00000000000E+00 0. -1.
          1    1    1    2  502    0  0.13470575447E+02  0.15791273155E+02  0.22462410464E+03  0.22558104773E+03  0.00000000000E+00 0.  1.
         -1    1    1    2    0  501 -0.13470575447E+02 -0.15791273155E+02  0.50702306456E+02  0.54786354056E+02  0.00000000000E+00 0. -1.
</event>
<event>
 4    1  0.7060698E+001  0.2044122E+02  0.7546771E-02  0.1527394E+00
          2   -1    0    0  502    0  0.00000000000E+00  0.00000000000E+00  0.49617216415E+03  0.49617216415E+03  0.00000000000E+00 0.  1.
         -2   -1    0    0    0  501 -0.00000000000E+00 -0.00000000000E+00 -0.23541996539E+01  0.23541996539E+01  0.00000000000E+00 0. -1.
          1    1    1    2  502    0  0.19844198260E+02  0.49041915678E+01  0.47142852140E+02  0.51383769883E+02  0.00000000000E+00 0. -1.
         -1    1    1    2    0  501 -0.19844198260E+02 -0.49041915678E+01  0.44667511236E+03  0.44714259392E+03  0.00000000000E+00 0.  1.
</event>
<event>
 4    1  0.7060698E+001  0.3357601E+02  0.7546771E-02  0.1390860E+00
          2   -1    0    0  502    0  0.00000000000E+00  0.00000000000E+00  0.32510139815E+02  0.32510139815E+02  0.00000000000E+00 0. -1.
         -2   -1    0    0    0  501 -0.00000000000E+00 -0.00000000000E+00 -0.34989565532E+02  0.34989565532E+02  0.00000000000E+00 0.  1.
          1    1    1    2  502    0  0.16612288861E+01 -0.33534891525E+02  0.19510195206E+01  0.33632649437E+02  0.00000000000E+00 0. -1.
         -1    1    1    2    0  501 -0.16612288861E+01  0.33534891525E+02 -0.44304452374E+01  0.33867055910E+02  0.00000000000E+00 0.  1.
</event>
<event>
 4    1  0.7060698E+001  0.2327187E+02  0.7546771E-02  0.1489112E+00
          2   -1    0    0  502    0  0.00000000000E+00  0.00000000000E+00  0.13704988245E+02  0.13704988245E+02  0.00000000000E+00 0. -1.
         -2   -1    0    0    0  501 -0.00000000000E+00 -0.00000000000E+00 -0.47849558346E+02  0.47849558346E+02  0.00000000000E+00 0.  1.
          1    1    1    2  502    0  0.13013257029E+02  0.19293395916E+02 -0.29915697345E+02  0.37901568993E+02  0.00000000000E+00 0.  1.
         -1    1    1    2    0  501 -0.13013257029E+02 -0.19293395916E+02 -0.42288727559E+01  0.23652977598E+02  0.00000000000E+00 0. -1.
</event>
<event>
 4    1  0.7060698E+001  0.2196876E+02  0.7546771E-02  0.1505870E+00
          2   -1    0    0  502    0  0.00000000000E+00  0.00000000000E+00  0.50231050970E+01  0.50231050970E+01  0.00000000000E+00 0.  1.
         -2   -1    0    0    0  501 -0.00000000000E+00 -0.00000000000E+00 -0.96478431625E+02  0.96478431625E+02  0.00000000000E+00 0. -1.
          1    1    1    2  502    0 -0.16584259763E+02 -0.14407937608E+02 -0.48983846733E+02  0.53684668005E+02  0.00000000000E+00 0.  1.
         -1    1    1    2    0  501  0.16584259763E+02  0.14407937608E+02 -0.42471479794E+02  0.47816868717E+02  0.00000000000E+00 0. -1.
</event>
<event>
 4    1  0.7060698E+001  0.2198042E+02  0.7546771E-02  0.1505714E+00
          2   -1    0    0  502    0  0.00000000000E+00  0.00000000000E+00  0.54937024376E+01  0.54937024376E+01  0.00000000000E+00 0.  1.
         -2   -1    0    0    0  501 -0.00000000000E+00 -0.00000000000E+00 -0.99117691870E+02  0.99117691870E+02  0.00000000000E+00 0. -1.
          1    1    1    2  502    0 -0.16030824976E+02 -0.15038330681E+02 -0.29250166401E+02  0.36588399440E+02  0.00000000000E+00 0.  1.
         -1    1    1    2    0  501  0.16030824976E+02  0.15038330681E+02 -0.64373823032E+02  0.68022994868E+02  0.00000000000E+00 0. -1.
</event>
<event>
 4    1  0.7060698E+001  0.3317693E+02  0.7546771E-02  0.1393854E+00
          2   -1    0    0  502    0  0.00000000000E+00  0.00000000000E+00  0.17918869976E+03  0.17918869976E+03  0.00000000000E+00 0. -1.
         -2   -1    0    0    0  501 -0.00000000000E+00 -0.00000000000E+00 -0.61693620312E+01  0.61693620312E+01  0.00000000000E+00 0.  1.
          1    1    1    2  502    0 -0.28320150981E+02 -0.17282298000E+02  0.92598293099E+02  0.98362353879E+02  0.00000000000E+00 0.  1.
         -1    1    1    2    0  501  0.28320150981E+02  0.17282298000E+02  0.80421044629E+02  0.86995707912E+02  0.00000000000E+00 0. -1.
</event>
<event>
 4    1  0.7060698E+001  0.2056824E+02  0.7546771E-02  0.1525519E+00
          2   -1    0    0  502    0  0.00000000000E+00  0.00000000000E+00  0.22568355557E+04  0.22568355557E+04  0.00000000000E+00 0. -1.
         -2   -1    0    0    0  501 -0.00000000000E+00 -0.00000000000E+00 -0.18812749340E+00  0.18812749340E+00  0.00000000000E+00 0.  1.
          1    1    1    2  502    0  0.15912473641E+02 -0.13032480446E+02  0.10607906570E+04  0.10609900425E+04  0.00000000000E+00 0.  1.
         -1    1    1    2    0  501 -0.15912473641E+02  0.13032480446E+02  0.11958567713E+04  0.11960336407E+04  0.00000000000E+00 0. -1.
</event>
<event>
 4    1  0.7060698E+001  0.2304659E+02  0.7546771E-02  0.1491914E+00
          2   -1    0    0  502    0  0.00000000000E+00  0.00000000000E+00  0.29805137630E+02  0.29805137630E+02  0.00000000000E+00 0.  1.
         -2   -1    0    0    0  501 -0.00000000000E+00 -0.00000000000E+00 -0.23996406168E+02  0.23996406168E+02  0.00000000000E+00 0. -1.
          1    1    1    2  502    0  0.78419836834E+01  0.21671375020E+02 -0.10742683000E+02  0.25427356162E+02  0.00000000000E+00 0. -1.
         -1    1    1    2    0  501 -0.78419836834E+01 -0.21671375020E+02  0.16551414462E+02  0.28374187636E+02  0.00000000000E+00 0.  1.
</event>
<event>
 4    1  0.7060698E+001  0.2016658E+02  0.7546771E-02  0.1531504E+00
          2   -1    0    0  502    0  0.00000000000E+00  0.00000000000E+00  0.64431190523E+02  0.64431190523E+02  0.00000000000E+00 0.  1.
         -2   -1    0    0    0  501 -0.00000000000E+00 -0.00000000000E+00 -0.71795987045E+01  0.71795987045E+01  0.00000000000E+00 0. -1.
          1    1    1    2  502    0  0.18784099444E+02  0.73381533368E+01  0.41072464312E+02  0.45756291491E+02  0.00000000000E+00 0.  1.
         -1    1    1    2    0  501 -0.18784099444E+02 -0.73381533368E+01  0.16179127506E+02  0.25854497736E+02  0.00000000000E+00 0. -1.
</event>
<event>
 4    1  0.7060698E+001  0.4340061E+02  0.7546771E-02  0.1329633E+00
          2   -1    0    0  502    0  0.00000000000E+00  0.00000000000E+00  0.18707097371E+03  0.18707097371E+03  0.00000000000E+00 0. -1.
         -2   -1    0    0    0  501 -0.00000000000E+00 -0.00000000000E+00 -0.11676763037E+02  0.11676763037E+02  0.00000000000E+00 0.  1.
          1    1    1    2  502    0 -0.13790711945E+02 -0.41151300857E+02  0.50822692533E+02  0.66832322827E+02  0.00000000000E+00 0.  1.
         -1    1    1    2    0  501  0.13790711945E+02  0.41151300857E+02  0.12457151814E+03  0.13191541392E+03  0.00000000000E+00 0. -1.
</event>
<event>
 4    1  0.7060698E+001  0.2381707E+02  0.7546771E-02  0.1482485E+00
          2   -1    0    0  502    0  0.00000000000E+00  0.00000000000E+00  0.31098124744E+03  0.31098124744E+03  0.00000000000E+00 0. -1.
         -2   -1    0    0    0  501 -0.00000000000E+00 -0.00000000000E+00 -0.23583537379E+01  0.23583537379E+01  0.00000000000E+00 0.  1.
          1    1    1    2  502    0 -0.50086461467E+01  0.23284462621E+02  0.79741254455E+02  0.83222114836E+02  0.00000000000E+00 0. -1.
         -1    1    1    2    0  501  0.50086461467E+01 -0.23284462621E+02  0.22888163925E+03  0.23011748634E+03  0.00000000000E+00 0.  1.
</event>
<event>
 4    1  0.7060698E+001  0.2647728E+02  0.7546771E-02  0.1452931E+00
          2   -1    0    0  502    0  0.00000000000E+00  0.00000000000E+00  0.19252153244E+04  0.19252153244E+04  0.00000000000E+00 0.  1.
         -2   -1    0    0    0  501 -0.00000000000E+00 -0.00000000000E+00 -0.53712793514E+00  0.53712793514E+00  0.00000000000E+00 0. -1.
          1    1    1    2  502    0  0.22919273121E+02  0.13257199401E+02  0.15087765710E+04  0.15090088759E+04  0.00000000000E+00 0.  1.
         -1    1    1    2    0  501 -0.22919273121E+02 -0.13257199401E+02  0.41590162546E+03  0.41674357641E+03  0.00000000000E+00 0. -1.
</event>
<event>
 4    1  0.7060698E+001  0.2456924E+02  0.7546771E-02  0.1473680E+00
          2   -1    0    0  502    0  0.00000000000E+00  0.00000000000E+00  0.10509956470E+03  0.10509956470E+03  0.00000000000E+00 0.  1.
         -2   -1    0    0    0  501 -0.00000000000E+00 -0.00000000000E+00 -0.74263141393E+01  0.74263141393E+01  0.00000000000E+00 0. -1.
          1    1    1    2  502    0  0.22920026863E+02 -0.88498589185E+01  0.75618665899E+02  0.79509938163E+02  0.00000000000E+00 0.  1.
         -1    1    1    2    0  501 -0.22920026863E+02  0.88498589185E+01  0.22054584665E+02  0.33015940681E+02  0.00000000000E+00 0. -1.
</event>
<event>
 4    1  0.7060698E+001  0.2852014E+02  0.7546771E-02  0.1432908E+00
          2   -1    0    0  502    0  0.00000000000E+00  0.00000000000E+00  0.26325707914E+04  0.26325707914E+04  0.00000000000E+00 0. -1.
         -2   -1    0    0    0  501 -0.00000000000E+00 -0.00000000000E+00 -0.32421820815E+00  0.32421820815E+00  0.00000000000E+00 0.  1.
          1    1    1    2  502    0 -0.14743120652E+02  0.24413900451E+02  0.10306764072E+04  0.10310709260E+04  0.00000000000E+00 0.  1.
         -1    1    1    2    0  501  0.14743120652E+02 -0.24413900451E+02  0.16015701660E+04  0.16018240836E+04  0.00000000000E+00 0. -1.
</event>
<event>
 4    1  0.7060698E+001  0.7010694E+02  0.7546771E-02  0.1228888E+00
          2   -1    0    0  502    0  0.00000000000E+00  0.00000000000E+00  0.11179145031E+04  0.11179145031E+04  0.00000000000E+00 0.  1.
         -2   -1    0    0    0  501 -0.00000000000E+00 -0.00000000000E+00 -0.46273336340E+01  0.46273336340E+01  0.00000000000E+00 0. -1.
          1    1    1    2  502    0  0.54150124878E+02 -0.44528051757E+02  0.68198535553E+03  0.68557932333E+03  0.00000000000E+00 0.  1.
         -1    1    1    2    0  501 -0.54150124878E+02  0.44528051757E+02  0.43130181394E+03  0.43696251341E+03  0.00000000000E+00 0. -1.
</event>
<event>
 4    1  0.7060698E+001  0.2039384E+02  0.7546771E-02  0.1528098E+00
          2   -1    0    0  502    0  0.00000000000E+00  0.00000000000E+00  0.10822311550E+04  0.10822311550E+04  0.00000000000E+00 0. -1.
         -2   -1    0    0    0  501 -0.00000000000E+00 -0.00000000000E+00 -0.65819885836E+00  0.65819885836E+00  0.00000000000E+00 0.  1.
          1    1    1    2  502    0 -0.20287783452E+02 -0.20771852400E+01  0.19151332952E+03  0.19259611688E+03  0.00000000000E+00 0.  1.
         -1    1    1    2    0  501  0.20287783452E+02  0.20771852400E+01  0.89005962661E+03  0.89029323696E+03  0.00000000000E+00 0. -1.
</event>
<event>
 4    1  0.7060698E+001  0.2765943E+02  0.7546771E-02  0.1441094E+00
          2   -1    0    0  502    0  0.00000000000E+00  0.00000000000E+00  0.17513187365E+04  0.17513187365E+04  0.00000000000E+00 0.  1.
         -2   -1    0    0    0  501 -0.00000000000E+00 -0.00000000000E+00 -0.44777076148E+00  0.44777076148E+00  0.00000000000E+00 0. -1.
          1    1    1    2  502    0 -0.22535463416E+02  0.16037361032E+02  0.73857866431E+03  0.73909639929E+03  0.00000000000E+00 0. -1.
         -1    1    1    2    0  501  0.22535463416E+02 -0.16037361032E+02  0.10122923015E+04  0.10126701080E+04  0.00000000000E+00 0.  1.
</event>
<event>
 4    1  0.7060698E+001  0.2262172E+02  0.7546771E-02  0.1497304E+00
          2   -1    0    0  502    0  0.00000000000E+00  0.00000000000E+00  0.43535790352E+01  0.43535790352E+01  0.00000000000E+00 0.  1.
         -2   -1    0    0    0  501 -0.00000000000E+00 -0.00000000000E+00 -0.11807706297E+03  0.11807706297E+03  0.00000000000E+00 0. -1.
          1    1    1    2  502    0 -0.76202147143E+01 -0.21299641006E+02 -0.60970130691E+02  0.65031524784E+02  0.00000000000E+00 0. -1.
         -1    1    1    2    0  501  0.76202147143E+01  0.21299641006E+02 -0.52753353243E+02  0.57399117220E+02  0.00000000000E+00 0.  1.
</event>
<event>
 4    1  0.7060698E+001  0.2081332E+02  0.7546771E-02  0.1521947E+00
          2   -1    0    0  502    0  0.00000000000E+00  0.00000000000E+00  0.15888124791E+01  0.15888124791E+01  0.00000000000E+00 0. -1.
         -2   -1    0    0    0  501 -0.00000000000E+00 -0.00000000000E+00 -0.54027461888E+03  0.54027461888E+03  0.00000000000E+00 0.  1.
          1    1    1    2  502    0  0.18381913497E+02  0.97621536605E+01 -0.78659360237E+02  0.81366389504E+02  0.00000000000E+00 0. -1.
         -1    1    1    2    0  501 -0.18381913497E+02 -0.97621536605E+01 -0.46002644616E+03  0.46049704186E+03  0.00000000000E+00 0.  1.
</event>
<event>
 4    1  0.7060698E+001  0.2498463E+02  0.7546771E-02  0.1468975E+00
          2   -1    0    0  502    0  0.00000000000E+00  0.00000000000E+00  0.20552051607E+04  0.20552051607E+04  0.00000000000E+00 0.  1.
         -2   -1    0    0    0  501 -0.00000000000E+00 -0.00000000000E+00 -0.31887995203E+00  0.31887995203E+00  0.00000000000E+00 0. -1.
          1    1    1    2  502    0 -0.23936679726E+02  0.71601041360E+01  0.12514466617E+04  0.12516960409E+04  0.00000000000E+00 0.  1.
         -1    1    1    2    0  501  0.23936679726E+02 -0.71601041360E+01  0.80343961898E+03  0.80382799968E+03  0.00000000000E+00 0. -1.
</event>
<event>
 4    1  0.7060698E+001  0.2051068E+02  0.7546771E-02  0.1526367E+00
          2   -1    0    0  502    0  0.00000000000E+00  0.00000000000E+00  0.18030172340E+04  0.18030172340E+04  0.00000000000E+00 0. -1.
         -2   -1    0    0    0  501 -0.00000000000E+00 -0.00000000000E+00 -0.28156241335E+00  0.28156241335E+00  0.00000000000E+00 0.  1.
          1    1    1    2  502    0  0.32989562412E+01 -0.20243637015E+02  0.12745707020E+04  0.12747357226E+04  0.00000000000E+00 0.  1.
         -1    1    1    2    0  501 -0.32989562412E+01  0.20243637015E+02  0.52816496956E+03  0.52856307383E+03  0.00000000000E+00 0. -1.
</event>
<event>
 4    1  0.7060698E+001  0.3336613E+02  0.7546771E-02  0.1392428E+00
          2   -1    0    0  502    0  0.00000000000E+00  0.00000000000E+00  0.19066644475E+02  0.19066644475E+02  0.00000000000E+00 0.  1.
         -2   -1    0    0    0  501 -0.00000000000E+00 -0.00000000000E+00 -0.62195879597E+02  0.62195879597E+02  0.00000000000E+00 0. -1.
          1    1    1    2  502    0  0.33354063134E+02 -0.89742786630E+00 -0.31615736408E+02  0.45965788288E+02  0.00000000000E+00 0. -1.
         -1    1    1    2    0  501 -0.33354063134E+02  0.89742786630E+00 -0.11513498715E+02  0.35296735784E+02  0.00000000000E+00 0.  1.
</event>
<event>
 4    1  0.7060698E+001  0.2418268E+02  0.7546771E-02  0.1478158E+00
          2   -1    0    0  502    0  0.00000000000E+00  0.00000000000E+00  0.57892510041E+02  0.57892510041E+02  0.00000000000E+00 0. -1.
         -2   -1    0    0    0  501 -0.00000000000E+00 -0.00000000000E+00 -0.10978490863E+02  0.10978490863E+02  0.00000000000E+00 0.  1.
          1    1    1    2  502    0 -0.23469800375E+02 -0.58284231762E+01  0.13724407922E+02  0.27805780319E+02  0.00000000000E+00 0.  1.
         -1    1    1    2    0  501  0.23469800375E+02  0.58284231762E+01  0.33189611256E+02  0.41065220585E+02  0.00000000000E+00 0. -1.
</event>
<event>
 4    1  0.7060698E+001  0.3074281E+02  0.7546771E-02  0.1413249E+00
          2   -1    0    0  502    0  0.00000000000E+00  0.00000000000E+00  0.16636073608E+04  0.16636073608E+04  0.00000000000E+00 0.  1.
         -2   -1    0    0    0  501 -0.00000000000E+00 -0.00000000000E+00 -0.63533344595E+00  0.63533344595E+00  0.00000000000E+00 0. -1.
          1    1    1    2  502    0 -0.30700344072E+02  0.16153070306E+01  0.11021496714E+04  0.11025783503E+04  0.00000000000E+00 0.  1.
         -1    1    1    2    0  501  0.30700344072E+02 -0.16153070306E+01  0.56082235601E+03  0.56166434402E+03  0.00000000000E+00 0. -1.
</event>
<event>
 4    1  0.7060698E+001  0.6680241E+02  0.7546771E-02  0.1238321E+00
          2   -1    0    0  502    0  0.00000000000E+00  0.00000000000E+00  0.33477377443E+04  0.33477377443E+04  0.00000000000E+00 0.  1.
         -2   -1    0    0    0  501 -0.00000000000E+00 -0.00000000000E+00 -0.15724742833E+01  0.15724742833E+01  0.00000000000E+00 0. -1.
          1    1    1    2  502    0  0.41328926542E+02 -0.52483160896E+02  0.10195677591E+04  0.10217538733E+04  0.00000000000E+00 0. -1.
         -1    1    1    2    0  501 -0.41328926542E+02  0.52483160896E+02  0.23265975109E+04  0.23275563452E+04  0.00000000000E+00 0.  1.
</event>
<event>
 4    1  0.7060698E+001  0.3243061E+02  0.7546771E-02  0.1399586E+00
          2   -1    0    0  502    0  0.00000000000E+00  0.00000000000E+00  0.11875676503E+04  0.11875676503E+04  0.00000000000E+00 0. -1.
         -2   -1    0    0    0  501 -0.00000000000E+00 -0.00000000000E+00 -0.88698582467E+00  0.88698582467E+00  0.00000000000E+00 0.  1.
          1    1    1    2  502    0  0.22705516375E+02  0.23156084987E+02  0.61657855306E+03  0.61743085187E+03  0.00000000000E+00 0. -1.
         -1    1    1    2    0  501 -0.22705516375E+02 -0.23156084987E+02  0.57010211146E+03  0.57102378430E+03  0.00000000000E+00 0.  1.
</event>
<event>
 4    1  0.7060698E+001  0.2666493E+02  0.7546771E-02  0.1451003E+00
          2   -1    0    0  502    0  0.00000000000E+00  0.00000000000E+00  0.44335802451E+02  0.44335802451E+02  0.00000000000E+00 0.  1.
         -2   -1    0    0    0  501 -0.00000000000E+00 -0.00000000000E+00 -0.16306986044E+02  0.16306986044E+02  0.00000000000E+00 0. -1.
          1    1    1    2  502    0  0.25078591135E+02 -0.90599633154E+01  0.10113776847E+02  0.28518540473E+02  0.00000000000E+00 0.  1.
         -1    1    1    2    0  501 -0.25078591135E+02  0.90599633154E+01  0.17915039560E+02  0.32124248022E+02  0.00000000000E+00 0. -1.
</event>
<event>
 4    1  0.7060698E+001  0.2484763E+02  0.7546771E-02  0.1470515E+00
          2   -1    0    0  502    0  0.00000000000E+00  0.00000000000E+00  0.25569460224E+01  0.25569460224E+01  0.00000000000E+00 0.  1.
         -2   -1    0    0    0  501 -0.00000000000E+00 -0.00000000000E+00 -0.27289702500E+03  0.27289702500E+03  0.00000000000E+00 0. -1.
          1    1    1    2  502    0  0.22513089157E+02 -0.10515011185E+02 -0.88425776037E+02  0.91850544426E+02  0.00000000000E+00 0.  1.
         -1    1    1    2    0  501 -0.22513089157E+02  0.10515011185E+02 -0.18191430294E+03  0.18360342660E+03  0.00000000000E+00 0. -1.
</event>
<event>
 4    1  0.7060698E+001  0.4659564E+02  0.7546771E-02  0.1313648E+00
          2   -1    0    0  502    0  0.00000000000E+00  0.00000000000E+00  0.93924597360E+03  0.93924597360E+03  0.00000000000E+00 0. -1.
         -2   -1    0    0    0  501 -0.00000000000E+00 -0.00000000000E+00 -0.24809343201E+01  0.24809343201E+01  0.00000000000E+00 0.  1.
          1    1    1    2  502    0 -0.46593131094E+02  0.48315542201E+00  0.34536404397E+03  0.34849315083E+03  0.00000000000E+00 0.  1.
         -1    1    1    2    0  501  0.46593131094E+02 -0.48315542201E+00  0.59140099531E+03  0.59323375710E+03  0.00000000000E+00 0. -1.
</event>
<event>
 4    1  0.7060698E+001  0.2321065E+02  0.7546771E-02  0.1489870E+00
          2   -1    0    0  502    0  0.00000000000E+00  0.00000000000E+00  0.26565639741E+02  0.26565639741E+02  0.00000000000E+00 0. -1.
         -2   -1    0    0    0  501 -0.00000000000E+00 -0.00000000000E+00 -0.20673586797E+02  0.20673586797E+02  0.00000000000E+00 0.  1.
          1    1    1    2  502    0 -0.30639382698E+00  0.23208624534E+02  0.62076873778E+01  0.24026433620E+02  0.00000000000E+00 0. -1.
         -1    1    1    2    0  501  0.30639382698E+00 -0.23208624534E+02 -0.31563443383E+00  0.23212792917E+02  0.00000000000E+00 0.  1.
</event>
<event>
 4    1  0.7060698E+001  0.3551582E+02  0.7546771E-02  0.1376973E+00
          2   -1    0    0  502    0  0.00000000000E+00  0.00000000000E+00  0.10506152239E+04  0.10506152239E+04  0.00000000000E+00 0. -1.
         -2   -1    0    0    0  501 -0.00000000000E+00 -0.00000000000E+00 -0.12911422846E+01  0.12911422846E+01  0.00000000000E+00 0.  1.
          1    1    1    2  502    0 -0.12621601028E+02  0.33197415475E+02  0.38538634721E+03  0.38701939205E+03  0.00000000000E+00 0.  1.
         -1    1    1    2    0  501  0.12621601028E+02 -0.33197415475E+02  0.66393773438E+03  0.66488697411E+03  0.00000000000E+00 0. -1.
</event>
<event>
 4    1  0.7060698E+001  0.2362599E+02  0.7546771E-02  0.1484784E+00
          2   -1    0    0  502    0  0.00000000000E+00  0.00000000000E+00  0.72255834139E+00  0.72255834139E+00  0.00000000000E+00 0. -1.
         -2   -1    0    0    0  501 -0.00000000000E+00 -0.00000000000E+00 -0.10770679574E+04  0.10770679574E+04  0.00000000000E+00 0.  1.
          1    1    1    2  502    0  0.22646071664E+02  0.67336963880E+01 -0.82473176277E+03  0.82507009869E+03  0.00000000000E+00 0.  1.
         -1    1    1    2    0  501 -0.22646071664E+02 -0.67336963880E+01 -0.25161363633E+03  0.25272041709E+03  0.00000000000E+00 0. -1.
</event>
<event>
 4    1  0.7060698E+001  0.2864774E+02  0.7546771E-02  0.1431723E+00
          2   -1    0    0  502    0  0.00000000000E+00  0.00000000000E+00  0.90852040009E+03  0.90852040009E+03  0.00000000000E+00 0.  1.
         -2   -1    0    0    0  501 -0.00000000000E+00 -0.00000000000E+00 -0.99346890687E+00  0.99346890687E+00  0.00000000000E+00 0. -1.
          1    1    1    2  502    0 -0.23795649642E+02  0.15951803498E+02  0.31678246335E+03  0.31807518303E+03  0.00000000000E+00 0. -1.
         -1    1    1    2    0  501  0.23795649642E+02 -0.15951803498E+02  0.59074446784E+03  0.59143868597E+03  0.00000000000E+00 0.  1.
</event>
<event>
 4    1  0.7060698E+001  0.2084241E+02  0.7546771E-02  0.1521527E+00
          2   -1    0    0  502    0  0.00000000000E+00  0.00000000000E+00  0.16197680246E+04  0.16197680246E+04  0.00000000000E+00 0. -1.
         -2   -1    0    0    0  501 -0.00000000000E+00 -0.00000000000E+00 -0.27955282589E+00  0.27955282589E+00  0.00000000000E+00 0.  1.
          1    1    1    2  502    0  0.17098313770E+02  0.11918627204E+02  0.64643752540E+03  0.64677343812E+03  0.00000000000E+00 0. -1.
         -1    1    1    2    0  501 -0.17098313770E+02 -0.11918627204E+02  0.97305094633E+03  0.97327413926E+03  0.00000000000E+00 0.  1.
</event>
<event>
 4    1  0.7060698E+001  0.2547494E+02  0.7546771E-02  0.1463560E+00
          2   -1    0    0  502    0  0.00000000000E+00  0.00000000000E+00  0.12941270485E+04  0.12941270485E+04  0.00000000000E+00 0.  1.
         -2   -1    0    0    0  501 -0.00000000000E+00 -0.00000000000E+00 -0.50304888970E+00  0.50304888970E+00  0.00000000000E+00 0. -1.
          1    1    1    2  502    0  0.24214305777E+02  0.79145380249E+01  0.61060594119E+03  0.61113712695E+03  0.00000000000E+00 0.  1.
         -1    1    1    2    0  501 -0.24214305777E+02 -0.79145380249E+01  0.68301805841E+03  0.68349297043E+03  0.00000000000E+00 0. -1.
</event>
<event>
 4    1  0.7060698E+001  0.2936978E+02  0.7546771E-02  0.1425153E+00
          2   -1    0    0  502    0  0.00000000000E+00  0.00000000000E+00  0.19060827010E+02  0.19060827010E+02  0.00000000000E+00 0. -1.
         -2   -1    0    0    0  501 -0.00000000000E+00 -0.00000000000E+00 -0.58990695104E+02  0.58990695104E+02  0.00000000000E+00 0.  1.
          1    1    1    2  502    0  0.28704958717E+02  0.62136610190E+01 -0.11329476370E+01  0.29391628205E+02  0.00000000000E+00 0. -1.
         -1    1    1    2    0  501 -0.28704958717E+02 -0.62136610190E+01 -0.38796920457E+02  0.48659893908E+02  0.00000000000E+00 0.  1.
</event>
<event>
 4    1  0.7060698E+001  0.2014456E+02  0.7546771E-02  0.1531837E+00
          2   -1    0    0  502    0  0.00000000000E+00  0.00000000000E+00  0.10228119030E+04  0.10228119030E+04  0.00000000000E+00 0.  1.
         -2   -1    0    0    0  501 -0.00000000000E+00 -0.00000000000E+00 -0.61410684794E+00  0.61410684794E+00  0.00000000000E+00 0. -1.
          1    1    1    2  502    0  0.14634861781E+02  0.13842833660E+02  0.20666808477E+03  0.20764753908E+03  0.00000000000E+00 0. -1.
         -1    1    1    2    0  501 -0.14634861781E+02 -0.13842833660E+02  0.81552971138E+03  0.81577847077E+03  0.00000000000E+00 0.  1.
</event>
<event>
 4    1  0.7060698E+001  0.2250685E+02  0.7546771E-02  0.1498785E+00
          2   -1    0    0  502    0  0.00000000000E+00  0.00000000000E+00  0.26441275517E+00  0.26441275517E+00  0.00000000000E+00 0.  1.
         -2   -1    0    0    0  501 -0.00000000000E+00 -0.00000000000E+00 -0.21184588069E+04  0.21184588069E+04  0.00000000000E+00 0. -1.
          1    1    1    2  502    0 -0.64416102141E+01  0.21565345626E+02 -0.13867629637E+04  0.13869455923E+04  0.00000000000E+00 0. -1.
         -1    1    1    2    0  501  0.64416102141E+01 -0.21565345626E+02 -0.73143143044E+03  0.73177762736E+03  0.00000000000E+00 0.  1.
</event>
<event>
 4    1  0.7060698E+001  0.2206985E+02  0.7546771E-02  0.1504520E+00
          2   -1    0    0  502    0  0.00000000000E+00  0.00000000000E+00  0.79082354370E+03  0.79082354370E+03  0.00000000000E+00 0.  1.
         -2   -1    0    0    0  501 -0.00000000000E+00 -0.00000000000E+00 -0.61862176583E+00  0.61862176583E+00  0.00000000000E+00 0. -1.
          1    1    1    2  502    0  0.11664839932E+01  0.22038998975E+02  0.42129012971E+03  0.42186781289E+03  0.00000000000E+00 0. -1.
         -1    1    1    2    0  501 -0.11664839932E+01 -0.22038998975E+02  0.36891479222E+03  0.36957435257E+03  0.00000000000E+00 0.  1.
</event>
<event>
 4    1  0.7060698E+001  0.3071668E+02  0.7546771E-02  0.1413469E+00
          2   -1    0    0  502    0  0.00000000000E+00  0.00000000000E+00  0.17019562462E+03  0.17019562462E+03  0.00000000000E+00 0.  1.
         -2   -1    0    0    0  501 -0.00000000000E+00 -0.00000000000E+00 -0.59371996721E+01  0.59371996721E+01  0.00000000000E+00 0. -1.
          1    1    1    2  502    0 -0.30240660292E+02  0.53867144211E+01  0.59457242668E+02  0.66922925316E+02  0.00000000000E+00 0. -1.
         -1    1    1    2    0  501  0.30240660292E+02 -0.53867144211E+01  0.10480118228E+03  0.10920989897E+03  0.00000000000E+00 0.  1.
</event>
<event>
 4    1  0.7060698E+001  0.2433882E+02  0.7546771E-02  0.1476338E+00
          2   -1    0    0  502    0  0.00000000000E+00  0.00000000000E+00  0.15737812195E+03  0.15737812195E+03  0.00000000000E+00 0. -1.
         -2   -1    0    0    0  501 -0.00000000000E+00 -0.00000000000E+00 -0.73005089337E+01  0.73005089337E+01  0.00000000000E+00 0.  1.
          1    1    1    2  502    0  0.14723979994E+02 -0.19379954960E+02  0.13234681758E+03  0.13456618581E+03  0.00000000000E+00 0. -1.
         -1    1    1    2    0  501 -0.14723979994E+02  0.19379954960E+02  0.17730795432E+02  0.30112445064E+02  0.00000000000E+00 0.  1.
</event>
<event>
 4    1  0.7060698E+001  0.3865753E+02  0.7546771E-02  0.1356537E+00
          2   -1    0    0  502    0  0.00000000000E+00  0.00000000000E+00  0.23262771019E+04  0.23262771019E+04  0.00000000000E+00 0. -1.
         -2   -1    0    0    0  501 -0.00000000000E+00 -0.00000000000E+00 -0.80195575975E+00  0.80195575975E+00  0.00000000000E+00 0.  1.
          1    1    1    2  502    0  0.12703163790E+02  0.36510737238E+02  0.64374648322E+03  0.64490614741E+03  0.00000000000E+00 0.  1.
         -1    1    1    2    0  501 -0.12703163790E+02 -0.36510737238E+02  0.16817286629E+04  0.16821729102E+04  0.00000000000E+00 0. -1.
</event>
<event>
 4    1  0.7060698E+001  0.2169595E+02  0.7546771E-02  0.1509556E+00
          2   -1    0    0  502    0  0.00000000000E+00  0.00000000000E+00  0.16311611501E+03  0.16311611501E+03  0.00000000000E+00 0. -1.
         -2   -1    0    0    0  501 -0.00000000000E+00 -0.00000000000E+00 -0.32077149605E+01  0.32077149605E+01  0.00000000000E+00 0.  1.
          1    1    1    2  502    0 -0.17351425158E+02  0.13024683924E+02  0.53607722457E+02  0.57831671714E+02  0.00000000000E+00 0. -1.
         -1    1    1    2    0  501  0.17351425158E+02 -0.13024683924E+02  0.10630067759E+03  0.10849215825E+03  0.00000000000E+00 0.  1.
</event>
<event>
 4    1  0.7060698E+001  0.7987278E+02  0.7546771E-02  0.1204143E+00
          2   -1    0    0  502    0  0.00000000000E+00  0.00000000000E+00  0.21599832327E+03  0.21599832327E+03  0.00000000000E+00 0. -1.
         -2   -1    0    0    0  501 -0.00000000000E+00 -0.00000000000E+00 -0.30869587008E+02  0.30869587008E+02  0.00000000000E+00 0.  1.
          1    1    1    2  502    0 -0.33424841749E+02 -0.72542684680E+02  0.66905992650E+02  0.10419248053E+03  0.00000000000E+00 0. -1.
         -1    1    1    2    0  501  0.33424841749E+02  0.72542684680E+02  0.11822274361E+03  0.14267542975E+03  0.00000000000E+00 0.  1.
</event>
<event>
 4    1  0.7060698E+001  0.2109904E+02  0.7546771E-02  0.1517855E+00
          2   -1    0    0  502    0  0.00000000000E+00  0.00000000000E+00  0.15471118654E+04  0.15471118654E+04  0.00000000000E+00 0.  1.
         -2   -1    0    0    0  501 -0.00000000000E+00 -0.00000000000E+00 -0.30932393546E+00  0.30932393546E+00  0.00000000000E+00 0. -1.
          1    1    1    2  502    0 -0.10072922204E+02  0.18539302538E+02  0.56903269097E+03  0.56942371999E+03  0.00000000000E+00 0.  1.
         -1    1    1    2    0  501  0.10072922204E+02 -0.18539302538E+02  0.97776985048E+03  0.97799746933E+03  0.00000000000E+00 0. -1.
</event>
<event>
 4    1  0.7060698E+001  0.2172342E+02  0.7546771E-02  0.1509182E+00
          2   -1    0    0  502    0  0.00000000000E+00  0.00000000000E+00  0.30693501055E+02  0.30693501055E+02  0.00000000000E+00 0.  1.
         -2   -1    0    0    0  501 -0.00000000000E+00 -0.00000000000E+00 -0.15417535330E+02  0.15417535330E+02  0.00000000000E+00 0. -1.
          1    1    1    2  502    0 -0.17690909509E+02  0.12607094306E+02  0.64244524974E+01  0.22653491916E+02  0.00000000000E+00 0. -1.
         -1    1    1    2    0  501  0.17690909509E+02 -0.12607094306E+02  0.88515132274E+01  0.23457544469E+02  0.00000000000E+00 0.  1.
</event>
<event>
 4    1  0.7060698E+001  0.3622016E+02  0.7546771E-02  0.1372182E+00
          2   -1    0    0  502    0  0.00000000000E+00  0.00000000000E+00  0.20349373324E+04  0.20349373324E+04  0.00000000000E+00 0. -1.
         -2   -1    0    0    0  501 -0.00000000000E+00 -0.00000000000E+00 -0.94798729190E+00  0.94798729190E+00  0.00000000000E+00 0.  1.
          1    1    1    2  502    0 -0.13497199308E+02 -0.33611395191E+02  0.15927759588E+04  0.15931877338E+04  0.00000000000E+00 0. -1.
         -1    1    1    2    0  501  0.13497199308E+02  0.33611395191E+02  0.44121338629E+03  0.44269758585E+03  0.00000000000E+00 0.  1.
</event>
<event>
 4    1  0.7060698E+001  0.2135349E+02  0.7546771E-02  0.1514277E+00
          2   -1    0    0  502    0  0.00000000000E+00  0.00000000000E+00  0.20542529107E+02  0.20542529107E+02  0.00000000000E+00 0.  1.
         -2   -1    0    0    0  501 -0.00000000000E+00 -0.00000000000E+00 -0.24013728205E+02  0.24013728205E+02  0.00000000000E+00 0. -1.
          1    1    1    2  502    0  0.20747950262E+02 -0.50491590356E+01 -0.78641575652E+01  0.22755580003E+02  0.00000000000E+00 0. -1.
         -1    1    1    2    0  501 -0.20747950262E+02  0.50491590356E+01  0.43929584673E+01  0.21800677310E+02  0.00000000000E+00 0.  1.
</event>
<event>
 4    1  0.7060698E+001  0.2442264E+02  0.7546771E-02  0.1475367E+00
          2   -1    0    0  502    0  0.00000000000E+00  0.00000000000E+00  0.23462284156E+04  0.23462284156E+04  0.00000000000E+00 0.  1.
         -2   -1    0    0    0  501 -0.00000000000E+00 -0.00000000000E+00 -0.28678477285E+00  0.28678477285E+00  0.00000000000E+00 0. -1.
          1    1    1    2  502    0 -0.11960615722E+02 -0.21293399802E+02  0.77763203483E+03  0.77801545409E+03  0.00000000000E+00 0.  1.
         -1    1    1    2    0  501  0.11960615722E+02  0.21293399802E+02  0.15683095959E+04  0.15684997462E+04  0.00000000000E+00 0. -1.
</event>
<event>
 4    1  0.7060698E+001  0.2374136E+02  0.7546771E-02  0.1483393E+00
          2   -1    0    0  502    0  0.00000000000E+00  0.00000000000E+00  0.68745223511E+02  0.68745223511E+02  0.00000000000E+00 0.  1.
         -2   -1    0    0    0  501 -0.00000000000E+00 -0.00000000000E+00 -0.12160662642E+02  0.12160662642E+02  0.00000000000E+00 0. -1.
          1    1    1    2  502    0 -0.18446121344E+02  0.14946337210E+02  0.52034446595E+01  0.24304901254E+02  0.00000000000E+00 0. -1.
         -1    1    1    2    0  501  0.18446121344E+02 -0.14946337210E+02  0.51381116209E+02  0.56600984899E+02  0.00000000000E+00 0.  1.
</event>
<event>
 4    1  0.7060698E+001  0.2133548E+02  0.7546771E-02  0.1514529E+00
          2   -1    0    0  502    0  0.00000000000E+00  0.00000000000E+00  0.48738893326E+03  0.48738893326E+03  0.00000000000E+00 0.  1.
         -2   -1    0    0    0  501 -0.00000000000E+00 -0.00000000000E+00 -0.22232388380E+01  0.22232388380E+01  0.00000000000E+00 0. -1.
          1    1    1    2  502    0 -0.93628170595E+01  0.19171346292E+02  0.42900700912E+03  0.42953721228E+03  0.00000000000E+00 0.  1.
         -1    1    1    2    0  501  0.93628170595E+01 -0.19171346292E+02  0.56158685305E+02  0.60074959817E+02  0.00000000000E+00 0. -1.
</event>
<event>
 4    1  0.7060698E+001  0.2058409E+02  0.7546771E-02  0.1525287E+00
          2   -1    0    0  502    0  0.00000000000E+00  0.00000000000E+00  0.35142317365E+01  0.35142317365E+01  0.00000000000E+00 0. -1.
         -2   -1    0    0    0  501 -0.00000000000E+00 -0.00000000000E+00 -0.12635136920E+03  0.12635136920E+03  0.00000000000E+00 0.  1.
          1    1    1    2  502    0  0.14488084405E+02  0.14621910570E+02 -0.75310233369E+02  0.78072633544E+02  0.00000000000E+00 0.  1.
         -1    1    1    2    0  501 -0.14488084405E+02 -0.14621910570E+02 -0.47526904090E+02  0.51792967387E+02  0.00000000000E+00 0. -1.
</event>
<event>
 4    1  0.7060698E+001  0.2267905E+02  0.7546771E-02  0.1496568E+00
          2   -1    0    0  502    0  0.00000000000E+00  0.00000000000E+00  0.34573089755E+02  0.34573089755E+02  0.00000000000E+00 0. -1.
         -2   -1    0    0    0  501 -0.00000000000E+00 -0.00000000000E+00 -0.15348874076E+02  0.15348874076E+02  0.00000000000E+00 0.  1.
          1    1    1    2  502    0  0.20942060428E+02  0.87045731014E+01  0.52349258750E+01  0.23275393375E+02  0.00000000000E+00 0.  1.
         -1    1    1    2    0  501 -0.20942060428E+02 -0.87045731014E+01  0.13989289804E+02  0.26646570456E+02  0.00000000000E+00 0. -1.
</event>
<event>
 4    1  0.7060698E+001  0.2588903E+02  0.7546771E-02  0.1459099E+00
          2   -1    0    0  502    0  0.00000000000E+00  0.00000000000E+00  0.61725589869E+03  0.61725589869E+03  0.00000000000E+00 0. -1.
         -2   -1    0    0    0  501 -0.00000000000E+00 -0.00000000000E+00 -0.30013496070E+01  0.30013496070E+01  0.00000000000E+00 0.  1.
          1    1    1    2  502    0 -0.86309303386E+01 -0.24407963003E+02  0.55488410696E+03  0.55548772603E+03  0.00000000000E+00 0. -1.
         -1    1    1    2    0  501  0.86309303386E+01  0.24407963003E+02  0.59370442124E+02  0.64769522265E+02  0.00000000000E+00 0.  1.
</event>
<event>
 4    1  0.7060698E+001  0.2310081E+02  0.7546771E-02  0.1491236E+00
          2   -1    0    0  502    0  0.00000000000E+00  0.00000000000E+00  0.24519517815E+02  0.24519517815E+02  0.00000000000E+00 0. -1.
         -2   -1    0    0    0  501 -0.00000000000E+00 -0.00000000000E+00 -0.23009545667E+02  0.23009545667E+02  0.00000000000E+00 0.  1.
          1    1    1    2  502    0  0.20914342026E+02 -0.98100859717E+01  0.62836682214E+01  0.23940174925E+02  0.00000000000E+00 0. -1.
         -1    1    1    2    0  501 -0.20914342026E+02  0.98100859717E+01 -0.47736960733E+01  0.23588888557E+02  0.00000000000E+00 0.  1.
</event>
<event>
 4    1  0.7060698E+001  0.3151287E+02  0.7546771E-02  0.1406890E+00
          2   -1    0    0  502    0  0.00000000000E+00  0.00000000000E+00  0.16442680366E+02  0.16442680366E+02  0.00000000000E+00 0.  1.
         -2   -1    0    0    0  501 -0.00000000000E+00 -0.00000000000E+00 -0.64704012554E+02  0.64704012554E+02  0.00000000000E+00 0. -1.
          1    1    1    2  502    0 -0.27828948716E+02 -0.14785486123E+02 -0.13660638164E+02  0.34346382948E+02  0.00000000000E+00 0.  1.
         -1    1    1    2    0  501  0.27828948716E+02  0.14785486123E+02 -0.34600694024E+02  0.46800309972E+02  0.00000000000E+00 0. -1.
</event>
<event>
 4    1  0.7060698E+001  0.2833097E+02  0.7546771E-02  0.1434678E+00
          2   -1    0    0  502    0  0.00000000000E+00  0.00000000000E+00  0.54886234545E+02  0.54886234545E+02  0.00000000000E+00 0. -1.
         -2   -1    0    0    0  501 -0.00000000000E+00 -0.00000000000E+00 -0.15100207391E+02  0.15100207391E+02  0.00000000000E+00 0.  1.
          1    1    1    2  502    0  0.20685483817E+02 -0.19358582322E+02  0.13677270482E+02  0.31459683375E+02  0.00000000000E+00 0.  1.
         -1    1    1    2    0  501 -0.20685483817E+02  0.19358582322E+02  0.26108756672E+02  0.38526758561E+02  0.00000000000E+00 0. -1.
</event>
<event>
 4    1  0.7060698E+001  0.2149252E+02  0.7546771E-02  0.1512348E+00
          2   -1    0    0  502    0  0.00000000000E+00  0.00000000000E+00  0.13480919409E+04  0.13480919409E+04  0.00000000000E+00 0. -1.
         -2   -1    0    0    0  501 -0.00000000000E+00 -0.00000000000E+00 -0.39422018310E+00  0.39422018310E+00  0.00000000000E+00 0.  1.
          1    1    1    2  502    0 -0.19722120305E+02 -0.85420454768E+01  0.42999411812E+03  0.43053091664E+03  0.00000000000E+00 0.  1.
         -1    1    1    2    0  501  0.19722120305E+02  0.85420454768E+01  0.91770360265E+03  0.91795524449E+03  0.00000000000E+00 0. -1.
</event>
<event>
 4    1  0.7060698E+001  0.2304778E+02  0.7546771E-02  0.1491899E+00
          2   -1    0    0  502    0  0.00000000000E+00  0.00000000000E+00  0.76184863228E+03  0.76184863228E+03  0.00000000000E+00 0.  1.
         -2   -1    0    0    0  501 -0.00000000000E+00 -0.00000000000E+00 -0.82592453400E+00  0.82592453400E+00  0.00000000000E+00 0. -1.
          1    1    1    2  502    0 -0.20618266808E+02 -0.10299857982E+02  0.53102749435E+03  0.53152742146E+03  0.00000000000E+00 0.  1.
         -1    1    1    2    0  501  0.20618266808E+02  0.10299857982E+02  0.22999521339E+03  0.23114713535E+03  0.00000000000E+00 0. -1.
</event>
<event>
 4    1  0.7060698E+001  0.2276506E+02  0.7546771E-02  0.1495470E+00
          2   -1    0    0  502    0  0.00000000000E+00  0.00000000000E+00  0.41134363847E+02  0.41134363847E+02  0.00000000000E+00 0.  1.
         -2   -1    0    0    0  501 -0.00000000000E+00 -0.00000000000E+00 -0.15095733465E+02  0.15095733465E+02  0.00000000000E+00 0. -1.
          1    1    1    2  502    0  0.35649152423E+00 -0.22762265658E+02  0.15851007388E+01  0.22820174593E+02  0.00000000000E+00 0. -1.
         -1    1    1    2    0  501 -0.35649152423E+00  0.22762265658E+02  0.24453529643E+02  0.33409922719E+02  0.00000000000E+00 0.  1.
</event>
<event>
 4    1  0.7060698E+001  0.3391378E+02  0.7546771E-02  0.1388365E+00
          2   -1    0    0  502    0  0.00000000000E+00  0.00000000000E+00  0.11031190309E+03  0.11031190309E+03  0.00000000000E+00 0. -1.
         -2   -1    0    0    0  501 -0.00000000000E+00 -0.00000000000E+00 -0.10608028673E+02  0.10608028673E+02  0.00000000000E+00 0.  1.
          1    1    1    2  502    0  0.20010046072E+02  0.27381432665E+02  0.41938513640E+02  0.53934995364E+02  0.00000000000E+00 0.  1.
         -1    1    1    2    0  501 -0.20010046072E+02 -0.27381432665E+02  0.57765360778E+02  0.66984936399E+02  0.00000000000E+00 0. -1.
</event>
<event>
 4    1  0.7060698E+001  0.2328242E+02  0.7546771E-02  0.1488982E+00
          2   -1    0    0  502    0  0.00000000000E+00  0.00000000000E+00  0.53196212890E+01  0.53196212890E+01  0.00000000000E+00 0.  1.
         -2   -1    0    0    0  501 -0.00000000000E+00 -0.00000000000E+00 -0.11286860769E+03  0.11286860769E+03  0.00000000000E+00 0. -1.
          1    1    1    2  502    0 -0.16145127173E+02 -0.16775159805E+02 -0.35352906326E+02  0.42330829234E+02  0.00000000000E+00 0.  1.
         -1    1    1    2    0  501  0.16145127173E+02  0.16775159805E+02 -0.72196080080E+02  0.75857399750E+02  0.00000000000E+00 0. -1.
</event>
<event>
 4    1  0.7060698E+001  0.2193174E+02  0.7546771E-02  0.1506366E+00
          2   -1    0    0  502    0  0.00000000000E+00  0.00000000000E+00  0.18385284810E+04  0.18385284810E+04  0.00000000000E+00 0. -1.
         -2   -1    0    0    0  501 -0.00000000000E+00 -0.00000000000E+00 -0.26275062863E+00  0.26275062863E+00  0.00000000000E+00 0.  1.
          1    1    1    2  502    0  0.18382234550E+02 -0.11962211469E+02  0.85889860181E+03  0.85917856656E+03  0.00000000000E+00 0.  1.
         -1    1    1    2    0  501 -0.18382234550E+02  0.11962211469E+02  0.97936712860E+03  0.97961266511E+03  0.00000000000E+00 0. -1.
</event>
<event>
 4    1  0.7060698E+001  0.6310570E+02  0.7546771E-02  0.1249630E+00
          2   -1    0    0  502    0  0.00000000000E+00  0.00000000000E+00  0.12039943306E+04  0.12039943306E+04  0.00000000000E+00 0.  1.
         -2   -1    0    0    0  501 -0.00000000000E+00 -0.00000000000E+00 -0.40689384292E+01  0.40689384292E+01  0.00000000000E+00 0. -1.
          1    1    1    2  502    0 -0.35564725089E+02 -0.52129451849E+02  0.33868127556E+03  0.34451028407E+03  0.00000000000E+00 0. -1.
         -1    1    1    2    0  501  0.35564725089E+02  0.52129451849E+02  0.86124411658E+03  0.86355298492E+03  0.00000000000E+00 0.  1.
</event>
<event>
 4    1  0.7060698E+001  0.2224080E+02  0.7546771E-02  0.1502258E+00
          2   -1    0    0  502    0  0.00000000000E+00  0.00000000000E+00  0.87825926347E+02  0.87825926347E+02  0.00000000000E+00 0.  1.
         -2   -1    0    0    0  501 -0.00000000000E+00 -0.00000000000E+00 -0.61199587443E+01  0.61199587443E+01  0.00000000000E+00 0. -1.
          1    1    1    2  502    0  0.18924011906E+02  0.11684825158E+02  0.54113948614E+02  0.58506177453E+02  0.00000000000E+00 0.  1.
         -1    1    1    2    0  501 -0.18924011906E+02 -0.11684825158E+02  0.27592018989E+02  0.35439707638E+02  0.00000000000E+00 0. -1.
</event>
<event>
 4    1  0.7060698E+001  0.2146959E+02  0.7546771E-02  0.1512665E+00
          2   -1    0    0  502    0  0.00000000000E+00  0.00000000000E+00  0.90756465765E+03  0.90756465765E+03  0.00000000000E+00 0.  1.
         -2   -1    0    0    0  501 -0.00000000000E+00 -0.00000000000E+00 -0.68805384389E+00  0.68805384389E+00  0.00000000000E+00 0. -1.
          1    1    1    2  502    0  0.86439884435E+01 -0.19652596473E+02  0.68581855526E+03  0.68615452620E+03  0.00000000000E+00 0.  1.
         -1    1    1    2    0  501 -0.86439884435E+01  0.19652596473E+02  0.22105804855E+03  0.22209818530E+03  0.00000000000E+00 0. -1.
</event>
<event>
 4    1  0.7060698E+001  0.2188651E+02  0.7546771E-02  0.1506975E+00
          2   -1    0    0  502    0  0.00000000000E+00  0.00000000000E+00  0.93498262366E+03  0.93498262366E+03  0.00000000000E+00 0.  1.
         -2   -1    0    0    0  501 -0.00000000000E+00 -0.00000000000E+00 -0.53326363184E+00  0.53326363184E+00  0.00000000000E+00 0. -1.
          1    1    1    2  502    0 -0.17917703944E+02 -0.12568810227E+02  0.37454628641E+03  0.37518520729E+03  0.00000000000E+00 0.  1.
         -1    1    1    2    0  501  0.17917703944E+02  0.12568810227E+02  0.55990307362E+03  0.56033068000E+03  0.00000000000E+00 0. -1.
</event>
<event>
 4    1  0.7060698E+001  0.2894205E+02  0.7546771E-02  0.1429018E+00
          2   -1    0    0  502    0  0.00000000000E+00  0.00000000000E+00  0.64350904819E+03  0.64350904819E+03  0.00000000000E+00 0.  1.
         -2   -1    0    0    0  501 -0.00000000000E+00 -0.00000000000E+00 -0.14734674273E+01  0.14734674273E+01  0.00000000000E+00 0. -1.
          1    1    1    2  502    0 -0.17973074324E+02  0.22685029780E+02  0.43113243837E+03  0.43210279031E+03  0.00000000000E+00 0. -1.
         -1    1    1    2    0  501  0.17973074324E+02 -0.22685029780E+02  0.21090314239E+03  0.21287972531E+03  0.00000000000E+00 0.  1.
</event>
<event>
 4    1  0.7060698E+001  0.2437012E+02  0.7546771E-02  0.1475975E+00
          2   -1    0    0  502    0  0.00000000000E+00  0.00000000000E+00  0.74848522278E+02  0.74848522278E+02  0.00000000000E+00 0.  1.
         -2   -1    0    0    0  501 -0.00000000000E+00 -0.00000000000E+00 -0.20260276393E+02  0.20260276393E+02  0.00000000000E+00 0. -1.
          1    1    1    2  502    0 -0.23855409487E+02  0.49821829900E+01 -0.97970982978E+01  0.26265678065E+02  0.00000000000E+00 0. -1.
         -1    1    1    2    0  501  0.23855409487E+02 -0.49821829900E+01  0.64385344183E+02  0.68843120605E+02  0.00000000000E+00 0.  1.
</event>
<event>
 4    1  0.7060698E+001  0.2227981E+02  0.7546771E-02  0.1501745E+00
          2   -1    0    0  502    0  0.00000000000E+00  0.00000000000E+00  0.15953635248E+04  0.15953635248E+04  0.00000000000E+00 0. -1.
         -2   -1    0    0    0  501 -0.00000000000E+00 -0.00000000000E+00 -0.75345113033E+00  0.75345113033E+00  0.00000000000E+00 0.  1.
          1    1    1    2  502    0  0.19337977611E+02  0.11064917141E+02  0.18584435344E+03  0.18717508775E+03  0.00000000000E+00 0.  1.
         -1    1    1    2    0  501 -0.19337977611E+02 -0.11064917141E+02  0.14087657202E+04  0.14089418881E+04  0.00000000000E+00 0. -1.
</event>
<event>
 4    1  0.7060698E+001  0.4141418E+02  0.7546771E-02  0.1340392E+00
          2   -1    0    0  502    0  0.00000000000E+00  0.00000000000E+00  0.26766992958E+04  0.26766992958E+04  0.00000000000E+00 0. -1.
         -2   -1    0    0    0  501 -0.00000000000E+00 -0.00000000000E+00 -0.69154556370E+00  0.69154556370E+00  0.00000000000E+00 0.  1.
          1    1    1    2  502    0 -0.24610324868E+02 -0.33308652002E+02  0.97524213851E+03  0.97612108016E+03  0.00000000000E+00 0. -1.
         -1    1    1    2    0  501  0.24610324868E+02  0.33308652002E+02  0.17007656117E+04  0.17012697612E+04  0.00000000000E+00 0.  1.
</event>
<event>
 4    1  0.7060698E+001  0.2137241E+02  0.7546771E-02  0.1514014E+00
          2   -1    0    0  502    0  0.00000000000E+00  0.00000000000E+00  0.11951799609E+02  0.11951799609E+02  0.00000000000E+00 0. -1.
         -2   -1    0    0    0  501 -0.00000000000E+00 -0.00000000000E+00 -0.63580002664E+02  0.63580002664E+02  0.00000000000E+00 0.  1.
          1    1    1    2  502    0 -0.14604266313E+02 -0.15604335098E+02 -0.49666225677E+02  0.54069527845E+02  0.00000000000E+00 0. -1.
         -1    1    1    2    0  501  0.14604266313E+02  0.15604335098E+02 -0.19619773776E+01  0.21462274428E+02  0.00000000000E+00 0.  1.
</event>
<event>
 4    1  0.7060698E+001  0.3348522E+02  0.7546771E-02  0.1391537E+00
          2   -1    0    0  502    0  0.00000000000E+00  0.00000000000E+00  0.12342102031E+04  0.12342102031E+04  0.00000000000E+00 0.  1.
         -2   -1    0    0    0  501 -0.00000000000E+00 -0.00000000000E+00 -0.35290326006E+01  0.35290326006E+01  0.00000000000E+00 0. -1.
          1    1    1    2  502    0 -0.19234502363E+02 -0.27409738087E+02  0.11486355256E+04  0.11491235053E+04  0.00000000000E+00 0.  1.
         -1    1    1    2    0  501  0.19234502363E+02  0.27409738087E+02  0.82045644926E+02  0.88615730400E+02  0.00000000000E+00 0. -1.
</event>
<event>
 4    1  0.7060698E+001  0.2200122E+02  0.7546771E-02  0.1505436E+00
          2   -1    0    0  502    0  0.00000000000E+00  0.00000000000E+00  0.76226688847E+02  0.76226688847E+02  0.00000000000E+00 0. -1.
         -2   -1    0    0    0  501 -0.00000000000E+00 -0.00000000000E+00 -0.12209168040E+02  0.12209168040E+02  0.00000000000E+00 0.  1.
          1    1    1    2  502    0  0.18709326540E+02 -0.11576484534E+02  0.62640123472E+02  0.66391557915E+02  0.00000000000E+00 0. -1.
         -1    1    1    2    0  501 -0.18709326540E+02  0.11576484534E+02  0.13773973339E+01  0.22044298972E+02  0.00000000000E+00 0.  1.
</event>
<event>
 4    1  0.7060698E+001  0.2120239E+02  0.7546771E-02  0.1516395E+00
          2   -1    0    0  502    0  0.00000000000E+00  0.00000000000E+00  0.11963486377E+02  0.11963486377E+02  0.00000000000E+00 0.  1.
         -2   -1    0    0    0  501 -0.00000000000E+00 -0.00000000000E+00 -0.39145732685E+02  0.39145732685E+02  0.00000000000E+00 0. -1.
          1    1    1    2  502    0  0.15054765060E+02  0.14929687293E+02 -0.18708200345E+02  0.28276107827E+02  0.00000000000E+00 0. -1.
         -1    1    1    2    0  501 -0.15054765060E+02 -0.14929687293E+02 -0.84740459628E+01  0.22833111235E+02  0.00000000000E+00 0.  1.
</event>
<event>
 4    1  0.7060698E+001  0.2764334E+02  0.7546771E-02  0.1441251E+00
          2   -1    0    0  502    0  0.00000000000E+00  0.00000000000E+00  0.71740170965E+02  0.71740170965E+02  0.00000000000E+00 0.  1.
         -2   -1    0    0    0  501 -0.00000000000E+00 -0.00000000000E+00 -0.10745020681E+02  0.10745020681E+02  0.00000000000E+00 0. -1.
          1    1    1    2  502    0 -0.18368427654E+02  0.20658048224E+02  0.26653838411E+02  0.38400275949E+02  0.00000000000E+00 0. -1.
         -1    1    1    2    0  501  0.18368427654E+02 -0.20658048224E+02  0.34341311873E+02  0.44084915697E+02  0.00000000000E+00 0.  1.
</event>
<event>
 4    1  0.7060698E+001  0.2056034E+02  0.7546771E-02  0.1525636E+00
          2   -1    0    0  502    0  0.00000000000E+00  0.00000000000E+00  0.21051619319E+03  0.21051619319E+03  0.00000000000E+00 0.  1.
         -2   -1    0    0    0  501 -0.00000000000E+00 -0.00000000000E+00 -0.22094914945E+01  0.22094914945E+01  0.00000000000E+00 0. -1.
          1    1    1    2  502    0  0.93785468724E+01  0.18296730920E+02  0.13626893818E+03  0.13781128770E+03  0.00000000000E+00 0.  1.
         -1    1    1    2    0  501 -0.93785468724E+01 -0.18296730920E+02  0.72037763516E+02  0.74914396989E+02  0.00000000000E+00 0. -1.
</event>
<event>
 4    1  0.7060698E+001  0.2494111E+02  0.7546771E-02  0.1469463E+00
          2   -1    0    0  502    0  0.00000000000E+00  0.00000000000E+00  0.75388058344E+03  0.75388058344E+03  0.00000000000E+00 0.  1.
         -2   -1    0    0    0  501 -0.00000000000E+00 -0.00000000000E+00 -0.85782656731E+00  0.85782656731E+00  0.00000000000E+00 0. -1.
          1    1    1    2  502    0  0.71078716467E+01 -0.23906840511E+02  0.30285079219E+03  0.30387606223E+03  0.00000000000E+00 0. -1.
         -1    1    1    2    0  501 -0.71078716467E+01  0.23906840511E+02  0.45017196468E+03  0.45086234778E+03  0.00000000000E+00 0.  1.
</event>
<event>
 4    1  0.7060698E+001  0.2945899E+02  0.7546771E-02  0.1424357E+00
          2   -1    0    0  502    0  0.00000000000E+00  0.00000000000E+00  0.23177700888E+04  0.23177700888E+04  0.00000000000E+00 0. -1.
         -2   -1    0    0    0  501 -0.00000000000E+00 -0.00000000000E+00 -0.37680638177E+00  0.37680638177E+00  0.00000000000E+00 0.  1.
          1    1    1    2  502    0  0.27151583278E+02  0.11429067118E+02  0.12508322740E+04  0.12511791278E+04  0.00000000000E+00 0. -1.
         -1    1    1    2    0  501 -0.27151583278E+02 -0.11429067118E+02  0.10665610084E+04  0.10669677675E+04  0.00000000000E+00 0.  1.
</event>
<event>
 4    1  0.7060698E+001  0.2018524E+02  0.7546771E-02  0.1531223E+00
          2   -1    0    0  502    0  0.00000000000E+00  0.00000000000E+00  0.24712223708E+03  0.24712223708E+03  0.00000000000E+00 0. -1.
         -2   -1    0    0    0  501 -0.00000000000E+00 -0.00000000000E+00 -0.16983354570E+01  0.16983354570E+01  0.00000000000E+00 0.  1.
          1    1    1    2  502    0  0.19945725476E+02  0.31003105668E+01  0.14396896109E+03  0.14537711528E+03  0.00000000000E+00 0. -1.
         -1    1    1    2    0  501 -0.19945725476E+02 -0.31003105668E+01  0.10145494054E+03  0.10344345726E+03  0.00000000000E+00 0.  1.
</event>
<event>
 4    1  0.7060698E+001  0.2174767E+02  0.7546771E-02  0.1508852E+00
          2   -1    0    0  502    0  0.00000000000E+00  0.00000000000E+00  0.57419971587E+02  0.57419971587E+02  0.00000000000E+00 0.  1.
         -2   -1    0    0    0  501 -0.00000000000E+00 -0.00000000000E+00 -0.10534915651E+02  0.10534915651E+02  0.00000000000E+00 0. -1.
          1    1    1    2  502    0 -0.21293247997E+02  0.44225254005E+01  0.75733656757E+01  0.23028612829E+02  0.00000000000E+00 0. -1.
         -1    1    1    2    0  501  0.21293247997E+02 -0.44225254005E+01  0.39311690261E+02  0.44926274410E+02  0.00000000000E+00 0.  1.
</event>
<event>
 4    1  0.7060698E+001  0.2791474E+02  0.7546771E-02  0.1438630E+00
          2   -1    0    0  502    0  0.00000000000E+00  0.00000000000E+00  0.13491702029E+04  0.13491702029E+04  0.00000000000E+00 0.  1.
         -2   -1    0    0    0  501 -0.00000000000E+00 -0.00000000000E+00 -0.58748697559E+00  0.58748697559E+00  0.00000000000E+00 0. -1.
          1    1    1    2  502    0  0.14666498608E+02 -0.23751350565E+02  0.58658393214E+03  0.58724776908E+03  0.00000000000E+00 0. -1.
         -1    1    1    2    0  501 -0.14666498608E+02  0.23751350565E+02  0.76199878374E+03  0.76250992076E+03  0.00000000000E+00 0.  1.
</event>
<event>
 4    1  0.7060698E+001  0.2377889E+02  0.7546771E-02  0.1482943E+00
          2   -1    0    0  502    0  0.00000000000E+00  0.00000000000E+00  0.41775065662E+02  0.41775065662E+02  0.00000000000E+00 0.  1.
         -2   -1    0    0    0  501 -0.00000000000E+00 -0.00000000000E+00 -0.14398514850E+02  0.14398514850E+02  0.00000000000E+00 0. -1.
          1    1    1    2  502    0  0.85596779122E+00 -0.23763476493E+02  0.20565577001E+02  0.31438486816E+02  0.00000000000E+00 0. -1.
         -1    1    1    2    0  501 -0.85596779122E+00  0.23763476493E+02  0.68109738104E+01  0.24735093696E+02  0.00000000000E+00 0.  1.
</event>
<event>
 4    1  0.7060698E+001  0.2792900E+02  0.7546771E-02  0.1438493E+00
          2   -1    0    0  502    0  0.00000000000E+00  0.00000000000E+00  0.34841187770E+03  0.34841187770E+03  0.00000000000E+00 0. -1.
         -2   -1    0    0    0  501 -0.00000000000E+00 -0.00000000000E+00 -0.25361021112E+01  0.25361021112E+01  0.00000000000E+00 0.  1.
          1    1    1    2  502    0  0.21591826049E+01 -0.27845416687E+02  0.23301628557E+03  0.23468408263E+03  0.00000000000E+00 0. -1.
         -1    1    1    2    0  501 -0.21591826049E+01  0.27845416687E+02  0.11285949002E+03  0.11626389718E+03  0.00000000000E+00 0.  1.
</event>
<event>
 4    1  0.7060698E+001  0.2463548E+02  0.7546771E-02  0.1472923E+00
          2   -1    0    0  502    0  0.00000000000E+00  0.00000000000E+00  0.76838566044E+00  0.76838566044E+00  0.00000000000E+00 0. -1.
         -2   -1    0    0    0  501 -0.00000000000E+00 -0.00000000000E+00 -0.80441940089E+03  0.80441940089E+03  0.00000000000E+00 0.  1.
          1    1    1    2  502    0 -0.23173653949E+02  0.83599326281E+01 -0.45601301636E+03  0.45667798042E+03  0.00000000000E+00 0.  1.
         -1    1    1    2    0  501  0.23173653949E+02 -0.83599326281E+01 -0.34763799887E+03  0.34850980614E+03  0.00000000000E+00 0. -1.
</event>
<event>
 4    1  0.7060698E+001  0.3017832E+02  0.7546771E-02  0.1418053E+00
          2   -1    0    0  502    0  0.00000000000E+00  0.00000000000E+00  0.84460301689E+03  0.84460301689E+03  0.00000000000E+00 0. -1.
         -2   -1    0    0    0  501 -0.00000000000E+00 -0.00000000000E+00 -0.11275305382E+01  0.11275305382E+01  0.00000000000E+00 0.  1.
          1    1    1    2  502    0  0.26434419927E+02  0.14558596615E+02  0.51010203084E+03  0.51099394631E+03  0.00000000000E+00 0. -1.
         -1    1    1    2    0  501 -0.26434419927E+02 -0.14558596615E+02  0.33337345551E+03  0.33473660112E+03  0.00000000000E+00 0.  1.
</event>
<event>
 4    1  0.7060698E+001  0.3246703E+02  0.7546771E-02  0.1399302E+00
          2   -1    0    0  502    0  0.00000000000E+00  0.00000000000E+00  0.27840924728E+03  0.27840924728E+03  0.00000000000E+00 0. -1.
         -2   -1    0    0    0  501 -0.00000000000E+00 -0.00000000000E+00 -0.67730768344E+01  0.67730768344E+01  0.00000000000E+00 0.  1.
          1    1    1    2  502    0 -0.11917414101E+02 -0.30200721668E+02  0.23050925970E+03  0.23278450798E+03  0.00000000000E+00 0. -1.
         -1    1    1    2    0  501  0.11917414101E+02  0.30200721668E+02  0.41126910745E+02  0.52397816134E+02  0.00000000000E+00 0.  1.
</event>
<event>
 4    1  0.7060698E+001  0.2663020E+02  0.7546771E-02  0.1451359E+00
          2   -1    0    0  502    0  0.00000000000E+00  0.00000000000E+00  0.20627029110E+03  0.20627029110E+03  0.00000000000E+00 0.  1.
         -2   -1    0    0    0  501 -0.00000000000E+00 -0.00000000000E+00 -0.58349521005E+01  0.58349521005E+01  0.00000000000E+00 0. -1.
          1    1    1    2  502    0 -0.41845717688E+00  0.26626915931E+02  0.16818932195E+03  0.17028451421E+03  0.00000000000E+00 0.  1.
         -1    1    1    2    0  501  0.41845717688E+00 -0.26626915931E+02  0.32246017040E+02  0.41820728991E+02  0.00000000000E+00 0. -1.
</event>
<event>
 4    1  0.7060698E+001  0.3132238E+02  0.7546771E-02  0.1408443E+00
          2   -1    0    0  502    0  0.00000000000E+00  0.00000000000E+00  0.30688991181E+01  0.30688991181E+01  0.00000000000E+00 0. -1.
         -2   -1    0    0    0  501 -0.00000000000E+00 -0.00000000000E+00 -0.35230074787E+03  0.35230074787E+03  0.00000000000E+00 0.  1.
          1    1    1    2  502    0  0.31320588294E+02  0.33539745263E+00 -0.12055494011E+03  0.12455755829E+03  0.00000000000E+00 0. -1.
         -1    1    1    2    0  501 -0.31320588294E+02 -0.33539745263E+00 -0.22867690864E+03  0.23081208869E+03  0.00000000000E+00 0.  1.
</event>
<event>
 4    1  0.7060698E+001  0.3202935E+02  0.7546771E-02  0.1402744E+00
          2   -1    0    0  502    0  0.00000000000E+00  0.00000000000E+00  0.95258518106E+03  0.95258518106E+03  0.00000000000E+00 0. -1.
         -2   -1    0    0    0  501 -0.00000000000E+00 -0.00000000000E+00 -0.12568484835E+01  0.12568484835E+01  0.00000000000E+00 0.  1.
          1    1    1    2  502    0 -0.28299085417E+02 -0.15001366419E+02  0.29522612662E+03  0.29695849048E+03  0.00000000000E+00 0.  1.
         -1    1    1    2    0  501  0.28299085417E+02  0.15001366419E+02  0.65610220596E+03  0.65688353906E+03  0.00000000000E+00 0. -1.
</event>
<event>
 4    1  0.7060698E+001  0.2706351E+02  0.7546771E-02  0.1446971E+00
          2   -1    0    0  502    0  0.00000000000E+00  0.00000000000E+00  0.14096641563E+01  0.14096641563E+01  0.00000000000E+00 0. -1.
         -2   -1    0    0    0  501 -0.00000000000E+00 -0.00000000000E+00 -0.54154758540E+03  0.54154758540E+03  0.00000000000E+00 0.  1.
          1    1    1    2  502    0  0.32581925280E+01 -0.26866661381E+02 -0.21539148944E+03  0.21708506867E+03  0.00000000000E+00 0. -1.
         -1    1    1    2    0  501 -0.32581925280E+01  0.26866661381E+02 -0.32474643180E+03  0.32587218089E+03  0.00000000000E+00 0.  1.
</event>
<event>
 4    1  0.7060698E+001  0.2495251E+02  0.7546771E-02  0.1469335E+00
          2   -1    0    0  502    0  0.00000000000E+00  0.00000000000E+00  0.13772816420E+04  0.13772816420E+04  0.00000000000E+00 0.  1.
         -2   -1    0    0    0  501 -0.00000000000E+00 -0.00000000000E+00 -0.49539452161E+00  0.49539452161E+00  0.00000000000E+00 0. -1.
          1    1    1    2  502    0 -0.23886130774E+02 -0.72166888622E+01  0.89211598308E+03  0.89246487612E+03  0.00000000000E+00 0.  1.
         -1    1    1    2    0  501  0.23886130774E+02  0.72166888622E+01  0.48467026441E+03  0.48531216041E+03  0.00000000000E+00 0. -1.
</event>
<event>
 4    1  0.7060698E+001  0.2093418E+02  0.7546771E-02  0.1520207E+00
          2   -1    0    0  502    0  0.00000000000E+00  0.00000000000E+00  0.86452091223E+03  0.86452091223E+03  0.00000000000E+00 0.  1.
         -2   -1    0    0    0  501 -0.00000000000E+00 -0.00000000000E+00 -0.54705616057E+00  0.54705616057E+00  0.00000000000E+00 0. -1.
          1    1    1    2  502    0 -0.10864224996E+02 -0.17894372578E+02  0.54915003458E+03  0.54954890632E+03  0.00000000000E+00 0.  1.
         -1    1    1    2    0  501  0.10864224996E+02  0.17894372578E+02  0.31482382149E+03  0.31551906207E+03  0.00000000000E+00 0. -1.
</event>
<event>
 4    1  0.7060698E+001  0.3315527E+02  0.7546771E-02  0.1394018E+00
          2   -1    0    0  502    0  0.00000000000E+00  0.00000000000E+00  0.65785322318E+02  0.65785322318E+02  0.00000000000E+00 0. -1.
         -2   -1    0    0    0  501 -0.00000000000E+00 -0.00000000000E+00 -0.61693486189E+02  0.61693486189E+02  0.00000000000E+00 0.  1.
          1    1    1    2  502    0  0.85782018461E+01  0.32026342626E+02  0.56472986201E+02  0.65486413395E+02  0.00000000000E+00 0. -1.
         -1    1    1    2    0  501 -0.85782018461E+01 -0.32026342626E+02 -0.52381150072E+02  0.61992395112E+02  0.00000000000E+00 0.  1.
</event>
<event>
 4    1  0.7060698E+001  0.2582281E+02  0.7546771E-02  0.1459806E+00
          2   -1    0    0  502    0  0.00000000000E+00  0.00000000000E+00  0.14081616538E+04  0.14081616538E+04  0.00000000000E+00 0. -1.
         -2   -1    0    0    0  501 -0.00000000000E+00 -0.00000000000E+00 -0.59891798242E+00  0.59891798242E+00  0.00000000000E+00 0.  1.
          1    1    1    2  502    0 -0.14066763928E+02 -0.21655103126E+02  0.38149755213E+03  0.38237050045E+03  0.00000000000E+00 0.  1.
         -1    1    1    2    0  501  0.14066763928E+02  0.21655103126E+02  0.10260651837E+04  0.10263900713E+04  0.00000000000E+00 0. -1.
</event>
<event>
 4    1  0.7060698E+001  0.2617381E+02  0.7546771E-02  0.1456089E+00
          2   -1    0    0  502    0  0.00000000000E+00  0.00000000000E+00  0.22515413625E+04  0.22515413625E+04  0.00000000000E+00 0. -1.
         -2   -1    0    0    0  501 -0.00000000000E+00 -0.00000000000E+00 -0.50641437858E+00  0.50641437858E+00  0.00000000000E+00 0.  1.
          1    1    1    2  502    0  0.23087741755E+02 -0.12329823286E+02  0.41409217915E+03  0.41491854766E+03  0.00000000000E+00 0.  1.
         -1    1    1    2    0  501 -0.23087741755E+02  0.12329823286E+02  0.18369427689E+04  0.18371292292E+04  0.00000000000E+00 0. -1.
</event>
<event>
 4    1  0.7060698E+001  0.2014361E+02  0.7546771E-02  0.1531852E+00
          2   -1    0    0  502    0  0.00000000000E+00  0.00000000000E+00  0.30822651174E+03  0.30822651174E+03  0.00000000000E+00 0. -1.
         -2   -1    0    0    0  501 -0.00000000000E+00 -0.00000000000E+00 -0.27014251689E+01  0.27014251689E+01  0.00000000000E+00 0.  1.
          1    1    1    2  502    0  0.45309078095E+01 -0.19627426945E+02  0.41447423272E+02  0.46083119577E+02  0.00000000000E+00 0.  1.
         -1    1    1    2    0  501 -0.45309078095E+01  0.19627426945E+02  0.26407766330E+03  0.26484481733E+03  0.00000000000E+00 0. -1.
</event>
<event>
 4    1  0.7060698E+001  0.3414225E+02  0.7546771E-02  0.1386696E+00
          2   -1    0    0  502    0  0.00000000000E+00  0.00000000000E+00  0.44102932467E+01  0.44102932467E+01  0.00000000000E+00 0.  1.
         -2   -1    0    0    0  501 -0.00000000000E+00 -0.00000000000E+00 -0.26835648967E+03  0.26835648967E+03  0.00000000000E+00 0. -1.
          1    1    1    2  502    0 -0.34096000735E+02  0.17764832728E+01 -0.11522981655E+03  0.12018154509E+03  0.00000000000E+00 0.  1.
         -1    1    1    2    0  501  0.34096000735E+02 -0.17764832728E+01 -0.14871637987E+03  0.15258523782E+03  0.00000000000E+00 0. -1.
</event>
<event>
 4    1  0.7060698E+001  0.2332990E+02  0.7546771E-02  0.1488397E+00
          2   -1    0    0  502    0  0.00000000000E+00  0.00000000000E+00  0.18544596242E+04  0.18544596242E+04  0.00000000000E+00 0.  1.
         -2   -1    0    0    0  501 -0.00000000000E+00 -0.00000000000E+00 -0.29355223113E+00  0.29355223113E+00  0.00000000000E+00 0. -1.
          1    1    1    2  502    0  0.52741290216E+01  0.22725929003E+02  0.91473748636E+03  0.91503494646E+03  0.00000000000E+00 0.  1.
         -1    1    1    2    0  501 -0.52741290216E+01 -0.22725929003E+02  0.93942858565E+03  0.93971823001E+03  0.00000000000E+00 0. -1.
</event>
<event>
 4    1  0.7060698E+001  0.2830228E+02  0.7546771E-02  0.1434948E+00
          2   -1    0    0  502    0  0.00000000000E+00  0.00000000000E+00  0.11510734604E+03  0.11510734604E+03  0.00000000000E+00 0. -1.
         -2   -1    0    0    0  501 -0.00000000000E+00 -0.00000000000E+00 -0.70291632831E+01  0.70291632831E+01  0.00000000000E+00 0.  1.
          1    1    1    2  502    0  0.27410815479E+02  0.70474095379E+01  0.47932846835E+02  0.55664859580E+02  0.00000000000E+00 0.  1.
         -1    1    1    2    0  501 -0.27410815479E+02 -0.70474095379E+01  0.60145335926E+02  0.66471649747E+02  0.00000000000E+00 0. -1.
</event>
<event>
 4    1  0.7060698E+001  0.2684282E+02  0.7546771E-02  0.1449193E+00
          2   -1    0    0  502    0  0.00000000000E+00  0.00000000000E+00  0.12221537845E+03  0.12221537845E+03  0.00000000000E+00 0.  1.
         -2   -1    0    0    0  501 -0.00000000000E+00 -0.00000000000E+00 -0.68539912477E+01  0.68539912477E+01  0.00000000000E+00 0. -1.
          1    1    1    2  502    0  0.19419262114E+02 -0.18531837471E+02  0.33549106981E+02  0.42966025187E+02  0.00000000000E+00 0. -1.
         -1    1    1    2    0  501 -0.19419262114E+02  0.18531837471E+02  0.81812280226E+02  0.86103344516E+02  0.00000000000E+00 0.  1.
</event>
<event>
 4    1  0.7060698E+001  0.3533190E+02  0.7546771E-02  0.1378245E+00
          2   -1    0    0  502    0  0.00000000000E+00  0.00000000000E+00  0.18941679895E+02  0.18941679895E+02  0.00000000000E+00 0. -1.
         -2   -1    0    0    0  501 -0.00000000000E+00 -0.00000000000E+00 -0.74191421197E+02  0.74191421197E+02  0.00000000000E+00 0.  1.
          1    1    1    2  502    0  0.27531477533E+02 -0.22144094408E+02 -0.43187827977E+02  0.55799029182E+02  0.00000000000E+00 0.  1.
         -1    1    1    2    0  501 -0.27531477533E+02  0.22144094408E+02 -0.12061913325E+02  0.37334071910E+02  0.00000000000E+00 0. -1.
</event>
<event>
 4    1  0.7060698E+001  0.2481550E+02  0.7546771E-02  0.1470878E+00
          2   -1    0    0  502    0  0.00000000000E+00  0.00000000000E+00  0.91653213086E+02  0.91653213086E+02  0.00000000000E+00 0.  1.
         -2   -1    0    0    0  501 -0.00000000000E+00 -0.00000000000E+00 -0.67243938741E+01  0.67243938741E+01  0.00000000000E+00 0. -1.
          1    1    1    2  502    0  0.16985271048E+02  0.18091701564E+02  0.43869935943E+02  0.50402186239E+02  0.00000000000E+00 0.  1.
         -1    1    1    2    0  501 -0.16985271048E+02 -0.18091701564E+02  0.41058883269E+02  0.47975420721E+02  0.00000000000E+00 0. -1.
</event>
<event>
 4    1  0.7060698E+001  0.2043026E+02  0.7546771E-02  0.1527557E+00
          2   -1    0    0  502    0  0.00000000000E+00  0.00000000000E+00  0.61453473075E+02  0.61453473075E+02  0.00000000000E+00 0. -1.
         -2   -1    0    0    0  501 -0.00000000000E+00 -0.00000000000E+00 -0.70401521710E+01  0.70401521710E+01  0.00000000000E+00 0.  1.
          1    1    1    2  502    0 -0.95008615364E+01  0.18086708147E+02  0.20777713196E+02  0.29139470606E+02  0.00000000000E+00 0.  1.
         -1    1    1    2    0  501  0.95008615364E+01 -0.18086708147E+02  0.33635607708E+02  0.39354154640E+02  0.00000000000E+00 0. -1.
</event>
<event>
 4    1  0.7060698E+001  0.2879121E+02  0.7546771E-02  0.1430400E+00
          2   -1    0    0  502    0  0.00000000000E+00  0.00000000000E+00  0.16932175014E+04  0.16932175014E+04  0.00000000000E+00 0.  1.
         -2   -1    0    0    0  501 -0.00000000000E+00 -0.00000000000E+00 -0.70596814437E+00  0.70596814437E+00  0.00000000000E+00 0. -1.
          1    1    1    2  502    0 -0.28172886038E+02 -0.59348417699E+01  0.37732721324E+03  0.37842404747E+03  0.00000000000E+00 0. -1.
         -1    1    1    2    0  501  0.28172886038E+02  0.59348417699E+01  0.13151843201E+04  0.13154994221E+04  0.00000000000E+00 0.  1.
</event>
<event>
 4    1  0.7060698E+001  0.3898534E+02  0.7546771E-02  0.1354536E+00
          2   -1    0    0  502    0  0.00000000000E+00  0.00000000000E+00  0.63068018659E+01  0.63068018659E+01  0.00000000000E+00 0. -1.
         -2   -1    0    0    0  501 -0.00000000000E+00 -0.00000000000E+00 -0.35889391130E+03  0.35889391130E+03  0.00000000000E+00 0.  1.
          1    1    1    2  502    0 -0.29688418651E+02 -0.25267661386E+02 -0.28095538105E+03  0.28364728635E+03  0.00000000000E+00 0.  1.
         -1    1    1    2    0  501  0.29688418651E+02  0.25267661386E+02 -0.71631728390E+02  0.81553426819E+02  0.00000000000E+00 0. -1.
</event>
<event>
 4    1  0.7060698E+001  0.2546524E+02  0.7546771E-02  0.1463665E+00
          2   -1    0    0  502    0  0.00000000000E+00  0.00000000000E+00  0.36644897792E+02  0.36644897792E+02  0.00000000000E+00 0. -1.
         -2   -1    0    0    0  501 -0.00000000000E+00 -0.00000000000E+00 -0.17710158738E+02  0.17710158738E+02  0.00000000000E+00 0.  1.
          1    1    1    2  502    0 -0.73771524011E+01  0.24373269863E+02  0.10227958618E+02  0.27442481645E+02  0.00000000000E+00 0.  1.
         -1    1    1    2    0  501  0.73771524011E+01 -0.24373269863E+02  0.87067804362E+01  0.26912574885E+02  0.00000000000E+00 0. -1.
</event>
<event>
 4    1  0.7060698E+001  0.2084155E+02  0.7546771E-02  0.1521539E+00
          2   -1    0    0  502    0  0.00000000000E+00  0.00000000000E+00  0.22570317796E+03  0.22570317796E+03  0.00000000000E+00 0. -1.
         -2   -1    0    0    0  501 -0.00000000000E+00 -0.00000000000E+00 -0.21024465519E+01  0.21024465519E+01  0.00000000000E+00 0.  1.
          1    1    1    2  502    0 -0.20363034589E+02  0.44403945011E+01  0.78664956288E+02  0.81379024502E+02  0.00000000000E+00 0.  1.
         -1    1    1    2    0  501  0.20363034589E+02 -0.44403945011E+01  0.14493577512E+03  0.14642660001E+03  0.00000000000E+00 0. -1.
</event>
<event>
 4    1  0.7060698E+001  0.3919965E+02  0.7546771E-02  0.1353241E+00
          2   -1    0    0  502    0  0.00000000000E+00  0.00000000000E+00  0.13901848364E+03  0.13901848364E+03  0.00000000000E+00 0.  1.
         -2   -1    0    0    0  501 -0.00000000000E+00 -0.00000000000E+00 -0.11886926809E+02  0.11886926809E+02  0.00000000000E+00 0. -1.
          1    1    1    2  502    0  0.10741875672E+02 -0.37699132706E+02  0.83547219398E+02  0.92286241493E+02  0.00000000000E+00 0.  1.
         -1    1    1    2    0  501 -0.10741875672E+02  0.37699132706E+02  0.43584337436E+02  0.58619168959E+02  0.00000000000E+00 0. -1.
</event>
<event>
 4    1  0.7060698E+001  0.2168382E+02  0.7546771E-02  0.1509722E+00
          2   -1    0    0  502    0  0.00000000000E+00  0.00000000000E+00  0.11920962986E+02  0.11920962986E+02  0.00000000000E+00 0. -1.
         -2   -1    0    0    0  501 -0.00000000000E+00 -0.00000000000E+00 -0.54457392438E+02  0.54457392438E+02  0.00000000000E+00 0.  1.
          1    1    1    2  502    0 -0.18444591682E+02  0.11401101317E+02 -0.38407322698E+01  0.22021337333E+02  0.00000000000E+00 0.  1.
         -1    1    1    2    0  501  0.18444591682E+02 -0.11401101317E+02 -0.38695697182E+02  0.44357018091E+02  0.00000000000E+00 0. -1.
</event>
<event>
 4    1  0.7060698E+001  0.2142466E+02  0.7546771E-02  0.1513287E+00
          2   -1    0    0  502    0  0.00000000000E+00  0.00000000000E+00  0.12575331100E+04  0.12575331100E+04  0.00000000000E+00 0. -1.
         -2   -1    0    0    0  501 -0.00000000000E+00 -0.00000000000E+00 -0.37429175906E+00  0.37429175906E+00  0.00000000000E+00 0.  1.
          1    1    1    2  502    0  0.15093675185E+02 -0.15205158316E+02  0.52955103073E+03  0.52998425450E+03  0.00000000000E+00 0.  1.
         -1    1    1    2    0  501 -0.15093675185E+02  0.15205158316E+02  0.72760778754E+03  0.72792314729E+03  0.00000000000E+00 0. -1.
</event>
<event>
 4    1  0.7060698E+001  0.2703329E+02  0.7546771E-02  0.1447274E+00
          2   -1    0    0  502    0  0.00000000000E+00  0.00000000000E+00  0.14343978238E+03  0.14343978238E+03  0.00000000000E+00 0. -1.
         -2   -1    0    0    0  501 -0.00000000000E+00 -0.00000000000E+00 -0.81519517249E+01  0.81519517249E+01  0.00000000000E+00 0.  1.
          1    1    1    2  502    0  0.21232682910E+02 -0.16732367272E+02  0.21227428740E+02  0.34371538647E+02  0.00000000000E+00 0. -1.
         -1    1    1    2    0  501 -0.21232682910E+02  0.16732367272E+02  0.11406040192E+03  0.11722019546E+03  0.00000000000E+00 0.  1.
</event>
<event>
 4    1  0.7060698E+001  0.2562289E+02  0.7546771E-02  0.1461954E+00
          2   -1    0    0  502    0  0.00000000000E+00  0.00000000000E+00  0.20911794522E+04  0.20911794522E+04  0.00000000000E+00 0.  1.
         -2   -1    0    0    0  501 -0.00000000000E+00 -0.00000000000E+00 -0.50671303672E+00  0.50671303672E+00  0.00000000000E+00 0. -1.
          1    1    1    2  502    0 -0.24906659307E+02 -0.60158819023E+01  0.40028582405E+03  0.40110506535E+03  0.00000000000E+00 0. -1.
         -1    1    1    2    0  501  0.24906659307E+02  0.60158819023E+01  0.16903869152E+04  0.16905810999E+04  0.00000000000E+00 0.  1.
</event>
<event>
 4    1  0.7060698E+001  0.2265168E+02  0.7546771E-02  0.1496919E+00
          2   -1    0    0  502    0  0.00000000000E+00  0.00000000000E+00  0.19133110584E+02  0.19133110584E+02  0.00000000000E+00 0.  1.
         -2   -1    0    0    0  501 -0.00000000000E+00 -0.00000000000E+00 -0.28542744988E+02  0.28542744988E+02  0.00000000000E+00 0. -1.
          1    1    1    2  502    0  0.21074007387E+02 -0.83057226590E+01 -0.10565770103E+02  0.24994685717E+02  0.00000000000E+00 0.  1.
         -1    1    1    2    0  501 -0.21074007387E+02  0.83057226590E+01  0.11561356996E+01  0.22681169855E+02  0.00000000000E+00 0. -1.
</event>
<event>
 4    1  0.7060698E+001  0.2411008E+02  0.7546771E-02  0.1479010E+00
          2   -1    0    0  502    0  0.00000000000E+00  0.00000000000E+00  0.12879291428E+04  0.12879291428E+04  0.00000000000E+00 0. -1.
         -2   -1    0    0    0  501 -0.00000000000E+00 -0.00000000000E+00 -0.50915336944E+00  0.50915336944E+00  0.00000000000E+00 0.  1.
          1    1    1    2  502    0 -0.22341437163E+02  0.90640061276E+01  0.42663120771E+03  0.42731192753E+03  0.00000000000E+00 0.  1.
         -1    1    1    2    0  501  0.22341437163E+02 -0.90640061276E+01  0.86078878171E+03  0.86112636862E+03  0.00000000000E+00 0. -1.
</event>
<event>
 4    1  0.7060698E+001  0.2122885E+02  0.7546771E-02  0.1516022E+00
          2   -1    0    0  502    0  0.00000000000E+00  0.00000000000E+00  0.21178685313E+04  0.21178685313E+04  0.00000000000E+00 0. -1.
         -2   -1    0    0    0  501 -0.00000000000E+00 -0.00000000000E+00 -0.23804542254E+00  0.23804542254E+00  0.00000000000E+00 0.  1.
          1    1    1    2  502    0 -0.14702938578E+02  0.15312990424E+02  0.71386718010E+03  0.71418276016E+03  0.00000000000E+00 0. -1.
         -1    1    1    2    0  501  0.14702938578E+02 -0.15312990424E+02  0.14037633058E+04  0.14039238166E+04  0.00000000000E+00 0.  1.
</event>
<event>
 4    1  0.7060698E+001  0.2038751E+02  0.7546771E-02  0.1528192E+00
          2   -1    0    0  502    0  0.00000000000E+00  0.00000000000E+00  0.12903015658E+02  0.12903015658E+02  0.00000000000E+00 0. -1.
         -2   -1    0    0    0  501 -0.00000000000E+00 -0.00000000000E+00 -0.35587037735E+02  0.35587037735E+02  0.00000000000E+00 0.  1.
          1    1    1    2  502    0 -0.19825161246E+02  0.47553816217E+01 -0.18806887706E+02  0.27737153747E+02  0.00000000000E+00 0.  1.
         -1    1    1    2    0  501  0.19825161246E+02 -0.47553816217E+01 -0.38771343715E+01  0.20752899647E+02  0.00000000000E+00 0. -1.
</event>
<event>
 4    1  0.7060698E+001  0.2955735E+02  0.7546771E-02  0.1423483E+00
          2   -1    0    0  502    0  0.00000000000E+00  0.00000000000E+00  0.71661568110E+02  0.71661568110E+02  0.00000000000E+00 0.  1.
         -2   -1    0    0    0  501 -0.00000000000E+00 -0.00000000000E+00 -0.16806585301E+02  0.16806585301E+02  0.00000000000E+00 0. -1.
          1    1    1    2  502    0  0.29512012321E+02 -0.16364443332E+01  0.42469472233E+01  0.29860900556E+02  0.00000000000E+00 0. -1.
         -1    1    1    2    0  501 -0.29512012321E+02  0.16364443332E+01  0.50608035586E+02  0.58607252855E+02  0.00000000000E+00 0.  1.
</event>
<event>
 4    1  0.7060698E+001  0.2524624E+02  0.7546771E-02  0.1466067E+00
          2   -1    0    0  502    0  0.00000000000E+00  0.00000000000E+00  0.60336620038E+00  0.60336620038E+00  0.00000000000E+00 0. -1.
         -2   -1    0    0    0  501 -0.00000000000E+00 -0.00000000000E+00 -0.10753596572E+04  0.10753596572E+04  0.00000000000E+00 0.  1.
          1    1    1    2  502    0  0.12782153983E+01  0.25213864550E+02 -0.46587145464E+03  0.46655501824E+03  0.00000000000E+00 0. -1.
         -1    1    1    2    0  501 -0.12782153983E+01 -0.25213864550E+02 -0.60888483640E+03  0.60940800520E+03  0.00000000000E+00 0.  1.
</event>
<event>
 4    1  0.7060698E+001  0.2147984E+02  0.7546771E-02  0.1512523E+00
          2   -1    0    0  502    0  0.00000000000E+00  0.00000000000E+00  0.41578060912E+03  0.41578060912E+03  0.00000000000E+00 0. -1.
         -2   -1    0    0    0  501 -0.00000000000E+00 -0.00000000000E+00 -0.11463889354E+01  0.11463889354E+01  0.00000000000E+00 0.  1.
          1    1    1    2  502    0  0.19177962986E+02 -0.96741460887E+01  0.17001350784E+03  0.17136503790E+03  0.00000000000E+00 0.  1.
         -1    1    1    2    0  501 -0.19177962986E+02  0.96741460887E+01  0.24462071235E+03  0.24556196016E+03  0.00000000000E+00 0. -1.
</event>
<event>
 4    1  0.7060698E+001  0.2489992E+02  0.7546771E-02  0.1469926E+00
          2   -1    0    0  502    0  0.00000000000E+00  0.00000000000E+00  0.31666986001E+02  0.31666986001E+02  0.00000000000E+00 0.  1.
         -2   -1    0    0    0  501 -0.00000000000E+00 -0.00000000000E+00 -0.68934103652E+02  0.68934103652E+02  0.00000000000E+00 0. -1.
          1    1    1    2  502    0 -0.24441048338E+02  0.47582727428E+01 -0.61195548595E+02  0.66067398701E+02  0.00000000000E+00 0. -1.
         -1    1    1    2    0  501  0.24441048338E+02 -0.47582727428E+01  0.23928430943E+02  0.34533690952E+02  0.00000000000E+00 0.  1.
</event>
<event>
 4    1  0.7060698E+001  0.2772163E+02  0.7546771E-02  0.1440491E+00
          2   -1    0    0  502    0  0.00000000000E+00  0.00000000000E+00  0.64274105312E+02  0.64274105312E+02  0.00000000000E+00 0.  1.
         -2   -1    0    0    0  501 -0.00000000000E+00 -0.00000000000E+00 -0.20318483697E+02  0.20318483697E+02  0.00000000000E+00 0. -1.
          1    1    1    2  502    0 -0.21320870648E+02  0.17717483118E+02 -0.51561500078E+01  0.28197067509E+02  0.00000000000E+00 0. -1.
         -1    1    1    2    0  501  0.21320870648E+02 -0.17717483118E+02  0.49111771623E+02  0.56395521499E+02  0.00000000000E+00 0.  1.
</event>
<event>
 4    1  0.7060698E+001  0.3257906E+02  0.7546771E-02  0.1398432E+00
          2   -1    0    0  502    0  0.00000000000E+00  0.00000000000E+00  0.10180953036E+04  0.10180953036E+04  0.00000000000E+00 0.  1.
         -2   -1    0    0    0  501 -0.00000000000E+00 -0.00000000000E+00 -0.11624204031E+01  0.11624204031E+01  0.00000000000E+00 0. -1.
          1    1    1    2  502    0 -0.32207310367E+02  0.49075460198E+01  0.67213478950E+03  0.67292389622E+03  0.00000000000E+00 0.  1.
         -1    1    1    2    0  501  0.32207310367E+02 -0.49075460198E+01  0.34479809365E+03  0.34633382774E+03  0.00000000000E+00 0. -1.
</event>
<event>
 4    1  0.7060698E+001  0.3100213E+02  0.7546771E-02  0.1411083E+00
          2   -1    0    0  502    0  0.00000000000E+00  0.00000000000E+00  0.29624506915E+03  0.29624506915E+03  0.00000000000E+00 0. -1.
         -2   -1    0    0    0  501 -0.00000000000E+00 -0.00000000000E+00 -0.32732913881E+01  0.32732913881E+01  0.00000000000E+00 0.  1.
          1    1    1    2  502    0  0.10369787244E+02 -0.29216428221E+02  0.16055999052E+03  0.16352566380E+03  0.00000000000E+00 0. -1.
         -1    1    1    2    0  501 -0.10369787244E+02  0.29216428221E+02  0.13241178724E+03  0.13599269673E+03  0.00000000000E+00 0.  1.
</event>
<event>
 4    1  0.7060698E+001  0.2546382E+02  0.7546771E-02  0.1463681E+00
          2   -1    0    0  502    0  0.00000000000E+00  0.00000000000E+00  0.16180320498E+03  0.16180320498E+03  0.00000000000E+00 0.  1.
         -2   -1    0    0    0  501 -0.00000000000E+00 -0.00000000000E+00 -0.43309473596E+01  0.43309473596E+01  0.00000000000E+00 0. -1.
          1    1    1    2  502    0  0.22799593196E+02 -0.11339512681E+02  0.56031015133E+02  0.61545760655E+02  0.00000000000E+00 0. -1.
         -1    1    1    2    0  501 -0.22799593196E+02  0.11339512681E+02  0.10144124248E+03  0.10458839168E+03  0.00000000000E+00 0.  1.
</event>
<event>
 4    1  0.7060698E+001  0.2271693E+02  0.7546771E-02  0.1496084E+00
          2   -1    0    0  502    0  0.00000000000E+00  0.00000000000E+00  0.14188282577E+04  0.14188282577E+04  0.00000000000E+00 0.  1.
         -2   -1    0    0    0  501 -0.00000000000E+00 -0.00000000000E+00 -0.83668842265E+00  0.83668842265E+00  0.00000000000E+00 0. -1.
          1    1    1    2  502    0 -0.62985365539E+01 -0.21826297513E+02  0.12426859643E+04  0.12428935855E+04  0.00000000000E+00 0.  1.
         -1    1    1    2    0  501  0.62985365539E+01  0.21826297513E+02  0.17530560494E+03  0.17677136066E+03  0.00000000000E+00 0. -1.
</event>
<event>
 4    1  0.7060698E+001  0.2170805E+02  0.7546771E-02  0.1509391E+00
          2   -1    0    0  502    0  0.00000000000E+00  0.00000000000E+00  0.17802453645E+03  0.17802453645E+03  0.00000000000E+00 0. -1.
         -2   -1    0    0    0  501 -0.00000000000E+00 -0.00000000000E+00 -0.27110345511E+01  0.27110345511E+01  0.00000000000E+00 0.  1.
          1    1    1    2  502    0 -0.18689986427E+02  0.11041906312E+02  0.10154010446E+03  0.10383463825E+03  0.00000000000E+00 0.  1.
         -1    1    1    2    0  501  0.18689986427E+02 -0.11041906312E+02  0.73773397442E+02  0.76900932750E+02  0.00000000000E+00 0. -1.
</event>
<event>
 4    1  0.7060698E+001  0.2876046E+02  0.7546771E-02  0.1430683E+00
          2   -1    0    0  502    0  0.00000000000E+00  0.00000000000E+00  0.30611503163E+02  0.30611503163E+02  0.00000000000E+00 0.  1.
         -2   -1    0    0    0  501 -0.00000000000E+00 -0.00000000000E+00 -0.27442529970E+02  0.27442529970E+02  0.00000000000E+00 0. -1.
          1    1    1    2  502    0  0.26956674614E+02  0.10025042891E+02 -0.20115994358E+01  0.28830718400E+02  0.00000000000E+00 0. -1.
         -1    1    1    2    0  501 -0.26956674614E+02 -0.10025042891E+02  0.51805726293E+01  0.29223314733E+02  0.00000000000E+00 0.  1.
</event>
<event>
 4    1  0.7060698E+001  0.6771940E+02  0.7546771E-02  0.1235643E+00
          2   -1    0    0  502    0  0.00000000000E+00  0.00000000000E+00  0.21967535666E+04  0.21967535666E+04  0.00000000000E+00 0. -1.
         -2   -1    0    0    0  501 -0.00000000000E+00 -0.00000000000E+00 -0.21869153636E+01  0.21869153636E+01  0.00000000000E+00 0.  1.
          1    1    1    2  502    0 -0.54031841458E+02  0.40822506831E+02  0.86296763187E+03  0.86562061586E+03  0.00000000000E+00 0.  1.
         -1    1    1    2    0  501  0.54031841458E+02 -0.40822506831E+02  0.13315990193E+04  0.13333198661E+04  0.00000000000E+00 0. -1.
</event>
<event>
 4    1  0.7060698E+001  0.4929565E+02  0.7546771E-02  0.1301255E+00
          2   -1    0    0  502    0  0.00000000000E+00  0.00000000000E+00  0.18464160768E+03  0.18464160768E+03  0.00000000000E+00 0. -1.
         -2   -1    0    0    0  501 -0.00000000000E+00 -0.00000000000E+00 -0.24616977662E+02  0.24616977662E+02  0.00000000000E+00 0.  1.
          1    1    1    2  502    0  0.28407150184E+02 -0.40287653846E+02  0.15138839910E+03  0.15921214972E+03  0.00000000000E+00 0. -1.
         -1    1    1    2    0  501 -0.28407150184E+02  0.40287653846E+02  0.86362309088E+01  0.50046435620E+02  0.00000000000E+00 0.  1.
</event>
<event>
 4    1  0.7060698E+001  0.2246190E+02  0.7546771E-02  0.1499368E+00
          2   -1    0    0  502    0  0.00000000000E+00  0.00000000000E+00  0.87075572261E+01  0.87075572261E+01  0.00000000000E+00 0. -1.
         -2   -1    0    0    0  501 -0.00000000000E+00 -0.00000000000E+00 -0.74397404232E+02  0.74397404232E+02  0.00000000000E+00 0.  1.
          1    1    1    2  502    0  0.22309983284E+02  0.26079936570E+01 -0.52386820919E+02  0.56999263074E+02  0.00000000000E+00 0.  1.
         -1    1    1    2    0  501 -0.22309983284E+02 -0.26079936570E+01 -0.13303026087E+02  0.26105698384E+02  0.00000000000E+00 0. -1.
</event>
<event>
 4    1  0.7060698E+001  0.2122383E+02  0.7546771E-02  0.1516093E+00
          2   -1    0    0  502    0  0.00000000000E+00  0.00000000000E+00  0.17929751269E+03  0.17929751269E+03  0.00000000000E+00 0.  1.
         -2   -1    0    0    0  501 -0.00000000000E+00 -0.00000000000E+00 -0.25251931934E+01  0.25251931934E+01  0.00000000000E+00 0. -1.
          1    1    1    2  502    0  0.21223126492E+02  0.17289759163E+00  0.94879634678E+02  0.97224462293E+02  0.00000000000E+00 0. -1.
         -1    1    1    2    0  501 -0.21223126492E+02 -0.17289759163E+00  0.81892684818E+02  0.84598243589E+02  0.00000000000E+00 0.  1.
</event>
<event>
 4    1  0.7060698E+001  0.2961393E+02  0.7546771E-02  0.1422981E+00
          2   -1    0    0  502    0  0.00000000000E+00  0.00000000000E+00  0.13943681817E+01  0.13943681817E+01  0.00000000000E+00 0. -1.
         -2   -1    0    0    0  501 -0.00000000000E+00 -0.00000000000E+00 -0.73373712073E+03  0.73373712073E+03  0.00000000000E+00 0.  1.
          1    1    1    2  502    0 -0.29293909056E+02 -0.43418494138E+01 -0.50507812650E+03  0.50594554908E+03  0.00000000000E+00 0. -1.
         -1    1    1    2    0  501  0.29293909056E+02  0.43418494138E+01 -0.22726462605E+03  0.22918593984E+03  0.00000000000E+00 0.  1.
</event>
<event>
 4    1  0.7060698E+001  0.3327179E+02  0.7546771E-02  0.1393138E+00
          2   -1    0    0  502    0  0.00000000000E+00  0.00000000000E+00  0.15549868475E+03  0.15549868475E+03  0.00000000000E+00 0.  1.
         -2   -1    0    0    0  501 -0.00000000000E+00 -0.00000000000E+00 -0.74731861290E+01  0.74731861290E+01  0.00000000000E+00 0. -1.
          1    1    1    2  502    0  0.16597534626E+02 -0.28836334398E+02  0.56275849888E+02  0.65375711222E+02  0.00000000000E+00 0.  1.
         -1    1    1    2    0  501 -0.16597534626E+02  0.28836334398E+02  0.91749648734E+02  0.97596159658E+02  0.00000000000E+00 0. -1.
</event>
<event>
 4    1  0.7060698E+001  0.2467713E+02  0.7546771E-02  0.1472448E+00
          2   -1    0    0  502    0  0.00000000000E+00  0.00000000000E+00  0.35489152179E+00  0.35489152179E+00  0.00000000000E+00 0. -1.
         -2   -1    0    0    0  501 -0.00000000000E+00 -0.00000000000E+00 -0.17259823887E+04  0.17259823887E+04  0.00000000000E+00 0.  1.
          1    1    1    2  502    0  0.18191471705E+01  0.24609985804E+02 -0.79686335153E+03  0.79724535853E+03  0.00000000000E+00 0. -1.
         -1    1    1    2    0  501 -0.18191471705E+01 -0.24609985804E+02 -0.92876414570E+03  0.92909192174E+03  0.00000000000E+00 0.  1.
</event>
<event>
 4    1  0.7060698E+001  0.2565240E+02  0.7546771E-02  0.1461636E+00
          2   -1    0    0  502    0  0.00000000000E+00  0.00000000000E+00  0.28282030519E+03  0.28282030519E+03  0.00000000000E+00 0.  1.
         -2   -1    0    0    0  501 -0.00000000000E+00 -0.00000000000E+00 -0.23579846705E+01  0.23579846705E+01  0.00000000000E+00 0. -1.
          1    1    1    2  502    0  0.77997682929E+01  0.24437865470E+02  0.12381415497E+03  0.12644362627E+03  0.00000000000E+00 0. -1.
         -1    1    1    2    0  501 -0.77997682929E+01 -0.24437865470E+02  0.15664816555E+03  0.15873466359E+03  0.00000000000E+00 0.  1.
</event>
<event>
 4    1  0.7060698E+001  0.3626211E+02  0.7546771E-02  0.1371901E+00
          2   -1    0    0  502    0  0.00000000000E+00  0.00000000000E+00  0.14039346980E+03  0.14039346980E+03  0.00000000000E+00 0. -1.
         -2   -1    0    0    0  501 -0.00000000000E+00 -0.00000000000E+00 -0.10180496429E+02  0.10180496429E+02  0.00000000000E+00 0.  1.
          1    1    1    2  502    0 -0.31774995559E+02  0.17472555810E+02  0.43812796477E+02  0.56872679597E+02  0.00000000000E+00 0.  1.
         -1    1    1    2    0  501  0.31774995559E+02 -0.17472555810E+02  0.86400176894E+02  0.93701286633E+02  0.00000000000E+00 0. -1.
</event>
<event>
 4    1  0.7060698E+001  0.2789647E+02  0.7546771E-02  0.1438805E+00
          2   -1    0    0  502    0  0.00000000000E+00  0.00000000000E+00  0.13694756426E+04  0.13694756426E+04  0.00000000000E+00 0.  1.
         -2   -1    0    0    0  501 -0.00000000000E+00 -0.00000000000E+00 -0.63810909422E+00  0.63810909422E+00  0.00000000000E+00 0. -1.
          1    1    1    2  502    0  0.17462968377E+02  0.21754491729E+02  0.91107675195E+03  0.91150373620E+03  0.00000000000E+00 0.  1.
         -1    1    1    2    0  501 -0.17462968377E+02 -0.21754491729E+02  0.45776078154E+03  0.45861001547E+03  0.00000000000E+00 0. -1.
</event>
<event>
 4    1  0.7060698E+001  0.2996314E+02  0.7546771E-02  0.1419917E+00
          2   -1    0    0  502    0  0.00000000000E+00  0.00000000000E+00  0.19606742845E+03  0.19606742845E+03  0.00000000000E+00 0.  1.
         -2   -1    0    0    0  501 -0.00000000000E+00 -0.00000000000E+00 -0.46420243533E+01  0.46420243533E+01  0.00000000000E+00 0. -1.
          1    1    1    2  502    0 -0.98519979801E+01 -0.28297138852E+02  0.84018033081E+02  0.89201007922E+02  0.00000000000E+00 0. -1.
         -1    1    1    2    0  501  0.98519979801E+01  0.28297138852E+02  0.10740737101E+03  0.11150844488E+03  0.00000000000E+00 0.  1.
</event>
<event>
 4    1  0.7060698E+001  0.2290843E+02  0.7546771E-02  0.1493651E+00
          2   -1    0    0  502    0  0.00000000000E+00  0.00000000000E+00  0.24086220507E+02  0.24086220507E+02  0.00000000000E+00 0.  1.
         -2   -1    0    0    0  501 -0.00000000000E+00 -0.00000000000E+00 -0.24998191296E+02  0.24998191296E+02  0.00000000000E+00 0. -1.
          1    1    1    2  502    0  0.21706383049E+02 -0.73231942328E+01 -0.92504386367E+01  0.24705603692E+02  0.00000000000E+00 0. -1.
         -1    1    1    2    0  501 -0.21706383049E+02  0.73231942328E+01  0.83384678481E+01  0.24378808111E+02  0.00000000000E+00 0.  1.
</event>
<event>
 4    1  0.7060698E+001  0.2903341E+02  0.7546771E-02  0.1428186E+00
          2   -1    0    0  502    0  0.00000000000E+00  0.00000000000E+00  0.19852579435E+03  0.19852579435E+03  0.00000000000E+00 0.  1.
         -2   -1    0    0    0  501 -0.00000000000E+00 -0.00000000000E+00 -0.18082995135E+02  0.18082995135E+02  0.00000000000E+00 0. -1.
          1    1    1    2  502    0  0.28269266998E+02  0.66171901172E+01  0.18496108499E+03  0.18722591066E+03  0.00000000000E+00 0.  1.
         -1    1    1    2    0  501 -0.28269266998E+02 -0.66171901172E+01 -0.45182857761E+01  0.29382878824E+02  0.00000000000E+00 0. -1.
</event>
<event>
 4    1  0.7060698E+001  0.2722044E+02  0.7546771E-02  0.1445406E+00
          2   -1    0    0  502    0  0.00000000000E+00  0.00000000000E+00  0.10263300967E+04  0.10263300967E+04  0.00000000000E+00 0.  1.
         -2   -1    0    0    0  501 -0.00000000000E+00 -0.00000000000E+00 -0.72334647421E+00  0.72334647421E+00  0.00000000000E+00 0. -1.
          1    1    1    2  502    0 -0.83413341549E+01 -0.25910891302E+02  0.53542087789E+03  0.53611236567E+03  0.00000000000E+00 0. -1.
         -1    1    1    2    0  501  0.83413341549E+01  0.25910891302E+02  0.49018587231E+03  0.49094107748E+03  0.00000000000E+00 0.  1.
</event>
<event>
 4    1  0.7060698E+001  0.2668929E+02  0.7546771E-02  0.1450754E+00
          2   -1    0    0  502    0  0.00000000000E+00  0.00000000000E+00  0.15280339778E+01  0.15280339778E+01  0.00000000000E+00 0. -1.
         -2   -1    0    0    0  501 -0.00000000000E+00 -0.00000000000E+00 -0.59575637402E+03  0.59575637402E+03  0.00000000000E+00 0.  1.
          1    1    1    2  502    0 -0.22292504350E+02 -0.14675230978E+02 -0.15782977142E+03  0.16007046855E+03  0.00000000000E+00 0. -1.
         -1    1    1    2    0  501  0.22292504350E+02  0.14675230978E+02 -0.43639856862E+03  0.43721393945E+03  0.00000000000E+00 0.  1.
</event>
<event>
 4    1  0.7060698E+001  0.3327891E+02  0.7546771E-02  0.1393084E+00
          2   -1    0    0  502    0  0.00000000000E+00  0.00000000000E+00  0.14410862431E+03  0.14410862431E+03  0.00000000000E+00 0.  1.
         -2   -1    0    0    0  501 -0.00000000000E+00 -0.00000000000E+00 -0.92625686130E+01  0.92625686130E+01  0.00000000000E+00 0. -1.
          1    1    1    2  502    0 -0.13666918874E+02 -0.30343056303E+02  0.35776086582E+02  0.48861171788E+02  0.00000000000E+00 0. -1.
         -1    1    1    2    0  501  0.13666918874E+02  0.30343056303E+02  0.99069969114E+02  0.10451002113E+03  0.00000000000E+00 0.  1.
</event>
<event>
 4    1  0.7060698E+001  0.2289258E+02  0.7546771E-02  0.1493851E+00
          2   -1    0    0  502    0  0.00000000000E+00  0.00000000000E+00  0.82931602280E+02  0.82931602280E+02  0.00000000000E+00 0.  1.
         -2   -1    0    0    0  501 -0.00000000000E+00 -0.00000000000E+00 -0.14583091978E+02  0.14583091978E+02  0.00000000000E+00 0. -1.
          1    1    1    2  502    0 -0.95979853760E+01 -0.20783378326E+02  0.70877528784E+02  0.74482845169E+02  0.00000000000E+00 0.  1.
         -1    1    1    2    0  501  0.95979853760E+01  0.20783378326E+02 -0.25290184826E+01  0.23031849088E+02  0.00000000000E+00 0. -1.
</event>
<event>
 4    1  0.7060698E+001  0.2428038E+02  0.7546771E-02  0.1477017E+00
          2   -1    0    0  502    0  0.00000000000E+00  0.00000000000E+00  0.80891989857E+03  0.80891989857E+03  0.00000000000E+00 0.  1.
         -2   -1    0    0    0  501 -0.00000000000E+00 -0.00000000000E+00 -0.23702617359E+01  0.23702617359E+01  0.00000000000E+00 0. -1.
          1    1    1    2  502    0 -0.41181703168E+01 -0.23928595675E+02  0.74084498969E+03  0.74124276439E+03  0.00000000000E+00 0.  1.
         -1    1    1    2    0  501  0.41181703168E+01  0.23928595675E+02  0.65704647149E+02  0.70047395917E+02  0.00000000000E+00 0. -1.
</event>
<event>
 4    1  0.7060698E+001  0.2202010E+02  0.7546771E-02  0.1505183E+00
          2   -1    0    0  502    0  0.00000000000E+00  0.00000000000E+00  0.38662394318E+03  0.38662394318E+03  0.00000000000E+00 0. -1.
         -2   -1    0    0    0  501 -0.00000000000E+00 -0.00000000000E+00 -0.14956254236E+01  0.14956254236E+01  0.00000000000E+00 0.  1.
          1    1    1    2  502    0  0.74419753160E+00  0.22007524732E+02  0.27053986187E+03  0.27143452588E+03  0.00000000000E+00 0. -1.
         -1    1    1    2    0  501 -0.74419753160E+00 -0.22007524732E+02  0.11458845588E+03  0.11668504273E+03  0.00000000000E+00 0.  1.
</event>
<event>
 4    1  0.7060698E+001  0.2411914E+02  0.7546771E-02  0.1478904E+00
          2   -1    0    0  502    0  0.00000000000E+00  0.00000000000E+00  0.10829433779E+04  0.10829433779E+04  0.00000000000E+00 0. -1.
         -2   -1    0    0    0  501 -0.00000000000E+00 -0.00000000000E+00 -0.77603807845E+00  0.77603807845E+00  0.00000000000E+00 0.  1.
          1    1    1    2  502    0  0.24073286842E+02  0.14864977088E+01  0.24046386824E+03  0.24167044656E+03  0.00000000000E+00 0.  1.
         -1    1    1    2    0  501 -0.24073286842E+02 -0.14864977088E+01  0.84170347158E+03  0.84204896941E+03  0.00000000000E+00 0. -1.
</event>
<event>
 4    1  0.7060698E+001  0.2489485E+02  0.7546771E-02  0.1469983E+00
          2   -1    0    0  502    0  0.00000000000E+00  0.00000000000E+00  0.55173078638E+03  0.55173078638E+03  0.00000000000E+00 0.  1.
         -2   -1    0    0    0  501 -0.00000000000E+00 -0.00000000000E+00 -0.11271576467E+01  0.11271576467E+01  0.00000000000E+00 0. -1.
          1    1    1    2  502    0  0.23389636169E+02 -0.85251690286E+01  0.29149467495E+03  0.29255580513E+03  0.00000000000E+00 0.  1.
         -1    1    1    2    0  501 -0.23389636169E+02  0.85251690286E+01  0.25910895378E+03  0.26030213890E+03  0.00000000000E+00 0. -1.
</event>
<event>
 4    1  0.7060698E+001  0.3030185E+02  0.7546771E-02  0.1416991E+00
          2   -1    0    0  502    0  0.00000000000E+00  0.00000000000E+00  0.12866752042E+04  0.12866752042E+04  0.00000000000E+00 0. -1.
         -2   -1    0    0    0  501 -0.00000000000E+00 -0.00000000000E+00 -0.88594152111E+00  0.88594152111E+00  0.00000000000E+00 0.  1.
          1    1    1    2  502    0  0.30017756707E+02  0.41396440059E+01  0.35897201056E+03  0.36024867346E+03  0.00000000000E+00 0.  1.
         -1    1    1    2    0  501 -0.30017756707E+02 -0.41396440059E+01  0.92681725212E+03  0.92731247225E+03  0.00000000000E+00 0. -1.
</event>
<event>
 4    1  0.7060698E+001  0.2101738E+02  0.7546771E-02  0.1519017E+00
          2   -1    0    0  502    0  0.00000000000E+00  0.00000000000E+00  0.63549982027E+03  0.63549982027E+03  0.00000000000E+00 0.  1.
         -2   -1    0    0    0  501 -0.00000000000E+00 -0.00000000000E+00 -0.13311200800E+01  0.13311200800E+01  0.00000000000E+00 0. -1.
          1    1    1    2  502    0  0.40807254637E+01  0.20617417435E+02  0.96982334445E+02  0.99233580085E+02  0.00000000000E+00 0. -1.
         -1    1    1    2    0  501 -0.40807254637E+01 -0.20617417435E+02  0.53718636574E+03  0.53759736026E+03  0.00000000000E+00 0.  1.
</event>
<event>
 4    1  0.7060698E+001  0.2227722E+02  0.7546771E-02  0.1501779E+00
          2   -1    0    0  502    0  0.00000000000E+00  0.00000000000E+00  0.14936283588E+03  0.14936283588E+03  0.00000000000E+00 0.  1.
         -2   -1    0    0    0  501 -0.00000000000E+00 -0.00000000000E+00 -0.41712901868E+01  0.41712901868E+01  0.00000000000E+00 0. -1.
          1    1    1    2  502    0  0.15318548595E+02  0.16174565941E+02  0.10722251625E+03  0.10951229385E+03  0.00000000000E+00 0.  1.
         -1    1    1    2    0  501 -0.15318548595E+02 -0.16174565941E+02  0.37969029446E+02  0.44021832214E+02  0.00000000000E+00 0. -1.
</event>
<event>
 4    1  0.7060698E+001  0.3181306E+02  0.7546771E-02  0.1404469E+00
          2   -1    0    0  502    0  0.00000000000E+00  0.00000000000E+00  0.24793647311E+04  0.24793647311E+04  0.00000000000E+00 0.  1.
         -2   -1    0    0    0  501 -0.00000000000E+00 -0.00000000000E+00 -0.58250041173E+00  0.58250041173E+00  0.00000000000E+00 0. -1.
          1    1    1    2  502    0 -0.12700488664E+02  0.29167937831E+02  0.19176826287E+04  0.19179464892E+04  0.00000000000E+00 0. -1.
         -1    1    1    2    0  501  0.12700488664E+02 -0.29167937831E+02  0.56109960197E+03  0.56200074230E+03  0.00000000000E+00 0.  1.
</event>
<event>
 4    1  0.7060698E+001  0.2137746E+02  0.7546771E-02  0.1513943E+00
          2   -1    0    0  502    0  0.00000000000E+00  0.00000000000E+00  0.10051664496E+04  0.10051664496E+04  0.00000000000E+00 0. -1.
         -2   -1    0    0    0  501 -0.00000000000E+00 -0.00000000000E+00 -0.47683973150E+00  0.47683973150E+00  0.00000000000E+00 0.  1.
          1    1    1    2  502    0  0.79370338785E-01  0.21377310130E+02  0.39386839728E+03  0.39444810820E+03  0.00000000000E+00 0. -1.
         -1    1    1    2    0  501 -0.79370338785E-01 -0.21377310130E+02  0.61082121257E+03  0.61119518111E+03  0.00000000000E+00 0.  1.
</event>
<event>
 4    1  0.7060698E+001  0.2773322E+02  0.7546771E-02  0.1440379E+00
          2   -1    0    0  502    0  0.00000000000E+00  0.00000000000E+00  0.27030372085E+02  0.27030372085E+02  0.00000000000E+00 0.  1.
         -2   -1    0    0    0  501 -0.00000000000E+00 -0.00000000000E+00 -0.43124641574E+02  0.43124641574E+02  0.00000000000E+00 0. -1.
          1    1    1    2  502    0 -0.12189486733E+02  0.24910802850E+02  0.12411909041E+02  0.30383995318E+02  0.00000000000E+00 0.  1.
         -1    1    1    2    0  501  0.12189486733E+02 -0.24910802850E+02 -0.28506178530E+02  0.39771018340E+02  0.00000000000E+00 0. -1.
</event>
<event>
 4    1  0.7060698E+001  0.2135238E+02  0.7546771E-02  0.1514293E+00
          2   -1    0    0  502    0  0.00000000000E+00  0.00000000000E+00  0.78164924745E+02  0.78164924745E+02  0.00000000000E+00 0.  1.
         -2   -1    0    0    0  501 -0.00000000000E+00 -0.00000000000E+00 -0.59099542525E+01  0.59099542525E+01  0.00000000000E+00 0. -1.
          1    1    1    2  502    0  0.14644731227E+02  0.15538859739E+02  0.31325927482E+02  0.37910922533E+02  0.00000000000E+00 0. -1.
         -1    1    1    2    0  501 -0.14644731227E+02 -0.15538859739E+02  0.40929043011E+02  0.46163956465E+02  0.00000000000E+00 0.  1.
</event>
<event>
 4    1  0.7060698E+001  0.4176083E+02  0.7546771E-02  0.1338465E+00
          2   -1    0    0  502    0  0.00000000000E+00  0.00000000000E+00  0.10662405436E+04  0.10662405436E+04  0.00000000000E+00 0. -1.
         -2   -1    0    0    0  501 -0.00000000000E+00 -0.00000000000E+00 -0.19606435099E+01  0.19606435099E+01  0.00000000000E+00 0.  1.
          1    1    1    2  502    0  0.78250433948E+01 -0.41021160606E+02  0.74960002042E+03  0.75076238420E+03  0.00000000000E+00 0. -1.
         -1    1    1    2    0  501 -0.78250433948E+01  0.41021160606E+02  0.31467987972E+03  0.31743880295E+03  0.00000000000E+00 0.  1.
</event>
<event>
 4    1  0.7060698E+001  0.2178725E+02  0.7546771E-02  0.1508315E+00
          2   -1    0    0  502    0  0.00000000000E+00  0.00000000000E+00  0.19545947646E+02  0.19545947646E+02  0.00000000000E+00 0. -1.
         -2   -1    0    0    0  501 -0.00000000000E+00 -0.00000000000E+00 -0.24295875140E+02  0.24295875140E+02  0.00000000000E+00 0.  1.
          1    1    1    2  502    0 -0.18423914163E+02 -0.11629431531E+02 -0.19232920070E+01  0.21871976201E+02  0.00000000000E+00 0. -1.
         -1    1    1    2    0  501  0.18423914163E+02  0.11629431531E+02 -0.28266354870E+01  0.21969846585E+02  0.00000000000E+00 0.  1.
</event>
<event>
 4    1  0.7060698E+001  0.2268590E+02  0.7546771E-02  0.1496480E+00
          2   -1    0    0  502    0  0.00000000000E+00  0.00000000000E+00  0.33285425088E+01  0.33285425088E+01  0.00000000000E+00 0. -1.
         -2   -1    0    0    0  501 -0.00000000000E+00 -0.00000000000E+00 -0.18333828222E+03  0.18333828222E+03  0.00000000000E+00 0.  1.
          1    1    1    2  502    0 -0.14458686246E+02 -0.17481317190E+02 -0.53063698955E+02  0.57709671681E+02  0.00000000000E+00 0. -1.
         -1    1    1    2    0  501  0.14458686246E+02  0.17481317190E+02 -0.12694604076E+03  0.12895715305E+03  0.00000000000E+00 0.  1.
</event>
<event>
 4    1  0.7060698E+001  0.2257299E+02  0.7546771E-02  0.1497931E+00
          2   -1    0    0  502    0  0.00000000000E+00  0.00000000000E+00  0.42719345610E+03  0.42719345610E+03  0.00000000000E+00 0. -1.
         -2   -1    0    0    0  501 -0.00000000000E+00 -0.00000000000E+00 -0.12159830356E+01  0.12159830356E+01  0.00000000000E+00 0.  1.
          1    1    1    2  502    0 -0.12565355617E+02 -0.18752383463E+02  0.18338764784E+03  0.18477166835E+03  0.00000000000E+00 0.  1.
         -1    1    1    2    0  501  0.12565355617E+02  0.18752383463E+02  0.24258982523E+03  0.24363777078E+03  0.00000000000E+00 0. -1.
</event>
<event>
 4    1  0.7060698E+001  0.2129764E+02  0.7546771E-02  0.1515057E+00
          2   -1    0    0  502    0  0.00000000000E+00  0.00000000000E+00  0.93490813330E+02  0.93490813330E+02  0.00000000000E+00 0.  1.
         -2   -1    0    0    0  501 -0.00000000000E+00 -0.00000000000E+00 -0.68083274071E+01  0.68083274071E+01  0.00000000000E+00 0. -1.
          1    1    1    2  502    0  0.16293856592E+02  0.13714947781E+02  0.16456811443E+02  0.26914980924E+02  0.00000000000E+00 0. -1.
         -1    1    1    2    0  501 -0.16293856592E+02 -0.13714947781E+02  0.70225674481E+02  0.73384159814E+02  0.00000000000E+00 0.  1.
</event>
<event>
 4    1  0.7060698E+001  0.2086133E+02  0.7546771E-02  0.1521254E+00
          2   -1    0    0  502    0  0.00000000000E+00  0.00000000000E+00  0.54096915692E+03  0.54096915692E+03  0.00000000000E+00 0.  1.
         -2   -1    0    0    0  501 -0.00000000000E+00 -0.00000000000E+00 -0.10213585539E+01  0.10213585539E+01  0.00000000000E+00 0. -1.
          1    1    1    2  502    0 -0.13112485784E+02 -0.16225218833E+02  0.14509529952E+03  0.14658731511E+03  0.00000000000E+00 0. -1.
         -1    1    1    2    0  501  0.13112485784E+02  0.16225218833E+02  0.39485249884E+03  0.39540320036E+03  0.00000000000E+00 0.  1.
</event>
<event>
 4    1  0.7060698E+001  0.3031212E+02  0.7546771E-02  0.1416903E+00
          2   -1    0    0  502    0  0.00000000000E+00  0.00000000000E+00  0.72612108938E+03  0.72612108938E+03  0.00000000000E+00 0.  1.
         -2   -1    0    0    0  501 -0.00000000000E+00 -0.00000000000E+00 -0.12668244012E+01  0.12668244012E+01  0.00000000000E+00 0. -1.
          1    1    1    2  502    0  0.29893384375E+02 -0.50209448065E+01  0.35017702252E+03  0.35148651669E+03  0.00000000000E+00 0. -1.
         -1    1    1    2    0  501 -0.29893384375E+02  0.50209448065E+01  0.37467724246E+03  0.37590139709E+03  0.00000000000E+00 0.  1.
</event>
<event>
 4    1  0.7060698E+001  0.2132864E+02  0.7546771E-02  0.1514624E+00
          2   -1    0    0  502    0  0.00000000000E+00  0.00000000000E+00  0.70607486477E+03  0.70607486477E+03  0.00000000000E+00 0.  1.
         -2   -1    0    0    0  501 -0.00000000000E+00 -0.00000000000E+00 -0.95136676820E+00  0.95136676820E+00  0.00000000000E+00 0. -1.
          1    1    1    2  502    0  0.18205987757E+02 -0.11110937557E+02  0.55340677624E+03  0.55381763326E+03  0.00000000000E+00 0. -1.
         -1    1    1    2    0  501 -0.18205987757E+02  0.11110937557E+02  0.15171672176E+03  0.15320859828E+03  0.00000000000E+00 0.  1.
</event>
<event>
 4    1  0.7060698E+001  0.2522478E+02  0.7546771E-02  0.1466304E+00
          2   -1    0    0  502    0  0.00000000000E+00  0.00000000000E+00  0.12342385432E+01  0.12342385432E+01  0.00000000000E+00 0. -1.
         -2   -1    0    0    0  501 -0.00000000000E+00 -0.00000000000E+00 -0.64059526823E+03  0.64059526823E+03  0.00000000000E+00 0.  1.
          1    1    1    2  502    0 -0.22530917214E+02 -0.11342274456E+02 -0.46147611964E+03  0.46216501211E+03  0.00000000000E+00 0.  1.
         -1    1    1    2    0  501  0.22530917214E+02  0.11342274456E+02 -0.17788491005E+03  0.17966449466E+03  0.00000000000E+00 0. -1.
</event>
<event>
 4    1  0.7060698E+001  0.3135049E+02  0.7546771E-02  0.1408213E+00
          2   -1    0    0  502    0  0.00000000000E+00  0.00000000000E+00  0.61788038766E+03  0.61788038766E+03  0.00000000000E+00 0.  1.
         -2   -1    0    0    0  501 -0.00000000000E+00 -0.00000000000E+00 -0.19316766578E+01  0.19316766578E+01  0.00000000000E+00 0. -1.
          1    1    1    2  502    0 -0.28411832626E+02 -0.13252199327E+02  0.43818147654E+03  0.43930155862E+03  0.00000000000E+00 0.  1.
         -1    1    1    2    0  501  0.28411832626E+02  0.13252199327E+02  0.17776723446E+03  0.18051050570E+03  0.00000000000E+00 0. -1.
</event>
<event>
 4    1  0.7060698E+001  0.2098786E+02  0.7546771E-02  0.1519438E+00
          2   -1    0    0  502    0  0.00000000000E+00  0.00000000000E+00  0.18510802559E+02  0.18510802559E+02  0.00000000000E+00 0. -1.
         -2   -1    0    0    0  501 -0.00000000000E+00 -0.00000000000E+00 -0.39126363925E+02  0.39126363925E+02  0.00000000000E+00 0.  1.
          1    1    1    2  502    0 -0.20987496894E+02 -0.12374528782E+00 -0.28346618013E+02  0.35270683174E+02  0.00000000000E+00 0.  1.
         -1    1    1    2    0  501  0.20987496894E+02  0.12374528782E+00  0.77310566476E+01  0.22366483310E+02  0.00000000000E+00 0. -1.
</event>
<event>
 4    1  0.7060698E+001  0.3058525E+02  0.7546771E-02  0.1414578E+00
          2   -1    0    0  502    0  0.00000000000E+00  0.00000000000E+00  0.15338041067E+04  0.15338041067E+04  0.00000000000E+00 0.  1.
         -2   -1    0    0    0  501 -0.00000000000E+00 -0.00000000000E+00 -0.12198200516E+01  0.12198200516E+01  0.00000000000E+00 0. -1.
          1    1    1    2  502    0  0.30581037770E+02  0.50762646450E+00  0.13090122935E+04  0.13093695590E+04  0.00000000000E+00 0.  1.
         -1    1    1    2    0  501 -0.30581037770E+02 -0.50762646450E+00  0.22357199314E+03  0.22565436772E+03  0.00000000000E+00 0. -1.
</event>
<event>
 4    1  0.7060698E+001  0.3038575E+02  0.7546771E-02  0.1416273E+00
          2   -1    0    0  502    0  0.00000000000E+00  0.00000000000E+00  0.18585093214E+04  0.18585093214E+04  0.00000000000E+00 0. -1.
         -2   -1    0    0    0  501 -0.00000000000E+00 -0.00000000000E+00 -0.52803199729E+00  0.52803199729E+00  0.00000000000E+00 0.  1.
          1    1    1    2  502    0 -0.12450378770E+02 -0.27717897459E+02  0.70290188321E+03  0.70355834953E+03  0.00000000000E+00 0.  1.
         -1    1    1    2    0  501  0.12450378770E+02  0.27717897459E+02  0.11550794062E+04  0.11554790039E+04  0.00000000000E+00 0. -1.
</event>
<event>
 4    1  0.7060698E+001  0.4125215E+02  0.7546771E-02  0.1341300E+00
          2   -1    0    0  502    0  0.00000000000E+00  0.00000000000E+00  0.34752781264E+03  0.34752781264E+03  0.00000000000E+00 0. -1.
         -2   -1    0    0    0  501 -0.00000000000E+00 -0.00000000000E+00 -0.49121656157E+01  0.49121656157E+01  0.00000000000E+00 0.  1.
          1    1    1    2  502    0 -0.13051799971E+02 -0.39132982256E+02  0.16142027936E+03  0.16660806215E+03  0.00000000000E+00 0.  1.
         -1    1    1    2    0  501  0.13051799971E+02  0.39132982256E+02  0.18119536766E+03  0.18583191611E+03  0.00000000000E+00 0. -1.
</event>
<event>
 4    1  0.7060698E+001  0.2152635E+02  0.7546771E-02  0.1511881E+00
          2   -1    0    0  502    0  0.00000000000E+00  0.00000000000E+00  0.95629379718E+02  0.95629379718E+02  0.00000000000E+00 0. -1.
         -2   -1    0    0    0  501 -0.00000000000E+00 -0.00000000000E+00 -0.90333771965E+01  0.90333771965E+01  0.00000000000E+00 0.  1.
          1    1    1    2  502    0  0.17755681921E+02 -0.12170427171E+02  0.76670102601E+01  0.22850964626E+02  0.00000000000E+00 0.  1.
         -1    1    1    2    0  501 -0.17755681921E+02  0.12170427171E+02  0.78928992261E+02  0.81811792288E+02  0.00000000000E+00 0. -1.
</event>
<event>
 4    1  0.7060698E+001  0.9453197E+02  0.7546771E-02  0.1173636E+00
          2   -1    0    0  502    0  0.00000000000E+00  0.00000000000E+00  0.21543926039E+04  0.21543926039E+04  0.00000000000E+00 0.  1.
         -2   -1    0    0    0  501 -0.00000000000E+00 -0.00000000000E+00 -0.47797500657E+01  0.47797500657E+01  0.00000000000E+00 0. -1.
          1    1    1    2  502    0  0.36153978339E+02  0.87345191182E+02  0.14673137662E+04  0.14703557328E+04  0.00000000000E+00 0.  1.
         -1    1    1    2    0  501 -0.36153978339E+02 -0.87345191182E+02  0.68229908762E+03  0.68881662112E+03  0.00000000000E+00 0. -1.
</event>
<event>
 4    1  0.7060698E+001  0.2614275E+02  0.7546771E-02  0.1456415E+00
          2   -1    0    0  502    0  0.00000000000E+00  0.00000000000E+00  0.72421881623E+03  0.72421881623E+03  0.00000000000E+00 0.  1.
         -2   -1    0    0    0  501 -0.00000000000E+00 -0.00000000000E+00 -0.94705251259E+00  0.94705251259E+00  0.00000000000E+00 0. -1.
          1    1    1    2  502    0  0.22170878201E+02  0.13852630549E+02  0.38321788744E+03  0.38410856859E+03  0.00000000000E+00 0. -1.
         -1    1    1    2    0  501 -0.22170878201E+02 -0.13852630549E+02  0.34005387627E+03  0.34105730014E+03  0.00000000000E+00 0.  1.
</event>
<event>
 4    1  0.7060698E+001  0.6378454E+02  0.7546771E-02  0.1247489E+00
          2   -1    0    0  502    0  0.00000000000E+00  0.00000000000E+00  0.11978604553E+03  0.11978604553E+03  0.00000000000E+00 0. -1.
         -2   -1    0    0    0  501 -0.00000000000E+00 -0.00000000000E+00 -0.37632606144E+02  0.37632606144E+02  0.00000000000E+00 0.  1.
          1    1    1    2  502    0 -0.52652405818E+02 -0.36002657505E+02  0.65650271693E+02  0.91533738912E+02  0.00000000000E+00 0.  1.
         -1    1    1    2    0  501  0.52652405818E+02  0.36002657505E+02  0.16503167694E+02  0.65884912763E+02  0.00000000000E+00 0. -1.
</event>
<event>
 4    1  0.7060698E+001  0.2222507E+02  0.7546771E-02  0.1502465E+00
          2   -1    0    0  502    0  0.00000000000E+00  0.00000000000E+00  0.81575179711E+01  0.81575179711E+01  0.00000000000E+00 0. -1.
         -2   -1    0    0    0  501 -0.00000000000E+00 -0.00000000000E+00 -0.63971169264E+02  0.63971169264E+02  0.00000000000E+00 0.  1.
          1    1    1    2  502    0 -0.17953479508E+02 -0.13100630664E+02 -0.36244535834E+02  0.42516118450E+02  0.00000000000E+00 0.  1.
         -1    1    1    2    0  501  0.17953479508E+02  0.13100630664E+02 -0.19569115459E+02  0.29612568786E+02  0.00000000000E+00 0. -1.
</event>
<event>
 4    1  0.7060698E+001  0.3679817E+02  0.7546771E-02  0.1368344E+00
          2   -1    0    0  502    0  0.00000000000E+00  0.00000000000E+00  0.12230755545E+04  0.12230755545E+04  0.00000000000E+00 0.  1.
         -2   -1    0    0    0  501 -0.00000000000E+00 -0.00000000000E+00 -0.13690545435E+01  0.13690545435E+01  0.00000000000E+00 0. -1.
          1    1    1    2  502    0 -0.25551844158E+02  0.26480342067E+02  0.87863795875E+03  0.87940819181E+03  0.00000000000E+00 0.  1.
         -1    1    1    2    0  501  0.25551844158E+02 -0.26480342067E+02  0.34306854123E+03  0.34503641726E+03  0.00000000000E+00 0. -1.
</event>
<event>
 4    1  0.7060698E+001  0.2610735E+02  0.7546771E-02  0.1456787E+00
          2   -1    0    0  502    0  0.00000000000E+00  0.00000000000E+00  0.11247778560E+03  0.11247778560E+03  0.00000000000E+00 0. -1.
         -2   -1    0    0    0  501 -0.00000000000E+00 -0.00000000000E+00 -0.85491448913E+01  0.85491448913E+01  0.00000000000E+00 0.  1.
          1    1    1    2  502    0 -0.25266263722E+02 -0.65733957601E+01  0.19310601113E+02  0.32472956897E+02  0.00000000000E+00 0.  1.
         -1    1    1    2    0  501  0.25266263722E+02  0.65733957601E+01  0.84618039592E+02  0.88553973590E+02  0.00000000000E+00 0. -1.
</event>
<event>
 4    1  0.7060698E+001  0.3248932E+02  0.7546771E-02  0.1399129E+00
          2   -1    0    0  502    0  0.00000000000E+00  0.00000000000E+00  0.94113292134E+01  0.94113292134E+01  0.00000000000E+00 0.  1.
         -2   -1    0    0    0  501 -0.00000000000E+00 -0.00000000000E+00 -0.19446886341E+03  0.19446886341E+03  0.00000000000E+00 0. -1.
          1    1    1    2  502    0 -0.27774610890E+02 -0.16856060755E+02 -0.26208143792E+02  0.41742335767E+02  0.00000000000E+00 0.  1.
         -1    1    1    2    0  501  0.27774610890E+02  0.16856060755E+02 -0.15884939040E+03  0.16213785686E+03  0.00000000000E+00 0. -1.
</event>
<event>
 4    1  0.7060698E+001  0.2884234E+02  0.7546771E-02  0.1429930E+00
          2   -1    0    0  502    0  0.00000000000E+00  0.00000000000E+00  0.39319538552E+03  0.39319538552E+03  0.00000000000E+00 0.  1.
         -2   -1    0    0    0  501 -0.00000000000E+00 -0.00000000000E+00 -0.30503842247E+01  0.30503842247E+01  0.00000000000E+00 0. -1.
          1    1    1    2  502    0 -0.43855167887E+01  0.28506982514E+02  0.85401601882E+02  0.90140525922E+02  0.00000000000E+00 0. -1.
         -1    1    1    2    0  501  0.43855167887E+01 -0.28506982514E+02  0.30474339942E+03  0.30610524382E+03  0.00000000000E+00 0.  1.
</event>
<event>
 4    1  0.7060698E+001  0.2916702E+02  0.7546771E-02  0.1426976E+00
          2   -1    0    0  502    0  0.00000000000E+00  0.00000000000E+00  0.80190714731E+01  0.80190714731E+01  0.00000000000E+00 0.  1.
         -2   -1    0    0    0  501 -0.00000000000E+00 -0.00000000000E+00 -0.14118028410E+03  0.14118028410E+03  0.00000000000E+00 0. -1.
          1    1    1    2  502    0  0.11856956460E+00 -0.29166780249E+02 -0.10377393950E+03  0.10779492404E+03  0.00000000000E+00 0.  1.
         -1    1    1    2    0  501 -0.11856956460E+00  0.29166780249E+02 -0.29387273121E+02  0.41404431530E+02  0.00000000000E+00 0. -1.
</event>
<event>
 4    1  0.7060698E+001  0.2525865E+02  0.7546771E-02  0.1465930E+00
          2   -1    0    0  502    0  0.00000000000E+00  0.00000000000E+00  0.62670808847E+02  0.62670808847E+02  0.00000000000E+00 0. -1.
         -2   -1    0    0    0  501 -0.00000000000E+00 -0.00000000000E+00 -0.11663772169E+02  0.11663772169E+02  0.00000000000E+00 0.  1.
          1    1    1    2  502    0 -0.12274517767E+02  0.22075684758E+02  0.38759129441E+02  0.46263049607E+02  0.00000000000E+00 0.  1.
         -1    1    1    2    0  501  0.12274517767E+02 -0.22075684758E+02  0.12247907237E+02  0.28071531409E+02  0.00000000000E+00 0. -1.
</event>
<event>
 4    1  0.7060698E+001  0.2495025E+02  0.7546771E-02  0.1469361E+00
          2   -1    0    0  502    0  0.00000000000E+00  0.00000000000E+00  0.80417709042E+02  0.80417709042E+02  0.00000000000E+00 0.  1.
         -2   -1    0    0    0  501 -0.00000000000E+00 -0.00000000000E+00 -0.78084441523E+01  0.78084441523E+01  0.00000000000E+00 0. -1.
          1    1    1    2  502    0  0.24168653086E+02  0.61960797067E+01  0.40403734856E+02  0.47486597963E+02  0.00000000000E+00 0. -1.
         -1    1    1    2    0  501 -0.24168653086E+02 -0.61960797067E+01  0.32205530033E+02  0.40739555231E+02  0.00000000000E+00 0.  1.
</event>
<event>
 4    1  0.7060698E+001  0.3682925E+02  0.7546771E-02  0.1368140E+00
          2   -1    0    0  502    0  0.00000000000E+00  0.00000000000E+00  0.37821866580E+03  0.37821866580E+03  0.00000000000E+00 0.  1.
         -2   -1    0    0    0  501 -0.00000000000E+00 -0.00000000000E+00 -0.11399314921E+02  0.11399314921E+02  0.00000000000E+00 0. -1.
          1    1    1    2  502    0 -0.35741276416E+01  0.36655408427E+02  0.34468942722E+03  0.34665140212E+03  0.00000000000E+00 0.  1.
         -1    1    1    2    0  501  0.35741276416E+01 -0.36655408427E+02  0.22129923659E+02  0.42966578600E+02  0.00000000000E+00 0. -1.
</event>
<event>
 4    1  0.7060698E+001  0.2085436E+02  0.7546771E-02  0.1521354E+00
          2   -1    0    0  502    0  0.00000000000E+00  0.00000000000E+00  0.24201518956E+03  0.24201518956E+03  0.00000000000E+00 0. -1.
         -2   -1    0    0    0  501 -0.00000000000E+00 -0.00000000000E+00 -0.30278604424E+01  0.30278604424E+01  0.00000000000E+00 0.  1.
          1    1    1    2  502    0 -0.85840791798E+01  0.19005731662E+02  0.41376455373E+02  0.46334817477E+02  0.00000000000E+00 0.  1.
         -1    1    1    2    0  501  0.85840791798E+01 -0.19005731662E+02  0.19761087375E+03  0.19870823253E+03  0.00000000000E+00 0. -1.
</event>
<event>
 4    1  0.7060698E+001  0.2304056E+02  0.7546771E-02  0.1491990E+00
          2   -1    0    0  502    0  0.00000000000E+00  0.00000000000E+00  0.13079287457E+04  0.13079287457E+04  0.00000000000E+00 0.  1.
         -2   -1    0    0    0  501 -0.00000000000E+00 -0.00000000000E+00 -0.10502344758E+01  0.10502344758E+01  0.00000000000E+00 0. -1.
          1    1    1    2  502    0 -0.45123126945E+01 -0.22594384811E+02  0.11660888991E+04  0.11663165041E+04  0.00000000000E+00 0.  1.
         -1    1    1    2    0  501  0.45123126945E+01  0.22594384811E+02  0.14078961214E+03  0.14266247607E+03  0.00000000000E+00 0. -1.
</event>
<event>
 4    1  0.7060698E+001  0.2936468E+02  0.7546771E-02  0.1425199E+00
          2   -1    0    0  502    0  0.00000000000E+00  0.00000000000E+00  0.76362585343E+03  0.76362585343E+03  0.00000000000E+00 0. -1.
         -2   -1    0    0    0  501 -0.00000000000E+00 -0.00000000000E+00 -0.12253426913E+01  0.12253426913E+01  0.00000000000E+00 0.  1.
          1    1    1    2  502    0  0.16957481472E+02 -0.23973484784E+02  0.48832325066E+03  0.48920535697E+03  0.00000000000E+00 0. -1.
         -1    1    1    2    0  501 -0.16957481472E+02  0.23973484784E+02  0.27407726008E+03  0.27564583915E+03  0.00000000000E+00 0.  1.
</event>
<event>
 4    1  0.7060698E+001  0.4228683E+02  0.7546771E-02  0.1335582E+00
          2   -1    0    0  502    0  0.00000000000E+00  0.00000000000E+00  0.86391039506E+01  0.86391039506E+01  0.00000000000E+00 0. -1.
         -2   -1    0    0    0  501 -0.00000000000E+00 -0.00000000000E+00 -0.21372622547E+03  0.21372622547E+03  0.00000000000E+00 0.  1.
          1    1    1    2  502    0 -0.39203434861E+02 -0.15851387013E+02 -0.12228765250E+03  0.12939260307E+03  0.00000000000E+00 0.  1.
         -1    1    1    2    0  501  0.39203434861E+02  0.15851387013E+02 -0.82799469015E+02  0.92972726346E+02  0.00000000000E+00 0. -1.
</event>
<event>
 4    1  0.7060698E+001  0.2044774E+02  0.7546771E-02  0.1527298E+00
          2   -1    0    0  502    0  0.00000000000E+00  0.00000000000E+00  0.79602278290E+03  0.79602278290E+03  0.00000000000E+00 0.  1.
         -2   -1    0    0    0  501 -0.00000000000E+00 -0.00000000000E+00 -0.52718127977E+00  0.52718127977E+00  0.00000000000E+00 0. -1.
          1    1    1    2  502    0 -0.61963709941E+01 -0.19486280311E+02  0.37363524519E+03  0.37419434333E+03  0.00000000000E+00 0.  1.
         -1    1    1    2    0  501  0.61963709941E+01  0.19486280311E+02  0.42186035643E+03  0.42235562085E+03  0.00000000000E+00 0. -1.
</event>
<event>
 4    1  0.7060698E+001  0.3335029E+02  0.7546771E-02  0.1392547E+00
          2   -1    0    0  502    0  0.00000000000E+00  0.00000000000E+00  0.16565782141E+03  0.16565782141E+03  0.00000000000E+00 0. -1.
         -2   -1    0    0    0  501 -0.00000000000E+00 -0.00000000000E+00 -0.12989523107E+02  0.12989523107E+02  0.00000000000E+00 0.  1.
          1    1    1    2  502    0 -0.28007746066E+02 -0.18105467764E+02  0.13841987455E+03  0.14238083956E+03  0.00000000000E+00 0. -1.
         -1    1    1    2    0  501  0.28007746066E+02  0.18105467764E+02  0.14248423754E+02  0.36266504962E+02  0.00000000000E+00 0.  1.
</event>
<event>
 4    1  0.7060698E+001  0.2849193E+02  0.7546771E-02  0.1433171E+00
          2   -1    0    0  502    0  0.00000000000E+00  0.00000000000E+00  0.44044626679E+02  0.44044626679E+02  0.00000000000E+00 0.  1.
         -2   -1    0    0    0  501 -0.00000000000E+00 -0.00000000000E+00 -0.23042917148E+02  0.23042917148E+02  0.00000000000E+00 0. -1.
          1    1    1    2  502    0  0.76147542333E+01 -0.27455522352E+02  0.25507374600E+02  0.38241552644E+02  0.00000000000E+00 0.  1.
         -1    1    1    2    0  501 -0.76147542333E+01  0.27455522352E+02 -0.45056650698E+01  0.28845991183E+02  0.00000000000E+00 0. -1.
</event>
<event>
 4    1  0.7060698E+001  0.3616981E+02  0.7546771E-02  0.1372520E+00
          2   -1    0    0  502    0  0.00000000000E+00  0.00000000000E+00  0.71191318739E+02  0.71191318739E+02  0.00000000000E+00 0.  1.
         -2   -1    0    0    0  501 -0.00000000000E+00 -0.00000000000E+00 -0.18989991690E+02  0.18989991690E+02  0.00000000000E+00 0. -1.
          1    1    1    2  502    0  0.29290334790E+02 -0.21221009543E+02  0.17996834545E+02  0.40399764997E+02  0.00000000000E+00 0. -1.
         -1    1    1    2    0  501 -0.29290334790E+02  0.21221009543E+02  0.34204492504E+02  0.49781545432E+02  0.00000000000E+00 0.  1.
</event>
<event>
 4    1  0.7060698E+001  0.2433996E+02  0.7546771E-02  0.1476324E+00
          2   -1    0    0  502    0  0.00000000000E+00  0.00000000000E+00  0.24095759296E+01  0.24095759296E+01  0.00000000000E+00 0.  1.
         -2   -1    0    0    0  501 -0.00000000000E+00 -0.00000000000E+00 -0.33961536091E+03  0.33961536091E+03  0.00000000000E+00 0. -1.
          1    1    1    2  502    0 -0.28339966435E+01  0.24174408511E+02 -0.25845277890E+03  0.25959636455E+03  0.00000000000E+00 0. -1.
         -1    1    1    2    0  501  0.28339966435E+01 -0.24174408511E+02 -0.78753006078E+02  0.82428572292E+02  0.00000000000E+00 0.  1.
</event>
<event>
 4    1  0.7060698E+001  0.4667402E+02  0.7546771E-02  0.1313275E+00
          2   -1    0    0  502    0  0.00000000000E+00  0.00000000000E+00  0.29299279279E+02  0.29299279279E+02  0.00000000000E+00 0. -1.
         -2   -1    0    0    0  501 -0.00000000000E+00 -0.00000000000E+00 -0.79905014665E+02  0.79905014665E+02  0.00000000000E+00 0.  1.
          1    1    1    2  502    0 -0.42689006558E+02  0.18870965137E+02 -0.10908884815E+02  0.47931913941E+02  0.00000000000E+00 0.  1.
         -1    1    1    2    0  501  0.42689006558E+02 -0.18870965137E+02 -0.39696850571E+02  0.61272380004E+02  0.00000000000E+00 0. -1.
</event>
<event>
 4    1  0.7060698E+001  0.2219538E+02  0.7546771E-02  0.1502857E+00
          2   -1    0    0  502    0  0.00000000000E+00  0.00000000000E+00  0.20107371169E+04  0.20107371169E+04  0.00000000000E+00 0.  1.
         -2   -1    0    0    0  501 -0.00000000000E+00 -0.00000000000E+00 -0.26493423729E+00  0.26493423729E+00  0.00000000000E+00 0. -1.
          1    1    1    2  502    0 -0.20303676270E+02  0.89663652242E+01  0.12810330973E+04  0.12812253632E+04  0.00000000000E+00 0.  1.
         -1    1    1    2    0  501  0.20303676270E+02 -0.89663652242E+01  0.72943908531E+03  0.72977668786E+03  0.00000000000E+00 0. -1.
</event>
<event>
 4    1  0.7060698E+001  0.2936585E+02  0.7546771E-02  0.1425188E+00
          2   -1    0    0  502    0  0.00000000000E+00  0.00000000000E+00  0.10075204094E+02  0.10075204094E+02  0.00000000000E+00 0.  1.
         -2   -1    0    0    0  501 -0.00000000000E+00 -0.00000000000E+00 -0.87116134038E+02  0.87116134038E+02  0.00000000000E+00 0. -1.
          1    1    1    2  502    0  0.28637275906E+02  0.65007413454E+01 -0.44948993736E+02  0.53691388949E+02  0.00000000000E+00 0. -1.
         -1    1    1    2    0  501 -0.28637275906E+02 -0.65007413454E+01 -0.32091936208E+02  0.43499949183E+02  0.00000000000E+00 0.  1.
</event>
<event>
 4    1  0.7060698E+001  0.3477089E+02  0.7546771E-02  0.1382181E+00
          2   -1    0    0  502    0  0.00000000000E+00  0.00000000000E+00  0.12411979550E+04  0.12411979550E+04  0.00000000000E+00 0.  1.
         -2   -1    0    0    0  501 -0.00000000000E+00 -0.00000000000E+00 -0.26656758504E+01  0.26656758504E+01  0.00000000000E+00 0. -1.
          1    1    1    2  502    0  0.12707246678E+02  0.32365734085E+02  0.12382898396E+03  0.12861816408E+03  0.00000000000E+00 0. -1.
         -1    1    1    2    0  501 -0.12707246678E+02 -0.32365734085E+02  0.11147032952E+04  0.11152454668E+04  0.00000000000E+00 0.  1.
</event>
<event>
 4    1  0.7060698E+001  0.2015023E+02  0.7546771E-02  0.1531751E+00
          2   -1    0    0  502    0  0.00000000000E+00  0.00000000000E+00  0.18062430470E+03  0.18062430470E+03  0.00000000000E+00 0. -1.
         -2   -1    0    0    0  501 -0.00000000000E+00 -0.00000000000E+00 -0.22514092328E+01  0.22514092328E+01  0.00000000000E+00 0.  1.
          1    1    1    2  502    0 -0.98452464679E+01  0.17581321775E+02  0.85594677462E+02  0.87934524296E+02  0.00000000000E+00 0. -1.
         -1    1    1    2    0  501  0.98452464679E+01 -0.17581321775E+02  0.92778218004E+02  0.94941189635E+02  0.00000000000E+00 0.  1.
</event>
<event>
 4    1  0.7060698E+001  0.2066789E+02  0.7546771E-02  0.1524060E+00
          2   -1    0    0  502    0  0.00000000000E+00  0.00000000000E+00  0.20489796569E+02  0.20489796569E+02  0.00000000000E+00 0. -1.
         -2   -1    0    0    0  501 -0.00000000000E+00 -0.00000000000E+00 -0.20848068622E+02  0.20848068622E+02  0.00000000000E+00 0.  1.
          1    1    1    2  502    0  0.45171555287E+01 -0.20168215780E+02 -0.28432118143E+00  0.20669844227E+02  0.00000000000E+00 0. -1.
         -1    1    1    2    0  501 -0.45171555287E+01  0.20168215780E+02 -0.73950870795E-01  0.20668020964E+02  0.00000000000E+00 0.  1.
</event>
<event>
 4    1  0.7060698E+001  0.3087627E+02  0.7546771E-02  0.1412131E+00
          2   -1    0    0  502    0  0.00000000000E+00  0.00000000000E+00  0.24319733451E+04  0.24319733451E+04  0.00000000000E+00 0. -1.
         -2   -1    0    0    0  501 -0.00000000000E+00 -0.00000000000E+00 -0.47632995867E+00  0.47632995867E+00  0.00000000000E+00 0.  1.
          1    1    1    2  502    0 -0.29176389429E+02  0.10103580048E+02  0.70401981523E+03  0.70469656184E+03  0.00000000000E+00 0.  1.
         -1    1    1    2    0  501  0.29176389429E+02 -0.10103580048E+02  0.17274771999E+04  0.17277531132E+04  0.00000000000E+00 0. -1.
</event>
<event>
 4    1  0.7060698E+001  0.3112121E+02  0.7546771E-02  0.1410097E+00
          2   -1    0    0  502    0  0.00000000000E+00  0.00000000000E+00  0.25007173865E+03  0.25007173865E+03  0.00000000000E+00 0. -1.
         -2   -1    0    0    0  501 -0.00000000000E+00 -0.00000000000E+00 -0.38731746825E+01  0.38731746825E+01  0.00000000000E+00 0.  1.
          1    1    1    2  502    0  0.15158282833E+02  0.27180066799E+02  0.12393497683E+03  0.12778265943E+03  0.00000000000E+00 0.  1.
         -1    1    1    2    0  501 -0.15158282833E+02 -0.27180066799E+02  0.12226358714E+03  0.12616225390E+03  0.00000000000E+00 0. -1.
</event>
<event>
 4    1  0.7060698E+001  0.3963369E+02  0.7546771E-02  0.1350646E+00
          2   -1    0    0  502    0  0.00000000000E+00  0.00000000000E+00  0.24797870622E+04  0.24797870622E+04  0.00000000000E+00 0.  1.
         -2   -1    0    0    0  501 -0.00000000000E+00 -0.00000000000E+00 -0.74861887406E+00  0.74861887406E+00  0.00000000000E+00 0. -1.
          1    1    1    2  502    0 -0.23332901394E+02 -0.32037554591E+02  0.75305991577E+03  0.75410215882E+03  0.00000000000E+00 0.  1.
         -1    1    1    2    0  501  0.23332901394E+02  0.32037554591E+02  0.17259785275E+04  0.17264335222E+04  0.00000000000E+00 0. -1.
</event>
<event>
 4    1  0.7060698E+001  0.2829947E+02  0.7546771E-02  0.1434974E+00
          2   -1    0    0  502    0  0.00000000000E+00  0.00000000000E+00  0.21362196987E+02  0.21362196987E+02  0.00000000000E+00 0. -1.
         -2   -1    0    0    0  501 -0.00000000000E+00 -0.00000000000E+00 -0.37539999674E+02  0.37539999674E+02  0.00000000000E+00 0.  1.
          1    1    1    2  502    0  0.70023799248E+00  0.28290801538E+02 -0.91682356729E+01  0.29747543264E+02  0.00000000000E+00 0.  1.
         -1    1    1    2    0  501 -0.70023799248E+00 -0.28290801538E+02 -0.70095670144E+01  0.29154653396E+02  0.00000000000E+00 0. -1.
</event>
<event>
 4    1  0.7060698E+001  0.2432422E+02  0.7546771E-02  0.1476507E+00
          2   -1    0    0  502    0  0.00000000000E+00  0.00000000000E+00  0.28065334421E+03  0.28065334421E+03  0.00000000000E+00 0.  1.
         -2   -1    0    0    0  501 -0.00000000000E+00 -0.00000000000E+00 -0.26809358187E+01  0.26809358187E+01  0.00000000000E+00 0. -1.
          1    1    1    2  502    0 -0.32763108500E+01  0.24102561144E+02  0.73505881827E+02  0.77425979682E+02  0.00000000000E+00 0. -1.
         -1    1    1    2    0  501  0.32763108500E+01 -0.24102561144E+02  0.20446652656E+03  0.20590830034E+03  0.00000000000E+00 0.  1.
</event>
<event>
 4    1  0.7060698E+001  0.2337709E+02  0.7546771E-02  0.1487817E+00
          2   -1    0    0  502    0  0.00000000000E+00  0.00000000000E+00  0.12467409910E+04  0.12467409910E+04  0.00000000000E+00 0. -1.
         -2   -1    0    0    0  501 -0.00000000000E+00 -0.00000000000E+00 -0.56206674105E+00  0.56206674105E+00  0.00000000000E+00 0.  1.
          1    1    1    2  502    0  0.23278964853E+02 -0.21396226849E+01  0.91570100658E+03  0.91599935679E+03  0.00000000000E+00 0. -1.
         -1    1    1    2    0  501 -0.23278964853E+02  0.21396226849E+01  0.33047791772E+03  0.33130370099E+03  0.00000000000E+00 0.  1.
</event>
<event>
 4    1  0.7060698E+001  0.4322175E+02  0.7546771E-02  0.1330575E+00
          2   -1    0    0  502    0  0.00000000000E+00  0.00000000000E+00  0.12986711188E+04  0.12986711188E+04  0.00000000000E+00 0. -1.
         -2   -1    0    0    0  501 -0.00000000000E+00 -0.00000000000E+00 -0.15179737575E+01  0.15179737575E+01  0.00000000000E+00 0.  1.
          1    1    1    2  502    0  0.34781515667E+02  0.25658642125E+02  0.49981337217E+03  0.50167870869E+03  0.00000000000E+00 0.  1.
         -1    1    1    2    0  501 -0.34781515667E+02 -0.25658642125E+02  0.79733977285E+03  0.79851038385E+03  0.00000000000E+00 0. -1.
</event>
<event>
 4    1  0.7060698E+001  0.2103211E+02  0.7546771E-02  0.1518807E+00
          2   -1    0    0  502    0  0.00000000000E+00  0.00000000000E+00  0.11254867150E+04  0.11254867150E+04  0.00000000000E+00 0.  1.
         -2   -1    0    0    0  501 -0.00000000000E+00 -0.00000000000E+00 -0.63398675766E+00  0.63398675766E+00  0.00000000000E+00 0. -1.
          1    1    1    2  502    0 -0.15860675484E+02  0.13812629983E+02  0.90955035048E+03  0.90979348746E+03  0.00000000000E+00 0.  1.
         -1    1    1    2    0  501  0.15860675484E+02 -0.13812629983E+02  0.21530237775E+03  0.21632721428E+03  0.00000000000E+00 0. -1.
</event>
<event>
 4    1  0.7060698E+001  0.3295337E+02  0.7546771E-02  0.1395552E+00
          2   -1    0    0  502    0  0.00000000000E+00  0.00000000000E+00  0.11158505369E+04  0.11158505369E+04  0.00000000000E+00 0. -1.
         -2   -1    0    0    0  501 -0.00000000000E+00 -0.00000000000E+00 -0.13428723397E+01  0.13428723397E+01  0.00000000000E+00 0.  1.
          1    1    1    2  502    0  0.20652926610E+02 -0.25678419584E+02  0.85034356677E+03  0.85098184832E+03  0.00000000000E+00 0. -1.
         -1    1    1    2    0  501 -0.20652926610E+02  0.25678419584E+02  0.26416409775E+03  0.26621156089E+03  0.00000000000E+00 0.  1.
</event>
<event>
 4    1  0.7060698E+001  0.4861405E+02  0.7546771E-02  0.1304296E+00
          2   -1    0    0  502    0  0.00000000000E+00  0.00000000000E+00  0.55568369481E+03  0.55568369481E+03  0.00000000000E+00 0. -1.
         -2   -1    0    0    0  501 -0.00000000000E+00 -0.00000000000E+00 -0.45104851605E+01  0.45104851605E+01  0.00000000000E+00 0.  1.
          1    1    1    2  502    0  0.42041374313E+02  0.24410012913E+02  0.20866469617E+03  0.21425284435E+03  0.00000000000E+00 0.  1.
         -1    1    1    2    0  501 -0.42041374313E+02 -0.24410012913E+02  0.34250851348E+03  0.34594133562E+03  0.00000000000E+00 0. -1.
</event>
<event>
 4    1  0.7060698E+001  0.4689756E+02  0.7546771E-02  0.1312215E+00
          2   -1    0    0  502    0  0.00000000000E+00  0.00000000000E+00  0.51424285664E+03  0.51424285664E+03  0.00000000000E+00 0. -1.
         -2   -1    0    0    0  501 -0.00000000000E+00 -0.00000000000E+00 -0.10212175783E+02  0.10212175783E+02  0.00000000000E+00 0.  1.
          1    1    1    2  502    0  0.16913515311E+02  0.43741445731E+02  0.45192714891E+03  0.45435396883E+03  0.00000000000E+00 0. -1.
         -1    1    1    2    0  501 -0.16913515311E+02 -0.43741445731E+02  0.52103531953E+02  0.70101063592E+02  0.00000000000E+00 0.  1.
</event>
<event>
 4    1  0.7060698E+001  0.3513738E+02  0.7546771E-02  0.1379600E+00
          2   -1    0    0  502    0  0.00000000000E+00  0.00000000000E+00  0.60443741235E+03  0.60443741235E+03  0.00000000000E+00 0.  1.
         -2   -1    0    0    0  501 -0.00000000000E+00 -0.00000000000E+00 -0.20767095468E+01  0.20767095468E+01  0.00000000000E+00 0. -1.
          1    1    1    2  502    0 -0.22660848632E+02  0.26853705857E+02  0.34003451248E+03  0.34184514807E+03  0.00000000000E+00 0.  1.
         -1    1    1    2    0  501  0.22660848632E+02 -0.26853705857E+02  0.26232619032E+03  0.26466897383E+03  0.00000000000E+00 0. -1.
</event>
<event>
 4    1  0.7060698E+001  0.4155993E+02  0.7546771E-02  0.1339579E+00
          2   -1    0    0  502    0  0.00000000000E+00  0.00000000000E+00  0.17843641196E+03  0.17843641196E+03  0.00000000000E+00 0. -1.
         -2   -1    0    0    0  501 -0.00000000000E+00 -0.00000000000E+00 -0.10981000241E+02  0.10981000241E+02  0.00000000000E+00 0.  1.
          1    1    1    2  502    0 -0.14434094681E+02  0.38972868040E+02  0.11632955155E+03  0.12353053103E+03  0.00000000000E+00 0.  1.
         -1    1    1    2    0  501  0.14434094681E+02 -0.38972868040E+02  0.51125860166E+02  0.65886881170E+02  0.00000000000E+00 0. -1.
</event>
<event>
 4    1  0.7060698E+001  0.2761183E+02  0.7546771E-02  0.1441557E+00
          2   -1    0    0  502    0  0.00000000000E+00  0.00000000000E+00  0.15759274560E+02  0.15759274560E+02  0.00000000000E+00 0.  1.
         -2   -1    0    0    0  501 -0.00000000000E+00 -0.00000000000E+00 -0.48846089840E+02  0.48846089840E+02  0.00000000000E+00 0. -1.
          1    1    1    2  502    0 -0.14256576764E+02 -0.23646627191E+02 -0.19703289968E+02  0.33920975725E+02  0.00000000000E+00 0. -1.
         -1    1    1    2    0  501  0.14256576764E+02  0.23646627191E+02 -0.13383525312E+02  0.30684388675E+02  0.00000000000E+00 0.  1.
</event>
<event>
 4    1  0.7060698E+001  0.2092842E+02  0.7546771E-02  0.1520289E+00
          2   -1    0    0  502    0  0.00000000000E+00  0.00000000000E+00  0.12405842078E+04  0.12405842078E+04  0.00000000000E+00 0.  1.
         -2   -1    0    0    0  501 -0.00000000000E+00 -0.00000000000E+00 -0.36587620656E+00  0.36587620656E+00  0.00000000000E+00 0. -1.
          1    1    1    2  502    0  0.46739448755E+01  0.20399828882E+02  0.50397428605E+03  0.50440864364E+03  0.00000000000E+00 0. -1.
         -1    1    1    2    0  501 -0.46739448755E+01 -0.20399828882E+02  0.73624404555E+03  0.73654144037E+03  0.00000000000E+00 0.  1.
</event>
<event>
 4    1  0.7060698E+001  0.2184076E+02  0.7546771E-02  0.1507591E+00
          2   -1    0    0  502    0  0.00000000000E+00  0.00000000000E+00  0.96565105345E+03  0.96565105345E+03  0.00000000000E+00 0. -1.
         -2   -1    0    0    0  501 -0.00000000000E+00 -0.00000000000E+00 -0.35951759038E+01  0.35951759038E+01  0.00000000000E+00 0.  1.
          1    1    1    2  502    0  0.13223389186E+02 -0.17382775754E+02  0.30928808148E+02  0.37863043828E+02  0.00000000000E+00 0.  1.
         -1    1    1    2    0  501 -0.13223389186E+02  0.17382775754E+02  0.93112706940E+03  0.93138318552E+03  0.00000000000E+00 0. -1.
</event>
<event>
 4    1  0.7060698E+001  0.3048276E+02  0.7546771E-02  0.1415447E+00
          2   -1    0    0  502    0  0.00000000000E+00  0.00000000000E+00  0.11761276553E+03  0.11761276553E+03  0.00000000000E+00 0. -1.
         -2   -1    0    0    0  501 -0.00000000000E+00 -0.00000000000E+00 -0.10718514866E+02  0.10718514866E+02  0.00000000000E+00 0.  1.
          1    1    1    2  502    0  0.24683833551E+02 -0.17885952029E+02  0.86347992597E+02  0.91570599781E+02  0.00000000000E+00 0. -1.
         -1    1    1    2    0  501 -0.24683833551E+02  0.17885952029E+02  0.20546258069E+02  0.36760680616E+02  0.00000000000E+00 0.  1.
</event>
<event>
 4    1  0.7060698E+001  0.5370552E+02  0.7546771E-02  0.1282859E+00
          2   -1    0    0  502    0  0.00000000000E+00  0.00000000000E+00  0.17712639942E+02  0.17712639942E+02  0.00000000000E+00 0.  1.
         -2   -1    0    0    0  501 -0.00000000000E+00 -0.00000000000E+00 -0.20297271453E+03  0.20297271453E+03  0.00000000000E+00 0. -1.
          1    1    1    2  502    0  0.20959307358E+02  0.49446846049E+02 -0.43563305427E+02  0.69152329888E+02  0.00000000000E+00 0.  1.
         -1    1    1    2    0  501 -0.20959307358E+02 -0.49446846049E+02 -0.14169676916E+03  0.15153302458E+03  0.00000000000E+00 0. -1.
</event>
<event>
 4    1  0.7060698E+001  0.2448967E+02  0.7546771E-02  0.1474594E+00
          2   -1    0    0  502    0  0.00000000000E+00  0.00000000000E+00  0.11787248040E+03  0.11787248040E+03  0.00000000000E+00 0. -1.
         -2   -1    0    0    0  501 -0.00000000000E+00 -0.00000000000E+00 -0.64608973726E+01  0.64608973726E+01  0.00000000000E+00 0.  1.
          1    1    1    2  502    0  0.14761696747E+02 -0.19540635646E+02  0.27049608663E+02  0.36488703199E+02  0.00000000000E+00 0.  1.
         -1    1    1    2    0  501 -0.14761696747E+02  0.19540635646E+02  0.84361974361E+02  0.87844674571E+02  0.00000000000E+00 0. -1.
</event>
<event>
 4    1  0.7060698E+001  0.2473296E+02  0.7546771E-02  0.1471813E+00
          2   -1    0    0  502    0  0.00000000000E+00  0.00000000000E+00  0.81990136797E+03  0.81990136797E+03  0.00000000000E+00 0. -1.
         -2   -1    0    0    0  501 -0.00000000000E+00 -0.00000000000E+00 -0.10885165046E+01  0.10885165046E+01  0.00000000000E+00 0.  1.
          1    1    1    2  502    0  0.19485207927E+02  0.15233051806E+02  0.63964324334E+03  0.64012123691E+03  0.00000000000E+00 0. -1.
         -1    1    1    2    0  501 -0.19485207927E+02 -0.15233051806E+02  0.17916960813E+03  0.18086864757E+03  0.00000000000E+00 0.  1.
</event>
<event>
 4    1  0.7060698E+001  0.2226294E+02  0.7546771E-02  0.1501967E+00
          2   -1    0    0  502    0  0.00000000000E+00  0.00000000000E+00  0.11158501612E+03  0.11158501612E+03  0.00000000000E+00 0.  1.
         -2   -1    0    0    0  501 -0.00000000000E+00 -0.00000000000E+00 -0.50878465825E+01  0.50878465825E+01  0.00000000000E+00 0. -1.
          1    1    1    2  502    0 -0.19371783729E+02 -0.10971436373E+02  0.74036190975E+02  0.77311034109E+02  0.00000000000E+00 0. -1.
         -1    1    1    2    0  501  0.19371783729E+02  0.10971436373E+02  0.32460978561E+02  0.39361828592E+02  0.00000000000E+00 0.  1.
</event>
<event>
 4    1  0.7060698E+001  0.3209885E+02  0.7546771E-02  0.1402193E+00
          2   -1    0    0  502    0  0.00000000000E+00  0.00000000000E+00  0.37179963174E+03  0.37179963174E+03  0.00000000000E+00 0.  1.
         -2   -1    0    0    0  501 -0.00000000000E+00 -0.00000000000E+00 -0.30534624515E+01  0.30534624515E+01  0.00000000000E+00 0. -1.
          1    1    1    2  502    0  0.32091961781E+02 -0.66503612129E+00  0.12738937452E+03  0.13137118796E+03  0.00000000000E+00 0. -1.
         -1    1    1    2    0  501 -0.32091961781E+02  0.66503612129E+00  0.24135679477E+03  0.24348190623E+03  0.00000000000E+00 0.  1.
</event>
<event>
 4    1  0.7060698E+001  0.3035064E+02  0.7546771E-02  0.1416573E+00
          2   -1    0    0  502    0  0.00000000000E+00  0.00000000000E+00  0.71513729810E+03  0.71513729810E+03  0.00000000000E+00 0. -1.
         -2   -1    0    0    0  501 -0.00000000000E+00 -0.00000000000E+00 -0.14864700811E+01  0.14864700811E+01  0.00000000000E+00 0.  1.
          1    1    1    2  502    0 -0.17991477195E+02 -0.24443159760E+02  0.48772310695E+03  0.48866654312E+03  0.00000000000E+00 0.  1.
         -1    1    1    2    0  501  0.17991477195E+02  0.24443159760E+02  0.22592772106E+03  0.22795722506E+03  0.00000000000E+00 0. -1.
</event>
<event>
 4    1  0.7060698E+001  0.3258331E+02  0.7546771E-02  0.1398399E+00
          2   -1    0    0  502    0  0.00000000000E+00  0.00000000000E+00  0.20486146045E+04  0.20486146045E+04  0.00000000000E+00 0. -1.
         -2   -1    0    0    0  501 -0.00000000000E+00 -0.00000000000E+00 -0.54582138212E+00  0.54582138212E+00  0.00000000000E+00 0.  1.
          1    1    1    2  502    0  0.97998360991E+01 -0.31074673113E+02  0.79371200889E+03  0.79438052919E+03  0.00000000000E+00 0. -1.
         -1    1    1    2    0  501 -0.97998360991E+01  0.31074673113E+02  0.12543567742E+04  0.12547798967E+04  0.00000000000E+00 0.  1.
</event>
<event>
 4    1  0.7060698E+001  0.3636905E+02  0.7546771E-02  0.1371186E+00
          2   -1    0    0  502    0  0.00000000000E+00  0.00000000000E+00  0.18252961569E+02  0.18252961569E+02  0.00000000000E+00 0.  1.
         -2   -1    0    0    0  501 -0.00000000000E+00 -0.00000000000E+00 -0.72892210974E+02  0.72892210974E+02  0.00000000000E+00 0. -1.
          1    1    1    2  502    0  0.85890662574E+00 -0.36358903673E+02 -0.23832265896E+02  0.43482001962E+02  0.00000000000E+00 0.  1.
         -1    1    1    2    0  501 -0.85890662574E+00  0.36358903673E+02 -0.30806983508E+02  0.47663170581E+02  0.00000000000E+00 0. -1.
</event>
<event>
 4    1  0.7060698E+001  0.2610291E+02  0.7546771E-02  0.1456834E+00
          2   -1    0    0  502    0  0.00000000000E+00  0.00000000000E+00  0.37649482049E+01  0.37649482049E+01  0.00000000000E+00 0. -1.
         -2   -1    0    0    0  501 -0.00000000000E+00 -0.00000000000E+00 -0.31210212487E+03  0.31210212487E+03  0.00000000000E+00 0.  1.
          1    1    1    2  502    0  0.23815424967E+02  0.10685853032E+02 -0.25653844198E+03  0.25786301428E+03  0.00000000000E+00 0.  1.
         -1    1    1    2    0  501 -0.23815424967E+02 -0.10685853032E+02 -0.51798734684E+02  0.58004058791E+02  0.00000000000E+00 0. -1.
</event>
<event>
 4    1  0.7060698E+001  0.2075328E+02  0.7546771E-02  0.1522817E+00
          2   -1    0    0  502    0  0.00000000000E+00  0.00000000000E+00  0.33080016484E+01  0.33080016484E+01  0.00000000000E+00 0.  1.
         -2   -1    0    0    0  501 -0.00000000000E+00 -0.00000000000E+00 -0.23990565729E+03  0.23990565729E+03  0.00000000000E+00 0. -1.
          1    1    1    2  502    0  0.14108443917E+02 -0.15220071588E+02 -0.20053332766E+03  0.20160435083E+03  0.00000000000E+00 0. -1.
         -1    1    1    2    0  501 -0.14108443917E+02  0.15220071588E+02 -0.36064327978E+02  0.41609308110E+02  0.00000000000E+00 0.  1.
</event>
<event>
 4    1  0.7060698E+001  0.3245842E+02  0.7546771E-02  0.1399369E+00
          2   -1    0    0  502    0  0.00000000000E+00  0.00000000000E+00  0.24769076468E+04  0.24769076468E+04  0.00000000000E+00 0.  1.
         -2   -1    0    0    0  501 -0.00000000000E+00 -0.00000000000E+00 -0.50527124944E+00  0.50527124944E+00  0.00000000000E+00 0. -1.
          1    1    1    2  502    0 -0.18989611950E+02 -0.26323820175E+02  0.74554787670E+03  0.74625410238E+03  0.00000000000E+00 0. -1.
         -1    1    1    2    0  501  0.18989611950E+02  0.26323820175E+02  0.17308544989E+04  0.17311588157E+04  0.00000000000E+00 0.  1.
</event>
<event>
 4    1  0.7060698E+001  0.3556165E+02  0.7546771E-02  0.1376657E+00
          2   -1    0    0  502    0  0.00000000000E+00  0.00000000000E+00  0.72535271326E+03  0.72535271326E+03  0.00000000000E+00 0.  1.
         -2   -1    0    0    0  501 -0.00000000000E+00 -0.00000000000E+00 -0.18416315315E+01  0.18416315315E+01  0.00000000000E+00 0. -1.
          1    1    1    2  502    0 -0.32576909336E+02  0.14261005104E+02  0.44569921593E+03  0.44711567001E+03  0.00000000000E+00 0.  1.
         -1    1    1    2    0  501  0.32576909336E+02 -0.14261005104E+02  0.27781186580E+03  0.28007867478E+03  0.00000000000E+00 0. -1.
</event>
<event>
 4    1  0.7060698E+001  0.2382211E+02  0.7546771E-02  0.1482425E+00
          2   -1    0    0  502    0  0.00000000000E+00  0.00000000000E+00  0.65556994095E+02  0.65556994095E+02  0.00000000000E+00 0.  1.
         -2   -1    0    0    0  501 -0.00000000000E+00 -0.00000000000E+00 -0.88521461684E+01  0.88521461684E+01  0.00000000000E+00 0. -1.
          1    1    1    2  502    0 -0.14175603936E+02 -0.19145367600E+02  0.22821098559E+02  0.32989322317E+02  0.00000000000E+00 0. -1.
         -1    1    1    2    0  501  0.14175603936E+02  0.19145367600E+02  0.33883749368E+02  0.41419817947E+02  0.00000000000E+00 0.  1.
</event>
<event>
 4    1  0.7060698E+001  0.1254863E+03  0.7546771E-02  0.1125774E+00
          2   -1    0    0  502    0  0.00000000000E+00  0.00000000000E+00  0.33308235349E+03  0.33308235349E+03  0.00000000000E+00 0. -1.
         -2   -1    0    0    0  501 -0.00000000000E+00 -0.00000000000E+00 -0.47341051640E+02  0.47341051640E+02  0.00000000000E+00 0.  1.
          1    1    1    2  502    0 -0.42733072059E+02 -0.11798604444E+03  0.13582308761E+03  0.18491817990E+03  0.00000000000E+00 0.  1.
         -1    1    1    2    0  501  0.42733072059E+02  0.11798604444E+03  0.14991821424E+03  0.19550522523E+03  0.00000000000E+00 0. -1.
</event>
<event>
 4    1  0.7060698E+001  0.2078768E+02  0.7546771E-02  0.1522318E+00
          2   -1    0    0  502    0  0.00000000000E+00  0.00000000000E+00  0.10939827058E+04  0.10939827058E+04  0.00000000000E+00 0. -1.
         -2   -1    0    0    0  501 -0.00000000000E+00 -0.00000000000E+00 -0.40077925792E+00  0.40077925792E+00  0.00000000000E+00 0.  1.
          1    1    1    2  502    0 -0.19638489591E+02  0.68159672613E+01  0.61247621239E+03  0.61282888184E+03  0.00000000000E+00 0. -1.
         -1    1    1    2    0  501  0.19638489591E+02 -0.68159672613E+01  0.48110571414E+03  0.48155460320E+03  0.00000000000E+00 0.  1.
</event>
<event>
 4    1  0.7060698E+001  0.2716774E+02  0.7546771E-02  0.1445930E+00
          2   -1    0    0  502    0  0.00000000000E+00  0.00000000000E+00  0.18242391362E+04  0.18242391362E+04  0.00000000000E+00 0.  1.
         -2   -1    0    0    0  501 -0.00000000000E+00 -0.00000000000E+00 -0.45643673529E+00  0.45643673529E+00  0.00000000000E+00 0. -1.
          1    1    1    2  502    0  0.20763330688E+02 -0.17520571466E+02  0.60442977199E+03  0.60504002809E+03  0.00000000000E+00 0. -1.
         -1    1    1    2    0  501 -0.20763330688E+02  0.17520571466E+02  0.12193529274E+04  0.12196555448E+04  0.00000000000E+00 0.  1.
</event>
<event>
 4    1  0.7060698E+001  0.2887757E+02  0.7546771E-02  0.1429608E+00
          2   -1    0    0  502    0  0.00000000000E+00  0.00000000000E+00  0.26964619632E+04  0.26964619632E+04  0.00000000000E+00 0. -1.
         -2   -1    0    0    0  501 -0.00000000000E+00 -0.00000000000E+00 -0.34726262796E+00  0.34726262796E+00  0.00000000000E+00 0.  1.
          1    1    1    2  502    0  0.25802462396E+02  0.12967154628E+02  0.90200627623E+03  0.90246841303E+03  0.00000000000E+00 0.  1.
         -1    1    1    2    0  501 -0.25802462396E+02 -0.12967154628E+02  0.17941084243E+04  0.17943408128E+04  0.00000000000E+00 0. -1.
</event>
<event>
 4    1  0.7060698E+001  0.2926184E+02  0.7546771E-02  0.1426121E+00
          2   -1    0    0  502    0  0.00000000000E+00  0.00000000000E+00  0.35908589403E+03  0.35908589403E+03  0.00000000000E+00 0.  1.
         -2   -1    0    0    0  501 -0.00000000000E+00 -0.00000000000E+00 -0.41179041273E+01  0.41179041273E+01  0.00000000000E+00 0. -1.
          1    1    1    2  502    0 -0.17482553991E+02  0.23465204567E+02  0.29530612741E+03  0.29675236209E+03  0.00000000000E+00 0.  1.
         -1    1    1    2    0  501  0.17482553991E+02 -0.23465204567E+02  0.59661862491E+02  0.66451436067E+02  0.00000000000E+00 0. -1.
</event>
<event>
 4    1  0.7060698E+001  0.2216139E+02  0.7546771E-02  0.1503306E+00
          2   -1    0    0  502    0  0.00000000000E+00  0.00000000000E+00  0.29347605491E+03  0.29347605491E+03  0.00000000000E+00 0.  1.
         -2   -1    0    0    0  501 -0.00000000000E+00 -0.00000000000E+00 -0.16736783859E+01  0.16736783859E+01  0.00000000000E+00 0. -1.
          1    1    1    2  502    0 -0.78338694324E+01 -0.20730595981E+02  0.14749663882E+03  0.14915222286E+03  0.00000000000E+00 0. -1.
         -1    1    1    2    0  501  0.78338694324E+01  0.20730595981E+02  0.14430573770E+03  0.14599751043E+03  0.00000000000E+00 0.  1.
</event>
<event>
 4    1  0.7060698E+001  0.7311902E+02  0.7546771E-02  0.1220791E+00
          2   -1    0    0  502    0  0.00000000000E+00  0.00000000000E+00  0.69286891663E+03  0.69286891663E+03  0.00000000000E+00 0.  1.
         -2   -1    0    0    0  501 -0.00000000000E+00 -0.00000000000E+00 -0.77186957572E+01  0.77186957572E+01  0.00000000000E+00 0. -1.
          1    1    1    2  502    0 -0.69590395060E+02 -0.22440309283E+02  0.34873505325E+03  0.35631801517E+03  0.00000000000E+00 0. -1.
         -1    1    1    2    0  501  0.69590395060E+02  0.22440309283E+02  0.33641516762E+03  0.34426959722E+03  0.00000000000E+00 0.  1.
</event>
<event>
 4    1  0.7060698E+001  0.3522004E+02  0.7546771E-02  0.1379023E+00
          2   -1    0    0  502    0  0.00000000000E+00  0.00000000000E+00  0.42019561441E+03  0.42019561441E+03  0.00000000000E+00 0.  1.
         -2   -1    0    0    0  501 -0.00000000000E+00 -0.00000000000E+00 -0.31818115603E+01  0.31818115603E+01  0.00000000000E+00 0. -1.
          1    1    1    2  502    0  0.32366966321E+01 -0.35070998036E+02  0.15162544361E+03  0.15566221846E+03  0.00000000000E+00 0. -1.
         -1    1    1    2    0  501 -0.32366966321E+01  0.35070998036E+02  0.26538835924E+03  0.26771520751E+03  0.00000000000E+00 0.  1.
</event>
<event>
 4    1  0.7060698E+001  0.4085186E+02  0.7546771E-02  0.1343565E+00
          2   -1    0    0  502    0  0.00000000000E+00  0.00000000000E+00  0.18365900889E+02  0.18365900889E+02  0.00000000000E+00 0. -1.
         -2   -1    0    0    0  501 -0.00000000000E+00 -0.00000000000E+00 -0.99239794722E+02  0.99239794722E+02  0.00000000000E+00 0.  1.
          1    1    1    2  502    0  0.16418042089E+02 -0.37407519018E+02 -0.57515930788E+02  0.70547550485E+02  0.00000000000E+00 0.  1.
         -1    1    1    2    0  501 -0.16418042089E+02  0.37407519018E+02 -0.23357963045E+02  0.47058145126E+02  0.00000000000E+00 0. -1.
</event>
<event>
 4    1  0.7060698E+001  0.2453564E+02  0.7546771E-02  0.1474066E+00
          2   -1    0    0  502    0  0.00000000000E+00  0.00000000000E+00  0.73695874122E+03  0.73695874122E+03  0.00000000000E+00 0. -1.
         -2   -1    0    0    0  501 -0.00000000000E+00 -0.00000000000E+00 -0.13525577145E+01  0.13525577145E+01  0.00000000000E+00 0.  1.
          1    1    1    2  502    0  0.14981834022E+02  0.19430441052E+02  0.13548201452E+03  0.13768577868E+03  0.00000000000E+00 0.  1.
         -1    1    1    2    0  501 -0.14981834022E+02 -0.19430441052E+02  0.60012416898E+03  0.60062552026E+03  0.00000000000E+00 0. -1.
</event>
<event>
 4    1  0.7060698E+001  0.3728212E+02  0.7546771E-02  0.1365193E+00
          2   -1    0    0  502    0  0.00000000000E+00  0.00000000000E+00  0.54252927589E+03  0.54252927589E+03  0.00000000000E+00 0. -1.
         -2   -1    0    0    0  501 -0.00000000000E+00 -0.00000000000E+00 -0.30981322452E+01  0.30981322452E+01  0.00000000000E+00 0.  1.
          1    1    1    2  502    0  0.37027640316E+02  0.43485683140E+01  0.15622624615E+03  0.16061318807E+03  0.00000000000E+00 0.  1.
         -1    1    1    2    0  501 -0.37027640316E+02 -0.43485683140E+01  0.38320489750E+03  0.38501422007E+03  0.00000000000E+00 0. -1.
</event>
<event>
 4    1  0.7060698E+001  0.2219811E+02  0.7546771E-02  0.1502821E+00
          2   -1    0    0  502    0  0.00000000000E+00  0.00000000000E+00  0.12322367169E+03  0.12322367169E+03  0.00000000000E+00 0. -1.
         -2   -1    0    0    0  501 -0.00000000000E+00 -0.00000000000E+00 -0.40505163140E+01  0.40505163140E+01  0.00000000000E+00 0.  1.
          1    1    1    2  502    0  0.19025837399E+02  0.11435630395E+02  0.66771984502E+02  0.70365147947E+02  0.00000000000E+00 0.  1.
         -1    1    1    2    0  501 -0.19025837399E+02 -0.11435630395E+02  0.52401170877E+02  0.56909040060E+02  0.00000000000E+00 0. -1.
</event>
<event>
 4    1  0.7060698E+001  0.3531415E+02  0.7546771E-02  0.1378368E+00
          2   -1    0    0  502    0  0.00000000000E+00  0.00000000000E+00  0.52837679594E+03  0.52837679594E+03  0.00000000000E+00 0.  1.
         -2   -1    0    0    0  501 -0.00000000000E+00 -0.00000000000E+00 -0.69434832969E+01  0.69434832969E+01  0.00000000000E+00 0. -1.
          1    1    1    2  502    0 -0.25937067049E+02  0.23965764050E+02  0.43255314079E+02  0.55840052737E+02  0.00000000000E+00 0. -1.
         -1    1    1    2    0  501  0.25937067049E+02 -0.23965764050E+02  0.47817799856E+03  0.47948022650E+03  0.00000000000E+00 0.  1.
</event>
<event>
 4    1  0.7060698E+001  0.3915473E+02  0.7546771E-02  0.1353512E+00
          2   -1    0    0  502    0  0.00000000000E+00  0.00000000000E+00  0.29508730067E+02  0.29508730067E+02  0.00000000000E+00 0. -1.
         -2   -1    0    0    0  501 -0.00000000000E+00 -0.00000000000E+00 -0.54537892386E+02  0.54537892386E+02  0.00000000000E+00 0.  1.
          1    1    1    2  502    0  0.21996546221E+02  0.32392044239E+02 -0.21661812392E+02  0.44747365193E+02  0.00000000000E+00 0.  1.
         -1    1    1    2    0  501 -0.21996546221E+02 -0.32392044239E+02 -0.33673499268E+01  0.39299257259E+02  0.00000000000E+00 0. -1.
</event>
<event>
 4    1  0.7060698E+001  0.2033447E+02  0.7546771E-02  0.1528983E+00
          2   -1    0    0  502    0  0.00000000000E+00  0.00000000000E+00  0.29759543183E+01  0.29759543183E+01  0.00000000000E+00 0.  1.
         -2   -1    0    0    0  501 -0.00000000000E+00 -0.00000000000E+00 -0.19289491520E+03  0.19289491520E+03  0.00000000000E+00 0. -1.
          1    1    1    2  502    0  0.58520286744E+01  0.19474197493E+02 -0.43165486657E+02  0.47715299914E+02  0.00000000000E+00 0.  1.
         -1    1    1    2    0  501 -0.58520286744E+01 -0.19474197493E+02 -0.14675347423E+03  0.14815556960E+03  0.00000000000E+00 0. -1.
</event>
<event>
 4    1  0.7060698E+001  0.2150968E+02  0.7546771E-02  0.1512111E+00
          2   -1    0    0  502    0  0.00000000000E+00  0.00000000000E+00  0.62979711523E+03  0.62979711523E+03  0.00000000000E+00 0.  1.
         -2   -1    0    0    0  501 -0.00000000000E+00 -0.00000000000E+00 -0.14230494973E+01  0.14230494973E+01  0.00000000000E+00 0. -1.
          1    1    1    2  502    0 -0.67751751371E+01 -0.20414780387E+02  0.94669988347E+02  0.97082814906E+02  0.00000000000E+00 0. -1.
         -1    1    1    2    0  501  0.67751751371E+01  0.20414780387E+02  0.53370407738E+03  0.53413734982E+03  0.00000000000E+00 0.  1.
</event>
<event>
 4    1  0.7060698E+001  0.2115994E+02  0.7546771E-02  0.1516993E+00
          2   -1    0    0  502    0  0.00000000000E+00  0.00000000000E+00  0.13388705331E+02  0.13388705331E+02  0.00000000000E+00 0.  1.
         -2   -1    0    0    0  501 -0.00000000000E+00 -0.00000000000E+00 -0.33475440772E+02  0.33475440772E+02  0.00000000000E+00 0. -1.
          1    1    1    2  502    0 -0.98216536135E+01  0.18742420275E+02 -0.10785529511E+02  0.23750175669E+02  0.00000000000E+00 0. -1.
         -1    1    1    2    0  501  0.98216536135E+01 -0.18742420275E+02 -0.93012059300E+01  0.23113970434E+02  0.00000000000E+00 0.  1.
</event>
<event>
 4    1  0.7060698E+001  0.3896916E+02  0.7546771E-02  0.1354635E+00
          2   -1    0    0  502    0  0.00000000000E+00  0.00000000000E+00  0.49988968939E+03  0.49988968939E+03  0.00000000000E+00 0. -1.
         -2   -1    0    0    0  501 -0.00000000000E+00 -0.00000000000E+00 -0.30391577611E+01  0.30391577611E+01  0.00000000000E+00 0.  1.
          1    1    1    2  502    0  0.10333982119E+02  0.37573982962E+02  0.25361963878E+03  0.25659601821E+03  0.00000000000E+00 0. -1.
         -1    1    1    2    0  501 -0.10333982119E+02 -0.37573982962E+02  0.24323089284E+03  0.24633282894E+03  0.00000000000E+00 0.  1.
</event>
<event>
 4    1  0.7060698E+001  0.2318531E+02  0.7546771E-02  0.1490184E+00
          2   -1    0    0  502    0  0.00000000000E+00  0.00000000000E+00  0.67151195576E+03  0.67151195576E+03  0.00000000000E+00 0.  1.
         -2   -1    0    0    0  501 -0.00000000000E+00 -0.00000000000E+00 -0.11615297980E+01  0.11615297980E+01  0.00000000000E+00 0. -1.
          1    1    1    2  502    0  0.16654161428E+02  0.16130642692E+02  0.14766770913E+03  0.14947679100E+03  0.00000000000E+00 0. -1.
         -1    1    1    2    0  501 -0.16654161428E+02 -0.16130642692E+02  0.52268271684E+03  0.52319669457E+03  0.00000000000E+00 0.  1.
</event>
<event>
 4    1  0.7060698E+001  0.2097916E+02  0.7546771E-02  0.1519563E+00
          2   -1    0    0  502    0  0.00000000000E+00  0.00000000000E+00  0.16948847250E+04  0.16948847250E+04  0.00000000000E+00 0.  1.
         -2   -1    0    0    0  501 -0.00000000000E+00 -0.00000000000E+00 -0.29466071220E+00  0.29466071220E+00  0.00000000000E+00 0. -1.
          1    1    1    2  502    0 -0.38001408131E-01 -0.20979123468E+02  0.11393391040E+04  0.11395322370E+04  0.00000000000E+00 0.  1.
         -1    1    1    2    0  501  0.38001408131E-01  0.20979123468E+02  0.55525096025E+03  0.55564714876E+03  0.00000000000E+00 0. -1.
</event>
<event>
 4    1  0.7060698E+001  0.2371929E+02  0.7546771E-02  0.1483658E+00
          2   -1    0    0  502    0  0.00000000000E+00  0.00000000000E+00  0.30882701397E+03  0.30882701397E+03  0.00000000000E+00 0. -1.
         -2   -1    0    0    0  501 -0.00000000000E+00 -0.00000000000E+00 -0.18440121090E+01  0.18440121090E+01  0.00000000000E+00 0.  1.
          1    1    1    2  502    0 -0.76444682203E+01  0.22453656079E+02  0.13642261836E+03  0.13846925783E+03  0.00000000000E+00 0. -1.
         -1    1    1    2    0  501  0.76444682203E+01 -0.22453656079E+02  0.17056038351E+03  0.17220176825E+03  0.00000000000E+00 0.  1.
</event>
<event>
 4    1  0.7060698E+001  0.4648697E+02  0.7546771E-02  0.1314167E+00
          2   -1    0    0  502    0  0.00000000000E+00  0.00000000000E+00  0.30864751677E+03  0.30864751677E+03  0.00000000000E+00 0. -1.
         -2   -1    0    0    0  501 -0.00000000000E+00 -0.00000000000E+00 -0.93652823772E+01  0.93652823772E+01  0.00000000000E+00 0.  1.
          1    1    1    2  502    0  0.46486969915E+02  0.90284417557E-02  0.69759811978E+02  0.83830005491E+02  0.00000000000E+00 0. -1.
         -1    1    1    2    0  501 -0.46486969915E+02 -0.90284417557E-02  0.22952242242E+03  0.23418279366E+03  0.00000000000E+00 0.  1.
</event>
<event>
 4    1  0.7060698E+001  0.2895735E+02  0.7546771E-02  0.1428879E+00
          2   -1    0    0  502    0  0.00000000000E+00  0.00000000000E+00  0.13160792218E+04  0.13160792218E+04  0.00000000000E+00 0.  1.
         -2   -1    0    0    0  501 -0.00000000000E+00 -0.00000000000E+00 -0.14692479749E+01  0.14692479749E+01  0.00000000000E+00 0. -1.
          1    1    1    2  502    0 -0.28940104792E+02  0.99917445961E+00  0.16153681784E+03  0.16411176537E+03  0.00000000000E+00 0. -1.
         -1    1    1    2    0  501  0.28940104792E+02 -0.99917445961E+00  0.11530731559E+04  0.11534367044E+04  0.00000000000E+00 0.  1.
</event>
<event>
 4    1  0.7060698E+001  0.2027224E+02  0.7546771E-02  0.1529914E+00
          2   -1    0    0  502    0  0.00000000000E+00  0.00000000000E+00  0.52274736072E+03  0.52274736072E+03  0.00000000000E+00 0. -1.
         -2   -1    0    0    0  501 -0.00000000000E+00 -0.00000000000E+00 -0.17224355360E+01  0.17224355360E+01  0.00000000000E+00 0.  1.
          1    1    1    2  502    0 -0.13802550729E+02  0.14847663314E+02  0.67172941771E+02  0.70165287848E+02  0.00000000000E+00 0.  1.
         -1    1    1    2    0  501  0.13802550729E+02 -0.14847663314E+02  0.45385198341E+03  0.45430450841E+03  0.00000000000E+00 0. -1.
</event>
<event>
 4    1  0.7060698E+001  0.2099624E+02  0.7546771E-02  0.1519318E+00
          2   -1    0    0  502    0  0.00000000000E+00  0.00000000000E+00  0.43042447101E+03  0.43042447101E+03  0.00000000000E+00 0.  1.
         -2   -1    0    0    0  501 -0.00000000000E+00 -0.00000000000E+00 -0.16542565834E+01  0.16542565834E+01  0.00000000000E+00 0. -1.
          1    1    1    2  502    0  0.14002292862E+02 -0.15645375521E+02  0.34771276199E+03  0.34834610208E+03  0.00000000000E+00 0.  1.
         -1    1    1    2    0  501 -0.14002292862E+02  0.15645375521E+02  0.81057452433E+02  0.83732625514E+02  0.00000000000E+00 0. -1.
</event>
<event>
 4    1  0.7060698E+001  0.2010954E+02  0.7546771E-02  0.1532368E+00
          2   -1    0    0  502    0  0.00000000000E+00  0.00000000000E+00  0.31039405312E+03  0.31039405312E+03  0.00000000000E+00 0. -1.
         -2   -1    0    0    0  501 -0.00000000000E+00 -0.00000000000E+00 -0.14031432042E+01  0.14031432042E+01  0.00000000000E+00 0.  1.
          1    1    1    2  502    0 -0.20109493024E+02 -0.42110914301E-01  0.19617766554E+03  0.19720565392E+03  0.00000000000E+00 0. -1.
         -1    1    1    2    0  501  0.20109493024E+02  0.42110914301E-01  0.11281324437E+03  0.11459154240E+03  0.00000000000E+00 0.  1.
</event>
<event>
 4    1  0.7060698E+001  0.2803325E+02  0.7546771E-02  0.1437496E+00
          2   -1    0    0  502    0  0.00000000000E+00  0.00000000000E+00  0.11314120232E+04  0.11314120232E+04  0.00000000000E+00 0.  1.
         -2   -1    0    0    0  501 -0.00000000000E+00 -0.00000000000E+00 -0.10099212118E+01  0.10099212118E+01  0.00000000000E+00 0. -1.
          1    1    1    2  502    0  0.24156117852E+02  0.14224796685E+02  0.88158964447E+03  0.88203523972E+03  0.00000000000E+00 0.  1.
         -1    1    1    2    0  501 -0.24156117852E+02 -0.14224796685E+02  0.24881245752E+03  0.25038670469E+03  0.00000000000E+00 0. -1.
</event>
<event>
 4    1  0.7060698E+001  0.2530672E+02  0.7546771E-02  0.1465401E+00
          2   -1    0    0  502    0  0.00000000000E+00  0.00000000000E+00  0.22854813318E+02  0.22854813318E+02  0.00000000000E+00 0. -1.
         -2   -1    0    0    0  501 -0.00000000000E+00 -0.00000000000E+00 -0.35356296087E+02  0.35356296087E+02  0.00000000000E+00 0.  1.
          1    1    1    2  502    0 -0.25304320549E+02 -0.34824905141E+00 -0.19507325916E+02  0.31952553579E+02  0.00000000000E+00 0.  1.
         -1    1    1    2    0  501  0.25304320549E+02  0.34824905141E+00  0.70058431471E+01  0.26258555826E+02  0.00000000000E+00 0. -1.
</event>
<event>
 4    1  0.7060698E+001  0.2557955E+02  0.7546771E-02  0.1462423E+00
          2   -1    0    0  502    0  0.00000000000E+00  0.00000000000E+00  0.66135773737E+01  0.66135773737E+01  0.00000000000E+00 0. -1.
         -2   -1    0    0    0  501 -0.00000000000E+00 -0.00000000000E+00 -0.13848846360E+03  0.13848846360E+03  0.00000000000E+00 0.  1.
          1    1    1    2  502    0  0.24695615752E+02 -0.66663250158E+01 -0.27164410002E+02  0.37312444269E+02  0.00000000000E+00 0. -1.
         -1    1    1    2    0  501 -0.24695615752E+02  0.66663250158E+01 -0.10471047623E+03  0.10778959671E+03  0.00000000000E+00 0.  1.
</event>
<event>
 4    1  0.7060698E+001  0.2823564E+02  0.7546771E-02  0.1435576E+00
          2   -1    0    0  502    0  0.00000000000E+00  0.00000000000E+00  0.37245875184E+02  0.37245875184E+02  0.00000000000E+00 0. -1.
         -2   -1    0    0    0  501 -0.00000000000E+00 -0.00000000000E+00 -0.27087145641E+02  0.27087145641E+02  0.00000000000E+00 0.  1.
          1    1    1    2  502    0 -0.27714179567E+02 -0.54014526120E+01  0.19811813432E+02  0.34492888989E+02  0.00000000000E+00 0. -1.
         -1    1    1    2    0  501  0.27714179567E+02  0.54014526120E+01 -0.96530838891E+01  0.29840131835E+02  0.00000000000E+00 0.  1.
</event>
<event>
 4    1  0.7060698E+001  0.4265599E+02  0.7546771E-02  0.1333587E+00
          2   -1    0    0  502    0  0.00000000000E+00  0.00000000000E+00  0.13502687857E+02  0.13502687857E+02  0.00000000000E+00 0.  1.
         -2   -1    0    0    0  501 -0.00000000000E+00 -0.00000000000E+00 -0.26669082165E+03  0.26669082165E+03  0.00000000000E+00 0. -1.
          1    1    1    2  502    0 -0.42531600731E+02 -0.32551710942E+01 -0.22513303829E+03  0.22913842569E+03  0.00000000000E+00 0. -1.
         -1    1    1    2    0  501  0.42531600731E+02  0.32551710942E+01 -0.28055095504E+02  0.51055083815E+02  0.00000000000E+00 0.  1.
</event>
<event>
 4    1  0.7060698E+001  0.2637007E+02  0.7546771E-02  0.1454041E+00
          2   -1    0    0  502    0  0.00000000000E+00  0.00000000000E+00  0.20813828523E+04  0.20813828523E+04  0.00000000000E+00 0.  1.
         -2   -1    0    0    0  501 -0.00000000000E+00 -0.00000000000E+00 -0.94696871966E+00  0.94696871966E+00  0.00000000000E+00 0. -1.
          1    1    1    2  502    0  0.25186944370E+02 -0.78101375015E+01  0.18778187115E+04  0.18780038588E+04  0.00000000000E+00 0.  1.
         -1    1    1    2    0  501 -0.25186944370E+02  0.78101375015E+01  0.20261717209E+03  0.20432596222E+03  0.00000000000E+00 0. -1.
</event>
<event>
 4    1  0.7060698E+001  0.3762991E+02  0.7546771E-02  0.1362964E+00
          2   -1    0    0  502    0  0.00000000000E+00  0.00000000000E+00  0.46374603195E+03  0.46374603195E+03  0.00000000000E+00 0. -1.
         -2   -1    0    0    0  501 -0.00000000000E+00 -0.00000000000E+00 -0.57247284568E+01  0.57247284568E+01  0.00000000000E+00 0.  1.
          1    1    1    2  502    0 -0.12654889519E+02 -0.35438166585E+02  0.68662708057E+02  0.78298003533E+02  0.00000000000E+00 0.  1.
         -1    1    1    2    0  501  0.12654889519E+02  0.35438166585E+02  0.38935859543E+03  0.39117275687E+03  0.00000000000E+00 0. -1.
</event>
<event>
 4    1  0.7060698E+001  0.2048873E+02  0.7546771E-02  0.1526691E+00
          2   -1    0    0  502    0  0.00000000000E+00  0.00000000000E+00  0.39592451626E+00  0.39592451626E+00  0.00000000000E+00 0.  1.
         -2   -1    0    0    0  501 -0.00000000000E+00 -0.00000000000E+00 -0.13410159424E+04  0.13410159424E+04  0.00000000000E+00 0. -1.
          1    1    1    2  502    0 -0.12845682278E+01 -0.20448416671E+02 -0.36342899449E+03  0.36400607399E+03  0.00000000000E+00 0.  1.
         -1    1    1    2    0  501  0.12845682278E+01  0.20448416671E+02 -0.97719102336E+03  0.97740579290E+03  0.00000000000E+00 0. -1.
</event>
<event>
 4    1  0.7060698E+001  0.2191970E+02  0.7546771E-02  0.1506528E+00
          2   -1    0    0  502    0  0.00000000000E+00  0.00000000000E+00  0.85618897308E+01  0.85618897308E+01  0.00000000000E+00 0.  1.
         -2   -1    0    0    0  501 -0.00000000000E+00 -0.00000000000E+00 -0.86665750635E+02  0.86665750635E+02  0.00000000000E+00 0. -1.
          1    1    1    2  502    0 -0.15883965123E+02 -0.15105396171E+02 -0.10783531767E+02  0.24428628674E+02  0.00000000000E+00 0.  1.
         -1    1    1    2    0  501  0.15883965123E+02  0.15105396171E+02 -0.67320329137E+02  0.70799011692E+02  0.00000000000E+00 0. -1.
</event>
<event>
 4    1  0.7060698E+001  0.3521062E+02  0.7546771E-02  0.1379089E+00
          2   -1    0    0  502    0  0.00000000000E+00  0.00000000000E+00  0.38310510287E+01  0.38310510287E+01  0.00000000000E+00 0.  1.
         -2   -1    0    0    0  501 -0.00000000000E+00 -0.00000000000E+00 -0.34273456045E+03  0.34273456045E+03  0.00000000000E+00 0. -1.
          1    1    1    2  502    0  0.25651619079E+02  0.24120156956E+02 -0.12852477657E+03  0.13326066834E+03  0.00000000000E+00 0.  1.
         -1    1    1    2    0  501 -0.25651619079E+02 -0.24120156956E+02 -0.21037873285E+03  0.21330494314E+03  0.00000000000E+00 0. -1.
</event>
<event>
 4    1  0.7060698E+001  0.2082877E+02  0.7546771E-02  0.1521724E+00
          2   -1    0    0  502    0  0.00000000000E+00  0.00000000000E+00  0.31621932822E+03  0.31621932822E+03  0.00000000000E+00 0. -1.
         -2   -1    0    0    0  501 -0.00000000000E+00 -0.00000000000E+00 -0.25118352507E+01  0.25118352507E+01  0.00000000000E+00 0.  1.
          1    1    1    2  502    0 -0.94085309918E+01 -0.18582708368E+02  0.49497014188E+02  0.53700948961E+02  0.00000000000E+00 0.  1.
         -1    1    1    2    0  501  0.94085309918E+01  0.18582708368E+02  0.26421047878E+03  0.26503021451E+03  0.00000000000E+00 0. -1.
</event>
<event>
 4    1  0.7060698E+001  0.5354032E+02  0.7546771E-02  0.1283512E+00
          2   -1    0    0  502    0  0.00000000000E+00  0.00000000000E+00  0.45983373840E+02  0.45983373840E+02  0.00000000000E+00 0. -1.
         -2   -1    0    0    0  501 -0.00000000000E+00 -0.00000000000E+00 -0.99139982450E+02  0.99139982450E+02  0.00000000000E+00 0.  1.
          1    1    1    2  502    0 -0.48204082470E+02 -0.23300903500E+02 -0.70787393001E+02  0.88754834677E+02  0.00000000000E+00 0.  1.
         -1    1    1    2    0  501  0.48204082470E+02  0.23300903500E+02  0.17630784391E+02  0.56368521613E+02  0.00000000000E+00 0. -1.
</event>
<event>
 4    1  0.7060698E+001  0.2074249E+02  0.7546771E-02  0.1522973E+00
          2   -1    0    0  502    0  0.00000000000E+00  0.00000000000E+00  0.22444998592E+03  0.22444998592E+03  0.00000000000E+00 0. -1.
         -2   -1    0    0    0  501 -0.00000000000E+00 -0.00000000000E+00 -0.19199225167E+01  0.19199225167E+01  0.00000000000E+00 0.  1.
          1    1    1    2  502    0 -0.30333784465E+01 -0.20519492207E+02  0.11574674062E+03  0.11759064125E+03  0.00000000000E+00 0. -1.
         -1    1    1    2    0  501  0.30333784465E+01  0.20519492207E+02  0.10678332278E+03  0.10877926719E+03  0.00000000000E+00 0.  1.
</event>
<event>
 4    1  0.7060698E+001  0.2935909E+02  0.7546771E-02  0.1425249E+00
          2   -1    0    0  502    0  0.00000000000E+00  0.00000000000E+00  0.13380083335E+04  0.13380083335E+04  0.00000000000E+00 0. -1.
         -2   -1    0    0    0  501 -0.00000000000E+00 -0.00000000000E+00 -0.80069416030E+00  0.80069416030E+00  0.00000000000E+00 0.  1.
          1    1    1    2  502    0 -0.13441136186E+02  0.26101568815E+02  0.96453647821E+03  0.96498319873E+03  0.00000000000E+00 0. -1.
         -1    1    1    2    0  501  0.13441136186E+02 -0.26101568815E+02  0.37267116117E+03  0.37382582897E+03  0.00000000000E+00 0.  1.
</event>
<event>
 4    1  0.7060698E+001  0.2923381E+02  0.7546771E-02  0.1426373E+00
          2   -1    0    0  502    0  0.00000000000E+00  0.00000000000E+00  0.31478659788E+03  0.31478659788E+03  0.00000000000E+00 0.  1.
         -2   -1    0    0    0  501 -0.00000000000E+00 -0.00000000000E+00 -0.29012822780E+01  0.29012822780E+01  0.00000000000E+00 0. -1.
          1    1    1    2  502    0  0.17626078958E+02 -0.23322462839E+02  0.11568288567E+03  0.11931951211E+03  0.00000000000E+00 0. -1.
         -1    1    1    2    0  501 -0.17626078958E+02  0.23322462839E+02  0.19620242993E+03  0.19836836805E+03  0.00000000000E+00 0.  1.
</event>
<event>
 4    1  0.7060698E+001  0.3830565E+02  0.7546771E-02  0.1358711E+00
          2   -1    0    0  502    0  0.00000000000E+00  0.00000000000E+00  0.48222560081E+02  0.48222560081E+02  0.00000000000E+00 0.  1.
         -2   -1    0    0    0  501 -0.00000000000E+00 -0.00000000000E+00 -0.33083394927E+02  0.33083394927E+02  0.00000000000E+00 0. -1.
          1    1    1    2  502    0 -0.23210514039E+02  0.30472851005E+02 -0.39474547443E+01  0.38508505675E+02  0.00000000000E+00 0. -1.
         -1    1    1    2    0  501  0.23210514039E+02 -0.30472851005E+02  0.19086619898E+02  0.42797449334E+02  0.00000000000E+00 0.  1.
</event>
<event>
 4    1  0.7060698E+001  0.2253251E+02  0.7546771E-02  0.1498453E+00
          2   -1    0    0  502    0  0.00000000000E+00  0.00000000000E+00  0.82015448840E+00  0.82015448840E+00  0.00000000000E+00 0.  1.
         -2   -1    0    0    0  501 -0.00000000000E+00 -0.00000000000E+00 -0.62026583459E+03  0.62026583459E+03  0.00000000000E+00 0. -1.
          1    1    1    2  502    0 -0.14813969793E+02 -0.16978232803E+02 -0.32348934665E+03  0.32427314333E+03  0.00000000000E+00 0. -1.
         -1    1    1    2    0  501  0.14813969793E+02  0.16978232803E+02 -0.29595633346E+03  0.29681284575E+03  0.00000000000E+00 0.  1.
</event>
<event>
 4    1  0.7060698E+001  0.2834913E+02  0.7546771E-02  0.1434507E+00
          2   -1    0    0  502    0  0.00000000000E+00  0.00000000000E+00  0.71003596759E+03  0.71003596759E+03  0.00000000000E+00 0. -1.
         -2   -1    0    0    0  501 -0.00000000000E+00 -0.00000000000E+00 -0.11865534256E+01  0.11865534256E+01  0.00000000000E+00 0.  1.
          1    1    1    2  502    0  0.28017121098E+02 -0.43259573226E+01  0.43076154177E+03  0.43169338523E+03  0.00000000000E+00 0. -1.
         -1    1    1    2    0  501 -0.28017121098E+02  0.43259573226E+01  0.27808787240E+03  0.27952913579E+03  0.00000000000E+00 0.  1.
</event>
<event>
 4    1  0.7060698E+001  0.2256551E+02  0.7546771E-02  0.1498027E+00
          2   -1    0    0  502    0  0.00000000000E+00  0.00000000000E+00  0.50806154654E+03  0.50806154654E+03  0.00000000000E+00 0. -1.
         -2   -1    0    0    0  501 -0.00000000000E+00 -0.00000000000E+00 -0.15351852784E+01  0.15351852784E+01  0.00000000000E+00 0.  1.
          1    1    1    2  502    0  0.10242562178E+02  0.20107021179E+02  0.10313738472E+03  0.10557709273E+03  0.00000000000E+00 0.  1.
         -1    1    1    2    0  501 -0.10242562178E+02 -0.20107021179E+02  0.40338897653E+03  0.40401963909E+03  0.00000000000E+00 0. -1.
</event>
<event>
 4    1  0.7060698E+001  0.3235909E+02  0.7546771E-02  0.1400145E+00
          2   -1    0    0  502    0  0.00000000000E+00  0.00000000000E+00  0.78707588446E+03  0.78707588446E+03  0.00000000000E+00 0. -1.
         -2   -1    0    0    0  501 -0.00000000000E+00 -0.00000000000E+00 -0.15373882639E+01  0.15373882639E+01  0.00000000000E+00 0.  1.
          1    1    1    2  502    0  0.89017930486E+01 -0.31110585955E+02  0.53745825325E+03  0.53843150397E+03  0.00000000000E+00 0. -1.
         -1    1    1    2    0  501 -0.89017930486E+01  0.31110585955E+02  0.24808024294E+03  0.25018176875E+03  0.00000000000E+00 0.  1.
</event>
<event>
 4    1  0.7060698E+001  0.2172717E+02  0.7546771E-02  0.1509131E+00
          2   -1    0    0  502    0  0.00000000000E+00  0.00000000000E+00  0.54843378925E+03  0.54843378925E+03  0.00000000000E+00 0.  1.
         -2   -1    0    0    0  501 -0.00000000000E+00 -0.00000000000E+00 -0.86622924947E+00  0.86622924947E+00  0.00000000000E+00 0. -1.
          1    1    1    2  502    0 -0.17480680341E+02 -0.12903314577E+02  0.29560798185E+03  0.29640537891E+03  0.00000000000E+00 0. -1.
         -1    1    1    2    0  501  0.17480680341E+02  0.12903314577E+02  0.25195957815E+03  0.25289463960E+03  0.00000000000E+00 0.  1.
</event>
<event>
 4    1  0.7060698E+001  0.2537773E+02  0.7546771E-02  0.1464622E+00
          2   -1    0    0  502    0  0.00000000000E+00  0.00000000000E+00  0.32195224842E+01  0.32195224842E+01  0.00000000000E+00 0.  1.
         -2   -1    0    0    0  501 -0.00000000000E+00 -0.00000000000E+00 -0.27094382324E+03  0.27094382324E+03  0.00000000000E+00 0. -1.
          1    1    1    2  502    0  0.12354339517E+02 -0.22167534876E+02 -0.20398803807E+03  0.20556057254E+03  0.00000000000E+00 0. -1.
         -1    1    1    2    0  501 -0.12354339517E+02  0.22167534876E+02 -0.63736262684E+02  0.68602773182E+02  0.00000000000E+00 0.  1.
</event>
<event>
 4    1  0.7060698E+001  0.2334624E+02  0.7546771E-02  0.1488196E+00
          2   -1    0    0  502    0  0.00000000000E+00  0.00000000000E+00  0.70411252747E+03  0.70411252747E+03  0.00000000000E+00 0.  1.
         -2   -1    0    0    0  501 -0.00000000000E+00 -0.00000000000E+00 -0.11224195386E+01  0.11224195386E+01  0.00000000000E+00 0. -1.
          1    1    1    2  502    0 -0.13665191654E+02  0.18929064271E+02  0.15505911106E+03  0.15680680744E+03  0.00000000000E+00 0. -1.
         -1    1    1    2    0  501  0.13665191654E+02 -0.18929064271E+02  0.54793099687E+03  0.54842813957E+03  0.00000000000E+00 0.  1.
</event>
<event>
 4    1  0.7060698E+001  0.3133632E+02  0.7546771E-02  0.1408329E+00
          2   -1    0    0  502    0  0.00000000000E+00  0.00000000000E+00  0.20568107128E+03  0.20568107128E+03  0.00000000000E+00 0.  1.
         -2   -1    0    0    0  501 -0.00000000000E+00 -0.00000000000E+00 -0.49693305486E+01  0.49693305486E+01  0.00000000000E+00 0. -1.
          1    1    1    2  502    0  0.15864823911E+02 -0.27023548293E+02  0.12122642174E+03  0.12521106232E+03  0.00000000000E+00 0. -1.
         -1    1    1    2    0  501 -0.15864823911E+02  0.27023548293E+02  0.79485318990E+02  0.85439339504E+02  0.00000000000E+00 0.  1.
</event>
<event>
 4    1  0.7060698E+001  0.3825202E+02  0.7546771E-02  0.1359045E+00
          2   -1    0    0  502    0  0.00000000000E+00  0.00000000000E+00  0.93162925463E+03  0.93162925463E+03  0.00000000000E+00 0.  1.
         -2   -1    0    0    0  501 -0.00000000000E+00 -0.00000000000E+00 -0.23503333305E+01  0.23503333305E+01  0.00000000000E+00 0. -1.
          1    1    1    2  502    0  0.11310006240E+02 -0.36541765311E+02  0.19566210160E+03  0.19936618283E+03  0.00000000000E+00 0. -1.
         -1    1    1    2    0  501 -0.11310006240E+02  0.36541765311E+02  0.73361681970E+03  0.73461340513E+03  0.00000000000E+00 0.  1.
</event>
<event>
 4    1  0.7060698E+001  0.5396962E+02  0.7546771E-02  0.1281822E+00
          2   -1    0    0  502    0  0.00000000000E+00  0.00000000000E+00  0.31139937772E+03  0.31139937772E+03  0.00000000000E+00 0. -1.
         -2   -1    0    0    0  501 -0.00000000000E+00 -0.00000000000E+00 -0.12167294995E+02  0.12167294995E+02  0.00000000000E+00 0.  1.
          1    1    1    2  502    0 -0.53938859312E+02  0.18219073840E+01  0.22741461623E+03  0.23373088706E+03  0.00000000000E+00 0. -1.
         -1    1    1    2    0  501  0.53938859312E+02 -0.18219073840E+01  0.71817466488E+02  0.89835785649E+02  0.00000000000E+00 0.  1.
</event>
<event>
 4    1  0.7060698E+001  0.3207756E+02  0.7546771E-02  0.1402362E+00
          2   -1    0    0  502    0  0.00000000000E+00  0.00000000000E+00  0.26869919757E+04  0.26869919757E+04  0.00000000000E+00 0.  1.
         -2   -1    0    0    0  501 -0.00000000000E+00 -0.00000000000E+00 -0.56060060256E+00  0.56060060256E+00  0.00000000000E+00 0. -1.
          1    1    1    2  502    0  0.31638143332E+02  0.52912782240E+01  0.58674895995E+03  0.58762514560E+03  0.00000000000E+00 0. -1.
         -1    1    1    2    0  501 -0.31638143332E+02 -0.52912782240E+01  0.20996824151E+04  0.20999274307E+04  0.00000000000E+00 0.  1.
</event>
<event>
 4    1  0.7060698E+001  0.3519837E+02  0.7546771E-02  0.1379174E+00
          2   -1    0    0  502    0  0.00000000000E+00  0.00000000000E+00  0.29790513035E+03  0.29790513035E+03  0.00000000000E+00 0. -1.
         -2   -1    0    0    0  501 -0.00000000000E+00 -0.00000000000E+00 -0.51026527132E+01  0.51026527132E+01  0.00000000000E+00 0.  1.
          1    1    1    2  502    0 -0.15689335770E+01  0.35163383940E+02  0.81241399022E+02  0.88538635847E+02  0.00000000000E+00 0.  1.
         -1    1    1    2    0  501  0.15689335770E+01 -0.35163383940E+02  0.21156107861E+03  0.21446914721E+03  0.00000000000E+00 0. -1.
</event>
<event>
 4    1  0.7060698E+001  0.3697219E+02  0.7546771E-02  0.1367204E+00
          2   -1    0    0  502    0  0.00000000000E+00  0.00000000000E+00  0.13498479486E+04  0.13498479486E+04  0.00000000000E+00 0. -1.
         -2   -1    0    0    0  501 -0.00000000000E+00 -0.00000000000E+00 -0.10736082500E+01  0.10736082500E+01  0.00000000000E+00 0.  1.
          1    1    1    2  502    0  0.25938877451E+02 -0.26346106230E+02  0.83531935768E+03  0.83613717295E+03  0.00000000000E+00 0. -1.
         -1    1    1    2    0  501 -0.25938877451E+02  0.26346106230E+02  0.51345498268E+03  0.51478438391E+03  0.00000000000E+00 0.  1.
</event>
<event>
 4    1  0.7060698E+001  0.3120065E+02  0.7546771E-02  0.1409442E+00
          2   -1    0    0  502    0  0.00000000000E+00  0.00000000000E+00  0.46901460668E+02  0.46901460668E+02  0.00000000000E+00 0.  1.
         -2   -1    0    0    0  501 -0.00000000000E+00 -0.00000000000E+00 -0.20774715800E+02  0.20774715800E+02  0.00000000000E+00 0. -1.
          1    1    1    2  502    0 -0.29259553755E+02 -0.10833243064E+02  0.14082527954E+02  0.34231538598E+02  0.00000000000E+00 0.  1.
         -1    1    1    2    0  501  0.29259553755E+02  0.10833243064E+02  0.12044216914E+02  0.33444637871E+02  0.00000000000E+00 0. -1.
</event>
<event>
 4    1  0.7060698E+001  0.2434054E+02  0.7546771E-02  0.1476318E+00
          2   -1    0    0  502    0  0.00000000000E+00  0.00000000000E+00  0.74926648708E+02  0.74926648708E+02  0.00000000000E+00 0. -1.
         -2   -1    0    0    0  501 -0.00000000000E+00 -0.00000000000E+00 -0.24485398899E+02  0.24485398899E+02  0.00000000000E+00 0.  1.
          1    1    1    2  502    0  0.72218650261E+00  0.24329824075E+02  0.66120668703E+02  0.70458531936E+02  0.00000000000E+00 0. -1.
         -1    1    1    2    0  501 -0.72218650261E+00 -0.24329824075E+02 -0.15679418893E+02  0.28953515671E+02  0.00000000000E+00 0.  1.
</event>
<event>
 4    1  0.7060698E+001  0.2182747E+02  0.7546771E-02  0.1507771E+00
          2   -1    0    0  502    0  0.00000000000E+00  0.00000000000E+00  0.41675118618E+02  0.41675118618E+02  0.00000000000E+00 0. -1.
         -2   -1    0    0    0  501 -0.00000000000E+00 -0.00000000000E+00 -0.35328293074E+02  0.35328293074E+02  0.00000000000E+00 0.  1.
          1    1    1    2  502    0  0.20713836748E+02  0.68829812075E+01 -0.28491774254E+02  0.35891777098E+02  0.00000000000E+00 0.  1.
         -1    1    1    2    0  501 -0.20713836748E+02 -0.68829812075E+01  0.34838599798E+02  0.41111634594E+02  0.00000000000E+00 0. -1.
</event>
<event>
 4    1  0.7060698E+001  0.2365118E+02  0.7546771E-02  0.1484479E+00
          2   -1    0    0  502    0  0.00000000000E+00  0.00000000000E+00  0.26820045862E+03  0.26820045862E+03  0.00000000000E+00 0.  1.
         -2   -1    0    0    0  501 -0.00000000000E+00 -0.00000000000E+00 -0.28138419739E+01  0.28138419739E+01  0.00000000000E+00 0. -1.
          1    1    1    2  502    0  0.14509310726E+02 -0.18677750727E+02  0.63760110006E+02  0.68005368155E+02  0.00000000000E+00 0. -1.
         -1    1    1    2    0  501 -0.14509310726E+02  0.18677750727E+02  0.20162650664E+03  0.20300893244E+03  0.00000000000E+00 0.  1.
</event>
<event>
 4    1  0.7060698E+001  0.2052240E+02  0.7546771E-02  0.1526194E+00
          2   -1    0    0  502    0  0.00000000000E+00  0.00000000000E+00  0.38035667078E+03  0.38035667078E+03  0.00000000000E+00 0. -1.
         -2   -1    0    0    0  501 -0.00000000000E+00 -0.00000000000E+00 -0.11241510239E+01  0.11241510239E+01  0.00000000000E+00 0.  1.
          1    1    1    2  502    0 -0.12928273415E+02  0.15938278584E+02  0.16626328001E+03  0.16752506456E+03  0.00000000000E+00 0.  1.
         -1    1    1    2    0  501  0.12928273415E+02 -0.15938278584E+02  0.21296923976E+03  0.21395575725E+03  0.00000000000E+00 0. -1.
</event>
<event>
 4    1  0.7060698E+001  0.3412199E+02  0.7546771E-02  0.1386843E+00
          2   -1    0    0  502    0  0.00000000000E+00  0.00000000000E+00  0.25482391147E+01  0.25482391147E+01  0.00000000000E+00 0.  1.
         -2   -1    0    0    0  501 -0.00000000000E+00 -0.00000000000E+00 -0.46486677024E+03  0.46486677024E+03  0.00000000000E+00 0. -1.
          1    1    1    2  502    0 -0.32078935272E+02  0.11629779866E+02 -0.20057896352E+03  0.20346063618E+03  0.00000000000E+00 0. -1.
         -1    1    1    2    0  501  0.32078935272E+02 -0.11629779866E+02 -0.26173956760E+03  0.26395437317E+03  0.00000000000E+00 0.  1.
</event>
<event>
 4    1  0.7060698E+001  0.2693696E+02  0.7546771E-02  0.1448242E+00
          2   -1    0    0  502    0  0.00000000000E+00  0.00000000000E+00  0.77235858346E+01  0.77235858346E+01  0.00000000000E+00 0.  1.
         -2   -1    0    0    0  501 -0.00000000000E+00 -0.00000000000E+00 -0.31021364351E+03  0.31021364351E+03  0.00000000000E+00 0. -1.
          1    1    1    2  502    0 -0.12295503780E+02  0.23967074340E+02 -0.28397735548E+03  0.28525206133E+03  0.00000000000E+00 0. -1.
         -1    1    1    2    0  501  0.12295503780E+02 -0.23967074340E+02 -0.18512702190E+02  0.32685168012E+02  0.00000000000E+00 0.  1.
</event>
<event>
 4    1  0.7060698E+001  0.2739616E+02  0.7546771E-02  0.1443669E+00
          2   -1    0    0  502    0  0.00000000000E+00  0.00000000000E+00  0.57188879009E+02  0.57188879009E+02  0.00000000000E+00 0. -1.
         -2   -1    0    0    0  501 -0.00000000000E+00 -0.00000000000E+00 -0.13852140338E+02  0.13852140338E+02  0.00000000000E+00 0.  1.
          1    1    1    2  502    0 -0.18487580214E+02 -0.20217787854E+02  0.29811925753E+02  0.40488275896E+02  0.00000000000E+00 0. -1.
         -1    1    1    2    0  501  0.18487580214E+02  0.20217787854E+02  0.13524812918E+02  0.30552743451E+02  0.00000000000E+00 0.  1.
</event>
<event>
 4    1  0.7060698E+001  0.2762359E+02  0.7546771E-02  0.1441443E+00
          2   -1    0    0  502    0  0.00000000000E+00  0.00000000000E+00  0.46454835173E+03  0.46454835173E+03  0.00000000000E+00 0.  1.
         -2   -1    0    0    0  501 -0.00000000000E+00 -0.00000000000E+00 -0.17159242586E+01  0.17159242586E+01  0.00000000000E+00 0. -1.
          1    1    1    2  502    0 -0.25384804538E+02 -0.10893786162E+02  0.27961143567E+03  0.28097262827E+03  0.00000000000E+00 0.  1.
         -1    1    1    2    0  501  0.25384804538E+02  0.10893786162E+02  0.18322099180E+03  0.18529164772E+03  0.00000000000E+00 0. -1.
</event>
<event>
 4    1  0.7060698E+001  0.2420004E+02  0.7546771E-02  0.1477955E+00
          2   -1    0    0  502    0  0.00000000000E+00  0.00000000000E+00  0.12845531234E+03  0.12845531234E+03  0.00000000000E+00 0. -1.
         -2   -1    0    0    0  501 -0.00000000000E+00 -0.00000000000E+00 -0.47834873458E+01  0.47834873458E+01  0.00000000000E+00 0.  1.
          1    1    1    2  502    0 -0.19811163100E+02 -0.13898187655E+02  0.47407497521E+02  0.53226991505E+02  0.00000000000E+00 0.  1.
         -1    1    1    2    0  501  0.19811163100E+02  0.13898187655E+02  0.76264327475E+02  0.80011808183E+02  0.00000000000E+00 0. -1.
</event>
<event>
 4    1  0.7060698E+001  0.2102138E+02  0.7546771E-02  0.1518960E+00
          2   -1    0    0  502    0  0.00000000000E+00  0.00000000000E+00  0.89159503372E+00  0.89159503372E+00  0.00000000000E+00 0.  1.
         -2   -1    0    0    0  501 -0.00000000000E+00 -0.00000000000E+00 -0.13157507481E+04  0.13157507481E+04  0.00000000000E+00 0. -1.
          1    1    1    2  502    0 -0.19751985576E+02 -0.71942712787E+01 -0.11771750701E+04  0.11773627496E+04  0.00000000000E+00 0. -1.
         -1    1    1    2    0  501  0.19751985576E+02  0.71942712787E+01 -0.13768408294E+03  0.13927959351E+03  0.00000000000E+00 0.  1.
</event>
<event>
 4    1  0.7060698E+001  0.2098358E+02  0.7546771E-02  0.1519499E+00
          2   -1    0    0  502    0  0.00000000000E+00  0.00000000000E+00  0.84707248560E+02  0.84707248560E+02  0.00000000000E+00 0. -1.
         -2   -1    0    0    0  501 -0.00000000000E+00 -0.00000000000E+00 -0.65356868037E+01  0.65356868037E+01  0.00000000000E+00 0.  1.
          1    1    1    2  502    0  0.17881793057E+01 -0.20907252986E+02  0.18446431595E+02  0.27938891375E+02  0.00000000000E+00 0.  1.
         -1    1    1    2    0  501 -0.17881793057E+01  0.20907252986E+02  0.59725130161E+02  0.63304043989E+02  0.00000000000E+00 0. -1.
</event>
<event>
 4    1  0.7060698E+001  0.2191110E+02  0.7546771E-02  0.1506644E+00
          2   -1    0    0  502    0  0.00000000000E+00  0.00000000000E+00  0.10116392823E+03  0.10116392823E+03  0.00000000000E+00 0.  1.
         -2   -1    0    0    0  501 -0.00000000000E+00 -0.00000000000E+00 -0.48117136343E+01  0.48117136343E+01  0.00000000000E+00 0. -1.
          1    1    1    2  502    0  0.21116736473E+02  0.58463499906E+01  0.41970922021E+02  0.47346115604E+02  0.00000000000E+00 0. -1.
         -1    1    1    2    0  501 -0.21116736473E+02 -0.58463499906E+01  0.54381292577E+02  0.58629526263E+02  0.00000000000E+00 0.  1.
</event>
<event>
 4    1  0.7060698E+001  0.3150700E+02  0.7546771E-02  0.1406937E+00
          2   -1    0    0  502    0  0.00000000000E+00  0.00000000000E+00  0.72052007193E+03  0.72052007193E+03  0.00000000000E+00 0.  1.
         -2   -1    0    0    0  501 -0.00000000000E+00 -0.00000000000E+00 -0.16220256676E+01  0.16220256676E+01  0.00000000000E+00 0. -1.
          1    1    1    2  502    0 -0.16953245150E+02 -0.26557086116E+02  0.21932573896E+03  0.22157723510E+03  0.00000000000E+00 0. -1.
         -1    1    1    2    0  501  0.16953245150E+02  0.26557086116E+02  0.49957230730E+03  0.50056486250E+03  0.00000000000E+00 0.  1.
</event>
<event>
 4    1  0.7060698E+001  0.5975851E+02  0.7546771E-02  0.1260655E+00
          2   -1    0    0  502    0  0.00000000000E+00  0.00000000000E+00  0.25690874366E+04  0.25690874366E+04  0.00000000000E+00 0. -1.
         -2   -1    0    0    0  501 -0.00000000000E+00 -0.00000000000E+00 -0.15327343880E+01  0.15327343880E+01  0.00000000000E+00 0.  1.
          1    1    1    2  502    0 -0.55517280812E+02 -0.22111336722E+02  0.89157493725E+03  0.89357537366E+03  0.00000000000E+00 0.  1.
         -1    1    1    2    0  501  0.55517280812E+02  0.22111336722E+02  0.16759797649E+04  0.16770447973E+04  0.00000000000E+00 0. -1.
</event>
<event>
 4    1  0.7060698E+001  0.3008515E+02  0.7546771E-02  0.1418858E+00
          2   -1    0    0  502    0  0.00000000000E+00  0.00000000000E+00  0.12707063792E+04  0.12707063792E+04  0.00000000000E+00 0. -1.
         -2   -1    0    0    0  501 -0.00000000000E+00 -0.00000000000E+00 -0.72095222058E+00  0.72095222058E+00  0.00000000000E+00 0.  1.
          1    1    1    2  502    0  0.25578162808E+02  0.15839004667E+02  0.70465914720E+03  0.70530109188E+03  0.00000000000E+00 0. -1.
         -1    1    1    2    0  501 -0.25578162808E+02 -0.15839004667E+02  0.56532627975E+03  0.56612623950E+03  0.00000000000E+00 0.  1.
</event>
<event>
 4    1  0.7060698E+001  0.3573578E+02  0.7546771E-02  0.1375463E+00
          2   -1    0    0  502    0  0.00000000000E+00  0.00000000000E+00  0.21227216147E+02  0.21227216147E+02  0.00000000000E+00 0.  1.
         -2   -1    0    0    0  501 -0.00000000000E+00 -0.00000000000E+00 -0.10394039225E+03  0.10394039225E+03  0.00000000000E+00 0. -1.
          1    1    1    2  502    0  0.13240075994E+02 -0.33192562427E+02 -0.81973392686E+02  0.89424174144E+02  0.00000000000E+00 0. -1.
         -1    1    1    2    0  501 -0.13240075994E+02  0.33192562427E+02 -0.73978341808E+00  0.35743434255E+02  0.00000000000E+00 0.  1.
</event>
<event>
 4    1  0.7060698E+001  0.2516713E+02  0.7546771E-02  0.1466942E+00
          2   -1    0    0  502    0  0.00000000000E+00  0.00000000000E+00  0.83712411102E+03  0.83712411102E+03  0.00000000000E+00 0.  1.
         -2   -1    0    0    0  501 -0.00000000000E+00 -0.00000000000E+00 -0.79948073510E+00  0.79948073510E+00  0.00000000000E+00 0. -1.
          1    1    1    2  502    0 -0.39036504481E+01  0.24862536446E+02  0.32115508620E+03  0.32213968026E+03  0.00000000000E+00 0. -1.
         -1    1    1    2    0  501  0.39036504481E+01 -0.24862536446E+02  0.51516954409E+03  0.51578391150E+03  0.00000000000E+00 0.  1.
</event>
<event>
 4    1  0.7060698E+001  0.2177566E+02  0.7546771E-02  0.1508472E+00
          2   -1    0    0  502    0  0.00000000000E+00  0.00000000000E+00  0.24240290148E+03  0.24240290148E+03  0.00000000000E+00 0. -1.
         -2   -1    0    0    0  501 -0.00000000000E+00 -0.00000000000E+00 -0.28521948457E+01  0.28521948457E+01  0.00000000000E+00 0.  1.
          1    1    1    2  502    0  0.55283655428E+01  0.21062205524E+02  0.51043123746E+02  0.55493961914E+02  0.00000000000E+00 0.  1.
         -1    1    1    2    0  501 -0.55283655428E+01 -0.21062205524E+02  0.18850758289E+03  0.18976113441E+03  0.00000000000E+00 0. -1.
</event>
<event>
 4    1  0.7060698E+001  0.3130281E+02  0.7546771E-02  0.1408603E+00
          2   -1    0    0  502    0  0.00000000000E+00  0.00000000000E+00  0.65777296498E+03  0.65777296498E+03  0.00000000000E+00 0.  1.
         -2   -1    0    0    0  501 -0.00000000000E+00 -0.00000000000E+00 -0.18693522830E+01  0.18693522830E+01  0.00000000000E+00 0. -1.
          1    1    1    2  502    0 -0.43852676373E+01 -0.30994122340E+02  0.17930972956E+03  0.18202155176E+03  0.00000000000E+00 0. -1.
         -1    1    1    2    0  501  0.43852676373E+01  0.30994122340E+02  0.47659388314E+03  0.47762076550E+03  0.00000000000E+00 0.  1.
</event>
<event>
 4    1  0.7060698E+001  0.4471328E+02  0.7546771E-02  0.1322879E+00
          2   -1    0    0  502    0  0.00000000000E+00  0.00000000000E+00  0.25384885859E+04  0.25384885859E+04  0.00000000000E+00 0.  1.
         -2   -1    0    0    0  501 -0.00000000000E+00 -0.00000000000E+00 -0.82223197122E+00  0.82223197122E+00  0.00000000000E+00 0. -1.
          1    1    1    2  502    0 -0.24244419770E+02  0.37569737922E+02  0.10082073430E+04  0.10091983569E+04  0.00000000000E+00 0. -1.
         -1    1    1    2    0  501  0.24244419770E+02 -0.37569737922E+02  0.15294590110E+04  0.15301124610E+04  0.00000000000E+00 0.  1.
</event>
<event>
 4    1  0.7060698E+001  0.2372723E+02  0.7546771E-02  0.1483563E+00
          2   -1    0    0  502    0  0.00000000000E+00  0.00000000000E+00  0.72610025634E+02  0.72610025634E+02  0.00000000000E+00 0.  1.
         -2   -1    0    0    0  501 -0.00000000000E+00 -0.00000000000E+00 -0.96542266550E+01  0.96542266550E+01  0.00000000000E+00 0. -1.
          1    1    1    2  502    0 -0.18567454650E+02 -0.14772651422E+02  0.13227069878E+02  0.27164995486E+02  0.00000000000E+00 0. -1.
         -1    1    1    2    0  501  0.18567454650E+02  0.14772651422E+02  0.49728729101E+02  0.55099256802E+02  0.00000000000E+00 0.  1.
</event>
<event>
 4    1  0.7060698E+001  0.7169585E+02  0.7546771E-02  0.1224560E+00
          2   -1    0    0  502    0  0.00000000000E+00  0.00000000000E+00  0.22265494981E+04  0.22265494981E+04  0.00000000000E+00 0.  1.
         -2   -1    0    0    0  501 -0.00000000000E+00 -0.00000000000E+00 -0.23170296450E+01  0.23170296450E+01  0.00000000000E+00 0. -1.
          1    1    1    2  502    0  0.71007062937E+02 -0.99142268781E+01  0.10450453721E+04  0.10475018494E+04  0.00000000000E+00 0. -1.
         -1    1    1    2    0  501 -0.71007062937E+02  0.99142268781E+01  0.11791870964E+04  0.11813646783E+04  0.00000000000E+00 0.  1.
</event>
<event>
 4    1  0.7060698E+001  0.6435858E+02  0.7546771E-02  0.1245702E+00
          2   -1    0    0  502    0  0.00000000000E+00  0.00000000000E+00  0.67935249039E+02  0.67935249039E+02  0.00000000000E+00 0. -1.
         -2   -1    0    0    0  501 -0.00000000000E+00 -0.00000000000E+00 -0.69093452834E+02  0.69093452834E+02  0.00000000000E+00 0.  1.
          1    1    1    2  502    0 -0.53563874365E+02 -0.35678265302E+02  0.22913303282E+02  0.68315786750E+02  0.00000000000E+00 0. -1.
         -1    1    1    2    0  501  0.53563874365E+02  0.35678265302E+02 -0.24071507077E+02  0.68712915124E+02  0.00000000000E+00 0.  1.
</event>
<event>
 4    1  0.7060698E+001  0.2814999E+02  0.7546771E-02  0.1436386E+00
          2   -1    0    0  502    0  0.00000000000E+00  0.00000000000E+00  0.20989804498E+01  0.20989804498E+01  0.00000000000E+00 0.  1.
         -2   -1    0    0    0  501 -0.00000000000E+00 -0.00000000000E+00 -0.40511288284E+03  0.40511288284E+03  0.00000000000E+00 0. -1.
          1    1    1    2  502    0  0.31333591486E+01 -0.27975056415E+02 -0.14837618117E+03  0.15102288852E+03  0.00000000000E+00 0.  1.
         -1    1    1    2    0  501 -0.31333591486E+01  0.27975056415E+02 -0.25463772123E+03  0.25618897477E+03  0.00000000000E+00 0. -1.
</event>
<event>
 4    1  0.7060698E+001  0.2722904E+02  0.7546771E-02  0.1445321E+00
          2   -1    0    0  502    0  0.00000000000E+00  0.00000000000E+00  0.39149006399E+03  0.39149006399E+03  0.00000000000E+00 0. -1.
         -2   -1    0    0    0  501 -0.00000000000E+00 -0.00000000000E+00 -0.32132068859E+01  0.32132068859E+01  0.00000000000E+00 0.  1.
          1    1    1    2  502    0  0.27006157993E+02  0.34767645273E+01  0.67678250481E+02  0.72950435566E+02  0.00000000000E+00 0.  1.
         -1    1    1    2    0  501 -0.27006157993E+02 -0.34767645273E+01  0.32059860663E+03  0.32175283531E+03  0.00000000000E+00 0. -1.
</event>
<event>
 4    1  0.7060698E+001  0.2026799E+02  0.7546771E-02  0.1529978E+00
          2   -1    0    0  502    0  0.00000000000E+00  0.00000000000E+00  0.20688170174E+02  0.20688170174E+02  0.00000000000E+00 0. -1.
         -2   -1    0    0    0  501 -0.00000000000E+00 -0.00000000000E+00 -0.19877722193E+02  0.19877722193E+02  0.00000000000E+00 0.  1.
          1    1    1    2  502    0 -0.20185623077E+02 -0.18253786940E+01  0.10704229317E+01  0.20296235898E+02  0.00000000000E+00 0. -1.
         -1    1    1    2    0  501  0.20185623077E+02  0.18253786940E+01 -0.25997495125E+00  0.20269656469E+02  0.00000000000E+00 0.  1.
</event>
<event>
 4    1  0.7060698E+001  0.3362148E+02  0.7546771E-02  0.1390522E+00
          2   -1    0    0  502    0  0.00000000000E+00  0.00000000000E+00  0.29687631891E+02  0.29687631891E+02  0.00000000000E+00 0. -1.
         -2   -1    0    0    0  501 -0.00000000000E+00 -0.00000000000E+00 -0.38857251223E+02  0.38857251223E+02  0.00000000000E+00 0.  1.
          1    1    1    2  502    0 -0.31047980594E+02  0.12900642151E+02 -0.94426299258E+01  0.34922298418E+02  0.00000000000E+00 0.  1.
         -1    1    1    2    0  501  0.31047980594E+02 -0.12900642151E+02  0.27301059335E+00  0.33622584696E+02  0.00000000000E+00 0. -1.
</event>
<event>
 4    1  0.7060698E+001  0.2081212E+02  0.7546771E-02  0.1521964E+00
          2   -1    0    0  502    0  0.00000000000E+00  0.00000000000E+00  0.10805223538E+03  0.10805223538E+03  0.00000000000E+00 0. -1.
         -2   -1    0    0    0  501 -0.00000000000E+00 -0.00000000000E+00 -0.43238801108E+01  0.43238801108E+01  0.00000000000E+00 0.  1.
          1    1    1    2  502    0  0.15661211376E+02  0.13706602596E+02  0.67035215351E+02  0.70191627660E+02  0.00000000000E+00 0. -1.
         -1    1    1    2    0  501 -0.15661211376E+02 -0.13706602596E+02  0.36693139923E+02  0.42184487835E+02  0.00000000000E+00 0.  1.
</event>
<event>
 4    1  0.7060698E+001  0.2174088E+02  0.7546771E-02  0.1508944E+00
          2   -1    0    0  502    0  0.00000000000E+00  0.00000000000E+00  0.21576250514E+04  0.21576250514E+04  0.00000000000E+00 0. -1.
         -2   -1    0    0    0  501 -0.00000000000E+00 -0.00000000000E+00 -0.21907108182E+00  0.21907108182E+00  0.00000000000E+00 0.  1.
          1    1    1    2  502    0 -0.21715351485E+02  0.10533617830E+01  0.10829118593E+04  0.10831300758E+04  0.00000000000E+00 0.  1.
         -1    1    1    2    0  501  0.21715351485E+02 -0.10533617830E+01  0.10744941210E+04  0.10747140467E+04  0.00000000000E+00 0. -1.
</event>
<event>
 4    1  0.7060698E+001  0.6621810E+02  0.7546771E-02  0.1240053E+00
          2   -1    0    0  502    0  0.00000000000E+00  0.00000000000E+00  0.31201805599E+02  0.31201805599E+02  0.00000000000E+00 0.  1.
         -2   -1    0    0    0  501 -0.00000000000E+00 -0.00000000000E+00 -0.15703358931E+03  0.15703358931E+03  0.00000000000E+00 0. -1.
          1    1    1    2  502    0  0.48947067951E+02 -0.44598441763E+02 -0.93426053827E+02  0.11451316083E+03  0.00000000000E+00 0. -1.
         -1    1    1    2    0  501 -0.48947067951E+02  0.44598441763E+02 -0.32405729882E+02  0.73722234081E+02  0.00000000000E+00 0.  1.
</event>
<event>
 4    1  0.7060698E+001  0.2435478E+02  0.7546771E-02  0.1476152E+00
          2   -1    0    0  502    0  0.00000000000E+00  0.00000000000E+00  0.14805656220E+02  0.14805656220E+02  0.00000000000E+00 0.  1.
         -2   -1    0    0    0  501 -0.00000000000E+00 -0.00000000000E+00 -0.41724058945E+02  0.41724058945E+02  0.00000000000E+00 0. -1.
          1    1    1    2  502    0 -0.18595297057E+02  0.15728009223E+02 -0.78192111752E+01  0.25579198779E+02  0.00000000000E+00 0.  1.
         -1    1    1    2    0  501  0.18595297057E+02 -0.15728009223E+02 -0.19099191550E+02  0.30950516387E+02  0.00000000000E+00 0. -1.
</event>
<event>
 4    1  0.7060698E+001  0.2576429E+02  0.7546771E-02  0.1460432E+00
          2   -1    0    0  502    0  0.00000000000E+00  0.00000000000E+00  0.11536710662E+02  0.11536710662E+02  0.00000000000E+00 0.  1.
         -2   -1    0    0    0  501 -0.00000000000E+00 -0.00000000000E+00 -0.66160032520E+02  0.66160032520E+02  0.00000000000E+00 0. -1.
          1    1    1    2  502    0  0.15255365732E+02  0.20762281253E+02 -0.41335968677E+02  0.48707913247E+02  0.00000000000E+00 0. -1.
         -1    1    1    2    0  501 -0.15255365732E+02 -0.20762281253E+02 -0.13287353181E+02  0.28988829935E+02  0.00000000000E+00 0.  1.
</event>
<event>
 4    1  0.7060698E+001  0.2136392E+02  0.7546771E-02  0.1514132E+00
          2   -1    0    0  502    0  0.00000000000E+00  0.00000000000E+00  0.80138726179E+01  0.80138726179E+01  0.00000000000E+00 0.  1.
         -2   -1    0    0    0  501 -0.00000000000E+00 -0.00000000000E+00 -0.94989774346E+02  0.94989774346E+02  0.00000000000E+00 0. -1.
          1    1    1    2  502    0 -0.86553324566E+01 -0.19532079710E+02 -0.76077923940E+02  0.79020677223E+02  0.00000000000E+00 0. -1.
         -1    1    1    2    0  501  0.86553324566E+01  0.19532079710E+02 -0.10897977788E+02  0.23982969741E+02  0.00000000000E+00 0.  1.
</event>
<event>
 4    1  0.7060698E+001  0.2115409E+02  0.7546771E-02  0.1517076E+00
          2   -1    0    0  502    0  0.00000000000E+00  0.00000000000E+00  0.13372713188E+02  0.13372713188E+02  0.00000000000E+00 0.  1.
         -2   -1    0    0    0  501 -0.00000000000E+00 -0.00000000000E+00 -0.51603734187E+02  0.51603734187E+02  0.00000000000E+00 0. -1.
          1    1    1    2  502    0 -0.16044910807E+02 -0.13786097226E+02  0.14681731607E+00  0.21154602215E+02  0.00000000000E+00 0. -1.
         -1    1    1    2    0  501  0.16044910807E+02  0.13786097226E+02 -0.38377838315E+02  0.43821845160E+02  0.00000000000E+00 0.  1.
</event>
<event>
 4    1  0.7060698E+001  0.2984516E+02  0.7546771E-02  0.1420947E+00
          2   -1    0    0  502    0  0.00000000000E+00  0.00000000000E+00  0.16700452441E+03  0.16700452441E+03  0.00000000000E+00 0. -1.
         -2   -1    0    0    0  501 -0.00000000000E+00 -0.00000000000E+00 -0.60528733656E+01  0.60528733656E+01  0.00000000000E+00 0.  1.
          1    1    1    2  502    0  0.29632194854E+02 -0.35590455040E+01  0.11030417201E+03  0.11427048673E+03  0.00000000000E+00 0. -1.
         -1    1    1    2    0  501 -0.29632194854E+02  0.35590455040E+01  0.50647479040E+02  0.58786911042E+02  0.00000000000E+00 0.  1.
</event>
<event>
 4    1  0.7060698E+001  0.2335976E+02  0.7546771E-02  0.1488029E+00
          2   -1    0    0  502    0  0.00000000000E+00  0.00000000000E+00  0.12216709116E+02  0.12216709116E+02  0.00000000000E+00 0.  1.
         -2   -1    0    0    0  501 -0.00000000000E+00 -0.00000000000E+00 -0.45112475478E+02  0.45112475478E+02  0.00000000000E+00 0. -1.
          1    1    1    2  502    0 -0.23332101561E+02  0.11364693301E+01 -0.19297703851E+02  0.30299833328E+02  0.00000000000E+00 0.  1.
         -1    1    1    2    0  501  0.23332101561E+02 -0.11364693301E+01 -0.13598062511E+02  0.27029351265E+02  0.00000000000E+00 0. -1.
</event>
<event>
 4    1  0.7060698E+001  0.3452848E+02  0.7546771E-02  0.1383909E+00
          2   -1    0    0  502    0  0.00000000000E+00  0.00000000000E+00  0.21513489107E+04  0.21513489107E+04  0.00000000000E+00 0. -1.
         -2   -1    0    0    0  501 -0.00000000000E+00 -0.00000000000E+00 -0.64742960786E+00  0.64742960786E+00  0.00000000000E+00 0.  1.
          1    1    1    2  502    0  0.10793748532E+02 -0.32798037226E+02  0.14837251825E+04  0.14841268926E+04  0.00000000000E+00 0. -1.
         -1    1    1    2    0  501 -0.10793748532E+02  0.32798037226E+02  0.66697629864E+03  0.66786944772E+03  0.00000000000E+00 0.  1.
</event>
<event>
 4    1  0.7060698E+001  0.2361225E+02  0.7546771E-02  0.1484950E+00
          2   -1    0    0  502    0  0.00000000000E+00  0.00000000000E+00  0.52809902757E+01  0.52809902757E+01  0.00000000000E+00 0. -1.
         -2   -1    0    0    0  501 -0.00000000000E+00 -0.00000000000E+00 -0.12846656708E+03  0.12846656708E+03  0.00000000000E+00 0.  1.
          1    1    1    2  502    0  0.23577839326E+02  0.12742965848E+01 -0.33363330754E+02  0.40873587781E+02  0.00000000000E+00 0. -1.
         -1    1    1    2    0  501 -0.23577839326E+02 -0.12742965848E+01 -0.89822246047E+02  0.92873969572E+02  0.00000000000E+00 0.  1.
</event>
<event>
 4    1  0.7060698E+001  0.2017029E+02  0.7546771E-02  0.1531448E+00
          2   -1    0    0  502    0  0.00000000000E+00  0.00000000000E+00  0.37367664758E+01  0.37367664758E+01  0.00000000000E+00 0. -1.
         -2   -1    0    0    0  501 -0.00000000000E+00 -0.00000000000E+00 -0.14514991566E+03  0.14514991566E+03  0.00000000000E+00 0.  1.
          1    1    1    2  502    0  0.20149512304E+02 -0.91527727580E+00 -0.33491365604E+02  0.39096190973E+02  0.00000000000E+00 0. -1.
         -1    1    1    2    0  501 -0.20149512304E+02  0.91527727580E+00 -0.10792178358E+03  0.10979049116E+03  0.00000000000E+00 0.  1.
</event>
<event>
 4    1  0.7060698E+001  0.2519343E+02  0.7546771E-02  0.1466651E+00
          2   -1    0    0  502    0  0.00000000000E+00  0.00000000000E+00  0.12409541696E+01  0.12409541696E+01  0.00000000000E+00 0.  1.
         -2   -1    0    0    0  501 -0.00000000000E+00 -0.00000000000E+00 -0.54754952584E+03  0.54754952584E+03  0.00000000000E+00 0. -1.
          1    1    1    2  502    0  0.16633180950E+02  0.18922114484E+02 -0.20271684887E+03  0.20427635678E+03  0.00000000000E+00 0.  1.
         -1    1    1    2    0  501 -0.16633180950E+02 -0.18922114484E+02 -0.34359172281E+03  0.34451412323E+03  0.00000000000E+00 0. -1.
</event>
<event>
 4    1  0.7060698E+001  0.2996835E+02  0.7546771E-02  0.1419872E+00
          2   -1    0    0  502    0  0.00000000000E+00  0.00000000000E+00  0.28811520567E+02  0.28811520567E+02  0.00000000000E+00 0. -1.
         -2   -1    0    0    0  501 -0.00000000000E+00 -0.00000000000E+00 -0.42421304746E+02  0.42421304746E+02  0.00000000000E+00 0.  1.
          1    1    1    2  502    0  0.29890311599E+02 -0.21612782761E+01 -0.25146114854E+02  0.39120697125E+02  0.00000000000E+00 0.  1.
         -1    1    1    2    0  501 -0.29890311599E+02  0.21612782761E+01  0.11536330675E+02  0.32112128188E+02  0.00000000000E+00 0. -1.
</event>
<event>
 4    1  0.7060698E+001  0.2232224E+02  0.7546771E-02  0.1501189E+00
          2   -1    0    0  502    0  0.00000000000E+00  0.00000000000E+00  0.14203032002E+03  0.14203032002E+03  0.00000000000E+00 0. -1.
         -2   -1    0    0    0  501 -0.00000000000E+00 -0.00000000000E+00 -0.36815780474E+01  0.36815780474E+01  0.00000000000E+00 0.  1.
          1    1    1    2  502    0  0.17751935422E+02  0.13533336338E+02  0.84981115878E+02  0.87863942886E+02  0.00000000000E+00 0. -1.
         -1    1    1    2    0  501 -0.17751935422E+02 -0.13533336338E+02  0.53367626096E+02  0.57847955182E+02  0.00000000000E+00 0.  1.
</event>
<event>
 4    1  0.7060698E+001  0.2196517E+02  0.7546771E-02  0.1505918E+00
          2   -1    0    0  502    0  0.00000000000E+00  0.00000000000E+00  0.61881239689E+02  0.61881239689E+02  0.00000000000E+00 0.  1.
         -2   -1    0    0    0  501 -0.00000000000E+00 -0.00000000000E+00 -0.10168394504E+02  0.10168394504E+02  0.00000000000E+00 0. -1.
          1    1    1    2  502    0 -0.16157846106E+02  0.14879277634E+02  0.84581630786E+01  0.23537404623E+02  0.00000000000E+00 0. -1.
         -1    1    1    2    0  501  0.16157846106E+02 -0.14879277634E+02  0.43254682106E+02  0.48512229570E+02  0.00000000000E+00 0.  1.
</event>
<event>
 4    1  0.7060698E+001  0.2078626E+02  0.7546771E-02  0.1522339E+00
          2   -1    0    0  502    0  0.00000000000E+00  0.00000000000E+00  0.10357645838E+04  0.10357645838E+04  0.00000000000E+00 0.  1.
         -2   -1    0    0    0  501 -0.00000000000E+00 -0.00000000000E+00 -0.62188271529E+00  0.62188271529E+00  0.00000000000E+00 0. -1.
          1    1    1    2  502    0  0.20641921675E+02 -0.24453344502E+01  0.22024613850E+03  0.22122484063E+03  0.00000000000E+00 0. -1.
         -1    1    1    2    0  501 -0.20641921675E+02  0.24453344502E+01  0.81489656263E+03  0.81516162592E+03  0.00000000000E+00 0.  1.
</event>
<event>
 4    1  0.7060698E+001  0.2290890E+02  0.7546771E-02  0.1493645E+00
          2   -1    0    0  502    0  0.00000000000E+00  0.00000000000E+00  0.41692097398E+02  0.41692097398E+02  0.00000000000E+00 0.  1.
         -2   -1    0    0    0  501 -0.00000000000E+00 -0.00000000000E+00 -0.15872149913E+02  0.15872149913E+02  0.00000000000E+00 0. -1.
          1    1    1    2  502    0 -0.86630898285E+01  0.21207749966E+02 -0.18245295058E+00  0.22909628392E+02  0.00000000000E+00 0. -1.
         -1    1    1    2    0  501  0.86630898285E+01 -0.21207749966E+02  0.26002400435E+02  0.34654618919E+02  0.00000000000E+00 0.  1.
</event>
<event>
 4    1  0.7060698E+001  0.2172243E+02  0.7546771E-02  0.1509195E+00
          2   -1    0    0  502    0  0.00000000000E+00  0.00000000000E+00  0.16462868206E+04  0.16462868206E+04  0.00000000000E+00 0. -1.
         -2   -1    0    0    0  501 -0.00000000000E+00 -0.00000000000E+00 -0.42271380399E+00  0.42271380399E+00  0.00000000000E+00 0.  1.
          1    1    1    2  502    0 -0.21694469739E+02  0.11018116386E+01  0.35575892882E+03  0.35642149127E+03  0.00000000000E+00 0.  1.
         -1    1    1    2    0  501  0.21694469739E+02 -0.11018116386E+01  0.12901051780E+04  0.12902880431E+04  0.00000000000E+00 0. -1.
</event>
<event>
 4    1  0.7060698E+001  0.2125141E+02  0.7546771E-02  0.1515705E+00
          2   -1    0    0  502    0  0.00000000000E+00  0.00000000000E+00  0.16131984025E+04  0.16131984025E+04  0.00000000000E+00 0. -1.
         -2   -1    0    0    0  501 -0.00000000000E+00 -0.00000000000E+00 -0.31129897338E+00  0.31129897338E+00  0.00000000000E+00 0.  1.
          1    1    1    2  502    0  0.66293191186E+01 -0.20190957108E+02  0.10624383951E+04  0.10626509144E+04  0.00000000000E+00 0. -1.
         -1    1    1    2    0  501 -0.66293191186E+01  0.20190957108E+02  0.55044870850E+03  0.55085878709E+03  0.00000000000E+00 0.  1.
</event>
<event>
 4    1  0.7060698E+001  0.5924491E+02  0.7546771E-02  0.1262420E+00
          2   -1    0    0  502    0  0.00000000000E+00  0.00000000000E+00  0.56316946987E+03  0.56316946987E+03  0.00000000000E+00 0.  1.
         -2   -1    0    0    0  501 -0.00000000000E+00 -0.00000000000E+00 -0.16116481910E+02  0.16116481910E+02  0.00000000000E+00 0. -1.
          1    1    1    2  502    0  0.56678262000E+02 -0.17249165016E+02  0.46700072925E+02  0.75437761687E+02  0.00000000000E+00 0. -1.
         -1    1    1    2    0  501 -0.56678262000E+02  0.17249165016E+02  0.50035291503E+03  0.50384819009E+03  0.00000000000E+00 0.  1.
</event>
<event>
 4    1  0.7060698E+001  0.2674596E+02  0.7546771E-02  0.1450177E+00
          2   -1    0    0  502    0  0.00000000000E+00  0.00000000000E+00  0.54168530787E+02  0.54168530787E+02  0.00000000000E+00 0.  1.
         -2   -1    0    0    0  501 -0.00000000000E+00 -0.00000000000E+00 -0.13310861609E+02  0.13310861609E+02  0.00000000000E+00 0. -1.
          1    1    1    2  502    0  0.23171209912E+02 -0.13358192567E+02  0.23424366801E+02  0.35553441992E+02  0.00000000000E+00 0.  1.
         -1    1    1    2    0  501 -0.23171209912E+02  0.13358192567E+02  0.17433302376E+02  0.31925950404E+02  0.00000000000E+00 0. -1.
</event>
<event>
 4    1  0.7060698E+001  0.2083702E+02  0.7546771E-02  0.1521605E+00
          2   -1    0    0  502    0  0.00000000000E+00  0.00000000000E+00  0.11997866546E+03  0.11997866546E+03  0.00000000000E+00 0. -1.
         -2   -1    0    0    0  501 -0.00000000000E+00 -0.00000000000E+00 -0.38571371773E+01  0.38571371773E+01  0.00000000000E+00 0.  1.
          1    1    1    2  502    0 -0.11895266489E+02  0.17108009353E+02  0.42669999984E+02  0.47485895248E+02  0.00000000000E+00 0. -1.
         -1    1    1    2    0  501  0.11895266489E+02 -0.17108009353E+02  0.73451528296E+02  0.76349907386E+02  0.00000000000E+00 0.  1.
</event>
<event>
 4    1  0.7060698E+001  0.2460022E+02  0.7546771E-02  0.1473326E+00
          2   -1    0    0  502    0  0.00000000000E+00  0.00000000000E+00  0.18374459935E+04  0.18374459935E+04  0.00000000000E+00 0.  1.
         -2   -1    0    0    0  501 -0.00000000000E+00 -0.00000000000E+00 -0.34569588427E+00  0.34569588427E+00  0.00000000000E+00 0. -1.
          1    1    1    2  502    0 -0.17856112750E+02  0.16921295279E+02  0.71876444858E+03  0.71918530543E+03  0.00000000000E+00 0. -1.
         -1    1    1    2    0  501  0.17856112750E+02 -0.16921295279E+02  0.11183358491E+04  0.11186063840E+04  0.00000000000E+00 0.  1.
</event>
<event>
 4    1  0.7060698E+001  0.2652209E+02  0.7546771E-02  0.1452469E+00
          2   -1    0    0  502    0  0.00000000000E+00  0.00000000000E+00  0.15913668137E+04  0.15913668137E+04  0.00000000000E+00 0.  1.
         -2   -1    0    0    0  501 -0.00000000000E+00 -0.00000000000E+00 -0.92904775305E+00  0.92904775305E+00  0.00000000000E+00 0. -1.
          1    1    1    2  502    0 -0.22333915778E+02  0.14304460195E+02  0.13716535471E+04  0.13719099368E+04  0.00000000000E+00 0.  1.
         -1    1    1    2    0  501  0.22333915778E+02 -0.14304460195E+02  0.21878421879E+03  0.22038592461E+03  0.00000000000E+00 0. -1.
</event>
<event>
 4    1  0.7060698E+001  0.3105572E+02  0.7546771E-02  0.1410639E+00
          2   -1    0    0  502    0  0.00000000000E+00  0.00000000000E+00  0.94774401623E+03  0.94774401623E+03  0.00000000000E+00 0. -1.
         -2   -1    0    0    0  501 -0.00000000000E+00 -0.00000000000E+00 -0.10477127656E+01  0.10477127656E+01  0.00000000000E+00 0.  1.
          1    1    1    2  502    0  0.30305095735E+02 -0.67866830995E+01  0.55372656253E+03  0.55459675796E+03  0.00000000000E+00 0.  1.
         -1    1    1    2    0  501 -0.30305095735E+02  0.67866830995E+01  0.39296974094E+03  0.39419497103E+03  0.00000000000E+00 0. -1.
</event>
<event>
 4    1  0.7060698E+001  0.3491903E+02  0.7546771E-02  0.1381133E+00
          2   -1    0    0  502    0  0.00000000000E+00  0.00000000000E+00  0.64283876731E+03  0.64283876731E+03  0.00000000000E+00 0. -1.
         -2   -1    0    0    0  501 -0.00000000000E+00 -0.00000000000E+00 -0.19108881413E+01  0.19108881413E+01  0.00000000000E+00 0.  1.
          1    1    1    2  502    0  0.10779474754E+02  0.33213578989E+02  0.34814064757E+03  0.34988748105E+03  0.00000000000E+00 0.  1.
         -1    1    1    2    0  501 -0.10779474754E+02 -0.33213578989E+02  0.29278723160E+03  0.29486217440E+03  0.00000000000E+00 0. -1.
</event>
<event>
 4    1  0.7060698E+001  0.3774878E+02  0.7546771E-02  0.1362208E+00
          2   -1    0    0  502    0  0.00000000000E+00  0.00000000000E+00  0.32339667368E+01  0.32339667368E+01  0.00000000000E+00 0. -1.
         -2   -1    0    0    0  501 -0.00000000000E+00 -0.00000000000E+00 -0.44523311148E+03  0.44523311148E+03  0.00000000000E+00 0.  1.
          1    1    1    2  502    0  0.33330237758E+02 -0.17721904953E+02 -0.19819042727E+03  0.20175335469E+03  0.00000000000E+00 0. -1.
         -1    1    1    2    0  501 -0.33330237758E+02  0.17721904953E+02 -0.24380871747E+03  0.24671372353E+03  0.00000000000E+00 0.  1.
</event>
<event>
 4    1  0.7060698E+001  0.2041859E+02  0.7546771E-02  0.1527730E+00
          2   -1    0    0  502    0  0.00000000000E+00  0.00000000000E+00  0.34440890016E+02  0.34440890016E+02  0.00000000000E+00 0.  1.
         -2   -1    0    0    0  501 -0.00000000000E+00 -0.00000000000E+00 -0.18858830899E+02  0.18858830899E+02  0.00000000000E+00 0. -1.
          1    1    1    2  502    0  0.17679330178E+02 -0.10215680881E+02 -0.81567990230E+01  0.21987546969E+02  0.00000000000E+00 0. -1.
         -1    1    1    2    0  501 -0.17679330178E+02  0.10215680881E+02  0.23738858140E+02  0.31312173946E+02  0.00000000000E+00 0.  1.
</event>
<event>
 4    1  0.7060698E+001  0.2700205E+02  0.7546771E-02  0.1447588E+00
          2   -1    0    0  502    0  0.00000000000E+00  0.00000000000E+00  0.15907080402E+03  0.15907080402E+03  0.00000000000E+00 0.  1.
         -2   -1    0    0    0  501 -0.00000000000E+00 -0.00000000000E+00 -0.45867456905E+01  0.45867456905E+01  0.00000000000E+00 0. -1.
          1    1    1    2  502    0 -0.12235285190E+02  0.24070906885E+02  0.75085898072E+02  0.79793501309E+02  0.00000000000E+00 0. -1.
         -1    1    1    2    0  501  0.12235285190E+02 -0.24070906885E+02  0.79398160256E+02  0.83864048399E+02  0.00000000000E+00 0.  1.
</event>
<event>
 4    1  0.7060698E+001  0.3141898E+02  0.7546771E-02  0.1407654E+00
          2   -1    0    0  502    0  0.00000000000E+00  0.00000000000E+00  0.15059100556E+04  0.15059100556E+04  0.00000000000E+00 0.  1.
         -2   -1    0    0    0  501 -0.00000000000E+00 -0.00000000000E+00 -0.80534562442E+00  0.80534562442E+00  0.00000000000E+00 0. -1.
          1    1    1    2  502    0 -0.28273185695E+02  0.13703251602E+02  0.10774937780E+04  0.10779517586E+04  0.00000000000E+00 0.  1.
         -1    1    1    2    0  501  0.28273185695E+02 -0.13703251602E+02  0.42761093198E+03  0.42876364268E+03  0.00000000000E+00 0. -1.
</event>
<event>
 4    1  0.7060698E+001  0.2174387E+02  0.7546771E-02  0.1508904E+00
          2   -1    0    0  502    0  0.00000000000E+00  0.00000000000E+00  0.66601391791E+03  0.66601391791E+03  0.00000000000E+00 0.  1.
         -2   -1    0    0    0  501 -0.00000000000E+00 -0.00000000000E+00 -0.13059403652E+01  0.13059403652E+01  0.00000000000E+00 0. -1.
          1    1    1    2  502    0 -0.12446802568E+01  0.21708214440E+02  0.55776976432E+03  0.55819343044E+03  0.00000000000E+00 0.  1.
         -1    1    1    2    0  501  0.12446802568E+01 -0.21708214440E+02  0.10693821323E+03  0.10912642783E+03  0.00000000000E+00 0. -1.
</event>
<event>
 4    1  0.7060698E+001  0.3340827E+02  0.7546771E-02  0.1392113E+00
          2   -1    0    0  502    0  0.00000000000E+00  0.00000000000E+00  0.13820773689E+04  0.13820773689E+04  0.00000000000E+00 0. -1.
         -2   -1    0    0    0  501 -0.00000000000E+00 -0.00000000000E+00 -0.39563838505E+01  0.39563838505E+01  0.00000000000E+00 0.  1.
          1    1    1    2  502    0 -0.23553157744E+02  0.23693062966E+02  0.70804007863E+02  0.78289973828E+02  0.00000000000E+00 0.  1.
         -1    1    1    2    0  501  0.23553157744E+02 -0.23693062966E+02  0.13073169772E+04  0.13077437789E+04  0.00000000000E+00 0. -1.
</event>
<event>
 4    1  0.7060698E+001  0.2204691E+02  0.7546771E-02  0.1504826E+00
          2   -1    0    0  502    0  0.00000000000E+00  0.00000000000E+00  0.69252735561E+03  0.69252735561E+03  0.00000000000E+00 0. -1.
         -2   -1    0    0    0  501 -0.00000000000E+00 -0.00000000000E+00 -0.10105228717E+01  0.10105228717E+01  0.00000000000E+00 0.  1.
          1    1    1    2  502    0  0.12575990241E+02  0.18108306334E+02  0.53740457994E+03  0.53785662479E+03  0.00000000000E+00 0. -1.
         -1    1    1    2    0  501 -0.12575990241E+02 -0.18108306334E+02  0.15411225280E+03  0.15568125369E+03  0.00000000000E+00 0.  1.
</event>
<event>
 4    1  0.7060698E+001  0.3172908E+02  0.7546771E-02  0.1405143E+00
          2   -1    0    0  502    0  0.00000000000E+00  0.00000000000E+00  0.40009481976E+01  0.40009481976E+01  0.00000000000E+00 0.  1.
         -2   -1    0    0    0  501 -0.00000000000E+00 -0.00000000000E+00 -0.26722237364E+03  0.26722237364E+03  0.00000000000E+00 0. -1.
          1    1    1    2  502    0  0.44196250987E+01 -0.31419761383E+02 -0.98846432881E+02  0.10381402499E+03  0.00000000000E+00 0.  1.
         -1    1    1    2    0  501 -0.44196250987E+01  0.31419761383E+02 -0.16437499256E+03  0.16740929685E+03  0.00000000000E+00 0. -1.
</event>
<event>
 4    1  0.7060698E+001  0.2209474E+02  0.7546771E-02  0.1504190E+00
          2   -1    0    0  502    0  0.00000000000E+00  0.00000000000E+00  0.26584620571E+01  0.26584620571E+01  0.00000000000E+00 0. -1.
         -2   -1    0    0    0  501 -0.00000000000E+00 -0.00000000000E+00 -0.40883965276E+03  0.40883965276E+03  0.00000000000E+00 0.  1.
          1    1    1    2  502    0 -0.48039894201E+01 -0.21566157216E+02 -0.35579563688E+03  0.35648101306E+03  0.00000000000E+00 0.  1.
         -1    1    1    2    0  501  0.48039894201E+01  0.21566157216E+02 -0.50385553822E+02  0.55017101753E+02  0.00000000000E+00 0. -1.
</event>
<event>
 4    1  0.7060698E+001  0.2052261E+02  0.7546771E-02  0.1526191E+00
          2   -1    0    0  502    0  0.00000000000E+00  0.00000000000E+00  0.42812012783E+02  0.42812012783E+02  0.00000000000E+00 0.  1.
         -2   -1    0    0    0  501 -0.00000000000E+00 -0.00000000000E+00 -0.10138196248E+02  0.10138196248E+02  0.00000000000E+00 0. -1.
          1    1    1    2  502    0 -0.15224512661E+01  0.20466065212E+02  0.20893881680E+02  0.29287061559E+02  0.00000000000E+00 0.  1.
         -1    1    1    2    0  501  0.15224512661E+01 -0.20466065212E+02  0.11779934855E+02  0.23663147472E+02  0.00000000000E+00 0. -1.
</event>
<event>
 4    1  0.7060698E+001  0.2150461E+02  0.7546771E-02  0.1512181E+00
          2   -1    0    0  502    0  0.00000000000E+00  0.00000000000E+00  0.16114878038E+04  0.16114878038E+04  0.00000000000E+00 0. -1.
         -2   -1    0    0    0  501 -0.00000000000E+00 -0.00000000000E+00 -0.28931703656E+00  0.28931703656E+00  0.00000000000E+00 0.  1.
          1    1    1    2  502    0 -0.14224146684E+02  0.16128301645E+02  0.73301222644E+03  0.73332760249E+03  0.00000000000E+00 0.  1.
         -1    1    1    2    0  501  0.14224146684E+02 -0.16128301645E+02  0.87818626028E+03  0.87844951830E+03  0.00000000000E+00 0. -1.
</event>
<event>
 4    1  0.7060698E+001  0.2410556E+02  0.7546771E-02  0.1479063E+00
          2   -1    0    0  502    0  0.00000000000E+00  0.00000000000E+00  0.46727113102E+02  0.46727113102E+02  0.00000000000E+00 0. -1.
         -2   -1    0    0    0  501 -0.00000000000E+00 -0.00000000000E+00 -0.12952966624E+02  0.12952966624E+02  0.00000000000E+00 0.  1.
          1    1    1    2  502    0 -0.15074605442E+02 -0.18810477373E+02  0.10923163791E+02  0.26464944652E+02  0.00000000000E+00 0.  1.
         -1    1    1    2    0  501  0.15074605442E+02  0.18810477373E+02  0.22850982688E+02  0.33215135074E+02  0.00000000000E+00 0. -1.
</event>
<event>
 4    1  0.7060698E+001  0.2150794E+02  0.7546771E-02  0.1512135E+00
          2   -1    0    0  502    0  0.00000000000E+00  0.00000000000E+00  0.90999455671E+03  0.90999455671E+03  0.00000000000E+00 0. -1.
         -2   -1    0    0    0  501 -0.00000000000E+00 -0.00000000000E+00 -0.70970500131E+00  0.70970500131E+00  0.00000000000E+00 0.  1.
          1    1    1    2  502    0 -0.17240214081E+02  0.12859485455E+02  0.69718883410E+03  0.69752050991E+03  0.00000000000E+00 0. -1.
         -1    1    1    2    0  501  0.17240214081E+02 -0.12859485455E+02  0.21209601761E+03  0.21318375180E+03  0.00000000000E+00 0.  1.
</event>
<event>
 4    1  0.7060698E+001  0.2624009E+02  0.7546771E-02  0.1455395E+00
          2   -1    0    0  502    0  0.00000000000E+00  0.00000000000E+00  0.10169078872E+03  0.10169078872E+03  0.00000000000E+00 0.  1.
         -2   -1    0    0    0  501 -0.00000000000E+00 -0.00000000000E+00 -0.12081456268E+02  0.12081456268E+02  0.00000000000E+00 0. -1.
          1    1    1    2  502    0 -0.58437056056E+00  0.26233582476E+02  0.82519744796E+02  0.86591284895E+02  0.00000000000E+00 0.  1.
         -1    1    1    2    0  501  0.58437056056E+00 -0.26233582476E+02  0.70895876578E+01  0.27180960095E+02  0.00000000000E+00 0. -1.
</event>
<event>
 4    1  0.7060698E+001  0.2345443E+02  0.7546771E-02  0.1486869E+00
          2   -1    0    0  502    0  0.00000000000E+00  0.00000000000E+00  0.76576229190E+03  0.76576229190E+03  0.00000000000E+00 0.  1.
         -2   -1    0    0    0  501 -0.00000000000E+00 -0.00000000000E+00 -0.78014522852E+00  0.78014522852E+00  0.00000000000E+00 0. -1.
          1    1    1    2  502    0  0.13067790884E+02  0.19476738212E+02  0.27465091399E+03  0.27565056692E+03  0.00000000000E+00 0. -1.
         -1    1    1    2    0  501 -0.13067790884E+02 -0.19476738212E+02  0.49033123269E+03  0.49089187021E+03  0.00000000000E+00 0.  1.
</event>
<event>
 4    1  0.7060698E+001  0.2626158E+02  0.7546771E-02  0.1455170E+00
          2   -1    0    0  502    0  0.00000000000E+00  0.00000000000E+00  0.14784397695E+04  0.14784397695E+04  0.00000000000E+00 0. -1.
         -2   -1    0    0    0  501 -0.00000000000E+00 -0.00000000000E+00 -0.46795011110E+00  0.46795011110E+00  0.00000000000E+00 0.  1.
          1    1    1    2  502    0  0.25890680344E+02  0.43980712366E+01  0.69761375469E+03  0.69810788643E+03  0.00000000000E+00 0.  1.
         -1    1    1    2    0  501 -0.25890680344E+02 -0.43980712366E+01  0.78035806473E+03  0.78079983322E+03  0.00000000000E+00 0. -1.
</event>
<event>
 4    1  0.7060698E+001  0.3311017E+02  0.7546771E-02  0.1394359E+00
          2   -1    0    0  502    0  0.00000000000E+00  0.00000000000E+00  0.10277787479E+04  0.10277787479E+04  0.00000000000E+00 0. -1.
         -2   -1    0    0    0  501 -0.00000000000E+00 -0.00000000000E+00 -0.14483342898E+01  0.14483342898E+01  0.00000000000E+00 0.  1.
          1    1    1    2  502    0  0.33019143492E+02 -0.24534109328E+01  0.24898677243E+03  0.25117861355E+03  0.00000000000E+00 0.  1.
         -1    1    1    2    0  501 -0.33019143492E+02  0.24534109328E+01  0.77734364121E+03  0.77804846866E+03  0.00000000000E+00 0. -1.
</event>
<event>
 4    1  0.7060698E+001  0.2111273E+02  0.7546771E-02  0.1517661E+00
          2   -1    0    0  502    0  0.00000000000E+00  0.00000000000E+00  0.33254351278E+02  0.33254351278E+02  0.00000000000E+00 0. -1.
         -2   -1    0    0    0  501 -0.00000000000E+00 -0.00000000000E+00 -0.14246111860E+02  0.14246111860E+02  0.00000000000E+00 0.  1.
          1    1    1    2  502    0 -0.10010729552E+02  0.18588508788E+02  0.15277866319E+02  0.26060709207E+02  0.00000000000E+00 0. -1.
         -1    1    1    2    0  501  0.10010729552E+02 -0.18588508788E+02  0.37303730984E+01  0.21439753930E+02  0.00000000000E+00 0.  1.
</event>
<event>
 4    1  0.7060698E+001  0.2954726E+02  0.7546771E-02  0.1423572E+00
          2   -1    0    0  502    0  0.00000000000E+00  0.00000000000E+00  0.81605757620E+03  0.81605757620E+03  0.00000000000E+00 0.  1.
         -2   -1    0    0    0  501 -0.00000000000E+00 -0.00000000000E+00 -0.12156440901E+01  0.12156440901E+01  0.00000000000E+00 0. -1.
          1    1    1    2  502    0  0.11608627182E+02  0.27171310773E+02  0.54894767275E+03  0.54974229214E+03  0.00000000000E+00 0.  1.
         -1    1    1    2    0  501 -0.11608627182E+02 -0.27171310773E+02  0.26589425936E+03  0.26753092815E+03  0.00000000000E+00 0. -1.
</event>
<event>
 4    1  0.7060698E+001  0.2610238E+02  0.7546771E-02  0.1456839E+00
          2   -1    0    0  502    0  0.00000000000E+00  0.00000000000E+00  0.68925140417E+02  0.68925140417E+02  0.00000000000E+00 0.  1.
         -2   -1    0    0    0  501 -0.00000000000E+00 -0.00000000000E+00 -0.16864890499E+02  0.16864890499E+02  0.00000000000E+00 0. -1.
          1    1    1    2  502    0  0.17478880042E+02 -0.19386150331E+02 -0.15651853129E+01  0.26149261505E+02  0.00000000000E+00 0. -1.
         -1    1    1    2    0  501 -0.17478880042E+02  0.19386150331E+02  0.53625435231E+02  0.59640769411E+02  0.00000000000E+00 0.  1.
</event>
<event>
 4    1  0.7060698E+001  0.2783384E+02  0.7546771E-02  0.1439407E+00
          2   -1    0    0  502    0  0.00000000000E+00  0.00000000000E+00  0.18560062222E+02  0.18560062222E+02  0.00000000000E+00 0. -1.
         -2   -1    0    0    0  501 -0.00000000000E+00 -0.00000000000E+00 -0.44245762509E+02  0.44245762509E+02  0.00000000000E+00 0.  1.
          1    1    1    2  502    0  0.27054972583E+02  0.65384424042E+01 -0.20313934951E+02  0.34458362175E+02  0.00000000000E+00 0.  1.
         -1    1    1    2    0  501 -0.27054972583E+02 -0.65384424042E+01 -0.53717653365E+01  0.28347462556E+02  0.00000000000E+00 0. -1.
</event>
<event>
 4    1  0.7060698E+001  0.2699047E+02  0.7546771E-02  0.1447704E+00
          2   -1    0    0  502    0  0.00000000000E+00  0.00000000000E+00  0.12089533097E+04  0.12089533097E+04  0.00000000000E+00 0. -1.
         -2   -1    0    0    0  501 -0.00000000000E+00 -0.00000000000E+00 -0.75166686127E+00  0.75166686127E+00  0.00000000000E+00 0.  1.
          1    1    1    2  502    0 -0.23488352041E+01 -0.26888075975E+02  0.87347936213E+03  0.87389626485E+03  0.00000000000E+00 0. -1.
         -1    1    1    2    0  501  0.23488352041E+01  0.26888075975E+02  0.33472228067E+03  0.33580871167E+03  0.00000000000E+00 0.  1.
</event>
<event>
 4    1  0.7060698E+001  0.6469289E+02  0.7546771E-02  0.1244670E+00
          2   -1    0    0  502    0  0.00000000000E+00  0.00000000000E+00  0.54488882624E+03  0.54488882624E+03  0.00000000000E+00 0. -1.
         -2   -1    0    0    0  501 -0.00000000000E+00 -0.00000000000E+00 -0.89909683730E+01  0.89909683730E+01  0.00000000000E+00 0.  1.
          1    1    1    2  502    0 -0.36310877406E+02 -0.53541484702E+02  0.37366704244E+03  0.37922582850E+03  0.00000000000E+00 0. -1.
         -1    1    1    2    0  501  0.36310877406E+02  0.53541484702E+02  0.16223081543E+03  0.17465396611E+03  0.00000000000E+00 0.  1.
</event>
<event>
 4    1  0.7060698E+001  0.2562484E+02  0.7546771E-02  0.1461933E+00
          2   -1    0    0  502    0  0.00000000000E+00  0.00000000000E+00  0.21892899983E+04  0.21892899983E+04  0.00000000000E+00 0.  1.
         -2   -1    0    0    0  501 -0.00000000000E+00 -0.00000000000E+00 -0.34853186803E+00  0.34853186803E+00  0.00000000000E+00 0. -1.
          1    1    1    2  502    0 -0.16988535004E+02  0.19183898070E+02  0.15033082014E+04  0.15035265813E+04  0.00000000000E+00 0.  1.
         -1    1    1    2    0  501  0.16988535004E+02 -0.19183898070E+02  0.68563326504E+03  0.68611194888E+03  0.00000000000E+00 0. -1.
</event>
<event>
 4    1  0.7060698E+001  0.2706179E+02  0.7546771E-02  0.1446988E+00
          2   -1    0    0  502    0  0.00000000000E+00  0.00000000000E+00  0.63480560575E+00  0.63480560575E+00  0.00000000000E+00 0.  1.
         -2   -1    0    0    0  501 -0.00000000000E+00 -0.00000000000E+00 -0.11605237185E+04  0.11605237185E+04  0.00000000000E+00 0. -1.
          1    1    1    2  502    0 -0.15774699421E+02 -0.21988623540E+02 -0.62464045906E+03  0.62522639404E+03  0.00000000000E+00 0.  1.
         -1    1    1    2    0  501  0.15774699421E+02  0.21988623540E+02 -0.53524845380E+03  0.53593213003E+03  0.00000000000E+00 0. -1.
</event>
<event>
 4    1  0.7060698E+001  0.2168640E+02  0.7546771E-02  0.1509686E+00
          2   -1    0    0  502    0  0.00000000000E+00  0.00000000000E+00  0.96505861275E+02  0.96505861275E+02  0.00000000000E+00 0.  1.
         -2   -1    0    0    0  501 -0.00000000000E+00 -0.00000000000E+00 -0.85667529123E+01  0.85667529123E+01  0.00000000000E+00 0. -1.
          1    1    1    2  502    0  0.21684385020E+02  0.29558769216E+00  0.78465573052E+02  0.81407285179E+02  0.00000000000E+00 0.  1.
         -1    1    1    2    0  501 -0.21684385020E+02 -0.29558769216E+00  0.94735353109E+01  0.23665329009E+02  0.00000000000E+00 0. -1.
</event>
<event>
 4    1  0.7060698E+001  0.2311306E+02  0.7546771E-02  0.1491083E+00
          2   -1    0    0  502    0  0.00000000000E+00  0.00000000000E+00  0.16623924298E+03  0.16623924298E+03  0.00000000000E+00 0. -1.
         -2   -1    0    0    0  501 -0.00000000000E+00 -0.00000000000E+00 -0.39488081694E+01  0.39488081694E+01  0.00000000000E+00 0.  1.
          1    1    1    2  502    0  0.15910131979E+02 -0.16765476225E+02  0.11786450105E+03  0.12010934227E+03  0.00000000000E+00 0.  1.
         -1    1    1    2    0  501 -0.15910131979E+02  0.16765476225E+02  0.44425933765E+02  0.50078708884E+02  0.00000000000E+00 0. -1.
</event>
<event>
 4    1  0.7060698E+001  0.2512776E+02  0.7546771E-02  0.1467379E+00
          2   -1    0    0  502    0  0.00000000000E+00  0.00000000000E+00  0.12269163095E+02  0.12269163095E+02  0.00000000000E+00 0. -1.
         -2   -1    0    0    0  501 -0.00000000000E+00 -0.00000000000E+00 -0.58356875386E+02  0.58356875386E+02  0.00000000000E+00 0.  1.
          1    1    1    2  502    0 -0.10323546608E+02 -0.22909134966E+02 -0.35181390222E+02  0.43233485834E+02  0.00000000000E+00 0.  1.
         -1    1    1    2    0  501  0.10323546608E+02  0.22909134966E+02 -0.10906322070E+02  0.27392552647E+02  0.00000000000E+00 0. -1.
</event>
<event>
 4    1  0.7060698E+001  0.7870210E+02  0.7546771E-02  0.1206893E+00
          2   -1    0    0  502    0  0.00000000000E+00  0.00000000000E+00  0.24688852174E+03  0.24688852174E+03  0.00000000000E+00 0. -1.
         -2   -1    0    0    0  501 -0.00000000000E+00 -0.00000000000E+00 -0.27073591548E+02  0.27073591548E+02  0.00000000000E+00 0.  1.
          1    1    1    2  502    0 -0.34866413730E+02  0.70557445133E+02  0.14700087952E+03  0.16674315114E+03  0.00000000000E+00 0. -1.
         -1    1    1    2    0  501  0.34866413730E+02 -0.70557445133E+02  0.72814050668E+02  0.10721896215E+03  0.00000000000E+00 0.  1.
</event>
<event>
 4    1  0.7060698E+001  0.2167266E+02  0.7546771E-02  0.1509874E+00
          2   -1    0    0  502    0  0.00000000000E+00  0.00000000000E+00  0.15412703101E+04  0.15412703101E+04  0.00000000000E+00 0. -1.
         -2   -1    0    0    0  501 -0.00000000000E+00 -0.00000000000E+00 -0.59897443360E+00  0.59897443360E+00  0.00000000000E+00 0.  1.
          1    1    1    2  502    0 -0.14418305821E+02  0.16180755312E+02  0.13106564910E+04  0.13108356655E+04  0.00000000000E+00 0. -1.
         -1    1    1    2    0  501  0.14418305821E+02 -0.16180755312E+02  0.23001484465E+03  0.23103361907E+03  0.00000000000E+00 0.  1.
</event>
<event>
 4    1  0.7060698E+001  0.2253812E+02  0.7546771E-02  0.1498381E+00
          2   -1    0    0  502    0  0.00000000000E+00  0.00000000000E+00  0.18595010689E+04  0.18595010689E+04  0.00000000000E+00 0.  1.
         -2   -1    0    0    0  501 -0.00000000000E+00 -0.00000000000E+00 -0.27341140116E+00  0.27341140116E+00  0.00000000000E+00 0. -1.
          1    1    1    2  502    0 -0.21216152525E+02  0.76053666763E+01  0.95703371118E+03  0.95729906041E+03  0.00000000000E+00 0.  1.
         -1    1    1    2    0  501  0.21216152525E+02 -0.76053666763E+01  0.90219394628E+03  0.90247541986E+03  0.00000000000E+00 0. -1.
</event>
<event>
 4    1  0.7060698E+001  0.2075466E+02  0.7546771E-02  0.1522797E+00
          2   -1    0    0  502    0  0.00000000000E+00  0.00000000000E+00  0.12283191254E+02  0.12283191254E+02  0.00000000000E+00 0.  1.
         -2   -1    0    0    0  501 -0.00000000000E+00 -0.00000000000E+00 -0.75400107324E+02  0.75400107324E+02  0.00000000000E+00 0. -1.
          1    1    1    2  502    0 -0.11752950172E+01 -0.20721355922E+02  0.50589133000E+00  0.20760824542E+02  0.00000000000E+00 0.  1.
         -1    1    1    2    0  501  0.11752950172E+01  0.20721355922E+02 -0.63622807400E+02  0.66922474036E+02  0.00000000000E+00 0. -1.
</event>
<event>
 4    1  0.7060698E+001  0.2221563E+02  0.7546771E-02  0.1502590E+00
          2   -1    0    0  502    0  0.00000000000E+00  0.00000000000E+00  0.43760017985E+03  0.43760017985E+03  0.00000000000E+00 0. -1.
         -2   -1    0    0    0  501 -0.00000000000E+00 -0.00000000000E+00 -0.11596022970E+01  0.11596022970E+01  0.00000000000E+00 0.  1.
          1    1    1    2  502    0  0.15490303434E+02  0.15924345631E+02  0.25453931136E+03  0.25550693789E+03  0.00000000000E+00 0.  1.
         -1    1    1    2    0  501 -0.15490303434E+02 -0.15924345631E+02  0.18190126619E+03  0.18325284425E+03  0.00000000000E+00 0. -1.
</event>
<event>
 4    1  0.7060698E+001  0.2018412E+02  0.7546771E-02  0.1531239E+00
          2   -1    0    0  502    0  0.00000000000E+00  0.00000000000E+00  0.11714130283E+02  0.11714130283E+02  0.00000000000E+00 0. -1.
         -2   -1    0    0    0  501 -0.00000000000E+00 -0.00000000000E+00 -0.34883951254E+02  0.34883951254E+02  0.00000000000E+00 0.  1.
          1    1    1    2  502    0  0.19013902573E+02 -0.67727630488E+01 -0.12866470764E+02  0.23936267050E+02  0.00000000000E+00 0.  1.
         -1    1    1    2    0  501 -0.19013902573E+02  0.67727630488E+01 -0.10303350207E+02  0.22661814487E+02  0.00000000000E+00 0. -1.
</event>
<event>
 4    1  0.7060698E+001  0.2088374E+02  0.7546771E-02  0.1520931E+00
          2   -1    0    0  502    0  0.00000000000E+00  0.00000000000E+00  0.64162602236E+01  0.64162602236E+01  0.00000000000E+00 0. -1.
         -2   -1    0    0    0  501 -0.00000000000E+00 -0.00000000000E+00 -0.18240891658E+03  0.18240891658E+03  0.00000000000E+00 0.  1.
          1    1    1    2  502    0 -0.63845184973E+01 -0.19883880533E+02 -0.13215797304E+02  0.24714127132E+02  0.00000000000E+00 0. -1.
         -1    1    1    2    0  501  0.63845184973E+01  0.19883880533E+02 -0.16277685905E+03  0.16411104967E+03  0.00000000000E+00 0.  1.
</event>
<event>
 4    1  0.7060698E+001  0.2767883E+02  0.7546771E-02  0.1440906E+00
          2   -1    0    0  502    0  0.00000000000E+00  0.00000000000E+00  0.48317751928E+01  0.48317751928E+01  0.00000000000E+00 0. -1.
         -2   -1    0    0    0  501 -0.00000000000E+00 -0.00000000000E+00 -0.16024201087E+03  0.16024201087E+03  0.00000000000E+00 0.  1.
          1    1    1    2  502    0  0.21088454172E+02 -0.17927490847E+02 -0.86165693288E+02  0.90502179682E+02  0.00000000000E+00 0.  1.
         -1    1    1    2    0  501 -0.21088454172E+02  0.17927490847E+02 -0.69244542389E+02  0.74571606380E+02  0.00000000000E+00 0. -1.
</event>
<event>
 4    1  0.7060698E+001  0.3299492E+02  0.7546771E-02  0.1395235E+00
          2   -1    0    0  502    0  0.00000000000E+00  0.00000000000E+00  0.42237448008E+02  0.42237448008E+02  0.00000000000E+00 0.  1.
         -2   -1    0    0    0  501 -0.00000000000E+00 -0.00000000000E+00 -0.47372567189E+02  0.47372567189E+02  0.00000000000E+00 0. -1.
          1    1    1    2  502    0  0.32175510577E+02  0.73075974927E+01  0.27685331448E+02  0.43071359851E+02  0.00000000000E+00 0.  1.
         -1    1    1    2    0  501 -0.32175510577E+02 -0.73075974927E+01 -0.32820450629E+02  0.46538655347E+02  0.00000000000E+00 0. -1.
</event>
<event>
 4    1  0.7060698E+001  0.2058881E+02  0.7546771E-02  0.1525217E+00
          2   -1    0    0  502    0  0.00000000000E+00  0.00000000000E+00  0.51169178157E+02  0.51169178157E+02  0.00000000000E+00 0. -1.
         -2   -1    0    0    0  501 -0.00000000000E+00 -0.00000000000E+00 -0.18430641515E+02  0.18430641515E+02  0.00000000000E+00 0.  1.
          1    1    1    2  502    0  0.14354347826E+02 -0.14759801260E+02  0.42189692856E+02  0.46945385481E+02  0.00000000000E+00 0. -1.
         -1    1    1    2    0  501 -0.14354347826E+02  0.14759801260E+02 -0.94511562138E+01  0.22654434191E+02  0.00000000000E+00 0.  1.
</event>
<event>
 4    1  0.7060698E+001  0.2020414E+02  0.7546771E-02  0.1530938E+00
          2   -1    0    0  502    0  0.00000000000E+00  0.00000000000E+00  0.76287980943E+01  0.76287980943E+01  0.00000000000E+00 0. -1.
         -2   -1    0    0    0  501 -0.00000000000E+00 -0.00000000000E+00 -0.62569495097E+02  0.62569495097E+02  0.00000000000E+00 0.  1.
          1    1    1    2  502    0 -0.20137088668E+02  0.16446577776E+01 -0.14113689132E+02  0.24645556600E+02  0.00000000000E+00 0. -1.
         -1    1    1    2    0  501  0.20137088668E+02 -0.16446577776E+01 -0.40827007871E+02  0.45552736591E+02  0.00000000000E+00 0.  1.
</event>
<event>
 4    1  0.7060698E+001  0.3252054E+02  0.7546771E-02  0.1398886E+00
          2   -1    0    0  502    0  0.00000000000E+00  0.00000000000E+00  0.12835108428E+04  0.12835108428E+04  0.00000000000E+00 0.  1.
         -2   -1    0    0    0  501 -0.00000000000E+00 -0.00000000000E+00 -0.16133260526E+01  0.16133260526E+01  0.00000000000E+00 0. -1.
          1    1    1    2  502    0 -0.22166940388E+02  0.23795214830E+02  0.19149178591E+03  0.19423359536E+03  0.00000000000E+00 0. -1.
         -1    1    1    2    0  501  0.22166940388E+02 -0.23795214830E+02  0.10904057308E+04  0.10908905735E+04  0.00000000000E+00 0.  1.
</event>
<event>
 4    1  0.7060698E+001  0.2024153E+02  0.7546771E-02  0.1530375E+00
          2   -1    0    0  502    0  0.00000000000E+00  0.00000000000E+00  0.99473009879E+03  0.99473009879E+03  0.00000000000E+00 0.  1.
         -2   -1    0    0    0  501 -0.00000000000E+00 -0.00000000000E+00 -0.57888374154E+00  0.57888374154E+00  0.00000000000E+00 0. -1.
          1    1    1    2  502    0  0.17133603987E+02 -0.10777721824E+02  0.76436514931E+03  0.76463311539E+03  0.00000000000E+00 0.  1.
         -1    1    1    2    0  501 -0.17133603987E+02  0.10777721824E+02  0.22978606573E+03  0.23067586713E+03  0.00000000000E+00 0. -1.
</event>
<event>
 4    1  0.7060698E+001  0.3541778E+02  0.7546771E-02  0.1377650E+00
          2   -1    0    0  502    0  0.00000000000E+00  0.00000000000E+00  0.35258646878E+03  0.35258646878E+03  0.00000000000E+00 0. -1.
         -2   -1    0    0    0  501 -0.00000000000E+00 -0.00000000000E+00 -0.62851048376E+01  0.62851048376E+01  0.00000000000E+00 0.  1.
          1    1    1    2  502    0  0.59289588456E-01  0.35417728053E+02  0.54949283717E+02  0.65374633893E+02  0.00000000000E+00 0.  1.
         -1    1    1    2    0  501 -0.59289588456E-01 -0.35417728053E+02  0.29135208023E+03  0.29349693973E+03  0.00000000000E+00 0. -1.
</event>
<event>
 4    1  0.7060698E+001  0.4841074E+02  0.7546771E-02  0.1305214E+00
          2   -1    0    0  502    0  0.00000000000E+00  0.00000000000E+00  0.29293960308E+04  0.29293960308E+04  0.00000000000E+00 0. -1.
         -2   -1    0    0    0  501 -0.00000000000E+00 -0.00000000000E+00 -0.81337739973E+00  0.81337739973E+00  0.00000000000E+00 0.  1.
          1    1    1    2  502    0  0.20273029759E+02  0.43961397709E+02  0.12765992940E+04  0.12775168718E+04  0.00000000000E+00 0. -1.
         -1    1    1    2    0  501 -0.20273029759E+02 -0.43961397709E+02  0.16519833593E+04  0.16526925364E+04  0.00000000000E+00 0.  1.
</event>
<event>
 4    1  0.7060698E+001  0.3869439E+02  0.7546771E-02  0.1356311E+00
          2   -1    0    0  502    0  0.00000000000E+00  0.00000000000E+00  0.38862517547E+02  0.38862517547E+02  0.00000000000E+00 0.  1.
         -2   -1    0    0    0  501 -0.00000000000E+00 -0.00000000000E+00 -0.41506929736E+02  0.41506929736E+02  0.00000000000E+00 0. -1.
          1    1    1    2  502    0  0.24391962295E+02  0.30038106685E+02 -0.12089453629E+02  0.40539000566E+02  0.00000000000E+00 0. -1.
         -1    1    1    2    0  501 -0.24391962295E+02 -0.30038106685E+02  0.94450414398E+01  0.39830446717E+02  0.00000000000E+00 0.  1.
</event>
<event>
 4    1  0.7060698E+001  0.2632942E+02  0.7546771E-02  0.1454463E+00
          2   -1    0    0  502    0  0.00000000000E+00  0.00000000000E+00  0.21193301264E+04  0.21193301264E+04  0.00000000000E+00 0.  1.
         -2   -1    0    0    0  501 -0.00000000000E+00 -0.00000000000E+00 -0.35133772366E+00  0.35133772366E+00  0.00000000000E+00 0. -1.
          1    1    1    2  502    0  0.22945461143E+02 -0.12912948226E+02  0.78113330144E+03  0.78157691435E+03  0.00000000000E+00 0. -1.
         -1    1    1    2    0  501 -0.22945461143E+02  0.12912948226E+02  0.13378454872E+04  0.13381045498E+04  0.00000000000E+00 0.  1.
</event>
<event>
 4    1  0.7060698E+001  0.2449944E+02  0.7546771E-02  0.1474482E+00
          2   -1    0    0  502    0  0.00000000000E+00  0.00000000000E+00  0.10418585418E+04  0.10418585418E+04  0.00000000000E+00 0. -1.
         -2   -1    0    0    0  501 -0.00000000000E+00 -0.00000000000E+00 -0.89363389701E+00  0.89363389701E+00  0.00000000000E+00 0.  1.
          1    1    1    2  502    0  0.15478223435E+02  0.18990713487E+02  0.20969666100E+03  0.21112297893E+03  0.00000000000E+00 0.  1.
         -1    1    1    2    0  501 -0.15478223435E+02 -0.18990713487E+02  0.83126824693E+03  0.83162919679E+03  0.00000000000E+00 0. -1.
</event>
<event>
 4    1  0.7060698E+001  0.2288606E+02  0.7546771E-02  0.1493934E+00
          2   -1    0    0  502    0  0.00000000000E+00  0.00000000000E+00  0.19011006096E+02  0.19011006096E+02  0.00000000000E+00 0.  1.
         -2   -1    0    0    0  501 -0.00000000000E+00 -0.00000000000E+00 -0.55326962254E+02  0.55326962254E+02  0.00000000000E+00 0. -1.
          1    1    1    2  502    0 -0.21907431775E+01 -0.22780966787E+02 -0.44493808118E+02  0.50034695605E+02  0.00000000000E+00 0. -1.
         -1    1    1    2    0  501  0.21907431775E+01  0.22780966787E+02  0.81778519600E+01  0.24303272745E+02  0.00000000000E+00 0.  1.
</event>
<event>
 4    1  0.7060698E+001  0.2205738E+02  0.7546771E-02  0.1504686E+00
          2   -1    0    0  502    0  0.00000000000E+00  0.00000000000E+00  0.39350768034E+03  0.39350768034E+03  0.00000000000E+00 0. -1.
         -2   -1    0    0    0  501 -0.00000000000E+00 -0.00000000000E+00 -0.13865266408E+01  0.13865266408E+01  0.00000000000E+00 0.  1.
          1    1    1    2  502    0  0.18971701697E+02  0.11251769960E+02  0.13108737045E+03  0.13293015641E+03  0.00000000000E+00 0.  1.
         -1    1    1    2    0  501 -0.18971701697E+02 -0.11251769960E+02  0.26103378326E+03  0.26196405057E+03  0.00000000000E+00 0. -1.
</event>
<event>
 4    1  0.7060698E+001  0.2935773E+02  0.7546771E-02  0.1425261E+00
          2   -1    0    0  502    0  0.00000000000E+00  0.00000000000E+00  0.18707201406E+03  0.18707201406E+03  0.00000000000E+00 0. -1.
         -2   -1    0    0    0  501 -0.00000000000E+00 -0.00000000000E+00 -0.62782711384E+01  0.62782711384E+01  0.00000000000E+00 0.  1.
          1    1    1    2  502    0 -0.21408558948E+02  0.20088549271E+02  0.14027310258E+03  0.14331231460E+03  0.00000000000E+00 0. -1.
         -1    1    1    2    0  501  0.21408558948E+02 -0.20088549271E+02  0.40520640338E+02  0.50037970597E+02  0.00000000000E+00 0.  1.
</event>
<event>
 4    1  0.7060698E+001  0.4042667E+02  0.7546771E-02  0.1346004E+00
          2   -1    0    0  502    0  0.00000000000E+00  0.00000000000E+00  0.43118740069E+03  0.43118740069E+03  0.00000000000E+00 0. -1.
         -2   -1    0    0    0  501 -0.00000000000E+00 -0.00000000000E+00 -0.43700961924E+01  0.43700961924E+01  0.00000000000E+00 0.  1.
          1    1    1    2  502    0 -0.64085547111E+01  0.39915481742E+02  0.29273548989E+03  0.29551375991E+03  0.00000000000E+00 0. -1.
         -1    1    1    2    0  501  0.64085547111E+01 -0.39915481742E+02  0.13408181461E+03  0.14004373697E+03  0.00000000000E+00 0.  1.
</event>
<event>
 4    1  0.7060698E+001  0.2316660E+02  0.7546771E-02  0.1490417E+00
          2   -1    0    0  502    0  0.00000000000E+00  0.00000000000E+00  0.82641247549E+03  0.82641247549E+03  0.00000000000E+00 0.  1.
         -2   -1    0    0    0  501 -0.00000000000E+00 -0.00000000000E+00 -0.91636020280E+00  0.91636020280E+00  0.00000000000E+00 0. -1.
          1    1    1    2  502    0  0.22963144106E+02 -0.30635275322E+01  0.63601256500E+03  0.63643434384E+03  0.00000000000E+00 0.  1.
         -1    1    1    2    0  501 -0.22963144106E+02  0.30635275322E+01  0.18948355029E+03  0.19089449185E+03  0.00000000000E+00 0. -1.
</event>
<event>
 4    1  0.7060698E+001  0.2013586E+02  0.7546771E-02  0.1531969E+00
          2   -1    0    0  502    0  0.00000000000E+00  0.00000000000E+00  0.99410219035E+02  0.99410219035E+02  0.00000000000E+00 0. -1.
         -2   -1    0    0    0  501 -0.00000000000E+00 -0.00000000000E+00 -0.46465120298E+01  0.46465120298E+01  0.00000000000E+00 0.  1.
          1    1    1    2  502    0  0.47628425302E+01  0.19564462108E+02  0.65571473153E+02  0.68593519650E+02  0.00000000000E+00 0. -1.
         -1    1    1    2    0  501 -0.47628425302E+01 -0.19564462108E+02  0.29192233852E+02  0.35463211414E+02  0.00000000000E+00 0.  1.
</event>
<event>
 4    1  0.7060698E+001  0.3558792E+02  0.7546771E-02  0.1376476E+00
          2   -1    0    0  502    0  0.00000000000E+00  0.00000000000E+00  0.56603951068E+01  0.56603951068E+01  0.00000000000E+00 0. -1.
         -2   -1    0    0    0  501 -0.00000000000E+00 -0.00000000000E+00 -0.31050132482E+03  0.31050132482E+03  0.00000000000E+00 0.  1.
          1    1    1    2  502    0  0.14952713533E+02  0.32294217260E+02 -0.68861798843E+02  0.77514175802E+02  0.00000000000E+00 0.  1.
         -1    1    1    2    0  501 -0.14952713533E+02 -0.32294217260E+02 -0.23597913087E+03  0.23864754412E+03  0.00000000000E+00 0. -1.
</event>
<event>
 4    1  0.7060698E+001  0.2136830E+02  0.7546771E-02  0.1514071E+00
          2   -1    0    0  502    0  0.00000000000E+00  0.00000000000E+00  0.10560421068E+02  0.10560421068E+02  0.00000000000E+00 0.  1.
         -2   -1    0    0    0  501 -0.00000000000E+00 -0.00000000000E+00 -0.95845615655E+03  0.95845615655E+03  0.00000000000E+00 0. -1.
          1    1    1    2  502    0 -0.16110859616E+02 -0.14037254142E+02 -0.94740161757E+03  0.94764256409E+03  0.00000000000E+00 0. -1.
         -1    1    1    2    0  501  0.16110859616E+02  0.14037254142E+02 -0.49411790334E+00  0.21374013519E+02  0.00000000000E+00 0.  1.
</event>
<event>
 4    1  0.7060698E+001  0.3265158E+02  0.7546771E-02  0.1397870E+00
          2   -1    0    0  502    0  0.00000000000E+00  0.00000000000E+00  0.16911498296E+04  0.16911498296E+04  0.00000000000E+00 0.  1.
         -2   -1    0    0    0  501 -0.00000000000E+00 -0.00000000000E+00 -0.90102686204E+00  0.90102686204E+00  0.00000000000E+00 0. -1.
          1    1    1    2  502    0  0.32639258818E+02 -0.89680887792E+00  0.38147648563E+03  0.38287130288E+03  0.00000000000E+00 0. -1.
         -1    1    1    2    0  501 -0.32639258818E+02  0.89680887792E+00  0.13087723171E+04  0.13091795535E+04  0.00000000000E+00 0.  1.
</event>
<event>
 4    1  0.7060698E+001  0.2062211E+02  0.7546771E-02  0.1524729E+00
          2   -1    0    0  502    0  0.00000000000E+00  0.00000000000E+00  0.98530202412E+02  0.98530202412E+02  0.00000000000E+00 0.  1.
         -2   -1    0    0    0  501 -0.00000000000E+00 -0.00000000000E+00 -0.74868919409E+01  0.74868919409E+01  0.00000000000E+00 0. -1.
          1    1    1    2  502    0  0.19818434421E+01 -0.20526660787E+02  0.11025133456E+02  0.23384291185E+02  0.00000000000E+00 0. -1.
         -1    1    1    2    0  501 -0.19818434421E+01  0.20526660787E+02  0.80018177016E+02  0.82632803168E+02  0.00000000000E+00 0.  1.
</event>
<event>
 4    1  0.7060698E+001  0.2383748E+02  0.7546771E-02  0.1482241E+00
          2   -1    0    0  502    0  0.00000000000E+00  0.00000000000E+00  0.64002581844E+03  0.64002581844E+03  0.00000000000E+00 0. -1.
         -2   -1    0    0    0  501 -0.00000000000E+00 -0.00000000000E+00 -0.95421605139E+00  0.95421605139E+00  0.00000000000E+00 0.  1.
          1    1    1    2  502    0 -0.10492503348E+02  0.21404036686E+02  0.23499349838E+03  0.23619942781E+03  0.00000000000E+00 0.  1.
         -1    1    1    2    0  501  0.10492503348E+02 -0.21404036686E+02  0.40407810400E+03  0.40478060668E+03  0.00000000000E+00 0. -1.
</event>
<event>
 4    1  0.7060698E+001  0.3586969E+02  0.7546771E-02  0.1374550E+00
          2   -1    0    0  502    0  0.00000000000E+00  0.00000000000E+00  0.51911143317E+03  0.51911143317E+03  0.00000000000E+00 0.  1.
         -2   -1    0    0    0  501 -0.00000000000E+00 -0.00000000000E+00 -0.26391803179E+01  0.26391803179E+01  0.00000000000E+00 0. -1.
          1    1    1    2  502    0  0.66337895327E+00  0.35863559759E+02  0.32259889712E+03  0.32458694277E+03  0.00000000000E+00 0.  1.
         -1    1    1    2    0  501 -0.66337895327E+00 -0.35863559759E+02  0.19387335573E+03  0.19716367072E+03  0.00000000000E+00 0. -1.
</event>
<event>
 4    1  0.7060698E+001  0.2002770E+02  0.7546771E-02  0.1533613E+00
          2   -1    0    0  502    0  0.00000000000E+00  0.00000000000E+00  0.12190486210E+04  0.12190486210E+04  0.00000000000E+00 0. -1.
         -2   -1    0    0    0  501 -0.00000000000E+00 -0.00000000000E+00 -0.60712943240E+00  0.60712943240E+00  0.00000000000E+00 0.  1.
          1    1    1    2  502    0  0.38037840401E+01 -0.19663164392E+02  0.19649332457E+03  0.19751135513E+03  0.00000000000E+00 0.  1.
         -1    1    1    2    0  501 -0.38037840401E+01  0.19663164392E+02  0.10219481670E+04  0.10221443953E+04  0.00000000000E+00 0. -1.
</event>
<event>
 4    1  0.7060698E+001  0.2082624E+02  0.7546771E-02  0.1521760E+00
          2   -1    0    0  502    0  0.00000000000E+00  0.00000000000E+00  0.48473651387E+03  0.48473651387E+03  0.00000000000E+00 0. -1.
         -2   -1    0    0    0  501 -0.00000000000E+00 -0.00000000000E+00 -0.11002448664E+01  0.11002448664E+01  0.00000000000E+00 0.  1.
          1    1    1    2  502    0 -0.18327744480E+02  0.98907034944E+01  0.13684331207E+03  0.13841901709E+03  0.00000000000E+00 0.  1.
         -1    1    1    2    0  501  0.18327744480E+02 -0.98907034944E+01  0.34679295694E+03  0.34741774165E+03  0.00000000000E+00 0. -1.
</event>
<event>
 4    1  0.7060698E+001  0.2077239E+02  0.7546771E-02  0.1522540E+00
          2   -1    0    0  502    0  0.00000000000E+00  0.00000000000E+00  0.86058282318E+00  0.86058282318E+00  0.00000000000E+00 0. -1.
         -2   -1    0    0    0  501 -0.00000000000E+00 -0.00000000000E+00 -0.64305233256E+03  0.64305233256E+03  0.00000000000E+00 0.  1.
          1    1    1    2  502    0 -0.19385343153E+02  0.74632866539E+01 -0.16998592480E+03  0.17125042133E+03  0.00000000000E+00 0. -1.
         -1    1    1    2    0  501  0.19385343153E+02 -0.74632866539E+01 -0.47220582493E+03  0.47266249405E+03  0.00000000000E+00 0.  1.
</event>
<event>
 4    1  0.7060698E+001  0.3046647E+02  0.7546771E-02  0.1415585E+00
          2   -1    0    0  502    0  0.00000000000E+00  0.00000000000E+00  0.54028391333E+03  0.54028391333E+03  0.00000000000E+00 0. -1.
         -2   -1    0    0    0  501 -0.00000000000E+00 -0.00000000000E+00 -0.19155028403E+01  0.19155028403E+01  0.00000000000E+00 0.  1.
          1    1    1    2  502    0  0.22833467620E+02  0.20170238635E+02  0.18213228045E+03  0.18466286403E+03  0.00000000000E+00 0.  1.
         -1    1    1    2    0  501 -0.22833467620E+02 -0.20170238635E+02  0.35623613004E+03  0.35753655214E+03  0.00000000000E+00 0. -1.
</event>
<event>
 4    1  0.7060698E+001  0.2105561E+02  0.7546771E-02  0.1518472E+00
          2   -1    0    0  502    0  0.00000000000E+00  0.00000000000E+00  0.18504131755E+04  0.18504131755E+04  0.00000000000E+00 0.  1.
         -2   -1    0    0    0  501 -0.00000000000E+00 -0.00000000000E+00 -0.41175931727E+00  0.41175931727E+00  0.00000000000E+00 0. -1.
          1    1    1    2  502    0 -0.10873590749E+02 -0.18030633708E+02  0.32659915743E+03  0.32727717361E+03  0.00000000000E+00 0. -1.
         -1    1    1    2    0  501  0.10873590749E+02  0.18030633708E+02  0.15234022587E+04  0.15235477612E+04  0.00000000000E+00 0.  1.
</event>
<event>
 4    1  0.7060698E+001  0.2984612E+02  0.7546771E-02  0.1420939E+00
          2   -1    0    0  502    0  0.00000000000E+00  0.00000000000E+00  0.24040417036E+02  0.24040417036E+02  0.00000000000E+00 0.  1.
         -2   -1    0    0    0  501 -0.00000000000E+00 -0.00000000000E+00 -0.37203914487E+02  0.37203914487E+02  0.00000000000E+00 0. -1.
          1    1    1    2  502    0  0.26832145161E+02  0.13070072041E+02 -0.85263607793E+01  0.31040129272E+02  0.00000000000E+00 0. -1.
         -1    1    1    2    0  501 -0.26832145161E+02 -0.13070072041E+02 -0.46371366711E+01  0.30204202251E+02  0.00000000000E+00 0.  1.
</event>
<event>
 4    1  0.7060698E+001  0.2315091E+02  0.7546771E-02  0.1490612E+00
          2   -1    0    0  502    0  0.00000000000E+00  0.00000000000E+00  0.11174251687E+02  0.11174251687E+02  0.00000000000E+00 0. -1.
         -2   -1    0    0    0  501 -0.00000000000E+00 -0.00000000000E+00 -0.95467838768E+02  0.95467838768E+02  0.00000000000E+00 0.  1.
          1    1    1    2  502    0 -0.23137399427E+02  0.79075067028E+00 -0.79759392599E+02  0.83051341029E+02  0.00000000000E+00 0.  1.
         -1    1    1    2    0  501  0.23137399427E+02 -0.79075067028E+00 -0.45341944825E+01  0.23590749426E+02  0.00000000000E+00 0. -1.
</event>
<event>
 4    1  0.7060698E+001  0.2748582E+02  0.7546771E-02  0.1442788E+00
          2   -1    0    0  502    0  0.00000000000E+00  0.00000000000E+00  0.22649832189E+03  0.22649832189E+03  0.00000000000E+00 0.  1.
         -2   -1    0    0    0  501 -0.00000000000E+00 -0.00000000000E+00 -0.33518277943E+01  0.33518277943E+01  0.00000000000E+00 0. -1.
          1    1    1    2  502    0  0.10072642869E+02  0.25573662029E+02  0.10353601220E+03  0.10712224861E+03  0.00000000000E+00 0. -1.
         -1    1    1    2    0  501 -0.10072642869E+02 -0.25573662029E+02  0.11961048189E+03  0.12272790108E+03  0.00000000000E+00 0.  1.
</event>
<event>
 4    1  0.7060698E+001  0.2217645E+02  0.7546771E-02  0.1503107E+00
          2   -1    0    0  502    0  0.00000000000E+00  0.00000000000E+00  0.51963363780E+02  0.51963363780E+02  0.00000000000E+00 0. -1.
         -2   -1    0    0    0  501 -0.00000000000E+00 -0.00000000000E+00 -0.16919272047E+02  0.16919272047E+02  0.00000000000E+00 0.  1.
          1    1    1    2  502    0  0.15683463600E+01  0.22120925912E+02  0.40383978360E+02  0.46072342915E+02  0.00000000000E+00 0. -1.
         -1    1    1    2    0  501 -0.15683463600E+01 -0.22120925912E+02 -0.53398866265E+01  0.22810292911E+02  0.00000000000E+00 0.  1.
</event>
<event>
 4    1  0.7060698E+001  0.2033688E+02  0.7546771E-02  0.1528947E+00
          2   -1    0    0  502    0  0.00000000000E+00  0.00000000000E+00  0.24042766207E+03  0.24042766207E+03  0.00000000000E+00 0. -1.
         -2   -1    0    0    0  501 -0.00000000000E+00 -0.00000000000E+00 -0.20002218705E+01  0.20002218705E+01  0.00000000000E+00 0.  1.
          1    1    1    2  502    0 -0.17824044149E+02  0.97924467843E+01  0.73862010609E+02  0.76610607458E+02  0.00000000000E+00 0.  1.
         -1    1    1    2    0  501  0.17824044149E+02 -0.97924467843E+01  0.16456542959E+03  0.16581727648E+03  0.00000000000E+00 0. -1.
</event>
<event>
 4    1  0.7060698E+001  0.2530410E+02  0.7546771E-02  0.1465430E+00
          2   -1    0    0  502    0  0.00000000000E+00  0.00000000000E+00  0.25870418198E+03  0.25870418198E+03  0.00000000000E+00 0.  1.
         -2   -1    0    0    0  501 -0.00000000000E+00 -0.00000000000E+00 -0.33055341869E+01  0.33055341869E+01  0.00000000000E+00 0. -1.
          1    1    1    2  502    0 -0.15315314224E+02 -0.20142954060E+02  0.62033305388E+02  0.66995734382E+02  0.00000000000E+00 0. -1.
         -1    1    1    2    0  501  0.15315314224E+02  0.20142954060E+02  0.19336534240E+03  0.19501398178E+03  0.00000000000E+00 0.  1.
</event>
<event>
 4    1  0.7060698E+001  0.2157645E+02  0.7546771E-02  0.1511191E+00
          2   -1    0    0  502    0  0.00000000000E+00  0.00000000000E+00  0.43092608635E+03  0.43092608635E+03  0.00000000000E+00 0. -1.
         -2   -1    0    0    0  501 -0.00000000000E+00 -0.00000000000E+00 -0.16599973983E+01  0.16599973983E+01  0.00000000000E+00 0.  1.
          1    1    1    2  502    0 -0.20847165964E+02  0.55622731951E+01  0.34244678898E+03  0.34312584644E+03  0.00000000000E+00 0. -1.
         -1    1    1    2    0  501  0.20847165964E+02 -0.55622731951E+01  0.86819299973E+02  0.89460237310E+02  0.00000000000E+00 0.  1.
</event>
<event>
 4    1  0.7060698E+001  0.2217018E+02  0.7546771E-02  0.1503190E+00
          2   -1    0    0  502    0  0.00000000000E+00  0.00000000000E+00  0.95643672567E+01  0.95643672567E+01  0.00000000000E+00 0. -1.
         -2   -1    0    0    0  501 -0.00000000000E+00 -0.00000000000E+00 -0.53892537963E+02  0.53892537963E+02  0.00000000000E+00 0.  1.
          1    1    1    2  502    0 -0.21338055461E+02 -0.60169867418E+01 -0.29000674211E+02  0.36504189417E+02  0.00000000000E+00 0.  1.
         -1    1    1    2    0  501  0.21338055461E+02  0.60169867418E+01 -0.15327496495E+02  0.26952715802E+02  0.00000000000E+00 0. -1.
</event>
<event>
 4    1  0.7060698E+001  0.2426575E+02  0.7546771E-02  0.1477188E+00
          2   -1    0    0  502    0  0.00000000000E+00  0.00000000000E+00  0.49294168077E+00  0.49294168077E+00  0.00000000000E+00 0. -1.
         -2   -1    0    0    0  501 -0.00000000000E+00 -0.00000000000E+00 -0.16591286642E+04  0.16591286642E+04  0.00000000000E+00 0.  1.
          1    1    1    2  502    0 -0.23641955148E+02  0.54666972715E+01 -0.39019658462E+03  0.39095038237E+03  0.00000000000E+00 0. -1.
         -1    1    1    2    0  501  0.23641955148E+02 -0.54666972715E+01 -0.12684391379E+04  0.12686712235E+04  0.00000000000E+00 0.  1.
</event>
<event>
 4    1  0.7060698E+001  0.7756402E+02  0.7546771E-02  0.1209619E+00
          2   -1    0    0  502    0  0.00000000000E+00  0.00000000000E+00  0.16470326480E+04  0.16470326480E+04  0.00000000000E+00 0. -1.
         -2   -1    0    0    0  501 -0.00000000000E+00 -0.00000000000E+00 -0.36542132207E+01  0.36542132207E+01  0.00000000000E+00 0.  1.
          1    1    1    2  502    0 -0.36420909854E+02  0.68481340810E+02  0.80509918191E+03  0.80882684762E+03  0.00000000000E+00 0.  1.
         -1    1    1    2    0  501  0.36420909854E+02 -0.68481340810E+02  0.83827925285E+03  0.84186001358E+03  0.00000000000E+00 0. -1.
</event>
<event>
 4    1  0.7060698E+001  0.2004360E+02  0.7546771E-02  0.1533370E+00
          2   -1    0    0  502    0  0.00000000000E+00  0.00000000000E+00  0.12109894062E+04  0.12109894062E+04  0.00000000000E+00 0. -1.
         -2   -1    0    0    0  501 -0.00000000000E+00 -0.00000000000E+00 -0.47915069158E+00  0.47915069158E+00  0.00000000000E+00 0.  1.
          1    1    1    2  502    0 -0.50177911499E+01 -0.19405352690E+02  0.26928891637E+03  0.27003382459E+03  0.00000000000E+00 0.  1.
         -1    1    1    2    0  501  0.50177911499E+01  0.19405352690E+02  0.94122133915E+03  0.94143473232E+03  0.00000000000E+00 0. -1.
</event>
<event>
 4    1  0.7060698E+001  0.2192977E+02  0.7546771E-02  0.1506393E+00
          2   -1    0    0  502    0  0.00000000000E+00  0.00000000000E+00  0.14587747271E+03  0.14587747271E+03  0.00000000000E+00 0. -1.
         -2   -1    0    0    0  501 -0.00000000000E+00 -0.00000000000E+00 -0.40167250866E+01  0.40167250866E+01  0.00000000000E+00 0.  1.
          1    1    1    2  502    0 -0.12306142247E+02  0.18151413743E+02  0.39198833627E+02  0.44916183226E+02  0.00000000000E+00 0.  1.
         -1    1    1    2    0  501  0.12306142247E+02 -0.18151413743E+02  0.10266191399E+03  0.10497801457E+03  0.00000000000E+00 0. -1.
</event>
<event>
 4    1  0.7060698E+001  0.2078791E+02  0.7546771E-02  0.1522315E+00
          2   -1    0    0  502    0  0.00000000000E+00  0.00000000000E+00  0.42441439326E+03  0.42441439326E+03  0.00000000000E+00 0. -1.
         -2   -1    0    0    0  501 -0.00000000000E+00 -0.00000000000E+00 -0.10406732347E+01  0.10406732347E+01  0.00000000000E+00 0.  1.
          1    1    1    2  502    0  0.19980212987E+02 -0.57383258276E+01  0.24294996486E+03  0.24383769750E+03  0.00000000000E+00 0. -1.
         -1    1    1    2    0  501 -0.19980212987E+02  0.57383258276E+01  0.18042375516E+03  0.18161736900E+03  0.00000000000E+00 0.  1.
</event>
<event>
 4    1  0.7060698E+001  0.2085352E+02  0.7546771E-02  0.1521366E+00
          2   -1    0    0  502    0  0.00000000000E+00  0.00000000000E+00  0.55773688296E+01  0.55773688296E+01  0.00000000000E+00 0.  1.
         -2   -1    0    0    0  501 -0.00000000000E+00 -0.00000000000E+00 -0.83597639186E+02  0.83597639186E+02  0.00000000000E+00 0. -1.
          1    1    1    2  502    0  0.10164373183E+02  0.18208650524E+02 -0.27441942321E+02  0.34466355108E+02  0.00000000000E+00 0.  1.
         -1    1    1    2    0  501 -0.10164373183E+02 -0.18208650524E+02 -0.50578328036E+02  0.54708652908E+02  0.00000000000E+00 0. -1.
</event>
<event>
 4    1  0.7060698E+001  0.4697339E+02  0.7546771E-02  0.1311856E+00
          2   -1    0    0  502    0  0.00000000000E+00  0.00000000000E+00  0.10103970313E+04  0.10103970313E+04  0.00000000000E+00 0. -1.
         -2   -1    0    0    0  501 -0.00000000000E+00 -0.00000000000E+00 -0.29106645591E+01  0.29106645591E+01  0.00000000000E+00 0.  1.
          1    1    1    2  502    0 -0.34163539938E+02  0.32238975230E+02  0.75693158247E+03  0.75838771056E+03  0.00000000000E+00 0. -1.
         -1    1    1    2    0  501  0.34163539938E+02 -0.32238975230E+02  0.25055478429E+03  0.25491998532E+03  0.00000000000E+00 0.  1.
</event>
<event>
 4    1  0.7060698E+001  0.2830934E+02  0.7546771E-02  0.1434881E+00
          2   -1    0    0  502    0  0.00000000000E+00  0.00000000000E+00  0.37408580139E+00  0.37408580139E+00  0.00000000000E+00 0. -1.
         -2   -1    0    0    0  501 -0.00000000000E+00 -0.00000000000E+00 -0.24788841177E+04  0.24788841177E+04  0.00000000000E+00 0.  1.
          1    1    1    2  502    0 -0.28302252086E+02 -0.63335759260E+00 -0.16960120825E+04  0.16962483316E+04  0.00000000000E+00 0.  1.
         -1    1    1    2    0  501  0.28302252086E+02  0.63335759260E+00 -0.78249794942E+03  0.78300987188E+03  0.00000000000E+00 0. -1.
</event>
<event>
 4    1  0.7060698E+001  0.3121661E+02  0.7546771E-02  0.1409311E+00
          2   -1    0    0  502    0  0.00000000000E+00  0.00000000000E+00  0.17351425216E+02  0.17351425216E+02  0.00000000000E+00 0.  1.
         -2   -1    0    0    0  501 -0.00000000000E+00 -0.00000000000E+00 -0.61250192350E+02  0.61250192350E+02  0.00000000000E+00 0. -1.
          1    1    1    2  502    0  0.11932884733E+02 -0.28845851055E+02 -0.33277655360E+02  0.45627614526E+02  0.00000000000E+00 0. -1.
         -1    1    1    2    0  501 -0.11932884733E+02  0.28845851055E+02 -0.10621111775E+02  0.32974003039E+02  0.00000000000E+00 0.  1.
</event>
<event>
 4    1  0.7060698E+001  0.2892822E+02  0.7546771E-02  0.1429144E+00
          2   -1    0    0  502    0  0.00000000000E+00  0.00000000000E+00  0.20597777841E+03  0.20597777841E+03  0.00000000000E+00 0.  1.
         -2   -1    0    0    0  501 -0.00000000000E+00 -0.00000000000E+00 -0.67680345678E+01  0.67680345678E+01  0.00000000000E+00 0. -1.
          1    1    1    2  502    0  0.10508066081E+02  0.26952220858E+02  0.32353043181E+02  0.43400012269E+02  0.00000000000E+00 0.  1.
         -1    1    1    2    0  501 -0.10508066081E+02 -0.26952220858E+02  0.16685670066E+03  0.16934580071E+03  0.00000000000E+00 0. -1.
</event>
<event>
 4    1  0.7060698E+001  0.2569172E+02  0.7546771E-02  0.1461212E+00
          2   -1    0    0  502    0  0.00000000000E+00  0.00000000000E+00  0.16767226567E+04  0.16767226567E+04  0.00000000000E+00 0.  1.
         -2   -1    0    0    0  501 -0.00000000000E+00 -0.00000000000E+00 -0.40517213284E+00  0.40517213284E+00  0.00000000000E+00 0. -1.
          1    1    1    2  502    0  0.24135119919E+02 -0.88068354296E+01  0.69683019537E+03  0.69730365375E+03  0.00000000000E+00 0.  1.
         -1    1    1    2    0  501 -0.24135119919E+02  0.88068354296E+01  0.97948728917E+03  0.97982417504E+03  0.00000000000E+00 0. -1.
</event>
<event>
 4    1  0.7060698E+001  0.5771910E+02  0.7546771E-02  0.1267786E+00
          2   -1    0    0  502    0  0.00000000000E+00  0.00000000000E+00  0.15634193577E+04  0.15634193577E+04  0.00000000000E+00 0.  1.
         -2   -1    0    0    0  501 -0.00000000000E+00 -0.00000000000E+00 -0.35095615690E+01  0.35095615690E+01  0.00000000000E+00 0. -1.
          1    1    1    2  502    0 -0.55810970900E+02  0.14718369658E+02  0.12709998401E+04  0.12723097455E+04  0.00000000000E+00 0.  1.
         -1    1    1    2    0  501  0.55810970900E+02 -0.14718369658E+02  0.28890995609E+03  0.29461917386E+03  0.00000000000E+00 0. -1.
</event>
<event>
 4    1  0.7060698E+001  0.2651315E+02  0.7546771E-02  0.1452561E+00
          2   -1    0    0  502    0  0.00000000000E+00  0.00000000000E+00  0.49863909131E+03  0.49863909131E+03  0.00000000000E+00 0. -1.
         -2   -1    0    0    0  501 -0.00000000000E+00 -0.00000000000E+00 -0.21162577975E+01  0.21162577975E+01  0.00000000000E+00 0.  1.
          1    1    1    2  502    0 -0.16941074310E+02  0.20394782778E+02  0.10359240155E+03  0.10693143982E+03  0.00000000000E+00 0.  1.
         -1    1    1    2    0  501  0.16941074310E+02 -0.20394782778E+02  0.39293043196E+03  0.39382390928E+03  0.00000000000E+00 0. -1.
</event>
<event>
 4    1  0.7060698E+001  0.5734972E+02  0.7546771E-02  0.1269113E+00
          2   -1    0    0  502    0  0.00000000000E+00  0.00000000000E+00  0.31841537253E+04  0.31841537253E+04  0.00000000000E+00 0.  1.
         -2   -1    0    0    0  501 -0.00000000000E+00 -0.00000000000E+00 -0.12684928757E+01  0.12684928757E+01  0.00000000000E+00 0. -1.
          1    1    1    2  502    0  0.48450421339E+02 -0.30684639021E+02  0.90508337527E+03  0.90689850953E+03  0.00000000000E+00 0. -1.
         -1    1    1    2    0  501 -0.48450421339E+02  0.30684639021E+02  0.22778018572E+04  0.22785237087E+04  0.00000000000E+00 0.  1.
</event>
<event>
 4    1  0.7060698E+001  0.2107937E+02  0.7546771E-02  0.1518135E+00
          2   -1    0    0  502    0  0.00000000000E+00  0.00000000000E+00  0.63330490828E+03  0.63330490828E+03  0.00000000000E+00 0. -1.
         -2   -1    0    0    0  501 -0.00000000000E+00 -0.00000000000E+00 -0.70162086084E+00  0.70162086084E+00  0.00000000000E+00 0.  1.
          1    1    1    2  502    0  0.11618873587E+02  0.17588112001E+02  0.31638086422E+03  0.31708230974E+03  0.00000000000E+00 0.  1.
         -1    1    1    2    0  501 -0.11618873587E+02 -0.17588112001E+02  0.31622242320E+03  0.31692421940E+03  0.00000000000E+00 0. -1.
</event>
<event>
 4    1  0.7060698E+001  0.2008049E+02  0.7546771E-02  0.1532809E+00
          2   -1    0    0  502    0  0.00000000000E+00  0.00000000000E+00  0.62608144991E+02  0.62608144991E+02  0.00000000000E+00 0. -1.
         -2   -1    0    0    0  501 -0.00000000000E+00 -0.00000000000E+00 -0.68685998162E+01  0.68685998162E+01  0.00000000000E+00 0.  1.
          1    1    1    2  502    0  0.73468777815E+01  0.18688222597E+02  0.36542583493E+02  0.41696362975E+02  0.00000000000E+00 0. -1.
         -1    1    1    2    0  501 -0.73468777815E+01 -0.18688222597E+02  0.19196961681E+02  0.27780381832E+02  0.00000000000E+00 0.  1.
</event>
<event>
 4    1  0.7060698E+001  0.2278314E+02  0.7546771E-02  0.1495239E+00
          2   -1    0    0  502    0  0.00000000000E+00  0.00000000000E+00  0.14185982614E+03  0.14185982614E+03  0.00000000000E+00 0.  1.
         -2   -1    0    0    0  501 -0.00000000000E+00 -0.00000000000E+00 -0.40311160534E+01  0.40311160534E+01  0.00000000000E+00 0. -1.
          1    1    1    2  502    0 -0.22202656022E+02  0.51101582462E+01  0.91075793642E+02  0.93882223234E+02  0.00000000000E+00 0. -1.
         -1    1    1    2    0  501  0.22202656022E+02 -0.51101582462E+01  0.46752916442E+02  0.52008718958E+02  0.00000000000E+00 0.  1.
</event>
<event>
 4    1  0.7060698E+001  0.2656229E+02  0.7546771E-02  0.1452055E+00
          2   -1    0    0  502    0  0.00000000000E+00  0.00000000000E+00  0.88436604658E+03  0.88436604658E+03  0.00000000000E+00 0. -1.
         -2   -1    0    0    0  501 -0.00000000000E+00 -0.00000000000E+00 -0.97404862793E+00  0.97404862793E+00  0.00000000000E+00 0.  1.
          1    1    1    2  502    0  0.24023235778E+02 -0.11333099780E+02  0.25339966831E+03  0.25478804310E+03  0.00000000000E+00 0.  1.
         -1    1    1    2    0  501 -0.24023235778E+02  0.11333099780E+02  0.62999232964E+03  0.63055205210E+03  0.00000000000E+00 0. -1.
</event>
<event>
 4    1  0.7060698E+001  0.2496613E+02  0.7546771E-02  0.1469183E+00
          2   -1    0    0  502    0  0.00000000000E+00  0.00000000000E+00  0.18951308691E+03  0.18951308691E+03  0.00000000000E+00 0. -1.
         -2   -1    0    0    0  501 -0.00000000000E+00 -0.00000000000E+00 -0.33314841937E+01  0.33314841937E+01  0.00000000000E+00 0.  1.
          1    1    1    2  502    0 -0.24850562026E+02  0.23994019690E+01  0.82201533943E+02  0.85909252967E+02  0.00000000000E+00 0. -1.
         -1    1    1    2    0  501  0.24850562026E+02 -0.23994019690E+01  0.10398006877E+03  0.10693531813E+03  0.00000000000E+00 0.  1.
</event>
<event>
 4    1  0.7060698E+001  0.2248466E+02  0.7546771E-02  0.1499073E+00
          2   -1    0    0  502    0  0.00000000000E+00  0.00000000000E+00  0.11540107169E+02  0.11540107169E+02  0.00000000000E+00 0. -1.
         -2   -1    0    0    0  501 -0.00000000000E+00 -0.00000000000E+00 -0.46290977753E+02  0.46290977753E+02  0.00000000000E+00 0.  1.
          1    1    1    2  502    0  0.21017690465E+02  0.79885318642E+01 -0.24070991602E+02  0.32938922122E+02  0.00000000000E+00 0.  1.
         -1    1    1    2    0  501 -0.21017690465E+02 -0.79885318642E+01 -0.10679878981E+02  0.24892162800E+02  0.00000000000E+00 0. -1.
</event>
<event>
 4    1  0.7060698E+001  0.2590346E+02  0.7546771E-02  0.1458945E+00
          2   -1    0    0  502    0  0.00000000000E+00  0.00000000000E+00  0.20999522152E+02  0.20999522152E+02  0.00000000000E+00 0. -1.
         -2   -1    0    0    0  501 -0.00000000000E+00 -0.00000000000E+00 -0.36821996379E+02  0.36821996379E+02  0.00000000000E+00 0.  1.
          1    1    1    2  502    0  0.24025540295E+02 -0.96831045719E+01  0.26021797896E+01  0.26033832608E+02  0.00000000000E+00 0. -1.
         -1    1    1    2    0  501 -0.24025540295E+02  0.96831045719E+01 -0.18424654017E+02  0.31787685922E+02  0.00000000000E+00 0.  1.
</event>
<event>
 4    1  0.7060698E+001  0.2315754E+02  0.7546771E-02  0.1490529E+00
          2   -1    0    0  502    0  0.00000000000E+00  0.00000000000E+00  0.79766169410E+03  0.79766169410E+03  0.00000000000E+00 0.  1.
         -2   -1    0    0    0  501 -0.00000000000E+00 -0.00000000000E+00 -0.16474811003E+01  0.16474811003E+01  0.00000000000E+00 0. -1.
          1    1    1    2  502    0  0.16678241969E+01 -0.23097398870E+02  0.90527555240E+02  0.93442547749E+02  0.00000000000E+00 0. -1.
         -1    1    1    2    0  501 -0.16678241969E+01  0.23097398870E+02  0.70548665776E+03  0.70586662745E+03  0.00000000000E+00 0.  1.
</event>
<event>
 4    1  0.7060698E+001  0.4449895E+02  0.7546771E-02  0.1323964E+00
          2   -1    0    0  502    0  0.00000000000E+00  0.00000000000E+00  0.76125426038E+01  0.76125426038E+01  0.00000000000E+00 0. -1.
         -2   -1    0    0    0  501 -0.00000000000E+00 -0.00000000000E+00 -0.26817583459E+03  0.26817583459E+03  0.00000000000E+00 0.  1.
          1    1    1    2  502    0 -0.23964210759E+02 -0.37494979403E+02 -0.10637855341E+03  0.11531068252E+03  0.00000000000E+00 0.  1.
         -1    1    1    2    0  501  0.23964210759E+02  0.37494979403E+02 -0.15418473858E+03  0.16047769467E+03  0.00000000000E+00 0. -1.
</event>
<event>
 4    1  0.7060698E+001  0.2849102E+02  0.7546771E-02  0.1433179E+00
          2   -1    0    0  502    0  0.00000000000E+00  0.00000000000E+00  0.10266948234E+04  0.10266948234E+04  0.00000000000E+00 0.  1.
         -2   -1    0    0    0  501 -0.00000000000E+00 -0.00000000000E+00 -0.87423525179E+00  0.87423525179E+00  0.00000000000E+00 0. -1.
          1    1    1    2  502    0 -0.23166336745E+02  0.16584907924E+02  0.35402742786E+03  0.35517201186E+03  0.00000000000E+00 0. -1.
         -1    1    1    2    0  501  0.23166336745E+02 -0.16584907924E+02  0.67179316032E+03  0.67239704682E+03  0.00000000000E+00 0.  1.
</event>
<event>
 4    1  0.7060698E+001  0.2453932E+02  0.7546771E-02  0.1474023E+00
          2   -1    0    0  502    0  0.00000000000E+00  0.00000000000E+00  0.50623461716E+01  0.50623461716E+01  0.00000000000E+00 0.  1.
         -2   -1    0    0    0  501 -0.00000000000E+00 -0.00000000000E+00 -0.12622436212E+03  0.12622436212E+03  0.00000000000E+00 0. -1.
          1    1    1    2  502    0 -0.85237032240E+01  0.23011409001E+02 -0.76336921708E+02  0.80184188446E+02  0.00000000000E+00 0.  1.
         -1    1    1    2    0  501  0.85237032240E+01 -0.23011409001E+02 -0.44825094238E+02  0.51102519844E+02  0.00000000000E+00 0. -1.
</event>
<event>
 4    1  0.7060698E+001  0.2459507E+02  0.7546771E-02  0.1473385E+00
          2   -1    0    0  502    0  0.00000000000E+00  0.00000000000E+00  0.66091268040E+03  0.66091268040E+03  0.00000000000E+00 0. -1.
         -2   -1    0    0    0  501 -0.00000000000E+00 -0.00000000000E+00 -0.20984658849E+01  0.20984658849E+01  0.00000000000E+00 0.  1.
          1    1    1    2  502    0 -0.24148771816E+02 -0.46641313109E+01  0.57833133058E+03  0.57885407940E+03  0.00000000000E+00 0. -1.
         -1    1    1    2    0  501  0.24148771816E+02  0.46641313109E+01  0.80482883935E+02  0.84157066891E+02  0.00000000000E+00 0.  1.
</event>
<event>
 4    1  0.7060698E+001  0.2225966E+02  0.7546771E-02  0.1502010E+00
          2   -1    0    0  502    0  0.00000000000E+00  0.00000000000E+00  0.97432545091E+01  0.97432545091E+01  0.00000000000E+00 0. -1.
         -2   -1    0    0    0  501 -0.00000000000E+00 -0.00000000000E+00 -0.53566448204E+02  0.53566448204E+02  0.00000000000E+00 0.  1.
          1    1    1    2  502    0 -0.19993126322E+02  0.97860763338E+01 -0.14789608937E+02  0.26724986860E+02  0.00000000000E+00 0.  1.
         -1    1    1    2    0  501  0.19993126322E+02 -0.97860763338E+01 -0.29033584758E+02  0.36584715853E+02  0.00000000000E+00 0. -1.
</event>
<event>
 4    1  0.7060698E+001  0.2104902E+02  0.7546771E-02  0.1518566E+00
          2   -1    0    0  502    0  0.00000000000E+00  0.00000000000E+00  0.25264283253E+03  0.25264283253E+03  0.00000000000E+00 0. -1.
         -2   -1    0    0    0  501 -0.00000000000E+00 -0.00000000000E+00 -0.17753509813E+01  0.17753509813E+01  0.00000000000E+00 0.  1.
          1    1    1    2  502    0  0.14133035638E+02  0.15598676936E+02  0.13947959014E+03  0.14105891494E+03  0.00000000000E+00 0. -1.
         -1    1    1    2    0  501 -0.14133035638E+02 -0.15598676936E+02  0.11138789141E+03  0.11335926858E+03  0.00000000000E+00 0.  1.
</event>
<event>
 4    1  0.7060698E+001  0.2100872E+02  0.7546771E-02  0.1519140E+00
          2   -1    0    0  502    0  0.00000000000E+00  0.00000000000E+00  0.28406305152E+03  0.28406305152E+03  0.00000000000E+00 0.  1.
         -2   -1    0    0    0  501 -0.00000000000E+00 -0.00000000000E+00 -0.20839383173E+01  0.20839383173E+01  0.00000000000E+00 0. -1.
          1    1    1    2  502    0  0.20282760033E+02  0.54750224843E+01  0.68824470644E+02  0.71959530191E+02  0.00000000000E+00 0.  1.
         -1    1    1    2    0  501 -0.20282760033E+02 -0.54750224843E+01  0.21315464255E+03  0.21418745964E+03  0.00000000000E+00 0. -1.
</event>
<event>
 4    1  0.7060698E+001  0.2106094E+02  0.7546771E-02  0.1518396E+00
          2   -1    0    0  502    0  0.00000000000E+00  0.00000000000E+00  0.46984081026E+02  0.46984081026E+02  0.00000000000E+00 0. -1.
         -2   -1    0    0    0  501 -0.00000000000E+00 -0.00000000000E+00 -0.18242962188E+02  0.18242962188E+02  0.00000000000E+00 0.  1.
          1    1    1    2  502    0 -0.64086197613E+01  0.20062220955E+02  0.37024664128E+02  0.42595643800E+02  0.00000000000E+00 0. -1.
         -1    1    1    2    0  501  0.64086197613E+01 -0.20062220955E+02 -0.82835452904E+01  0.22631399415E+02  0.00000000000E+00 0.  1.
</event>
<event>
 4    1  0.7060698E+001  0.4351518E+02  0.7546771E-02  0.1329033E+00
          2   -1    0    0  502    0  0.00000000000E+00  0.00000000000E+00  0.33019435990E+03  0.33019435990E+03  0.00000000000E+00 0.  1.
         -2   -1    0    0    0  501 -0.00000000000E+00 -0.00000000000E+00 -0.82139272074E+01  0.82139272074E+01  0.00000000000E+00 0. -1.
          1    1    1    2  502    0 -0.78542783160E+01  0.42800479662E+02  0.68031018534E+02  0.80757601685E+02  0.00000000000E+00 0. -1.
         -1    1    1    2    0  501  0.78542783160E+01 -0.42800479662E+02  0.25394941416E+03  0.25765068542E+03  0.00000000000E+00 0.  1.
</event>
<event>
 4    1  0.7060698E+001  0.4879582E+02  0.7546771E-02  0.1303479E+00
          2   -1    0    0  502    0  0.00000000000E+00  0.00000000000E+00  0.63591778971E+02  0.63591778971E+02  0.00000000000E+00 0.  1.
         -2   -1    0    0    0  501 -0.00000000000E+00 -0.00000000000E+00 -0.37661049513E+02  0.37661049513E+02  0.00000000000E+00 0. -1.
          1    1    1    2  502    0 -0.45333135931E+02  0.18053785641E+02  0.16822363878E+02  0.51614187156E+02  0.00000000000E+00 0.  1.
         -1    1    1    2    0  501  0.45333135931E+02 -0.18053785641E+02  0.91083655808E+01  0.49638641328E+02  0.00000000000E+00 0. -1.
</event>
<event>
 4    1  0.7060698E+001  0.2068415E+02  0.7546771E-02  0.1523823E+00
          2   -1    0    0  502    0  0.00000000000E+00  0.00000000000E+00  0.19102766079E+04  0.19102766079E+04  0.00000000000E+00 0.  1.
         -2   -1    0    0    0  501 -0.00000000000E+00 -0.00000000000E+00 -0.23297191400E+00  0.23297191400E+00  0.00000000000E+00 0. -1.
          1    1    1    2  502    0 -0.15243991287E+02  0.13980513440E+02  0.76719006854E+03  0.76746884972E+03  0.00000000000E+00 0.  1.
         -1    1    1    2    0  501  0.15243991287E+02 -0.13980513440E+02  0.11428535675E+04  0.11430407301E+04  0.00000000000E+00 0. -1.
</event>
<event>
 4    1  0.7060698E+001  0.2900212E+02  0.7546771E-02  0.1428471E+00
          2   -1    0    0  502    0  0.00000000000E+00  0.00000000000E+00  0.13909947597E+04  0.13909947597E+04  0.00000000000E+00 0. -1.
         -2   -1    0    0    0  501 -0.00000000000E+00 -0.00000000000E+00 -0.64738635746E+00  0.64738635746E+00  0.00000000000E+00 0.  1.
          1    1    1    2  502    0 -0.28892118261E+02  0.25236138376E+01  0.51648293896E+03  0.51729657776E+03  0.00000000000E+00 0.  1.
         -1    1    1    2    0  501  0.28892118261E+02 -0.25236138376E+01  0.87386443438E+03  0.87434556829E+03  0.00000000000E+00 0. -1.
</event>
<event>
 4    1  0.7060698E+001  0.3588392E+02  0.7546771E-02  0.1374453E+00
          2   -1    0    0  502    0  0.00000000000E+00  0.00000000000E+00  0.45527634068E+02  0.45527634068E+02  0.00000000000E+00 0. -1.
         -2   -1    0    0    0  501 -0.00000000000E+00 -0.00000000000E+00 -0.28308260135E+02  0.28308260135E+02  0.00000000000E+00 0.  1.
          1    1    1    2  502    0  0.22306370129E+02 -0.28108394035E+02  0.97135037097E+01  0.37175369775E+02  0.00000000000E+00 0.  1.
         -1    1    1    2    0  501 -0.22306370129E+02  0.28108394035E+02  0.75058702232E+01  0.36660524429E+02  0.00000000000E+00 0. -1.
</event>
<event>
 4    1  0.7060698E+001  0.2169676E+02  0.7546771E-02  0.1509545E+00
          2   -1    0    0  502    0  0.00000000000E+00  0.00000000000E+00  0.45279596551E+01  0.45279596551E+01  0.00000000000E+00 0. -1.
         -2   -1    0    0    0  501 -0.00000000000E+00 -0.00000000000E+00 -0.17600017475E+03  0.17600017475E+03  0.00000000000E+00 0.  1.
          1    1    1    2  502    0  0.19631111845E+02 -0.92395228585E+01 -0.14348327010E+03  0.14511443117E+03  0.00000000000E+00 0.  1.
         -1    1    1    2    0  501 -0.19631111845E+02  0.92395228585E+01 -0.27988944994E+02  0.35413703235E+02  0.00000000000E+00 0. -1.
</event>
<event>
 4    1  0.7060698E+001  0.3096120E+02  0.7546771E-02  0.1411423E+00
          2   -1    0    0  502    0  0.00000000000E+00  0.00000000000E+00  0.11237103615E+04  0.11237103615E+04  0.00000000000E+00 0.  1.
         -2   -1    0    0    0  501 -0.00000000000E+00 -0.00000000000E+00 -0.10954245807E+01  0.10954245807E+01  0.00000000000E+00 0. -1.
          1    1    1    2  502    0  0.30807552971E+02  0.30807100932E+01  0.29676956697E+03  0.29838024729E+03  0.00000000000E+00 0. -1.
         -1    1    1    2    0  501 -0.30807552971E+02 -0.30807100932E+01  0.82584536991E+03  0.82642553875E+03  0.00000000000E+00 0.  1.
</event>
<event>
 4    1  0.7060698E+001  0.2090425E+02  0.7546771E-02  0.1520636E+00
          2   -1    0    0  502    0  0.00000000000E+00  0.00000000000E+00  0.15078135300E+04  0.15078135300E+04  0.00000000000E+00 0. -1.
         -2   -1    0    0    0  501 -0.00000000000E+00 -0.00000000000E+00 -0.28981788207E+00  0.28981788207E+00  0.00000000000E+00 0.  1.
          1    1    1    2  502    0  0.48535666669E+00  0.20898614234E+02  0.75594881890E+03  0.75623779623E+03  0.00000000000E+00 0. -1.
         -1    1    1    2    0  501 -0.48535666669E+00 -0.20898614234E+02  0.75157489319E+03  0.75186555163E+03  0.00000000000E+00 0.  1.
</event>
<event>
 4    1  0.7060698E+001  0.2366191E+02  0.7546771E-02  0.1484350E+00
          2   -1    0    0  502    0  0.00000000000E+00  0.00000000000E+00  0.38373741917E+02  0.38373741917E+02  0.00000000000E+00 0. -1.
         -2   -1    0    0    0  501 -0.00000000000E+00 -0.00000000000E+00 -0.16752492323E+02  0.16752492323E+02  0.00000000000E+00 0.  1.
          1    1    1    2  502    0 -0.19801693524E+02 -0.12952948535E+02  0.90842332015E+00  0.23679340682E+02  0.00000000000E+00 0.  1.
         -1    1    1    2    0  501  0.19801693524E+02  0.12952948535E+02  0.20712826275E+02  0.31446893558E+02  0.00000000000E+00 0. -1.
</event>
<event>
 4    1  0.7060698E+001  0.6401442E+02  0.7546771E-02  0.1246771E+00
          2   -1    0    0  502    0  0.00000000000E+00  0.00000000000E+00  0.81305915117E+01  0.81305915117E+01  0.00000000000E+00 0. -1.
         -2   -1    0    0    0  501 -0.00000000000E+00 -0.00000000000E+00 -0.65448874772E+03  0.65448874772E+03  0.00000000000E+00 0.  1.
          1    1    1    2  502    0  0.61204640199E+02  0.18757359501E+02 -0.48204472441E+03  0.48627663202E+03  0.00000000000E+00 0.  1.
         -1    1    1    2    0  501 -0.61204640199E+02 -0.18757359501E+02 -0.16431343180E+03  0.17634270721E+03  0.00000000000E+00 0. -1.
</event>
<event>
 4    1  0.7060698E+001  0.4073536E+02  0.7546771E-02  0.1344230E+00
          2   -1    0    0  502    0  0.00000000000E+00  0.00000000000E+00  0.19246351742E+04  0.19246351742E+04  0.00000000000E+00 0. -1.
         -2   -1    0    0    0  501 -0.00000000000E+00 -0.00000000000E+00 -0.86862668331E+00  0.86862668331E+00  0.00000000000E+00 0.  1.
          1    1    1    2  502    0 -0.40505784181E+02  0.43186904306E+01  0.87890175165E+03  0.87984524702E+03  0.00000000000E+00 0. -1.
         -1    1    1    2    0  501  0.40505784181E+02 -0.43186904306E+01  0.10448647958E+04  0.10456585538E+04  0.00000000000E+00 0.  1.
</event>
<event>
 4    1  0.7060698E+001  0.6005328E+02  0.7546771E-02  0.1259652E+00
          2   -1    0    0  502    0  0.00000000000E+00  0.00000000000E+00  0.12048956951E+04  0.12048956951E+04  0.00000000000E+00 0.  1.
         -2   -1    0    0    0  501 -0.00000000000E+00 -0.00000000000E+00 -0.31135506379E+01  0.31135506379E+01  0.00000000000E+00 0. -1.
          1    1    1    2  502    0 -0.31794409326E+02  0.50946167797E+02  0.71968169912E+03  0.72218290240E+03  0.00000000000E+00 0.  1.
         -1    1    1    2    0  501  0.31794409326E+02 -0.50946167797E+02  0.48210044540E+03  0.48582634339E+03  0.00000000000E+00 0. -1.
</event>
<event>
 4    1  0.7060698E+001  0.2056958E+02  0.7546771E-02  0.1525500E+00
          2   -1    0    0  502    0  0.00000000000E+00  0.00000000000E+00  0.31358286913E+03  0.31358286913E+03  0.00000000000E+00 0. -1.
         -2   -1    0    0    0  501 -0.00000000000E+00 -0.00000000000E+00 -0.14175775311E+01  0.14175775311E+01  0.00000000000E+00 0.  1.
          1    1    1    2  502    0  0.19549272716E+02 -0.63979232618E+01  0.19065642409E+03  0.19176282104E+03  0.00000000000E+00 0. -1.
         -1    1    1    2    0  501 -0.19549272716E+02  0.63979232618E+01  0.12150886750E+03  0.12323762562E+03  0.00000000000E+00 0.  1.
</event>
<event>
 4    1  0.7060698E+001  0.3041170E+02  0.7546771E-02  0.1416052E+00
          2   -1    0    0  502    0  0.00000000000E+00  0.00000000000E+00  0.43075006889E+03  0.43075006889E+03  0.00000000000E+00 0. -1.
         -2   -1    0    0    0  501 -0.00000000000E+00 -0.00000000000E+00 -0.43040526735E+01  0.43040526735E+01  0.00000000000E+00 0.  1.
          1    1    1    2  502    0  0.26472506252E+02  0.14969232129E+02  0.36721315577E+03  0.36847031532E+03  0.00000000000E+00 0. -1.
         -1    1    1    2    0  501 -0.26472506252E+02 -0.14969232129E+02  0.59232860445E+02  0.66583806247E+02  0.00000000000E+00 0.  1.
</event>
<event>
 4    1  0.7060698E+001  0.2239374E+02  0.7546771E-02  0.1500255E+00
          2   -1    0    0  502    0  0.00000000000E+00  0.00000000000E+00  0.10275879661E+01  0.10275879661E+01  0.00000000000E+00 0. -1.
         -2   -1    0    0    0  501 -0.00000000000E+00 -0.00000000000E+00 -0.48878424731E+03  0.48878424731E+03  0.00000000000E+00 0.  1.
          1    1    1    2  502    0 -0.21429338525E+02  0.65010202338E+01 -0.23417169218E+03  0.23524000772E+03  0.00000000000E+00 0. -1.
         -1    1    1    2    0  501  0.21429338525E+02 -0.65010202338E+01 -0.25358496716E+03  0.25457182756E+03  0.00000000000E+00 0.  1.
</event>
<event>
 4    1  0.7060698E+001  0.2107650E+02  0.7546771E-02  0.1518175E+00
          2   -1    0    0  502    0  0.00000000000E+00  0.00000000000E+00  0.12118902374E+04  0.12118902374E+04  0.00000000000E+00 0.  1.
         -2   -1    0    0    0  501 -0.00000000000E+00 -0.00000000000E+00 -0.36720031536E+00  0.36720031536E+00  0.00000000000E+00 0. -1.
          1    1    1    2  502    0 -0.12505994612E+02 -0.16965224667E+02  0.63126326210E+03  0.63161501314E+03  0.00000000000E+00 0.  1.
         -1    1    1    2    0  501  0.12505994612E+02  0.16965224667E+02  0.58025977499E+03  0.58064242457E+03  0.00000000000E+00 0. -1.
</event>
<event>
 4    1  0.7060698E+001  0.3913496E+02  0.7546771E-02  0.1353631E+00
          2   -1    0    0  502    0  0.00000000000E+00  0.00000000000E+00  0.14293545778E+04  0.14293545778E+04  0.00000000000E+00 0.  1.
         -2   -1    0    0    0  501 -0.00000000000E+00 -0.00000000000E+00 -0.11307555561E+01  0.11307555561E+01  0.00000000000E+00 0. -1.
          1    1    1    2  502    0  0.39134399880E+02  0.20970508449E+00  0.55037197763E+03  0.55176159615E+03  0.00000000000E+00 0. -1.
         -1    1    1    2    0  501 -0.39134399880E+02 -0.20970508449E+00  0.87785184458E+03  0.87872373717E+03  0.00000000000E+00 0.  1.
</event>
<event>
 4    1  0.7060698E+001  0.3353528E+02  0.7546771E-02  0.1391164E+00
          2   -1    0    0  502    0  0.00000000000E+00  0.00000000000E+00  0.12059745887E+04  0.12059745887E+04  0.00000000000E+00 0.  1.
         -2   -1    0    0    0  501 -0.00000000000E+00 -0.00000000000E+00 -0.18078223465E+01  0.18078223465E+01  0.00000000000E+00 0. -1.
          1    1    1    2  502    0 -0.29637414853E+02 -0.15691990773E+02  0.18188356255E+03  0.18494930457E+03  0.00000000000E+00 0. -1.
         -1    1    1    2    0  501  0.29637414853E+02  0.15691990773E+02  0.10222832038E+04  0.10228331065E+04  0.00000000000E+00 0.  1.
</event>
<event>
 4    1  0.7060698E+001  0.2836921E+02  0.7546771E-02  0.1434319E+00
          2   -1    0    0  502    0  0.00000000000E+00  0.00000000000E+00  0.21215738642E+02  0.21215738642E+02  0.00000000000E+00 0.  1.
         -2   -1    0    0    0  501 -0.00000000000E+00 -0.00000000000E+00 -0.38651983958E+02  0.38651983958E+02  0.00000000000E+00 0. -1.
          1    1    1    2  502    0 -0.91105302132E+01 -0.26866530364E+02 -0.12795952099E+02  0.31121513534E+02  0.00000000000E+00 0. -1.
         -1    1    1    2    0  501  0.91105302132E+01  0.26866530364E+02 -0.46402932162E+01  0.28746209066E+02  0.00000000000E+00 0.  1.
</event>
<event>
 4    1  0.7060698E+001  0.2562649E+02  0.7546771E-02  0.1461915E+00
          2   -1    0    0  502    0  0.00000000000E+00  0.00000000000E+00  0.21144302605E+02  0.21144302605E+02  0.00000000000E+00 0.  1.
         -2   -1    0    0    0  501 -0.00000000000E+00 -0.00000000000E+00 -0.32499960645E+02  0.32499960645E+02  0.00000000000E+00 0. -1.
          1    1    1    2  502    0 -0.21746006037E+02 -0.13558325135E+02 -0.29682180309E-01  0.25626506591E+02  0.00000000000E+00 0.  1.
         -1    1    1    2    0  501  0.21746006037E+02  0.13558325135E+02 -0.11325975860E+02  0.28017756659E+02  0.00000000000E+00 0. -1.
</event>
<event>
 4    1  0.7060698E+001  0.2205374E+02  0.7546771E-02  0.1504735E+00
          2   -1    0    0  502    0  0.00000000000E+00  0.00000000000E+00  0.58491492103E+02  0.58491492103E+02  0.00000000000E+00 0.  1.
         -2   -1    0    0    0  501 -0.00000000000E+00 -0.00000000000E+00 -0.83623372158E+01  0.83623372158E+01  0.00000000000E+00 0. -1.
          1    1    1    2  502    0  0.45762447193E+01 -0.21573723630E+02  0.27574638892E+02  0.35309039594E+02  0.00000000000E+00 0.  1.
         -1    1    1    2    0  501 -0.45762447193E+01  0.21573723630E+02  0.22554515995E+02  0.31544789725E+02  0.00000000000E+00 0. -1.
</event>
<event>
 4    1  0.7060698E+001  0.2609227E+02  0.7546771E-02  0.1456946E+00
          2   -1    0    0  502    0  0.00000000000E+00  0.00000000000E+00  0.13425778529E+03  0.13425778529E+03  0.00000000000E+00 0. -1.
         -2   -1    0    0    0  501 -0.00000000000E+00 -0.00000000000E+00 -0.42801357727E+02  0.42801357727E+02  0.00000000000E+00 0.  1.
          1    1    1    2  502    0 -0.18465705455E+02 -0.18434319468E+02 -0.37391815187E+02  0.45595550826E+02  0.00000000000E+00 0.  1.
         -1    1    1    2    0  501  0.18465705455E+02  0.18434319468E+02  0.12884824275E+03  0.13146359219E+03  0.00000000000E+00 0. -1.
</event>
<event>
 4    1  0.7060698E+001  0.3129908E+02  0.7546771E-02  0.1408634E+00
          2   -1    0    0  502    0  0.00000000000E+00  0.00000000000E+00  0.54105663048E+03  0.54105663048E+03  0.00000000000E+00 0.  1.
         -2   -1    0    0    0  501 -0.00000000000E+00 -0.00000000000E+00 -0.19836066896E+01  0.19836066896E+01  0.00000000000E+00 0. -1.
          1    1    1    2  502    0 -0.13413524336E+00  0.31298792177E+02  0.18934716028E+03  0.19191659514E+03  0.00000000000E+00 0. -1.
         -1    1    1    2    0  501  0.13413524336E+00 -0.31298792177E+02  0.34972586351E+03  0.35112364203E+03  0.00000000000E+00 0.  1.
</event>
<event>
 4    1  0.7060698E+001  0.2238908E+02  0.7546771E-02  0.1500315E+00
          2   -1    0    0  502    0  0.00000000000E+00  0.00000000000E+00  0.10302077230E+04  0.10302077230E+04  0.00000000000E+00 0. -1.
         -2   -1    0    0    0  501 -0.00000000000E+00 -0.00000000000E+00 -0.51085650472E+00  0.51085650472E+00  0.00000000000E+00 0.  1.
          1    1    1    2  502    0 -0.88788581740E+01 -0.20553266834E+02  0.40248642991E+03  0.40310866669E+03  0.00000000000E+00 0.  1.
         -1    1    1    2    0  501  0.88788581740E+01  0.20553266834E+02  0.62721043661E+03  0.62760991283E+03  0.00000000000E+00 0. -1.
</event>
<event>
 4    1  0.7060698E+001  0.2450746E+02  0.7546771E-02  0.1474389E+00
          2   -1    0    0  502    0  0.00000000000E+00  0.00000000000E+00  0.10920267923E+02  0.10920267923E+02  0.00000000000E+00 0.  1.
         -2   -1    0    0    0  501 -0.00000000000E+00 -0.00000000000E+00 -0.55001119283E+02  0.55001119283E+02  0.00000000000E+00 0. -1.
          1    1    1    2  502    0 -0.15523049958E+02  0.18964449874E+02 -0.21896076909E+02  0.32864169289E+02  0.00000000000E+00 0.  1.
         -1    1    1    2    0  501  0.15523049958E+02 -0.18964449874E+02 -0.22184774451E+02  0.33057217918E+02  0.00000000000E+00 0. -1.
</event>
<event>
 4    1  0.7060698E+001  0.2249566E+02  0.7546771E-02  0.1498930E+00
          2   -1    0    0  502    0  0.00000000000E+00  0.00000000000E+00  0.14849526334E+02  0.14849526334E+02  0.00000000000E+00 0.  1.
         -2   -1    0    0    0  501 -0.00000000000E+00 -0.00000000000E+00 -0.87171450645E+02  0.87171450645E+02  0.00000000000E+00 0. -1.
          1    1    1    2  502    0  0.11844666319E+02 -0.19124817890E+02  0.36487782482E+01  0.22789654720E+02  0.00000000000E+00 0.  1.
         -1    1    1    2    0  501 -0.11844666319E+02  0.19124817890E+02 -0.75970702559E+02  0.79231322259E+02  0.00000000000E+00 0. -1.
</event>
<event>
 4    1  0.7060698E+001  0.2620761E+02  0.7546771E-02  0.1455734E+00
          2   -1    0    0  502    0  0.00000000000E+00  0.00000000000E+00  0.53699442346E+02  0.53699442346E+02  0.00000000000E+00 0. -1.
         -2   -1    0    0    0  501 -0.00000000000E+00 -0.00000000000E+00 -0.14985354931E+02  0.14985354931E+02  0.00000000000E+00 0.  1.
          1    1    1    2  502    0  0.21743091725E+02 -0.14631366926E+02  0.32500421316E+02  0.41750644565E+02  0.00000000000E+00 0. -1.
         -1    1    1    2    0  501 -0.21743091725E+02  0.14631366926E+02  0.62136660993E+01  0.26934152711E+02  0.00000000000E+00 0.  1.
</event>
<event>
 4    1  0.7060698E+001  0.2868536E+02  0.7546771E-02  0.1431375E+00
          2   -1    0    0  502    0  0.00000000000E+00  0.00000000000E+00  0.19864218638E+02  0.19864218638E+02  0.00000000000E+00 0.  1.
         -2   -1    0    0    0  501 -0.00000000000E+00 -0.00000000000E+00 -0.43171643278E+02  0.43171643278E+02  0.00000000000E+00 0. -1.
          1    1    1    2  502    0  0.32008523088E+00 -0.28683578885E+02 -0.17995585940E+02  0.33862830147E+02  0.00000000000E+00 0.  1.
         -1    1    1    2    0  501 -0.32008523088E+00  0.28683578885E+02 -0.53118387000E+01  0.29173031769E+02  0.00000000000E+00 0. -1.
</event>
<event>
 4    1  0.7060698E+001  0.2821141E+02  0.7546771E-02  0.1435805E+00
          2   -1    0    0  502    0  0.00000000000E+00  0.00000000000E+00  0.26455130962E+03  0.26455130962E+03  0.00000000000E+00 0.  1.
         -2   -1    0    0    0  501 -0.00000000000E+00 -0.00000000000E+00 -0.31266083229E+01  0.31266083229E+01  0.00000000000E+00 0. -1.
          1    1    1    2  502    0  0.47088705278E+01 -0.27815651127E+02  0.10469182767E+03  0.10842630073E+03  0.00000000000E+00 0. -1.
         -1    1    1    2    0  501 -0.47088705278E+01  0.27815651127E+02  0.15673287362E+03  0.15925161721E+03  0.00000000000E+00 0.  1.
</event>
<event>
 4    1  0.7060698E+001  0.2879801E+02  0.7546771E-02  0.1430337E+00
          2   -1    0    0  502    0  0.00000000000E+00  0.00000000000E+00  0.34462365607E+02  0.34462365607E+02  0.00000000000E+00 0. -1.
         -2   -1    0    0    0  501 -0.00000000000E+00 -0.00000000000E+00 -0.27311188685E+02  0.27311188685E+02  0.00000000000E+00 0.  1.
          1    1    1    2  502    0 -0.27607634274E+02 -0.81941484556E+01  0.14224643824E+02  0.32119558388E+02  0.00000000000E+00 0. -1.
         -1    1    1    2    0  501  0.27607634274E+02  0.81941484556E+01 -0.70734669015E+01  0.29653995904E+02  0.00000000000E+00 0.  1.
</event>
<event>
 4    1  0.7060698E+001  0.3014599E+02  0.7546771E-02  0.1418332E+00
          2   -1    0    0  502    0  0.00000000000E+00  0.00000000000E+00  0.85347707013E+01  0.85347707013E+01  0.00000000000E+00 0.  1.
         -2   -1    0    0    0  501 -0.00000000000E+00 -0.00000000000E+00 -0.12472700694E+03  0.12472700694E+03  0.00000000000E+00 0. -1.
          1    1    1    2  502    0 -0.28366434959E+01 -0.30012230787E+02 -0.32610583874E+02  0.44409804365E+02  0.00000000000E+00 0.  1.
         -1    1    1    2    0  501  0.28366434959E+01  0.30012230787E+02 -0.83581652369E+02  0.88851973280E+02  0.00000000000E+00 0. -1.
</event>
<event>
 4    1  0.7060698E+001  0.3698546E+02  0.7546771E-02  0.1367118E+00
          2   -1    0    0  502    0  0.00000000000E+00  0.00000000000E+00  0.94480122802E+03  0.94480122802E+03  0.00000000000E+00 0. -1.
         -2   -1    0    0    0  501 -0.00000000000E+00 -0.00000000000E+00 -0.14743542346E+01  0.14743542346E+01  0.00000000000E+00 0.  1.
          1    1    1    2  502    0 -0.78698432578E+01  0.36138479510E+02  0.53510869680E+03  0.53638534798E+03  0.00000000000E+00 0.  1.
         -1    1    1    2    0  501  0.78698432578E+01 -0.36138479510E+02  0.40821817698E+03  0.40989023427E+03  0.00000000000E+00 0. -1.
</event>
<event>
 4    1  0.7060698E+001  0.2334372E+02  0.7546771E-02  0.1488227E+00
          2   -1    0    0  502    0  0.00000000000E+00  0.00000000000E+00  0.81677718926E+03  0.81677718926E+03  0.00000000000E+00 0. -1.
         -2   -1    0    0    0  501 -0.00000000000E+00 -0.00000000000E+00 -0.94011855481E+00  0.94011855481E+00  0.00000000000E+00 0.  1.
          1    1    1    2  502    0  0.20754385672E+02  0.10685723433E+02  0.62822249784E+03  0.62865605541E+03  0.00000000000E+00 0. -1.
         -1    1    1    2    0  501 -0.20754385672E+02 -0.10685723433E+02  0.18761457287E+03  0.18906125241E+03  0.00000000000E+00 0.  1.
</event>
<event>
 4    1  0.7060698E+001  0.2239362E+02  0.7546771E-02  0.1500256E+00
          2   -1    0    0  502    0  0.00000000000E+00  0.00000000000E+00  0.34538646618E+02  0.34538646618E+02  0.00000000000E+00 0. -1.
         -2   -1    0    0    0  501 -0.00000000000E+00 -0.00000000000E+00 -0.16384104749E+02  0.16384104749E+02  0.00000000000E+00 0.  1.
          1    1    1    2  502    0 -0.21979437141E+02  0.42870296191E+01  0.48720958467E+00  0.22398920804E+02  0.00000000000E+00 0. -1.
         -1    1    1    2    0  501  0.21979437141E+02 -0.42870296191E+01  0.17667332284E+02  0.28523830563E+02  0.00000000000E+00 0.  1.
</event>
<event>
 4    1  0.7060698E+001  0.2478496E+02  0.7546771E-02  0.1471223E+00
          2   -1    0    0  502    0  0.00000000000E+00  0.00000000000E+00  0.73670961429E+02  0.73670961429E+02  0.00000000000E+00 0. -1.
         -2   -1    0    0    0  501 -0.00000000000E+00 -0.00000000000E+00 -0.85686791820E+01  0.85686791820E+01  0.00000000000E+00 0.  1.
          1    1    1    2  502    0 -0.84852748730E+01 -0.23287215864E+02  0.39292820507E+02  0.46456647057E+02  0.00000000000E+00 0. -1.
         -1    1    1    2    0  501  0.84852748730E+01  0.23287215864E+02  0.25809461740E+02  0.35782993554E+02  0.00000000000E+00 0.  1.
</event>
<event>
 4    1  0.7060698E+001  0.2105087E+02  0.7546771E-02  0.1518540E+00
          2   -1    0    0  502    0  0.00000000000E+00  0.00000000000E+00  0.46705855744E+03  0.46705855744E+03  0.00000000000E+00 0.  1.
         -2   -1    0    0    0  501 -0.00000000000E+00 -0.00000000000E+00 -0.13633004621E+01  0.13633004621E+01  0.00000000000E+00 0. -1.
          1    1    1    2  502    0  0.91169880432E+00 -0.21031114068E+02  0.36199359167E+03  0.36260515629E+03  0.00000000000E+00 0.  1.
         -1    1    1    2    0  501 -0.91169880432E+00  0.21031114068E+02  0.10370166530E+03  0.10581670161E+03  0.00000000000E+00 0. -1.
</event>
<event>
 4    1  0.7060698E+001  0.3438777E+02  0.7546771E-02  0.1384919E+00
          2   -1    0    0  502    0  0.00000000000E+00  0.00000000000E+00  0.32923308148E+01  0.32923308148E+01  0.00000000000E+00 0. -1.
         -2   -1    0    0    0  501 -0.00000000000E+00 -0.00000000000E+00 -0.51587820119E+03  0.51587820119E+03  0.00000000000E+00 0.  1.
          1    1    1    2  502    0 -0.63803965422E+01 -0.33790664324E+02 -0.39936250241E+03  0.40084027591E+03  0.00000000000E+00 0.  1.
         -1    1    1    2    0  501  0.63803965422E+01  0.33790664324E+02 -0.11322336796E+03  0.11833025610E+03  0.00000000000E+00 0. -1.
</event>
<event>
 4    1  0.7060698E+001  0.2926440E+02  0.7546771E-02  0.1426098E+00
          2   -1    0    0  502    0  0.00000000000E+00  0.00000000000E+00  0.14460436538E+03  0.14460436538E+03  0.00000000000E+00 0.  1.
         -2   -1    0    0    0  501 -0.00000000000E+00 -0.00000000000E+00 -0.91899971760E+01  0.91899971760E+01  0.00000000000E+00 0. -1.
          1    1    1    2  502    0  0.28996785828E+02  0.39486374228E+01  0.11356008209E+03  0.11727019046E+03  0.00000000000E+00 0.  1.
         -1    1    1    2    0  501 -0.28996785828E+02 -0.39486374228E+01  0.21854286113E+02  0.36524172096E+02  0.00000000000E+00 0. -1.
</event>
<event>
 4    1  0.7060698E+001  0.3870873E+02  0.7546771E-02  0.1356223E+00
          2   -1    0    0  502    0  0.00000000000E+00  0.00000000000E+00  0.58001146505E+02  0.58001146505E+02  0.00000000000E+00 0.  1.
         -2   -1    0    0    0  501 -0.00000000000E+00 -0.00000000000E+00 -0.26603733473E+02  0.26603733473E+02  0.00000000000E+00 0. -1.
          1    1    1    2  502    0 -0.77831243131E+01 -0.37918185186E+02  0.85002647379E+01  0.39631052124E+02  0.00000000000E+00 0. -1.
         -1    1    1    2    0  501  0.77831243131E+01  0.37918185186E+02  0.22897148294E+02  0.44973827854E+02  0.00000000000E+00 0.  1.
</event>
<event>
 4    1  0.7060698E+001  0.2944104E+02  0.7546771E-02  0.1424517E+00
          2   -1    0    0  502    0  0.00000000000E+00  0.00000000000E+00  0.24003922948E+03  0.24003922948E+03  0.00000000000E+00 0.  1.
         -2   -1    0    0    0  501 -0.00000000000E+00 -0.00000000000E+00 -0.41149938601E+01  0.41149938601E+01  0.00000000000E+00 0. -1.
          1    1    1    2  502    0 -0.14710698070E+02 -0.25502358956E+02  0.75237881173E+02  0.80793030104E+02  0.00000000000E+00 0. -1.
         -1    1    1    2    0  501  0.14710698070E+02  0.25502358956E+02  0.16068635445E+03  0.16336119324E+03  0.00000000000E+00 0.  1.
</event>
<event>
 4    1  0.7060698E+001  0.4039011E+02  0.7546771E-02  0.1346215E+00
          2   -1    0    0  502    0  0.00000000000E+00  0.00000000000E+00  0.13971425019E+04  0.13971425019E+04  0.00000000000E+00 0. -1.
         -2   -1    0    0    0  501 -0.00000000000E+00 -0.00000000000E+00 -0.67799551227E+01  0.67799551227E+01  0.00000000000E+00 0.  1.
          1    1    1    2  502    0 -0.20576531381E+02 -0.34755825662E+02  0.56519833616E+02  0.69468357207E+02  0.00000000000E+00 0.  1.
         -1    1    1    2    0  501  0.20576531381E+02  0.34755825662E+02  0.13338427131E+04  0.13344540998E+04  0.00000000000E+00 0. -1.
</event>
<event>
 4    1  0.7060698E+001  0.2470826E+02  0.7546771E-02  0.1472094E+00
          2   -1    0    0  502    0  0.00000000000E+00  0.00000000000E+00  0.15789292080E+02  0.15789292080E+02  0.00000000000E+00 0. -1.
         -2   -1    0    0    0  501 -0.00000000000E+00 -0.00000000000E+00 -0.38668830147E+02  0.38668830147E+02  0.00000000000E+00 0.  1.
          1    1    1    2  502    0  0.24092186204E+02  0.54831297175E+01 -0.11180615617E+02  0.27120182764E+02  0.00000000000E+00 0.  1.
         -1    1    1    2    0  501 -0.24092186204E+02 -0.54831297175E+01 -0.11698922450E+02  0.27337939462E+02  0.00000000000E+00 0. -1.
</event>
<event>
 4    1  0.7060698E+001  0.2692908E+02  0.7546771E-02  0.1448322E+00
          2   -1    0    0  502    0  0.00000000000E+00  0.00000000000E+00  0.21065155130E+04  0.21065155130E+04  0.00000000000E+00 0. -1.
         -2   -1    0    0    0  501 -0.00000000000E+00 -0.00000000000E+00 -0.47515779313E+00  0.47515779313E+00  0.00000000000E+00 0.  1.
          1    1    1    2  502    0 -0.65816451700E+01 -0.26112401658E+02  0.50006433868E+03  0.50078889604E+03  0.00000000000E+00 0.  1.
         -1    1    1    2    0  501  0.65816451700E+01  0.26112401658E+02  0.16059760165E+04  0.16062017747E+04  0.00000000000E+00 0. -1.
</event>
<event>
 4    1  0.7060698E+001  0.2110152E+02  0.7546771E-02  0.1517820E+00
          2   -1    0    0  502    0  0.00000000000E+00  0.00000000000E+00  0.88247583678E+03  0.88247583678E+03  0.00000000000E+00 0. -1.
         -2   -1    0    0    0  501 -0.00000000000E+00 -0.00000000000E+00 -0.11328227717E+01  0.11328227717E+01  0.00000000000E+00 0.  1.
          1    1    1    2  502    0 -0.25181486726E+01 -0.20950725613E+02  0.11165706779E+03  0.11363351075E+03  0.00000000000E+00 0.  1.
         -1    1    1    2    0  501  0.25181486726E+01  0.20950725613E+02  0.76968594622E+03  0.76997514881E+03  0.00000000000E+00 0. -1.
</event>
<event>
 4    1  0.7060698E+001  0.4151609E+02  0.7546771E-02  0.1339823E+00
          2   -1    0    0  502    0  0.00000000000E+00  0.00000000000E+00  0.11488848860E+04  0.11488848860E+04  0.00000000000E+00 0. -1.
         -2   -1    0    0    0  501 -0.00000000000E+00 -0.00000000000E+00 -0.15029959458E+01  0.15029959458E+01  0.00000000000E+00 0.  1.
          1    1    1    2  502    0 -0.22594584062E+02 -0.34829157376E+02  0.59838977576E+03  0.59982823305E+03  0.00000000000E+00 0.  1.
         -1    1    1    2    0  501  0.22594584062E+02  0.34829157376E+02  0.54899211426E+03  0.55055964886E+03  0.00000000000E+00 0. -1.
</event>
<event>
 4    1  0.7060698E+001  0.3744746E+02  0.7546771E-02  0.1364130E+00
          2   -1    0    0  502    0  0.00000000000E+00  0.00000000000E+00  0.16891357763E+04  0.16891357763E+04  0.00000000000E+00 0. -1.
         -2   -1    0    0    0  501 -0.00000000000E+00 -0.00000000000E+00 -0.10495642115E+01  0.10495642115E+01  0.00000000000E+00 0.  1.
          1    1    1    2  502    0  0.25594648822E+02 -0.27335444561E+02  0.12303988481E+04  0.12309685772E+04  0.00000000000E+00 0. -1.
         -1    1    1    2    0  501 -0.25594648822E+02  0.27335444561E+02  0.45768736399E+03  0.45921676334E+03  0.00000000000E+00 0.  1.
</event>
<event>
 4    1  0.7060698E+001  0.2493431E+02  0.7546771E-02  0.1469540E+00
          2   -1    0    0  502    0  0.00000000000E+00  0.00000000000E+00  0.13510683812E+04  0.13510683812E+04  0.00000000000E+00 0. -1.
         -2   -1    0    0    0  501 -0.00000000000E+00 -0.00000000000E+00 -0.50515534047E+00  0.50515534047E+00  0.00000000000E+00 0.  1.
          1    1    1    2  502    0  0.24039622042E+02  0.66193981922E+01  0.87694974543E+03  0.87730415243E+03  0.00000000000E+00 0. -1.
         -1    1    1    2    0  501 -0.24039622042E+02 -0.66193981922E+01  0.47361348040E+03  0.47426938408E+03  0.00000000000E+00 0.  1.
</event>
<event>
 4    1  0.7060698E+001  0.2736142E+02  0.7546771E-02  0.1444011E+00
          2   -1    0    0  502    0  0.00000000000E+00  0.00000000000E+00  0.86711734523E+02  0.86711734523E+02  0.00000000000E+00 0. -1.
         -2   -1    0    0    0  501 -0.00000000000E+00 -0.00000000000E+00 -0.11049509995E+02  0.11049509995E+02  0.00000000000E+00 0.  1.
          1    1    1    2  502    0  0.26003518367E+02 -0.85125839999E+01  0.60686705965E+02  0.66569687806E+02  0.00000000000E+00 0. -1.
         -1    1    1    2    0  501 -0.26003518367E+02  0.85125839999E+01  0.14975518564E+02  0.31191556711E+02  0.00000000000E+00 0.  1.
</event>
<event>
 4    1  0.7060698E+001  0.2554987E+02  0.7546771E-02  0.1462745E+00
          2   -1    0    0  502    0  0.00000000000E+00  0.00000000000E+00  0.33531117507E+02  0.33531117507E+02  0.00000000000E+00 0. -1.
         -2   -1    0    0    0  501 -0.00000000000E+00 -0.00000000000E+00 -0.27467078545E+02  0.27467078545E+02  0.00000000000E+00 0.  1.
          1    1    1    2  502    0  0.10642177664E+02  0.23228003450E+02 -0.13426500850E+02  0.28862900318E+02  0.00000000000E+00 0.  1.
         -1    1    1    2    0  501 -0.10642177664E+02 -0.23228003450E+02  0.19490539813E+02  0.32135295734E+02  0.00000000000E+00 0. -1.
</event>
<event>
 4    1  0.7060698E+001  0.2014565E+02  0.7546771E-02  0.1531821E+00
          2   -1    0    0  502    0  0.00000000000E+00  0.00000000000E+00  0.12441092449E+04  0.12441092449E+04  0.00000000000E+00 0.  1.
         -2   -1    0    0    0  501 -0.00000000000E+00 -0.00000000000E+00 -0.39886958375E+00  0.39886958375E+00  0.00000000000E+00 0. -1.
          1    1    1    2  502    0 -0.19956765488E+02  0.27522503849E+01  0.88742770442E+03  0.88765634000E+03  0.00000000000E+00 0.  1.
         -1    1    1    2    0  501  0.19956765488E+02 -0.27522503849E+01  0.35628267093E+03  0.35685177451E+03  0.00000000000E+00 0. -1.
</event>
<event>
 4    1  0.7060698E+001  0.2341203E+02  0.7546771E-02  0.1487388E+00
          2   -1    0    0  502    0  0.00000000000E+00  0.00000000000E+00  0.30189484956E+03  0.30189484956E+03  0.00000000000E+00 0. -1.
         -2   -1    0    0    0  501 -0.00000000000E+00 -0.00000000000E+00 -0.26196519972E+01  0.26196519972E+01  0.00000000000E+00 0.  1.
          1    1    1    2  502    0  0.10239463609E+02  0.21054135150E+02  0.23398964580E+03  0.23515798426E+03  0.00000000000E+00 0. -1.
         -1    1    1    2    0  501 -0.10239463609E+02 -0.21054135150E+02  0.65285551762E+02  0.69356517291E+02  0.00000000000E+00 0.  1.
</event>
<event>
 4    1  0.7060698E+001  0.3531576E+02  0.7546771E-02  0.1378357E+00
          2   -1    0    0  502    0  0.00000000000E+00  0.00000000000E+00  0.15307185192E+02  0.15307185192E+02  0.00000000000E+00 0. -1.
         -2   -1    0    0    0  501 -0.00000000000E+00 -0.00000000000E+00 -0.12291968577E+03  0.12291968577E+03  0.00000000000E+00 0.  1.
          1    1    1    2  502    0  0.36343809235E+01 -0.35128251088E+02 -0.93936247307E+02  0.10035547472E+03  0.00000000000E+00 0.  1.
         -1    1    1    2    0  501 -0.36343809235E+01  0.35128251088E+02 -0.13676253270E+02  0.37871396234E+02  0.00000000000E+00 0. -1.
</event>
<event>
 4    1  0.7060698E+001  0.2082101E+02  0.7546771E-02  0.1521836E+00
          2   -1    0    0  502    0  0.00000000000E+00  0.00000000000E+00  0.79617311893E+02  0.79617311893E+02  0.00000000000E+00 0. -1.
         -2   -1    0    0    0  501 -0.00000000000E+00 -0.00000000000E+00 -0.54481388510E+01  0.54481388510E+01  0.00000000000E+00 0.  1.
          1    1    1    2  502    0  0.20763451764E+02  0.15470902465E+01  0.36059920143E+02  0.41639311451E+02  0.00000000000E+00 0. -1.
         -1    1    1    2    0  501 -0.20763451764E+02 -0.15470902465E+01  0.38109252898E+02  0.43426139292E+02  0.00000000000E+00 0.  1.
</event>
<event>
 4    1  0.7060698E+001  0.3608209E+02  0.7546771E-02  0.1373111E+00
          2   -1    0    0  502    0  0.00000000000E+00  0.00000000000E+00  0.12234119562E+03  0.12234119562E+03  0.00000000000E+00 0.  1.
         -2   -1    0    0    0  501 -0.00000000000E+00 -0.00000000000E+00 -0.12666128385E+02  0.12666128385E+02  0.00000000000E+00 0. -1.
          1    1    1    2  502    0  0.15942773354E+02 -0.32368888807E+02  0.81824729047E+02  0.89427083529E+02  0.00000000000E+00 0.  1.
         -1    1    1    2    0  501 -0.15942773354E+02  0.32368888807E+02  0.27850338190E+02  0.45580240479E+02  0.00000000000E+00 0. -1.
</event>
<event>
 4    1  0.7060698E+001  0.2059996E+02  0.7546771E-02  0.1525054E+00
          2   -1    0    0  502    0  0.00000000000E+00  0.00000000000E+00  0.97935848248E+01  0.97935848248E+01  0.00000000000E+00 0. -1.
         -2   -1    0    0    0  501 -0.00000000000E+00 -0.00000000000E+00 -0.48986417053E+02  0.48986417053E+02  0.00000000000E+00 0.  1.
          1    1    1    2  502    0  0.20580812054E+02 -0.88802702123E+00 -0.29583141764E+02  0.36048865355E+02  0.00000000000E+00 0.  1.
         -1    1    1    2    0  501 -0.20580812054E+02  0.88802702123E+00 -0.96096904638E+01  0.22731136522E+02  0.00000000000E+00 0. -1.
</event>
<event>
 4    1  0.7060698E+001  0.3335508E+02  0.7546771E-02  0.1392511E+00
          2   -1    0    0  502    0  0.00000000000E+00  0.00000000000E+00  0.15323360467E+04  0.15323360467E+04  0.00000000000E+00 0.  1.
         -2   -1    0    0    0  501 -0.00000000000E+00 -0.00000000000E+00 -0.15578508874E+01  0.15578508874E+01  0.00000000000E+00 0. -1.
          1    1    1    2  502    0  0.26188475548E+02  0.20657324188E+02  0.20497301890E+03  0.20766920757E+03  0.00000000000E+00 0. -1.
         -1    1    1    2    0  501 -0.26188475548E+02 -0.20657324188E+02  0.13258051769E+04  0.13262246900E+04  0.00000000000E+00 0.  1.
</event>
<event>
 4    1  0.7060698E+001  0.2751421E+02  0.7546771E-02  0.1442510E+00
          2   -1    0    0  502    0  0.00000000000E+00  0.00000000000E+00  0.33264271137E+02  0.33264271137E+02  0.00000000000E+00 0. -1.
         -2   -1    0    0    0  501 -0.00000000000E+00 -0.00000000000E+00 -0.35336143806E+02  0.35336143806E+02  0.00000000000E+00 0.  1.
          1    1    1    2  502    0  0.94826329957E+01  0.25828502957E+02  0.19428207229E+02  0.33682148531E+02  0.00000000000E+00 0. -1.
         -1    1    1    2    0  501 -0.94826329957E+01 -0.25828502957E+02 -0.21500079899E+02  0.34918266412E+02  0.00000000000E+00 0.  1.
</event>
<event>
 4    1  0.7060698E+001  0.3905162E+02  0.7546771E-02  0.1354135E+00
          2   -1    0    0  502    0  0.00000000000E+00  0.00000000000E+00  0.11114752818E+04  0.11114752818E+04  0.00000000000E+00 0. -1.
         -2   -1    0    0    0  501 -0.00000000000E+00 -0.00000000000E+00 -0.14198899530E+01  0.14198899530E+01  0.00000000000E+00 0.  1.
          1    1    1    2  502    0  0.31682937055E+02  0.22830253537E+02  0.45291669444E+03  0.45459714152E+03  0.00000000000E+00 0.  1.
         -1    1    1    2    0  501 -0.31682937055E+02 -0.22830253537E+02  0.65713869741E+03  0.65829803024E+03  0.00000000000E+00 0. -1.
</event>
<event>
 4    1  0.7060698E+001  0.2389482E+02  0.7546771E-02  0.1481557E+00
          2   -1    0    0  502    0  0.00000000000E+00  0.00000000000E+00  0.18996950485E+04  0.18996950485E+04  0.00000000000E+00 0. -1.
         -2   -1    0    0    0  501 -0.00000000000E+00 -0.00000000000E+00 -0.30099807601E+00  0.30099807601E+00  0.00000000000E+00 0.  1.
          1    1    1    2  502    0  0.14837578127E+02 -0.18729894013E+02  0.91324436801E+03  0.91355691577E+03  0.00000000000E+00 0. -1.
         -1    1    1    2    0  501 -0.14837578127E+02  0.18729894013E+02  0.98614968237E+03  0.98643913076E+03  0.00000000000E+00 0.  1.
</event>
<event>
 4    1  0.7060698E+001  0.2418776E+02  0.7546771E-02  0.1478099E+00
          2   -1    0    0  502    0  0.00000000000E+00  0.00000000000E+00  0.11337942650E+04  0.11337942650E+04  0.00000000000E+00 0.  1.
         -2   -1    0    0    0  501 -0.00000000000E+00 -0.00000000000E+00 -0.87545942439E+00  0.87545942439E+00  0.00000000000E+00 0. -1.
          1    1    1    2  502    0 -0.90708077752E+01  0.22422492823E+02  0.92999012908E+03  0.93030462103E+03  0.00000000000E+00 0.  1.
         -1    1    1    2    0  501  0.90708077752E+01 -0.22422492823E+02  0.20292867655E+03  0.20436510344E+03  0.00000000000E+00 0. -1.
</event>
<event>
 4    1  0.7060698E+001  0.2180219E+02  0.7546771E-02  0.1508113E+00
          2   -1    0    0  502    0  0.00000000000E+00  0.00000000000E+00  0.15376778445E+04  0.15376778445E+04  0.00000000000E+00 0. -1.
         -2   -1    0    0    0  501 -0.00000000000E+00 -0.00000000000E+00 -0.31107747767E+00  0.31107747767E+00  0.00000000000E+00 0.  1.
          1    1    1    2  502    0 -0.61844150720E+01  0.20906661450E+02  0.70776859887E+03  0.70810431790E+03  0.00000000000E+00 0. -1.
         -1    1    1    2    0  501  0.61844150720E+01 -0.20906661450E+02  0.82959816816E+03  0.82988460409E+03  0.00000000000E+00 0.  1.
</event>
<event>
 4    1  0.7060698E+001  0.2028171E+02  0.7546771E-02  0.1529772E+00
          2   -1    0    0  502    0  0.00000000000E+00  0.00000000000E+00  0.24217999495E+02  0.24217999495E+02  0.00000000000E+00 0. -1.
         -2   -1    0    0    0  501 -0.00000000000E+00 -0.00000000000E+00 -0.72963306816E+02  0.72963306816E+02  0.00000000000E+00 0.  1.
          1    1    1    2  502    0  0.20278126893E+02  0.38144650305E+00 -0.66933428613E+02  0.69938771777E+02  0.00000000000E+00 0.  1.
         -1    1    1    2    0  501 -0.20278126893E+02 -0.38144650305E+00  0.18188121292E+02  0.27242534535E+02  0.00000000000E+00 0. -1.
</event>
<event>
 4    1  0.7060698E+001  0.4845474E+02  0.7546771E-02  0.1305015E+00
          2   -1    0    0  502    0  0.00000000000E+00  0.00000000000E+00  0.10284023863E+02  0.10284023863E+02  0.00000000000E+00 0. -1.
         -2   -1    0    0    0  501 -0.00000000000E+00 -0.00000000000E+00 -0.38839952610E+03  0.38839952610E+03  0.00000000000E+00 0.  1.
          1    1    1    2  502    0 -0.16116278925E+02 -0.45696035289E+02 -0.31704050022E+03  0.32072190582E+03  0.00000000000E+00 0.  1.
         -1    1    1    2    0  501  0.16116278925E+02  0.45696035289E+02 -0.61075002015E+02  0.77961644151E+02  0.00000000000E+00 0. -1.
</event>
<event>
 4    1  0.7060698E+001  0.3520162E+02  0.7546771E-02  0.1379151E+00
          2   -1    0    0  502    0  0.00000000000E+00  0.00000000000E+00  0.60229783099E+03  0.60229783099E+03  0.00000000000E+00 0. -1.
         -2   -1    0    0    0  501 -0.00000000000E+00 -0.00000000000E+00 -0.64502453531E+01  0.64502453531E+01  0.00000000000E+00 0.  1.
          1    1    1    2  502    0 -0.31841181113E+02 -0.15009779213E+02  0.46738888700E+02  0.58512203887E+02  0.00000000000E+00 0.  1.
         -1    1    1    2    0  501  0.31841181113E+02  0.15009779213E+02  0.54910869694E+03  0.55023587246E+03  0.00000000000E+00 0. -1.
</event>
<event>
 4    1  0.7060698E+001  0.2955576E+02  0.7546771E-02  0.1423497E+00
          2   -1    0    0  502    0  0.00000000000E+00  0.00000000000E+00  0.11367138090E+03  0.11367138090E+03  0.00000000000E+00 0.  1.
         -2   -1    0    0    0  501 -0.00000000000E+00 -0.00000000000E+00 -0.80605310648E+01  0.80605310648E+01  0.00000000000E+00 0. -1.
          1    1    1    2  502    0 -0.19090316970E+02 -0.22563301138E+02  0.39664484965E+02  0.49465282046E+02  0.00000000000E+00 0. -1.
         -1    1    1    2    0  501  0.19090316970E+02  0.22563301138E+02  0.65946364869E+02  0.72266629918E+02  0.00000000000E+00 0.  1.
</event>
<event>
 4    1  0.7060698E+001  0.3160175E+02  0.7546771E-02  0.1406170E+00
          2   -1    0    0  502    0  0.00000000000E+00  0.00000000000E+00  0.70982112561E+01  0.70982112561E+01  0.00000000000E+00 0.  1.
         -2   -1    0    0    0  501 -0.00000000000E+00 -0.00000000000E+00 -0.14069416601E+03  0.14069416601E+03  0.00000000000E+00 0. -1.
          1    1    1    2  502    0 -0.43113112878E+01  0.31306281862E+02 -0.66982452009E+02  0.74062943273E+02  0.00000000000E+00 0.  1.
         -1    1    1    2    0  501  0.43113112878E+01 -0.31306281862E+02 -0.66613502743E+02  0.73729433992E+02  0.00000000000E+00 0. -1.
</event>
<event>
 4    1  0.7060698E+001  0.1064650E+03  0.7546771E-02  0.1153053E+00
          2   -1    0    0  502    0  0.00000000000E+00  0.00000000000E+00  0.12429706781E+04  0.12429706781E+04  0.00000000000E+00 0. -1.
         -2   -1    0    0    0  501 -0.00000000000E+00 -0.00000000000E+00 -0.14666843924E+02  0.14666843924E+02  0.00000000000E+00 0.  1.
          1    1    1    2  502    0 -0.53930094547E+02  0.91795117533E+02  0.22741593771E+03  0.25110318083E+03  0.00000000000E+00 0.  1.
         -1    1    1    2    0  501  0.53930094547E+02 -0.91795117533E+02  0.10008878964E+04  0.10065343412E+04  0.00000000000E+00 0. -1.
</event>
<event>
 4    1  0.7060698E+001  0.2153223E+02  0.7546771E-02  0.1511800E+00
          2   -1    0    0  502    0  0.00000000000E+00  0.00000000000E+00  0.11062826671E+04  0.11062826671E+04  0.00000000000E+00 0.  1.
         -2   -1    0    0    0  501 -0.00000000000E+00 -0.00000000000E+00 -0.44559418356E+00  0.44559418356E+00  0.00000000000E+00 0. -1.
          1    1    1    2  502    0 -0.73132937758E+01 -0.20252227737E+02  0.41797207663E+03  0.41852633589E+03  0.00000000000E+00 0. -1.
         -1    1    1    2    0  501  0.73132937758E+01  0.20252227737E+02  0.68786499624E+03  0.68820192534E+03  0.00000000000E+00 0.  1.
</event>
<event>
 4    1  0.7060698E+001  0.3066862E+02  0.7546771E-02  0.1413873E+00
          2   -1    0    0  502    0  0.00000000000E+00  0.00000000000E+00  0.13725687056E+04  0.13725687056E+04  0.00000000000E+00 0. -1.
         -2   -1    0    0    0  501 -0.00000000000E+00 -0.00000000000E+00 -0.70525957335E+00  0.70525957335E+00  0.00000000000E+00 0.  1.
          1    1    1    2  502    0 -0.28820125108E+02 -0.10486408655E+02  0.80156406038E+03  0.80215055150E+03  0.00000000000E+00 0. -1.
         -1    1    1    2    0  501  0.28820125108E+02  0.10486408655E+02  0.57029938563E+03  0.57112341365E+03  0.00000000000E+00 0.  1.
</event>
<event>
 4    1  0.7060698E+001  0.2191281E+02  0.7546771E-02  0.1506621E+00
          2   -1    0    0  502    0  0.00000000000E+00  0.00000000000E+00  0.40680874447E+03  0.40680874447E+03  0.00000000000E+00 0.  1.
         -2   -1    0    0    0  501 -0.00000000000E+00 -0.00000000000E+00 -0.16571455423E+01  0.16571455423E+01  0.00000000000E+00 0. -1.
          1    1    1    2  502    0 -0.21525415881E+02 -0.41021841809E+01  0.93024520405E+02  0.95570564718E+02  0.00000000000E+00 0. -1.
         -1    1    1    2    0  501  0.21525415881E+02  0.41021841809E+01  0.31212707852E+03  0.31289532530E+03  0.00000000000E+00 0.  1.
</event>
<event>
 4    1  0.7060698E+001  0.2564790E+02  0.7546771E-02  0.1461684E+00
          2   -1    0    0  502    0  0.00000000000E+00  0.00000000000E+00  0.41187629133E+02  0.41187629133E+02  0.00000000000E+00 0.  1.
         -2   -1    0    0    0  501 -0.00000000000E+00 -0.00000000000E+00 -0.28239484101E+02  0.28239484101E+02  0.00000000000E+00 0. -1.
          1    1    1    2  502    0  0.54613251970E+01  0.25059704241E+02 -0.16406299444E+02  0.30446371065E+02  0.00000000000E+00 0. -1.
         -1    1    1    2    0  501 -0.54613251970E+01 -0.25059704241E+02  0.29354444477E+02  0.38980742170E+02  0.00000000000E+00 0.  1.
</event>
<event>
 4    1  0.7060698E+001  0.2884128E+02  0.7546771E-02  0.1429940E+00
          2   -1    0    0  502    0  0.00000000000E+00  0.00000000000E+00  0.10002992508E+03  0.10002992508E+03  0.00000000000E+00 0. -1.
         -2   -1    0    0    0  501 -0.00000000000E+00 -0.00000000000E+00 -0.83347137589E+01  0.83347137589E+01  0.00000000000E+00 0.  1.
          1    1    1    2  502    0  0.28665992486E+02  0.31749666715E+01  0.43260183023E+02  0.51992912727E+02  0.00000000000E+00 0.  1.
         -1    1    1    2    0  501 -0.28665992486E+02 -0.31749666715E+01  0.48435028294E+02  0.56371726108E+02  0.00000000000E+00 0. -1.
</event>
<event>
 4    1  0.7060698E+001  0.2475100E+02  0.7546771E-02  0.1471608E+00
          2   -1    0    0  502    0  0.00000000000E+00  0.00000000000E+00  0.10170922281E+04  0.10170922281E+04  0.00000000000E+00 0. -1.
         -2   -1    0    0    0  501 -0.00000000000E+00 -0.00000000000E+00 -0.73397348707E+00  0.73397348707E+00  0.00000000000E+00 0.  1.
          1    1    1    2  502    0 -0.21564466565E+02 -0.12148480837E+02  0.72371759679E+03  0.72414071265E+03  0.00000000000E+00 0. -1.
         -1    1    1    2    0  501  0.21564466565E+02  0.12148480837E+02  0.29264065787E+03  0.29368548899E+03  0.00000000000E+00 0.  1.
</event>
<event>
 4    1  0.7060698E+001  0.3657998E+02  0.7546771E-02  0.1369783E+00
          2   -1    0    0  502    0  0.00000000000E+00  0.00000000000E+00  0.84586571781E+03  0.84586571781E+03  0.00000000000E+00 0.  1.
         -2   -1    0    0    0  501 -0.00000000000E+00 -0.00000000000E+00 -0.18699991647E+01  0.18699991647E+01  0.00000000000E+00 0. -1.
          1    1    1    2  502    0 -0.10212450878E+02  0.35125499208E+02  0.58836328440E+03  0.58949932085E+03  0.00000000000E+00 0.  1.
         -1    1    1    2    0  501  0.10212450878E+02 -0.35125499208E+02  0.25563243425E+03  0.25823639613E+03  0.00000000000E+00 0. -1.
</event>
<event>
 4    1  0.7060698E+001  0.2676390E+02  0.7546771E-02  0.1449994E+00
          2   -1    0    0  502    0  0.00000000000E+00  0.00000000000E+00  0.35591336334E+02  0.35591336334E+02  0.00000000000E+00 0. -1.
         -2   -1    0    0    0  501 -0.00000000000E+00 -0.00000000000E+00 -0.20214081806E+02  0.20214081806E+02  0.00000000000E+00 0.  1.
          1    1    1    2  502    0  0.26439541269E+02 -0.41541557587E+01  0.58453086972E+01  0.27394780275E+02  0.00000000000E+00 0. -1.
         -1    1    1    2    0  501 -0.26439541269E+02  0.41541557587E+01  0.95319458312E+01  0.28410637865E+02  0.00000000000E+00 0.  1.
</event>
<event>
 4    1  0.7060698E+001  0.2041662E+02  0.7546771E-02  0.1527759E+00
          2   -1    0    0  502    0  0.00000000000E+00  0.00000000000E+00  0.97650571709E+00  0.97650571709E+00  0.00000000000E+00 0.  1.
         -2   -1    0    0    0  501 -0.00000000000E+00 -0.00000000000E+00 -0.44558406513E+03  0.44558406513E+03  0.00000000000E+00 0. -1.
          1    1    1    2  502    0 -0.82046883576E+01 -0.18695492519E+02 -0.17654219715E+03  0.17771883898E+03  0.00000000000E+00 0.  1.
         -1    1    1    2    0  501  0.82046883576E+01  0.18695492519E+02 -0.26806536226E+03  0.26884173188E+03  0.00000000000E+00 0. -1.
</event>
<event>
 4    1  0.7060698E+001  0.2422225E+02  0.7546771E-02  0.1477695E+00
          2   -1    0    0  502    0  0.00000000000E+00  0.00000000000E+00  0.30152636569E+01  0.30152636569E+01  0.00000000000E+00 0. -1.
         -2   -1    0    0    0  501 -0.00000000000E+00 -0.00000000000E+00 -0.28591721077E+03  0.28591721077E+03  0.00000000000E+00 0.  1.
          1    1    1    2  502    0 -0.37725935218E+01  0.23926658095E+02 -0.59799462086E+02  0.64518935943E+02  0.00000000000E+00 0. -1.
         -1    1    1    2    0  501  0.37725935218E+01 -0.23926658095E+02 -0.22310248502E+03  0.22441353848E+03  0.00000000000E+00 0.  1.
</event>
<event>
 4    1  0.7060698E+001  0.3183532E+02  0.7546771E-02  0.1404291E+00
          2   -1    0    0  502    0  0.00000000000E+00  0.00000000000E+00  0.10805642388E+04  0.10805642388E+04  0.00000000000E+00 0. -1.
         -2   -1    0    0    0  501 -0.00000000000E+00 -0.00000000000E+00 -0.11391428366E+01  0.11391428366E+01  0.00000000000E+00 0.  1.
          1    1    1    2  502    0 -0.31553724311E+02 -0.42249728503E+01  0.76702469152E+03  0.76768506910E+03  0.00000000000E+00 0. -1.
         -1    1    1    2    0  501  0.31553724311E+02  0.42249728503E+01  0.31240040440E+03  0.31401831250E+03  0.00000000000E+00 0.  1.
</event>
<event>
 4    1  0.7060698E+001  0.2597958E+02  0.7546771E-02  0.1458137E+00
          2   -1    0    0  502    0  0.00000000000E+00  0.00000000000E+00  0.22044512826E+01  0.22044512826E+01  0.00000000000E+00 0.  1.
         -2   -1    0    0    0  501 -0.00000000000E+00 -0.00000000000E+00 -0.30768906576E+03  0.30768906576E+03  0.00000000000E+00 0. -1.
          1    1    1    2  502    0 -0.19721662818E+02 -0.16911379325E+02 -0.14185820954E+03  0.14421751055E+03  0.00000000000E+00 0. -1.
         -1    1    1    2    0  501  0.19721662818E+02  0.16911379325E+02 -0.16362640493E+03  0.16567600649E+03  0.00000000000E+00 0.  1.
</event>
<event>
 4    1  0.7060698E+001  0.2885898E+02  0.7546771E-02  0.1429778E+00
          2   -1    0    0  502    0  0.00000000000E+00  0.00000000000E+00  0.55665646159E+03  0.55665646159E+03  0.00000000000E+00 0. -1.
         -2   -1    0    0    0  501 -0.00000000000E+00 -0.00000000000E+00 -0.20443068908E+01  0.20443068908E+01  0.00000000000E+00 0.  1.
          1    1    1    2  502    0 -0.82133926779E+01  0.27665521492E+02  0.42195964187E+03  0.42294536322E+03  0.00000000000E+00 0. -1.
         -1    1    1    2    0  501  0.82133926779E+01 -0.27665521492E+02  0.13265251283E+03  0.13575540526E+03  0.00000000000E+00 0.  1.
</event>
<event>
 4    1  0.7060698E+001  0.2070618E+02  0.7546771E-02  0.1523501E+00
          2   -1    0    0  502    0  0.00000000000E+00  0.00000000000E+00  0.32388390005E+02  0.32388390005E+02  0.00000000000E+00 0. -1.
         -2   -1    0    0    0  501 -0.00000000000E+00 -0.00000000000E+00 -0.14657660304E+02  0.14657660304E+02  0.00000000000E+00 0.  1.
          1    1    1    2  502    0  0.20676876400E+02  0.11012941180E+01  0.15437464782E+01  0.20763651403E+02  0.00000000000E+00 0. -1.
         -1    1    1    2    0  501 -0.20676876400E+02 -0.11012941180E+01  0.16186983222E+02  0.26282398906E+02  0.00000000000E+00 0.  1.
</event>
<event>
 4    1  0.7060698E+001  0.2517238E+02  0.7546771E-02  0.1466884E+00
          2   -1    0    0  502    0  0.00000000000E+00  0.00000000000E+00  0.39290407126E+03  0.39290407126E+03  0.00000000000E+00 0. -1.
         -2   -1    0    0    0  501 -0.00000000000E+00 -0.00000000000E+00 -0.17242249908E+01  0.17242249908E+01  0.00000000000E+00 0.  1.
          1    1    1    2  502    0  0.10373075368E+02 -0.22935740136E+02  0.24576471042E+03  0.24705048422E+03  0.00000000000E+00 0. -1.
         -1    1    1    2    0  501 -0.10373075368E+02  0.22935740136E+02  0.14541513585E+03  0.14757781203E+03  0.00000000000E+00 0.  1.
</event>
<event>
 4    1  0.7060698E+001  0.4163411E+02  0.7546771E-02  0.1339167E+00
          2   -1    0    0  502    0  0.00000000000E+00  0.00000000000E+00  0.14823543966E+04  0.14823543966E+04  0.00000000000E+00 0.  1.
         -2   -1    0    0    0  501 -0.00000000000E+00 -0.00000000000E+00 -0.15178660649E+01  0.15178660649E+01  0.00000000000E+00 0. -1.
          1    1    1    2  502    0  0.21680328861E+02  0.35543807057E+02  0.38490326302E+03  0.38714844797E+03  0.00000000000E+00 0.  1.
         -1    1    1    2    0  501 -0.21680328861E+02 -0.35543807057E+02  0.10959332675E+04  0.10967238147E+04  0.00000000000E+00 0. -1.
</event>
<event>
 4    1  0.7060698E+001  0.2237685E+02  0.7546771E-02  0.1500475E+00
          2   -1    0    0  502    0  0.00000000000E+00  0.00000000000E+00  0.17383221060E+04  0.17383221060E+04  0.00000000000E+00 0. -1.
         -2   -1    0    0    0  501 -0.00000000000E+00 -0.00000000000E+00 -0.35547605616E+00  0.35547605616E+00  0.00000000000E+00 0.  1.
          1    1    1    2  502    0 -0.12317528024E+02 -0.18681590371E+02  0.49036776952E+03  0.49087806297E+03  0.00000000000E+00 0.  1.
         -1    1    1    2    0  501  0.12317528024E+02  0.18681590371E+02  0.12475988605E+04  0.12477995191E+04  0.00000000000E+00 0. -1.
</event>
<event>
 4    1  0.7060698E+001  0.3078186E+02  0.7546771E-02  0.1412921E+00
          2   -1    0    0  502    0  0.00000000000E+00  0.00000000000E+00  0.56015234515E+02  0.56015234515E+02  0.00000000000E+00 0. -1.
         -2   -1    0    0    0  501 -0.00000000000E+00 -0.00000000000E+00 -0.19245421416E+02  0.19245421416E+02  0.00000000000E+00 0.  1.
          1    1    1    2  502    0 -0.10107094614E+02  0.29075238113E+02  0.52915891213E+01  0.31233375551E+02  0.00000000000E+00 0.  1.
         -1    1    1    2    0  501  0.10107094614E+02 -0.29075238113E+02  0.31478223978E+02  0.44027280380E+02  0.00000000000E+00 0. -1.
</event>
<event>
 4    1  0.7060698E+001  0.2640446E+02  0.7546771E-02  0.1453684E+00
          2   -1    0    0  502    0  0.00000000000E+00  0.00000000000E+00  0.16956791558E+03  0.16956791558E+03  0.00000000000E+00 0. -1.
         -2   -1    0    0    0  501 -0.00000000000E+00 -0.00000000000E+00 -0.51019729390E+01  0.51019729390E+01  0.00000000000E+00 0.  1.
          1    1    1    2  502    0 -0.19271222080E+02 -0.18050363447E+02  0.12071147036E+03  0.12356558864E+03  0.00000000000E+00 0. -1.
         -1    1    1    2    0  501  0.19271222080E+02  0.18050363447E+02  0.43754472289E+02  0.51104299881E+02  0.00000000000E+00 0.  1.
</event>
<event>
 4    1  0.7060698E+001  0.2384372E+02  0.7546771E-02  0.1482167E+00
          2   -1    0    0  502    0  0.00000000000E+00  0.00000000000E+00  0.18049184893E+01  0.18049184893E+01  0.00000000000E+00 0. -1.
         -2   -1    0    0    0  501 -0.00000000000E+00 -0.00000000000E+00 -0.31624563703E+03  0.31624563703E+03  0.00000000000E+00 0.  1.
          1    1    1    2  502    0 -0.21999687396E+02  0.91943786578E+01 -0.16725940002E+03  0.16895037656E+03  0.00000000000E+00 0.  1.
         -1    1    1    2    0  501  0.21999687396E+02 -0.91943786578E+01 -0.14718131853E+03  0.14910017896E+03  0.00000000000E+00 0. -1.
</event>
<event>
 4    1  0.7060698E+001  0.3216483E+02  0.7546771E-02  0.1401672E+00
          2   -1    0    0  502    0  0.00000000000E+00  0.00000000000E+00  0.91971844412E+03  0.91971844412E+03  0.00000000000E+00 0.  1.
         -2   -1    0    0    0  501 -0.00000000000E+00 -0.00000000000E+00 -0.11327689131E+01  0.11327689131E+01  0.00000000000E+00 0. -1.
          1    1    1    2  502    0  0.37445619571E+01 -0.31946119342E+02  0.49770737062E+03  0.49874562961E+03  0.00000000000E+00 0. -1.
         -1    1    1    2    0  501 -0.37445619571E+01  0.31946119342E+02  0.42087830458E+03  0.42210558342E+03  0.00000000000E+00 0.  1.
</event>
<event>
 4    1  0.7060698E+001  0.2683334E+02  0.7546771E-02  0.1449289E+00
          2   -1    0    0  502    0  0.00000000000E+00  0.00000000000E+00  0.91188067496E+03  0.91188067496E+03  0.00000000000E+00 0.  1.
         -2   -1    0    0    0  501 -0.00000000000E+00 -0.00000000000E+00 -0.10485538811E+01  0.10485538811E+01  0.00000000000E+00 0. -1.
          1    1    1    2  502    0 -0.20354737943E+02 -0.17484639936E+02  0.68225442458E+03  0.68278190357E+03  0.00000000000E+00 0.  1.
         -1    1    1    2    0  501  0.20354737943E+02  0.17484639936E+02  0.22857769651E+03  0.23014732527E+03  0.00000000000E+00 0. -1.
</event>
<event>
 4    1  0.7060698E+001  0.3212772E+02  0.7546771E-02  0.1401965E+00
          2   -1    0    0  502    0  0.00000000000E+00  0.00000000000E+00  0.22174575871E+02  0.22174575871E+02  0.00000000000E+00 0.  1.
         -2   -1    0    0    0  501 -0.00000000000E+00 -0.00000000000E+00 -0.47590109712E+02  0.47590109712E+02  0.00000000000E+00 0. -1.
          1    1    1    2  502    0 -0.29928785206E+02 -0.11681525358E+02 -0.17868700299E+02  0.36762489973E+02  0.00000000000E+00 0. -1.
         -1    1    1    2    0  501  0.29928785206E+02  0.11681525358E+02 -0.75468335424E+01  0.33002195611E+02  0.00000000000E+00 0.  1.
</event>
<event>
 4    1  0.7060698E+001  0.2609446E+02  0.7546771E-02  0.1456923E+00
          2   -1    0    0  502    0  0.00000000000E+00  0.00000000000E+00  0.58074763875E+02  0.58074763875E+02  0.00000000000E+00 0. -1.
         -2   -1    0    0    0  501 -0.00000000000E+00 -0.00000000000E+00 -0.12707961932E+02  0.12707961932E+02  0.00000000000E+00 0.  1.
          1    1    1    2  502    0  0.25976017270E+02 -0.24834506854E+01  0.32526888776E+02  0.41700353643E+02  0.00000000000E+00 0. -1.
         -1    1    1    2    0  501 -0.25976017270E+02  0.24834506854E+01  0.12839913167E+02  0.29082372164E+02  0.00000000000E+00 0.  1.
</event>
<event>
 4    1  0.7060698E+001  0.3288428E+02  0.7546771E-02  0.1396080E+00
          2   -1    0    0  502    0  0.00000000000E+00  0.00000000000E+00  0.11804793414E+03  0.11804793414E+03  0.00000000000E+00 0. -1.
         -2   -1    0    0    0  501 -0.00000000000E+00 -0.00000000000E+00 -0.99914483902E+01  0.99914483902E+01  0.00000000000E+00 0.  1.
          1    1    1    2  502    0 -0.25434944200E+02  0.20843217492E+02  0.35565730438E+02  0.48438592914E+02  0.00000000000E+00 0.  1.
         -1    1    1    2    0  501  0.25434944200E+02 -0.20843217492E+02  0.72490755315E+02  0.79600789619E+02  0.00000000000E+00 0. -1.
</event>
<event>
 4    1  0.7060698E+001  0.2641015E+02  0.7546771E-02  0.1453625E+00
          2   -1    0    0  502    0  0.00000000000E+00  0.00000000000E+00  0.19161817599E+04  0.19161817599E+04  0.00000000000E+00 0. -1.
         -2   -1    0    0    0  501 -0.00000000000E+00 -0.00000000000E+00 -0.44429093886E+00  0.44429093886E+00  0.00000000000E+00 0.  1.
          1    1    1    2  502    0 -0.68372736632E+01 -0.25509758288E+02  0.55048979083E+03  0.55112294988E+03  0.00000000000E+00 0.  1.
         -1    1    1    2    0  501  0.68372736632E+01  0.25509758288E+02  0.13652476781E+04  0.13655031009E+04  0.00000000000E+00 0. -1.
</event>
<event>
 4    1  0.7060698E+001  0.2149540E+02  0.7546771E-02  0.1512308E+00
          2   -1    0    0  502    0  0.00000000000E+00  0.00000000000E+00  0.21638420131E+02  0.21638420131E+02  0.00000000000E+00 0.  1.
         -2   -1    0    0    0  501 -0.00000000000E+00 -0.00000000000E+00 -0.26633814055E+02  0.26633814055E+02  0.00000000000E+00 0. -1.
          1    1    1    2  502    0 -0.15039264199E+02  0.15358146670E+02 -0.13244714293E+02  0.25248259217E+02  0.00000000000E+00 0. -1.
         -1    1    1    2    0  501  0.15039264199E+02 -0.15358146670E+02  0.82493203691E+01  0.23023974968E+02  0.00000000000E+00 0.  1.
</event>
<event>
 4    1  0.7060698E+001  0.3667478E+02  0.7546771E-02  0.1369156E+00
          2   -1    0    0  502    0  0.00000000000E+00  0.00000000000E+00  0.40609869202E+02  0.40609869202E+02  0.00000000000E+00 0. -1.
         -2   -1    0    0    0  501 -0.00000000000E+00 -0.00000000000E+00 -0.33135013940E+02  0.33135013940E+02  0.00000000000E+00 0.  1.
          1    1    1    2  502    0  0.50691520745E+01  0.36322762635E+02  0.44957828359E+01  0.36949309215E+02  0.00000000000E+00 0. -1.
         -1    1    1    2    0  501 -0.50691520745E+01 -0.36322762635E+02  0.29790724260E+01  0.36795573928E+02  0.00000000000E+00 0.  1.
</event>
<event>
 4    1  0.7060698E+001  0.2229287E+02  0.7546771E-02  0.1501574E+00
          2   -1    0    0  502    0  0.00000000000E+00  0.00000000000E+00  0.10455843361E+04  0.10455843361E+04  0.00000000000E+00 0. -1.
         -2   -1    0    0    0  501 -0.00000000000E+00 -0.00000000000E+00 -0.48353387488E+00  0.48353387488E+00  0.00000000000E+00 0.  1.
          1    1    1    2  502    0 -0.22060414206E+02 -0.32109471472E+01  0.59077981817E+03  0.59120027538E+03  0.00000000000E+00 0. -1.
         -1    1    1    2    0  501  0.22060414206E+02  0.32109471472E+01  0.45432098404E+03  0.45486759458E+03  0.00000000000E+00 0.  1.
</event>
<event>
 4    1  0.7060698E+001  0.2468474E+02  0.7546771E-02  0.1472361E+00
          2   -1    0    0  502    0  0.00000000000E+00  0.00000000000E+00  0.16764714764E+04  0.16764714764E+04  0.00000000000E+00 0.  1.
         -2   -1    0    0    0  501 -0.00000000000E+00 -0.00000000000E+00 -0.68380907094E+01  0.68380907094E+01  0.00000000000E+00 0. -1.
          1    1    1    2  502    0 -0.12597486050E+02 -0.21228281805E+02  0.15835472902E+02  0.29327441164E+02  0.00000000000E+00 0. -1.
         -1    1    1    2    0  501  0.12597486050E+02  0.21228281805E+02  0.16537979127E+04  0.16539821259E+04  0.00000000000E+00 0.  1.
</event>
<event>
 4    1  0.7060698E+001  0.4271511E+02  0.7546771E-02  0.1333270E+00
          2   -1    0    0  502    0  0.00000000000E+00  0.00000000000E+00  0.76636554520E+03  0.76636554520E+03  0.00000000000E+00 0. -1.
         -2   -1    0    0    0  501 -0.00000000000E+00 -0.00000000000E+00 -0.24849037505E+01  0.24849037505E+01  0.00000000000E+00 0.  1.
          1    1    1    2  502    0 -0.19959687449E+01  0.42668449049E+02  0.30326417729E+03  0.30625763936E+03  0.00000000000E+00 0. -1.
         -1    1    1    2    0  501  0.19959687449E+01 -0.42668449049E+02  0.46061646416E+03  0.46259280959E+03  0.00000000000E+00 0.  1.
</event>
<event>
 4    1  0.7060698E+001  0.2367482E+02  0.7546771E-02  0.1484194E+00
          2   -1    0    0  502    0  0.00000000000E+00  0.00000000000E+00  0.11350852862E+03  0.11350852862E+03  0.00000000000E+00 0. -1.
         -2   -1    0    0    0  501 -0.00000000000E+00 -0.00000000000E+00 -0.49975413701E+01  0.49975413701E+01  0.00000000000E+00 0.  1.
          1    1    1    2  502    0 -0.18301690497E+02 -0.15018157635E+02  0.47784000521E+02  0.53327362953E+02  0.00000000000E+00 0.  1.
         -1    1    1    2    0  501  0.18301690497E+02  0.15018157635E+02  0.60726986730E+02  0.65178707037E+02  0.00000000000E+00 0. -1.
</event>
<event>
 4    1  0.7060698E+001  0.2647989E+02  0.7546771E-02  0.1452904E+00
          2   -1    0    0  502    0  0.00000000000E+00  0.00000000000E+00  0.15536007171E+02  0.15536007171E+02  0.00000000000E+00 0.  1.
         -2   -1    0    0    0  501 -0.00000000000E+00 -0.00000000000E+00 -0.58257862960E+02  0.58257862960E+02  0.00000000000E+00 0. -1.
          1    1    1    2  502    0 -0.16571848135E+02 -0.20653292443E+02 -0.38478489160E+01  0.26758000311E+02  0.00000000000E+00 0.  1.
         -1    1    1    2    0  501  0.16571848135E+02  0.20653292443E+02 -0.38874006872E+02  0.47035869820E+02  0.00000000000E+00 0. -1.
</event>
<event>
 4    1  0.7060698E+001  0.2748501E+02  0.7546771E-02  0.1442796E+00
          2   -1    0    0  502    0  0.00000000000E+00  0.00000000000E+00  0.45768090959E+02  0.45768090959E+02  0.00000000000E+00 0.  1.
         -2   -1    0    0    0  501 -0.00000000000E+00 -0.00000000000E+00 -0.93277853948E+02  0.93277853948E+02  0.00000000000E+00 0. -1.
          1    1    1    2  502    0 -0.11337790112E+02 -0.25037577810E+02  0.39317822923E+02  0.47972043803E+02  0.00000000000E+00 0.  1.
         -1    1    1    2    0  501  0.11337790112E+02  0.25037577810E+02 -0.86827585911E+02  0.91073901105E+02  0.00000000000E+00 0. -1.
</event>
<event>
 4    1  0.7060698E+001  0.2121750E+02  0.7546771E-02  0.1516182E+00
          2   -1    0    0  502    0  0.00000000000E+00  0.00000000000E+00  0.12913679503E+04  0.12913679503E+04  0.00000000000E+00 0. -1.
         -2   -1    0    0    0  501 -0.00000000000E+00 -0.00000000000E+00 -0.37667905348E+00  0.37667905348E+00  0.00000000000E+00 0.  1.
          1    1    1    2  502    0  0.21130002034E+02  0.19249324103E+01  0.46918302073E+03  0.46966252702E+03  0.00000000000E+00 0.  1.
         -1    1    1    2    0  501 -0.21130002034E+02 -0.19249324103E+01  0.82180825047E+03  0.82208210228E+03  0.00000000000E+00 0. -1.
</event>
<event>
 4    1  0.7060698E+001  0.4018526E+02  0.7546771E-02  0.1347404E+00
          2   -1    0    0  502    0  0.00000000000E+00  0.00000000000E+00  0.90646244580E+03  0.90646244580E+03  0.00000000000E+00 0.  1.
         -2   -1    0    0    0  501 -0.00000000000E+00 -0.00000000000E+00 -0.22437053123E+01  0.22437053123E+01  0.00000000000E+00 0. -1.
          1    1    1    2  502    0 -0.40009180767E+02  0.37577621547E+01  0.65832991537E+03  0.65955525379E+03  0.00000000000E+00 0.  1.
         -1    1    1    2    0  501  0.40009180767E+02 -0.37577621547E+01  0.24588882511E+03  0.24915089732E+03  0.00000000000E+00 0. -1.
</event>
<event>
 4    1  0.7060698E+001  0.2302647E+02  0.7546771E-02  0.1492166E+00
          2   -1    0    0  502    0  0.00000000000E+00  0.00000000000E+00  0.17501238171E+04  0.17501238171E+04  0.00000000000E+00 0.  1.
         -2   -1    0    0    0  501 -0.00000000000E+00 -0.00000000000E+00 -0.38543685178E+00  0.38543685178E+00  0.00000000000E+00 0. -1.
          1    1    1    2  502    0 -0.20521095326E+02  0.10445243640E+02  0.46999285202E+03  0.47055658471E+03  0.00000000000E+00 0. -1.
         -1    1    1    2    0  501  0.20521095326E+02 -0.10445243640E+02  0.12797455282E+04  0.12799526692E+04  0.00000000000E+00 0.  1.
</event>
<event>
 4    1  0.7060698E+001  0.2341033E+02  0.7546771E-02  0.1487409E+00
          2   -1    0    0  502    0  0.00000000000E+00  0.00000000000E+00  0.12742401492E+04  0.12742401492E+04  0.00000000000E+00 0.  1.
         -2   -1    0    0    0  501 -0.00000000000E+00 -0.00000000000E+00 -0.44574471044E+00  0.44574471044E+00  0.00000000000E+00 0. -1.
          1    1    1    2  502    0  0.22937903049E+02  0.46793568268E+01  0.75632051733E+03  0.75668273980E+03  0.00000000000E+00 0.  1.
         -1    1    1    2    0  501 -0.22937903049E+02 -0.46793568268E+01  0.51747388720E+03  0.51800315415E+03  0.00000000000E+00 0. -1.
</event>
<event>
 4    1  0.7060698E+001  0.2609514E+02  0.7546771E-02  0.1456916E+00
          2   -1    0    0  502    0  0.00000000000E+00  0.00000000000E+00  0.22235370083E+02  0.22235370083E+02  0.00000000000E+00 0. -1.
         -2   -1    0    0    0  501 -0.00000000000E+00 -0.00000000000E+00 -0.68769912814E+02  0.68769912814E+02  0.00000000000E+00 0.  1.
          1    1    1    2  502    0  0.96333196538E+01  0.24251922450E+02  0.10621521491E+02  0.28173982836E+02  0.00000000000E+00 0. -1.
         -1    1    1    2    0  501 -0.96333196538E+01 -0.24251922450E+02 -0.57156064222E+02  0.62831300061E+02  0.00000000000E+00 0.  1.
</event>
<event>
 4    1  0.7060698E+001  0.2754702E+02  0.7546771E-02  0.1442189E+00
          2   -1    0    0  502    0  0.00000000000E+00  0.00000000000E+00  0.25958688347E+02  0.25958688347E+02  0.00000000000E+00 0.  1.
         -2   -1    0    0    0  501 -0.00000000000E+00 -0.00000000000E+00 -0.34856330891E+02  0.34856330891E+02  0.00000000000E+00 0. -1.
          1    1    1    2  502    0  0.27508755953E+02  0.14514041483E+01  0.77650924780E+01  0.28620532652E+02  0.00000000000E+00 0.  1.
         -1    1    1    2    0  501 -0.27508755953E+02 -0.14514041483E+01 -0.16662735023E+02  0.32194486586E+02  0.00000000000E+00 0. -1.
</event>
<event>
 4    1  0.7060698E+001  0.2169883E+02  0.7546771E-02  0.1509517E+00
          2   -1    0    0  502    0  0.00000000000E+00  0.00000000000E+00  0.17167623020E+03  0.17167623020E+03  0.00000000000E+00 0. -1.
         -2   -1    0    0    0  501 -0.00000000000E+00 -0.00000000000E+00 -0.32550870887E+01  0.32550870887E+01  0.00000000000E+00 0.  1.
          1    1    1    2  502    0 -0.64281619071E+01 -0.20724811317E+02  0.49505086218E+02  0.54051758816E+02  0.00000000000E+00 0. -1.
         -1    1    1    2    0  501  0.64281619071E+01  0.20724811317E+02  0.11891605690E+03  0.12087955848E+03  0.00000000000E+00 0.  1.
</event>
<event>
 4    1  0.7060698E+001  0.2136714E+02  0.7546771E-02  0.1514087E+00
          2   -1    0    0  502    0  0.00000000000E+00  0.00000000000E+00  0.73852102720E+03  0.73852102720E+03  0.00000000000E+00 0.  1.
         -2   -1    0    0    0  501 -0.00000000000E+00 -0.00000000000E+00 -0.14414216029E+01  0.14414216029E+01  0.00000000000E+00 0. -1.
          1    1    1    2  502    0  0.20652735550E+02  0.54789750799E+01  0.64814304968E+03  0.64849515612E+03  0.00000000000E+00 0.  1.
         -1    1    1    2    0  501 -0.20652735550E+02 -0.54789750799E+01  0.88936555919E+02  0.91467292692E+02  0.00000000000E+00 0. -1.
</event>
<event>
 4    1  0.7060698E+001  0.4665429E+02  0.7546771E-02  0.1313369E+00
          2   -1    0    0  502    0  0.00000000000E+00  0.00000000000E+00  0.13790634374E+02  0.13790634374E+02  0.00000000000E+00 0. -1.
         -2   -1    0    0    0  501 -0.00000000000E+00 -0.00000000000E+00 -0.16009686581E+03  0.16009686581E+03  0.00000000000E+00 0.  1.
          1    1    1    2  502    0 -0.36162636826E+02  0.29476887669E+02 -0.62815260116E+02  0.78245639573E+02  0.00000000000E+00 0.  1.
         -1    1    1    2    0  501  0.36162636826E+02 -0.29476887669E+02 -0.83490971320E+02  0.95641860609E+02  0.00000000000E+00 0. -1.
</event>
<event>
 4    1  0.7060698E+001  0.2412700E+02  0.7546771E-02  0.1478811E+00
          2   -1    0    0  502    0  0.00000000000E+00  0.00000000000E+00  0.28176129028E+03  0.28176129028E+03  0.00000000000E+00 0.  1.
         -2   -1    0    0    0  501 -0.00000000000E+00 -0.00000000000E+00 -0.33301734511E+01  0.33301734511E+01  0.00000000000E+00 0. -1.
          1    1    1    2  502    0 -0.19572770373E+02 -0.14107398020E+02  0.22704260391E+03  0.22832094956E+03  0.00000000000E+00 0.  1.
         -1    1    1    2    0  501  0.19572770373E+02  0.14107398020E+02  0.51388512924E+02  0.56770514173E+02  0.00000000000E+00 0. -1.
</event>
<event>
 4    1  0.7060698E+001  0.2247232E+02  0.7546771E-02  0.1499233E+00
          2   -1    0    0  502    0  0.00000000000E+00  0.00000000000E+00  0.20042842645E+03  0.20042842645E+03  0.00000000000E+00 0.  1.
         -2   -1    0    0    0  501 -0.00000000000E+00 -0.00000000000E+00 -0.28648520075E+01  0.28648520075E+01  0.00000000000E+00 0. -1.
          1    1    1    2  502    0 -0.95690206041E+01 -0.20333199894E+02  0.63496625244E+02  0.67355969228E+02  0.00000000000E+00 0. -1.
         -1    1    1    2    0  501  0.95690206041E+01  0.20333199894E+02  0.13406694920E+03  0.13593730923E+03  0.00000000000E+00 0.  1.
</event>
<event>
 4    1  0.7060698E+001  0.2609767E+02  0.7546771E-02  0.1456889E+00
          2   -1    0    0  502    0  0.00000000000E+00  0.00000000000E+00  0.14696424880E+04  0.14696424880E+04  0.00000000000E+00 0. -1.
         -2   -1    0    0    0  501 -0.00000000000E+00 -0.00000000000E+00 -0.47540324582E+00  0.47540324582E+00  0.00000000000E+00 0.  1.
          1    1    1    2  502    0 -0.21786240706E+02  0.14368309036E+02  0.61797058612E+03  0.61852140941E+03  0.00000000000E+00 0.  1.
         -1    1    1    2    0  501  0.21786240706E+02 -0.14368309036E+02  0.85119649867E+03  0.85159648187E+03  0.00000000000E+00 0. -1.
</event>
<event>
 4    1  0.7060698E+001  0.6207980E+02  0.7546771E-02  0.1252925E+00
          2   -1    0    0  502    0  0.00000000000E+00  0.00000000000E+00  0.17795708851E+04  0.17795708851E+04  0.00000000000E+00 0. -1.
         -2   -1    0    0    0  501 -0.00000000000E+00 -0.00000000000E+00 -0.27015725703E+01  0.27015725703E+01  0.00000000000E+00 0.  1.
          1    1    1    2  502    0  0.16090080033E+01  0.62058949064E+02  0.49152411013E+03  0.49542895848E+03  0.00000000000E+00 0.  1.
         -1    1    1    2    0  501 -0.16090080033E+01 -0.62058949064E+02  0.12853452024E+04  0.12868434992E+04  0.00000000000E+00 0. -1.
</event>
<event>
 4    1  0.7060698E+001  0.2319454E+02  0.7546771E-02  0.1490070E+00
          2   -1    0    0  502    0  0.00000000000E+00  0.00000000000E+00  0.39594984695E+01  0.39594984695E+01  0.00000000000E+00 0.  1.
         -2   -1    0    0    0  501 -0.00000000000E+00 -0.00000000000E+00 -0.16150641259E+03  0.16150641259E+03  0.00000000000E+00 0. -1.
          1    1    1    2  502    0  0.73810302816E+01  0.21988790797E+02 -0.45813091704E+02  0.51350033108E+02  0.00000000000E+00 0.  1.
         -1    1    1    2    0  501 -0.73810302816E+01 -0.21988790797E+02 -0.11173382242E+03  0.11411587795E+03  0.00000000000E+00 0. -1.
</event>
<event>
 4    1  0.7060698E+001  0.2302044E+02  0.7546771E-02  0.1492242E+00
          2   -1    0    0  502    0  0.00000000000E+00  0.00000000000E+00  0.31938567327E+03  0.31938567327E+03  0.00000000000E+00 0.  1.
         -2   -1    0    0    0  501 -0.00000000000E+00 -0.00000000000E+00 -0.19101180060E+01  0.19101180060E+01  0.00000000000E+00 0. -1.
          1    1    1    2  502    0  0.16177219656E+02  0.16377981870E+02  0.21695714096E+03  0.21817502547E+03  0.00000000000E+00 0.  1.
         -1    1    1    2    0  501 -0.16177219656E+02 -0.16377981870E+02  0.10051841431E+03  0.10312076581E+03  0.00000000000E+00 0. -1.
</event>
<event>
 4    1  0.7060698E+001  0.3131681E+02  0.7546771E-02  0.1408488E+00
          2   -1    0    0  502    0  0.00000000000E+00  0.00000000000E+00  0.50858749698E+03  0.50858749698E+03  0.00000000000E+00 0.  1.
         -2   -1    0    0    0  501 -0.00000000000E+00 -0.00000000000E+00 -0.82740463882E+01  0.82740463882E+01  0.00000000000E+00 0. -1.
          1    1    1    2  502    0 -0.26481369512E+02 -0.16717637390E+02  0.23835972049E+02  0.39356014720E+02  0.00000000000E+00 0. -1.
         -1    1    1    2    0  501  0.26481369512E+02  0.16717637390E+02  0.47647747854E+03  0.47750552865E+03  0.00000000000E+00 0.  1.
</event>
<event>
 4    1  0.7060698E+001  0.3785036E+02  0.7546771E-02  0.1361565E+00
          2   -1    0    0  502    0  0.00000000000E+00  0.00000000000E+00  0.41674272399E+03  0.41674272399E+03  0.00000000000E+00 0.  1.
         -2   -1    0    0    0  501 -0.00000000000E+00 -0.00000000000E+00 -0.36352860501E+01  0.36352860501E+01  0.00000000000E+00 0. -1.
          1    1    1    2  502    0  0.95191709245E+01  0.36633793777E+02  0.25555241872E+03  0.25834025660E+03  0.00000000000E+00 0.  1.
         -1    1    1    2    0  501 -0.95191709245E+01 -0.36633793777E+02  0.15755501922E+03  0.16203775345E+03  0.00000000000E+00 0. -1.
</event>
<event>
 4    1  0.7060698E+001  0.2532323E+02  0.7546771E-02  0.1465220E+00
          2   -1    0    0  502    0  0.00000000000E+00  0.00000000000E+00  0.29095304046E+02  0.29095304046E+02  0.00000000000E+00 0.  1.
         -2   -1    0    0    0  501 -0.00000000000E+00 -0.00000000000E+00 -0.22134328619E+02  0.22134328619E+02  0.00000000000E+00 0. -1.
          1    1    1    2  502    0 -0.24930475014E+02  0.44426614245E+01  0.18099427079E+01  0.25387826168E+02  0.00000000000E+00 0.  1.
         -1    1    1    2    0  501  0.24930475014E+02 -0.44426614245E+01  0.51510327192E+01  0.25841806497E+02  0.00000000000E+00 0. -1.
</event>
<event>
 4    1  0.7060698E+001  0.3852717E+02  0.7546771E-02  0.1357340E+00
          2   -1    0    0  502    0  0.00000000000E+00  0.00000000000E+00  0.12760367135E+04  0.12760367135E+04  0.00000000000E+00 0. -1.
         -2   -1    0    0    0  501 -0.00000000000E+00 -0.00000000000E+00 -0.24181520126E+01  0.24181520126E+01  0.00000000000E+00 0.  1.
          1    1    1    2  502    0 -0.12973624890E+02  0.36277094504E+02  0.17632004068E+03  0.18048019081E+03  0.00000000000E+00 0.  1.
         -1    1    1    2    0  501  0.12973624890E+02 -0.36277094504E+02  0.10972985208E+04  0.10979746747E+04  0.00000000000E+00 0. -1.
</event>
<event>
 4    1  0.7060698E+001  0.2937150E+02  0.7546771E-02  0.1425138E+00
          2   -1    0    0  502    0  0.00000000000E+00  0.00000000000E+00  0.47209124015E+01  0.47209124015E+01  0.00000000000E+00 0.  1.
         -2   -1    0    0    0  501 -0.00000000000E+00 -0.00000000000E+00 -0.19426528405E+03  0.19426528405E+03  0.00000000000E+00 0. -1.
          1    1    1    2  502    0 -0.29368473197E+02 -0.42197320478E+00 -0.70535231155E+02  0.76406178503E+02  0.00000000000E+00 0.  1.
         -1    1    1    2    0  501  0.29368473197E+02  0.42197320478E+00 -0.11900914050E+03  0.12258001795E+03  0.00000000000E+00 0. -1.
</event>
<event>
 4    1  0.7060698E+001  0.2171686E+02  0.7546771E-02  0.1509271E+00
          2   -1    0    0  502    0  0.00000000000E+00  0.00000000000E+00  0.77631503494E+02  0.77631503494E+02  0.00000000000E+00 0. -1.
         -2   -1    0    0    0  501 -0.00000000000E+00 -0.00000000000E+00 -0.79917935187E+01  0.79917935187E+01  0.00000000000E+00 0.  1.
          1    1    1    2  502    0  0.19305799135E+02 -0.99452558947E+01  0.55785682301E+02  0.59863714760E+02  0.00000000000E+00 0. -1.
         -1    1    1    2    0  501 -0.19305799135E+02  0.99452558947E+01  0.13854027674E+02  0.25759582253E+02  0.00000000000E+00 0.  1.
</event>
<event>
 4    1  0.7060698E+001  0.2152050E+02  0.7546771E-02  0.1511962E+00
          2   -1    0    0  502    0  0.00000000000E+00  0.00000000000E+00  0.10376368955E+02  0.10376368955E+02  0.00000000000E+00 0. -1.
         -2   -1    0    0    0  501 -0.00000000000E+00 -0.00000000000E+00 -0.57350286486E+02  0.57350286486E+02  0.00000000000E+00 0.  1.
          1    1    1    2  502    0  0.20042232016E+02  0.78384123593E+01 -0.39433027795E+02  0.44923217311E+02  0.00000000000E+00 0.  1.
         -1    1    1    2    0  501 -0.20042232016E+02 -0.78384123593E+01 -0.75408897363E+01  0.22803438129E+02  0.00000000000E+00 0. -1.
</event>
<event>
 4    1  0.7060698E+001  0.2404420E+02  0.7546771E-02  0.1479786E+00
          2   -1    0    0  502    0  0.00000000000E+00  0.00000000000E+00  0.24459125351E+02  0.24459125351E+02  0.00000000000E+00 0. -1.
         -2   -1    0    0    0  501 -0.00000000000E+00 -0.00000000000E+00 -0.30058037066E+02  0.30058037066E+02  0.00000000000E+00 0.  1.
          1    1    1    2  502    0 -0.22485206759E+02  0.85169829980E+01  0.97999129167E+01  0.25964626236E+02  0.00000000000E+00 0. -1.
         -1    1    1    2    0  501  0.22485206759E+02 -0.85169829980E+01 -0.15398824631E+02  0.28552536182E+02  0.00000000000E+00 0.  1.
</event>
<event>
 4    1  0.7060698E+001  0.2063226E+02  0.7546771E-02  0.1524581E+00
          2   -1    0    0  502    0  0.00000000000E+00  0.00000000000E+00  0.52990733484E+02  0.52990733484E+02  0.00000000000E+00 0. -1.
         -2   -1    0    0    0  501 -0.00000000000E+00 -0.00000000000E+00 -0.12220926721E+02  0.12220926721E+02  0.00000000000E+00 0.  1.
          1    1    1    2  502    0  0.84790205817E+01  0.18809470284E+02  0.39471463242E+02  0.44538594195E+02  0.00000000000E+00 0. -1.
         -1    1    1    2    0  501 -0.84790205817E+01 -0.18809470284E+02  0.12983435211E+01  0.20673066011E+02  0.00000000000E+00 0.  1.
</event>
<event>
 4    1  0.7060698E+001  0.2251048E+02  0.7546771E-02  0.1498738E+00
          2   -1    0    0  502    0  0.00000000000E+00  0.00000000000E+00  0.21066673530E+03  0.21066673530E+03  0.00000000000E+00 0. -1.
         -2   -1    0    0    0  501 -0.00000000000E+00 -0.00000000000E+00 -0.25260153502E+01  0.25260153502E+01  0.00000000000E+00 0.  1.
          1    1    1    2  502    0 -0.22420109927E+02 -0.20150828161E+01  0.12737065273E+03  0.12934452082E+03  0.00000000000E+00 0. -1.
         -1    1    1    2    0  501  0.22420109927E+02  0.20150828161E+01  0.80770067220E+02  0.83848229836E+02  0.00000000000E+00 0.  1.
</event>
<event>
 4    1  0.7060698E+001  0.3136137E+02  0.7546771E-02  0.1408124E+00
          2   -1    0    0  502    0  0.00000000000E+00  0.00000000000E+00  0.10759029398E+04  0.10759029398E+04  0.00000000000E+00 0.  1.
         -2   -1    0    0    0  501 -0.00000000000E+00 -0.00000000000E+00 -0.15298982207E+01  0.15298982207E+01  0.00000000000E+00 0. -1.
          1    1    1    2  502    0 -0.10493407084E+02  0.29553748171E+02  0.87895410539E+03  0.87951341946E+03  0.00000000000E+00 0.  1.
         -1    1    1    2    0  501  0.10493407084E+02 -0.29553748171E+02  0.19541893617E+03  0.19791941855E+03  0.00000000000E+00 0. -1.
</event>
<event>
 4    1  0.7060698E+001  0.6394741E+02  0.7546771E-02  0.1246980E+00
          2   -1    0    0  502    0  0.00000000000E+00  0.00000000000E+00  0.76166548210E+02  0.76166548210E+02  0.00000000000E+00 0.  1.
         -2   -1    0    0    0  501 -0.00000000000E+00 -0.00000000000E+00 -0.56866218470E+02  0.56866218470E+02  0.00000000000E+00 0. -1.
          1    1    1    2  502    0  0.63558730250E+02 -0.70397946485E+01 -0.60735917346E+01  0.64235188302E+02  0.00000000000E+00 0. -1.
         -1    1    1    2    0  501 -0.63558730250E+02  0.70397946485E+01  0.25373921475E+02  0.68797578378E+02  0.00000000000E+00 0.  1.
</event>
<event>
 4    1  0.7060698E+001  0.2650739E+02  0.7546771E-02  0.1452620E+00
          2   -1    0    0  502    0  0.00000000000E+00  0.00000000000E+00  0.21841713005E+03  0.21841713005E+03  0.00000000000E+00 0.  1.
         -2   -1    0    0    0  501 -0.00000000000E+00 -0.00000000000E+00 -0.10592550812E+02  0.10592550812E+02  0.00000000000E+00 0. -1.
          1    1    1    2  502    0 -0.19540476467E+02  0.17911215615E+02  0.19946029206E+03  0.20121394081E+03  0.00000000000E+00 0.  1.
         -1    1    1    2    0  501  0.19540476467E+02 -0.17911215615E+02  0.83642871791E+01  0.27795740059E+02  0.00000000000E+00 0. -1.
</event>
<event>
 4    1  0.7060698E+001  0.2052644E+02  0.7546771E-02  0.1526135E+00
          2   -1    0    0  502    0  0.00000000000E+00  0.00000000000E+00  0.63979446040E+03  0.63979446040E+03  0.00000000000E+00 0. -1.
         -2   -1    0    0    0  501 -0.00000000000E+00 -0.00000000000E+00 -0.91060415335E+00  0.91060415335E+00  0.00000000000E+00 0.  1.
          1    1    1    2  502    0 -0.15681788000E+02  0.13244479931E+02  0.15089809755E+03  0.15228778864E+03  0.00000000000E+00 0.  1.
         -1    1    1    2    0  501  0.15681788000E+02 -0.13244479931E+02  0.48798575870E+03  0.48841727592E+03  0.00000000000E+00 0. -1.
</event>
<event>
 4    1  0.7060698E+001  0.2339794E+02  0.7546771E-02  0.1487561E+00
          2   -1    0    0  502    0  0.00000000000E+00  0.00000000000E+00  0.84229600774E+00  0.84229600774E+00  0.00000000000E+00 0. -1.
         -2   -1    0    0    0  501 -0.00000000000E+00 -0.00000000000E+00 -0.65440116745E+03  0.65440116745E+03  0.00000000000E+00 0.  1.
          1    1    1    2  502    0 -0.10439901323E+02  0.20939724062E+02 -0.35375163419E+03  0.35452458628E+03  0.00000000000E+00 0. -1.
         -1    1    1    2    0  501  0.10439901323E+02 -0.20939724062E+02 -0.29980723725E+03  0.30071887718E+03  0.00000000000E+00 0.  1.
</event>
<event>
 4    1  0.7060698E+001  0.2716980E+02  0.7546771E-02  0.1445910E+00
          2   -1    0    0  502    0  0.00000000000E+00  0.00000000000E+00  0.13955214802E+04  0.13955214802E+04  0.00000000000E+00 0.  1.
         -2   -1    0    0    0  501 -0.00000000000E+00 -0.00000000000E+00 -0.26466391817E+01  0.26466391817E+01  0.00000000000E+00 0. -1.
          1    1    1    2  502    0 -0.59509115246E+01  0.26510091127E+02  0.13217690657E+04  0.13220482825E+04  0.00000000000E+00 0.  1.
         -1    1    1    2    0  501  0.59509115246E+01 -0.26510091127E+02  0.71105775289E+02  0.76119836830E+02  0.00000000000E+00 0. -1.
</event>
<event>
 4    1  0.7060698E+001  0.2534660E+02  0.7546771E-02  0.1464963E+00
          2   -1    0    0  502    0  0.00000000000E+00  0.00000000000E+00  0.19177571253E+03  0.19177571253E+03  0.00000000000E+00 0. -1.
         -2   -1    0    0    0  501 -0.00000000000E+00 -0.00000000000E+00 -0.49330918712E+01  0.49330918712E+01  0.00000000000E+00 0.  1.
          1    1    1    2  502    0 -0.23007399535E+02 -0.10635297645E+02  0.14913812674E+03  0.15127666984E+03  0.00000000000E+00 0. -1.
         -1    1    1    2    0  501  0.23007399535E+02  0.10635297645E+02  0.37704493915E+02  0.45432134560E+02  0.00000000000E+00 0.  1.
</event>
<event>
 4    1  0.7060698E+001  0.3719902E+02  0.7546771E-02  0.1365730E+00
          2   -1    0    0  502    0  0.00000000000E+00  0.00000000000E+00  0.31497540522E+02  0.31497540522E+02  0.00000000000E+00 0. -1.
         -2   -1    0    0    0  501 -0.00000000000E+00 -0.00000000000E+00 -0.45256610236E+02  0.45256610236E+02  0.00000000000E+00 0.  1.
          1    1    1    2  502    0  0.24518440439E+02  0.27975221844E+02 -0.31526576228E+00  0.37200354182E+02  0.00000000000E+00 0. -1.
         -1    1    1    2    0  501 -0.24518440439E+02 -0.27975221844E+02 -0.13443803952E+02  0.39553796575E+02  0.00000000000E+00 0.  1.
</event>
<event>
 4    1  0.7060698E+001  0.3847639E+02  0.7546771E-02  0.1357653E+00
          2   -1    0    0  502    0  0.00000000000E+00  0.00000000000E+00  0.24901502328E+03  0.24901502328E+03  0.00000000000E+00 0. -1.
         -2   -1    0    0    0  501 -0.00000000000E+00 -0.00000000000E+00 -0.65850894938E+01  0.65850894938E+01  0.00000000000E+00 0.  1.
          1    1    1    2  502    0 -0.78615228624E+01 -0.37664694838E+02  0.81375075640E+02  0.90012975255E+02  0.00000000000E+00 0.  1.
         -1    1    1    2    0  501  0.78615228624E+01  0.37664694838E+02  0.16105485815E+03  0.16558713752E+03  0.00000000000E+00 0. -1.
</event>
<event>
 4    1  0.7060698E+001  0.3174930E+02  0.7546771E-02  0.1404980E+00
          2   -1    0    0  502    0  0.00000000000E+00  0.00000000000E+00  0.27061514441E+04  0.27061514441E+04  0.00000000000E+00 0.  1.
         -2   -1    0    0    0  501 -0.00000000000E+00 -0.00000000000E+00 -0.47097708046E+00  0.47097708046E+00  0.00000000000E+00 0. -1.
          1    1    1    2  502    0 -0.22798066865E+02 -0.22096742379E+02  0.19716890326E+04  0.19719446389E+04  0.00000000000E+00 0.  1.
         -1    1    1    2    0  501  0.22798066865E+02  0.22096742379E+02  0.73399143445E+03  0.73467778225E+03  0.00000000000E+00 0. -1.
</event>
<event>
 4    1  0.7060698E+001  0.4639787E+02  0.7546771E-02  0.1314594E+00
          2   -1    0    0  502    0  0.00000000000E+00  0.00000000000E+00  0.15936190254E+02  0.15936190254E+02  0.00000000000E+00 0.  1.
         -2   -1    0    0    0  501 -0.00000000000E+00 -0.00000000000E+00 -0.14231736440E+03  0.14231736440E+03  0.00000000000E+00 0. -1.
          1    1    1    2  502    0 -0.41557251168E+02  0.20633876428E+02 -0.45354739353E+02  0.64883082255E+02  0.00000000000E+00 0.  1.
         -1    1    1    2    0  501  0.41557251168E+02 -0.20633876428E+02 -0.81026434797E+02  0.93370472405E+02  0.00000000000E+00 0. -1.
</event>
<event>
 4    1  0.7060698E+001  0.2453826E+02  0.7546771E-02  0.1474036E+00
          2   -1    0    0  502    0  0.00000000000E+00  0.00000000000E+00  0.12471106253E+04  0.12471106253E+04  0.00000000000E+00 0.  1.
         -2   -1    0    0    0  501 -0.00000000000E+00 -0.00000000000E+00 -0.51789799895E+00  0.51789799895E+00  0.00000000000E+00 0. -1.
          1    1    1    2  502    0 -0.11957242407E+02  0.21427795591E+02  0.78565293007E+03  0.78603603773E+03  0.00000000000E+00 0. -1.
         -1    1    1    2    0  501  0.11957242407E+02 -0.21427795591E+02  0.46093979720E+03  0.46159248555E+03  0.00000000000E+00 0.  1.
</event>
<event>
 4    1  0.7060698E+001  0.2309725E+02  0.7546771E-02  0.1491281E+00
          2   -1    0    0  502    0  0.00000000000E+00  0.00000000000E+00  0.76333818375E+01  0.76333818375E+01  0.00000000000E+00 0. -1.
         -2   -1    0    0    0  501 -0.00000000000E+00 -0.00000000000E+00 -0.73290835016E+02  0.73290835016E+02  0.00000000000E+00 0.  1.
          1    1    1    2  502    0 -0.16962720025E+02  0.15676380567E+02 -0.24110345319E+02  0.33388493973E+02  0.00000000000E+00 0. -1.
         -1    1    1    2    0  501  0.16962720025E+02 -0.15676380567E+02 -0.41547107859E+02  0.47535722881E+02  0.00000000000E+00 0.  1.
</event>
<event>
 4    1  0.7060698E+001  0.3224722E+02  0.7546771E-02  0.1401023E+00
          2   -1    0    0  502    0  0.00000000000E+00  0.00000000000E+00  0.18098448207E+02  0.18098448207E+02  0.00000000000E+00 0. -1.
         -2   -1    0    0    0  501 -0.00000000000E+00 -0.00000000000E+00 -0.19095632548E+03  0.19095632548E+03  0.00000000000E+00 0.  1.
          1    1    1    2  502    0 -0.95762283376E+01 -0.30792516137E+02  0.96927279667E+00  0.32261783723E+02  0.00000000000E+00 0. -1.
         -1    1    1    2    0  501  0.95762283376E+01  0.30792516137E+02 -0.17382715007E+03  0.17679298997E+03  0.00000000000E+00 0.  1.
</event>
<event>
 4    1  0.7060698E+001  0.2627310E+02  0.7546771E-02  0.1455050E+00
          2   -1    0    0  502    0  0.00000000000E+00  0.00000000000E+00  0.69864492942E+02  0.69864492942E+02  0.00000000000E+00 0.  1.
         -2   -1    0    0    0  501 -0.00000000000E+00 -0.00000000000E+00 -0.10264996407E+02  0.10264996407E+02  0.00000000000E+00 0. -1.
          1    1    1    2  502    0  0.84013050411E+01 -0.24893653637E+02  0.37556723185E+02  0.45834303466E+02  0.00000000000E+00 0. -1.
         -1    1    1    2    0  501 -0.84013050411E+01  0.24893653637E+02  0.22042773350E+02  0.34295185883E+02  0.00000000000E+00 0.  1.
</event>
<event>
 4    1  0.7060698E+001  0.2816432E+02  0.7546771E-02  0.1436250E+00
          2   -1    0    0  502    0  0.00000000000E+00  0.00000000000E+00  0.16714726155E+02  0.16714726155E+02  0.00000000000E+00 0.  1.
         -2   -1    0    0    0  501 -0.00000000000E+00 -0.00000000000E+00 -0.90495041513E+02  0.90495041513E+02  0.00000000000E+00 0. -1.
          1    1    1    2  502    0  0.94244966586E+01  0.26540680979E+02  0.77231826774E-01  0.28164425236E+02  0.00000000000E+00 0. -1.
         -1    1    1    2    0  501 -0.94244966586E+01 -0.26540680979E+02 -0.73857547185E+02  0.79045342433E+02  0.00000000000E+00 0.  1.
</event>
<event>
 4    1  0.7060698E+001  0.2490843E+02  0.7546771E-02  0.1469830E+00
          2   -1    0    0  502    0  0.00000000000E+00  0.00000000000E+00  0.95879922712E+02  0.95879922712E+02  0.00000000000E+00 0. -1.
         -2   -1    0    0    0  501 -0.00000000000E+00 -0.00000000000E+00 -0.68148667038E+01  0.68148667038E+01  0.00000000000E+00 0.  1.
          1    1    1    2  502    0  0.14606638827E+02  0.20176126858E+02  0.56068228599E+02  0.61352068026E+02  0.00000000000E+00 0. -1.
         -1    1    1    2    0  501 -0.14606638827E+02 -0.20176126858E+02  0.32996827409E+02  0.41342721390E+02  0.00000000000E+00 0.  1.
</event>
<event>
 4    1  0.7060698E+001  0.2891611E+02  0.7546771E-02  0.1429255E+00
          2   -1    0    0  502    0  0.00000000000E+00  0.00000000000E+00  0.16270809293E+04  0.16270809293E+04  0.00000000000E+00 0.  1.
         -2   -1    0    0    0  501 -0.00000000000E+00 -0.00000000000E+00 -0.52963457824E+00  0.52963457824E+00  0.00000000000E+00 0. -1.
          1    1    1    2  502    0 -0.28684511904E+02  0.36524273610E+01  0.95358635613E+03  0.95402467476E+03  0.00000000000E+00 0.  1.
         -1    1    1    2    0  501  0.28684511904E+02 -0.36524273610E+01  0.67296493856E+03  0.67358588909E+03  0.00000000000E+00 0. -1.
</event>
<event>
 4    1  0.7060698E+001  0.3175424E+02  0.7546771E-02  0.1404941E+00
          2   -1    0    0  502    0  0.00000000000E+00  0.00000000000E+00  0.64515870834E+03  0.64515870834E+03  0.00000000000E+00 0. -1.
         -2   -1    0    0    0  501 -0.00000000000E+00 -0.00000000000E+00 -0.17441126568E+01  0.17441126568E+01  0.00000000000E+00 0.  1.
          1    1    1    2  502    0  0.29787909834E+02 -0.11000560318E+02  0.21745365455E+03  0.21975992304E+03  0.00000000000E+00 0. -1.
         -1    1    1    2    0  501 -0.29787909834E+02  0.11000560318E+02  0.42596094114E+03  0.42714289796E+03  0.00000000000E+00 0.  1.
</event>
<event>
 4    1  0.7060698E+001  0.3297117E+02  0.7546771E-02  0.1395416E+00
          2   -1    0    0  502    0  0.00000000000E+00  0.00000000000E+00  0.58494010302E+03  0.58494010302E+03  0.00000000000E+00 0. -1.
         -2   -1    0    0    0  501 -0.00000000000E+00 -0.00000000000E+00 -0.19120750461E+01  0.19120750461E+01  0.00000000000E+00 0.  1.
          1    1    1    2  502    0 -0.31099278451E+02  0.10951392690E+02  0.24238726706E+03  0.24461947051E+03  0.00000000000E+00 0.  1.
         -1    1    1    2    0  501  0.31099278451E+02 -0.10951392690E+02  0.34064076091E+03  0.34223270755E+03  0.00000000000E+00 0. -1.
</event>
<event>
 4    1  0.7060698E+001  0.2714330E+02  0.7546771E-02  0.1446174E+00
          2   -1    0    0  502    0  0.00000000000E+00  0.00000000000E+00  0.10909208124E+04  0.10909208124E+04  0.00000000000E+00 0. -1.
         -2   -1    0    0    0  501 -0.00000000000E+00 -0.00000000000E+00 -0.74302792751E+00  0.74302792751E+00  0.00000000000E+00 0.  1.
          1    1    1    2  502    0 -0.24839193721E+02 -0.10944081850E+02  0.70981592711E+03  0.71033471607E+03  0.00000000000E+00 0. -1.
         -1    1    1    2    0  501  0.24839193721E+02  0.10944081850E+02  0.38036185731E+03  0.38132912421E+03  0.00000000000E+00 0.  1.
</event>
<event>
 4    1  0.7060698E+001  0.2096398E+02  0.7546771E-02  0.1519780E+00
          2   -1    0    0  502    0  0.00000000000E+00  0.00000000000E+00  0.90829016691E+03  0.90829016691E+03  0.00000000000E+00 0. -1.
         -2   -1    0    0    0  501 -0.00000000000E+00 -0.00000000000E+00 -0.51970758479E+00  0.51970758479E+00  0.00000000000E+00 0.  1.
          1    1    1    2  502    0  0.35150075856E+01 -0.20667203990E+02  0.33454927031E+03  0.33520546366E+03  0.00000000000E+00 0. -1.
         -1    1    1    2    0  501 -0.35150075856E+01  0.20667203990E+02  0.57322118901E+03  0.57360441084E+03  0.00000000000E+00 0.  1.
</event>
<event>
 4    1  0.7060698E+001  0.2482118E+02  0.7546771E-02  0.1470814E+00
          2   -1    0    0  502    0  0.00000000000E+00  0.00000000000E+00  0.48178789440E+03  0.48178789440E+03  0.00000000000E+00 0.  1.
         -2   -1    0    0    0  501 -0.00000000000E+00 -0.00000000000E+00 -0.12913598119E+01  0.12913598119E+01  0.00000000000E+00 0. -1.
          1    1    1    2  502    0 -0.12436298335E+02  0.21480907157E+02  0.21638917498E+03  0.21780809428E+03  0.00000000000E+00 0.  1.
         -1    1    1    2    0  501  0.12436298335E+02 -0.21480907157E+02  0.26410735961E+03  0.26527115993E+03  0.00000000000E+00 0. -1.
</event>
<event>
 4    1  0.7060698E+001  0.3174917E+02  0.7546771E-02  0.1404981E+00
          2   -1    0    0  502    0  0.00000000000E+00  0.00000000000E+00  0.13846698998E+03  0.13846698998E+03  0.00000000000E+00 0.  1.
         -2   -1    0    0    0  501 -0.00000000000E+00 -0.00000000000E+00 -0.13211475919E+02  0.13211475919E+02  0.00000000000E+00 0. -1.
          1    1    1    2  502    0 -0.30675399898E+02 -0.81871793967E+01  0.11344457656E+03  0.11780357387E+03  0.00000000000E+00 0.  1.
         -1    1    1    2    0  501  0.30675399898E+02  0.81871793967E+01  0.11810937500E+02  0.33874892029E+02  0.00000000000E+00 0. -1.
</event>
<event>
 4    1  0.7060698E+001  0.2142720E+02  0.7546771E-02  0.1513252E+00
          2   -1    0    0  502    0  0.00000000000E+00  0.00000000000E+00  0.25170725097E+03  0.25170725097E+03  0.00000000000E+00 0. -1.
         -2   -1    0    0    0  501 -0.00000000000E+00 -0.00000000000E+00 -0.21311897077E+01  0.21311897077E+01  0.00000000000E+00 0.  1.
          1    1    1    2  502    0  0.76114178485E+01  0.20029759661E+02  0.76605569567E+02  0.79545824796E+02  0.00000000000E+00 0.  1.
         -1    1    1    2    0  501 -0.76114178485E+01 -0.20029759661E+02  0.17297049169E+03  0.17429261588E+03  0.00000000000E+00 0. -1.
</event>
<event>
 4    1  0.7060698E+001  0.2254583E+02  0.7546771E-02  0.1498281E+00
          2   -1    0    0  502    0  0.00000000000E+00  0.00000000000E+00  0.57352922627E+02  0.57352922627E+02  0.00000000000E+00 0.  1.
         -2   -1    0    0    0  501 -0.00000000000E+00 -0.00000000000E+00 -0.20406144863E+02  0.20406144863E+02  0.00000000000E+00 0. -1.
          1    1    1    2  502    0 -0.18055166566E+02  0.13502795346E+02  0.47715188171E+02  0.52773608026E+02  0.00000000000E+00 0.  1.
         -1    1    1    2    0  501  0.18055166566E+02 -0.13502795346E+02 -0.10768410408E+02  0.24985459463E+02  0.00000000000E+00 0. -1.
</event>
<event>
 4    1  0.7060698E+001  0.2421971E+02  0.7546771E-02  0.1477725E+00
          2   -1    0    0  502    0  0.00000000000E+00  0.00000000000E+00  0.68190105791E+03  0.68190105791E+03  0.00000000000E+00 0.  1.
         -2   -1    0    0    0  501 -0.00000000000E+00 -0.00000000000E+00 -0.14827162922E+01  0.14827162922E+01  0.00000000000E+00 0. -1.
          1    1    1    2  502    0  0.11919272051E+02  0.21083763427E+02  0.11881340212E+03  0.12125682929E+03  0.00000000000E+00 0. -1.
         -1    1    1    2    0  501 -0.11919272051E+02 -0.21083763427E+02  0.56160493950E+03  0.56212694491E+03  0.00000000000E+00 0.  1.
</event>
<event>
 4    1  0.7060698E+001  0.2151534E+02  0.7546771E-02  0.1512033E+00
          2   -1    0    0  502    0  0.00000000000E+00  0.00000000000E+00  0.16763578134E+04  0.16763578134E+04  0.00000000000E+00 0. -1.
         -2   -1    0    0    0  501 -0.00000000000E+00 -0.00000000000E+00 -0.41134679238E+00  0.41134679238E+00  0.00000000000E+00 0.  1.
          1    1    1    2  502    0  0.21418943375E+02 -0.20344118935E+01  0.13186332317E+04  0.13188087464E+04  0.00000000000E+00 0. -1.
         -1    1    1    2    0  501 -0.21418943375E+02  0.20344118935E+01  0.35731323489E+03  0.35796041372E+03  0.00000000000E+00 0.  1.
</event>
<event>
 4    1  0.7060698E+001  0.2181675E+02  0.7546771E-02  0.1507916E+00
          2   -1    0    0  502    0  0.00000000000E+00  0.00000000000E+00  0.89997939715E+03  0.89997939715E+03  0.00000000000E+00 0.  1.
         -2   -1    0    0    0  501 -0.00000000000E+00 -0.00000000000E+00 -0.55526168620E+00  0.55526168620E+00  0.00000000000E+00 0. -1.
          1    1    1    2  502    0 -0.40318667306E+01  0.21440952518E+02  0.54788025708E+03  0.54831445949E+03  0.00000000000E+00 0.  1.
         -1    1    1    2    0  501  0.40318667306E+01 -0.21440952518E+02  0.35154387839E+03  0.35222019934E+03  0.00000000000E+00 0. -1.
</event>
<event>
 4    1  0.7060698E+001  0.3446640E+02  0.7546771E-02  0.1384354E+00
          2   -1    0    0  502    0  0.00000000000E+00  0.00000000000E+00  0.20375754528E+03  0.20375754528E+03  0.00000000000E+00 0.  1.
         -2   -1    0    0    0  501 -0.00000000000E+00 -0.00000000000E+00 -0.23628828233E+02  0.23628828233E+02  0.00000000000E+00 0. -1.
          1    1    1    2  502    0  0.22352227356E+02 -0.26235669374E+02 -0.86107245437E+01  0.35525722969E+02  0.00000000000E+00 0. -1.
         -1    1    1    2    0  501 -0.22352227356E+02  0.26235669374E+02  0.18873944159E+03  0.19186065054E+03  0.00000000000E+00 0.  1.
</event>
<event>
 4    1  0.7060698E+001  0.2043987E+02  0.7546771E-02  0.1527414E+00
          2   -1    0    0  502    0  0.00000000000E+00  0.00000000000E+00  0.10358862379E+01  0.10358862379E+01  0.00000000000E+00 0.  1.
         -2   -1    0    0    0  501 -0.00000000000E+00 -0.00000000000E+00 -0.76461137115E+03  0.76461137115E+03  0.00000000000E+00 0. -1.
          1    1    1    2  502    0 -0.31831448025E+01 -0.20190484803E+02 -0.64494198381E+03  0.64526579839E+03  0.00000000000E+00 0. -1.
         -1    1    1    2    0  501  0.31831448025E+01  0.20190484803E+02 -0.11863350110E+03  0.12038145900E+03  0.00000000000E+00 0.  1.
</event>
<event>
 4    1  0.7060698E+001  0.2680277E+02  0.7546771E-02  0.1449599E+00
          2   -1    0    0  502    0  0.00000000000E+00  0.00000000000E+00  0.40934758785E+02  0.40934758785E+02  0.00000000000E+00 0.  1.
         -2   -1    0    0    0  501 -0.00000000000E+00 -0.00000000000E+00 -0.19342175265E+02  0.19342175265E+02  0.00000000000E+00 0. -1.
          1    1    1    2  502    0 -0.26751055582E+02  0.16642509653E+01  0.19971311637E+02  0.33425170075E+02  0.00000000000E+00 0.  1.
         -1    1    1    2    0  501  0.26751055582E+02 -0.16642509653E+01  0.16212718825E+01  0.26851763975E+02  0.00000000000E+00 0. -1.
</event>
<event>
 4    1  0.7060698E+001  0.2272459E+02  0.7546771E-02  0.1495986E+00
          2   -1    0    0  502    0  0.00000000000E+00  0.00000000000E+00  0.36337480074E+01  0.36337480074E+01  0.00000000000E+00 0. -1.
         -2   -1    0    0    0  501 -0.00000000000E+00 -0.00000000000E+00 -0.14355544280E+03  0.14355544280E+03  0.00000000000E+00 0.  1.
          1    1    1    2  502    0 -0.21686122908E+02  0.67911098682E+01 -0.62586757272E+02  0.66584602468E+02  0.00000000000E+00 0. -1.
         -1    1    1    2    0  501  0.21686122908E+02 -0.67911098682E+01 -0.77334937516E+02  0.80604588335E+02  0.00000000000E+00 0.  1.
</event>
<event>
 4    1  0.7060698E+001  0.2582150E+02  0.7546771E-02  0.1459819E+00
          2   -1    0    0  502    0  0.00000000000E+00  0.00000000000E+00  0.43439079073E+02  0.43439079073E+02  0.00000000000E+00 0. -1.
         -2   -1    0    0    0  501 -0.00000000000E+00 -0.00000000000E+00 -0.15575204805E+02  0.15575204805E+02  0.00000000000E+00 0.  1.
          1    1    1    2  502    0 -0.13397982208E+02  0.22073606582E+02  0.17487279121E+02  0.31185813535E+02  0.00000000000E+00 0. -1.
         -1    1    1    2    0  501  0.13397982208E+02 -0.22073606582E+02  0.10376595148E+02  0.27828470343E+02  0.00000000000E+00 0.  1.
</event>
<event>
 4    1  0.7060698E+001  0.2103309E+02  0.7546771E-02  0.1518793E+00
          2   -1    0    0  502    0  0.00000000000E+00  0.00000000000E+00  0.13111396748E+04  0.13111396748E+04  0.00000000000E+00 0. -1.
         -2   -1    0    0    0  501 -0.00000000000E+00 -0.00000000000E+00 -0.38535419247E+00  0.38535419247E+00  0.00000000000E+00 0.  1.
          1    1    1    2  502    0  0.93604177824E+01  0.18835433734E+02  0.42407121171E+03  0.42459249121E+03  0.00000000000E+00 0.  1.
         -1    1    1    2    0  501 -0.93604177824E+01 -0.18835433734E+02  0.88668310890E+03  0.88693253780E+03  0.00000000000E+00 0. -1.
</event>
<event>
 4    1  0.7060698E+001  0.4213371E+02  0.7546771E-02  0.1336416E+00
          2   -1    0    0  502    0  0.00000000000E+00  0.00000000000E+00  0.73065203138E+03  0.73065203138E+03  0.00000000000E+00 0.  1.
         -2   -1    0    0    0  501 -0.00000000000E+00 -0.00000000000E+00 -0.24622191783E+01  0.24622191783E+01  0.00000000000E+00 0. -1.
          1    1    1    2  502    0 -0.26089319210E+02 -0.33084693571E+02  0.40623462822E+03  0.40841378857E+03  0.00000000000E+00 0.  1.
         -1    1    1    2    0  501  0.26089319210E+02  0.33084693571E+02  0.32195518398E+03  0.32470046199E+03  0.00000000000E+00 0. -1.
</event>
<event>
 4    1  0.7060698E+001  0.8913221E+02  0.7546771E-02  0.1184101E+00
          2   -1    0    0  502    0  0.00000000000E+00  0.00000000000E+00  0.20900182762E+04  0.20900182762E+04  0.00000000000E+00 0. -1.
         -2   -1    0    0    0  501 -0.00000000000E+00 -0.00000000000E+00 -0.55235627345E+01  0.55235627345E+01  0.00000000000E+00 0.  1.
          1    1    1    2  502    0  0.44899343872E+02 -0.76997395926E+02  0.45716007352E+03  0.46576805696E+03  0.00000000000E+00 0.  1.
         -1    1    1    2    0  501 -0.44899343872E+02  0.76997395926E+02  0.16273346399E+04  0.16297737819E+04  0.00000000000E+00 0. -1.
</event>
<event>
 4    1  0.7060698E+001  0.2845529E+02  0.7546771E-02  0.1433513E+00
          2   -1    0    0  502    0  0.00000000000E+00  0.00000000000E+00  0.58850442113E+02  0.58850442113E+02  0.00000000000E+00 0.  1.
         -2   -1    0    0    0  501 -0.00000000000E+00 -0.00000000000E+00 -0.14568056946E+02  0.14568056946E+02  0.00000000000E+00 0. -1.
          1    1    1    2  502    0 -0.18693137094E+02 -0.21453904187E+02  0.13488430490E+02  0.31490334015E+02  0.00000000000E+00 0. -1.
         -1    1    1    2    0  501  0.18693137094E+02  0.21453904187E+02  0.30793954678E+02  0.41928165044E+02  0.00000000000E+00 0.  1.
</event>
<event>
 4    1  0.7060698E+001  0.2451413E+02  0.7546771E-02  0.1474313E+00
          2   -1    0    0  502    0  0.00000000000E+00  0.00000000000E+00  0.12763341761E+03  0.12763341761E+03  0.00000000000E+00 0. -1.
         -2   -1    0    0    0  501 -0.00000000000E+00 -0.00000000000E+00 -0.59423689472E+01  0.59423689472E+01  0.00000000000E+00 0.  1.
          1    1    1    2  502    0 -0.20290750777E+02 -0.13756024039E+02  0.30410132052E+02  0.39060451814E+02  0.00000000000E+00 0.  1.
         -1    1    1    2    0  501  0.20290750777E+02  0.13756024039E+02  0.91280916606E+02  0.94515334739E+02  0.00000000000E+00 0. -1.
</event>
<event>
 4    1  0.7060698E+001  0.2023475E+02  0.7546771E-02  0.1530477E+00
          2   -1    0    0  502    0  0.00000000000E+00  0.00000000000E+00  0.12058825436E+04  0.12058825436E+04  0.00000000000E+00 0. -1.
         -2   -1    0    0    0  501 -0.00000000000E+00 -0.00000000000E+00 -0.52744036038E+00  0.52744036038E+00  0.00000000000E+00 0.  1.
          1    1    1    2  502    0  0.44507572803E+01 -0.19739195269E+02  0.24264453412E+03  0.24348678611E+03  0.00000000000E+00 0.  1.
         -1    1    1    2    0  501 -0.44507572803E+01  0.19739195269E+02  0.96271056910E+03  0.96292319784E+03  0.00000000000E+00 0. -1.
</event>
<event>
 4    1  0.7060698E+001  0.3195977E+02  0.7546771E-02  0.1403297E+00
          2   -1    0    0  502    0  0.00000000000E+00  0.00000000000E+00  0.13517189772E+04  0.13517189772E+04  0.00000000000E+00 0. -1.
         -2   -1    0    0    0  501 -0.00000000000E+00 -0.00000000000E+00 -0.77173486014E+00  0.77173486014E+00  0.00000000000E+00 0.  1.
          1    1    1    2  502    0  0.24847146981E+02  0.20100893505E+02  0.77310220897E+03  0.77376252956E+03  0.00000000000E+00 0. -1.
         -1    1    1    2    0  501 -0.24847146981E+02 -0.20100893505E+02  0.57784503339E+03  0.57872818253E+03  0.00000000000E+00 0.  1.
</event>
<event>
 4    1  0.7060698E+001  0.2039609E+02  0.7546771E-02  0.1528064E+00
          2   -1    0    0  502    0  0.00000000000E+00  0.00000000000E+00  0.30100956393E+02  0.30100956393E+02  0.00000000000E+00 0. -1.
         -2   -1    0    0    0  501 -0.00000000000E+00 -0.00000000000E+00 -0.14533420485E+02  0.14533420485E+02  0.00000000000E+00 0.  1.
          1    1    1    2  502    0  0.22672298099E+01 -0.20269688530E+02  0.12727715699E+02  0.24041533875E+02  0.00000000000E+00 0. -1.
         -1    1    1    2    0  501 -0.22672298099E+01  0.20269688530E+02  0.28398202086E+01  0.20592843003E+02  0.00000000000E+00 0.  1.
</event>
<event>
 4    1  0.7060698E+001  0.2474601E+02  0.7546771E-02  0.1471665E+00
          2   -1    0    0  502    0  0.00000000000E+00  0.00000000000E+00  0.29179801173E+02  0.29179801173E+02  0.00000000000E+00 0. -1.
         -2   -1    0    0    0  501 -0.00000000000E+00 -0.00000000000E+00 -0.25446680185E+02  0.25446680185E+02  0.00000000000E+00 0.  1.
          1    1    1    2  502    0  0.11364402066E+02 -0.21982164820E+02  0.13302233211E+02  0.28094743510E+02  0.00000000000E+00 0. -1.
         -1    1    1    2    0  501 -0.11364402066E+02  0.21982164820E+02 -0.95691122229E+01  0.26531737848E+02  0.00000000000E+00 0.  1.
</event>
<event>
 4    1  0.7060698E+001  0.3323505E+02  0.7546771E-02  0.1393415E+00
          2   -1    0    0  502    0  0.00000000000E+00  0.00000000000E+00  0.52682632379E+03  0.52682632379E+03  0.00000000000E+00 0.  1.
         -2   -1    0    0    0  501 -0.00000000000E+00 -0.00000000000E+00 -0.34731683422E+01  0.34731683422E+01  0.00000000000E+00 0. -1.
          1    1    1    2  502    0  0.25145319024E+02  0.21732039900E+02  0.94752173655E+02  0.10041186702E+03  0.00000000000E+00 0. -1.
         -1    1    1    2    0  501 -0.25145319024E+02 -0.21732039900E+02  0.42860098179E+03  0.42988762511E+03  0.00000000000E+00 0.  1.
</event>
<event>
 4    1  0.7060698E+001  0.3257348E+02  0.7546771E-02  0.1398475E+00
          2   -1    0    0  502    0  0.00000000000E+00  0.00000000000E+00  0.26411068968E+03  0.26411068968E+03  0.00000000000E+00 0. -1.
         -2   -1    0    0    0  501 -0.00000000000E+00 -0.00000000000E+00 -0.44746534864E+01  0.44746534864E+01  0.00000000000E+00 0.  1.
          1    1    1    2  502    0  0.23652988346E+02  0.22395706894E+02  0.86887785647E+02  0.92792881406E+02  0.00000000000E+00 0.  1.
         -1    1    1    2    0  501 -0.23652988346E+02 -0.22395706894E+02  0.17274825054E+03  0.17579246176E+03  0.00000000000E+00 0. -1.
</event>
<event>
 4    1  0.7060698E+001  0.3025643E+02  0.7546771E-02  0.1417381E+00
          2   -1    0    0  502    0  0.00000000000E+00  0.00000000000E+00  0.18693664639E+04  0.18693664639E+04  0.00000000000E+00 0.  1.
         -2   -1    0    0    0  501 -0.00000000000E+00 -0.00000000000E+00 -0.53493111150E+00  0.53493111150E+00  0.00000000000E+00 0. -1.
          1    1    1    2  502    0 -0.24669580989E+02 -0.17517515705E+02  0.12062472682E+04  0.12066266712E+04  0.00000000000E+00 0.  1.
         -1    1    1    2    0  501  0.24669580989E+02  0.17517515705E+02  0.66258426462E+03  0.66327472385E+03  0.00000000000E+00 0. -1.
</event>
<event>
 4    1  0.7060698E+001  0.2033442E+02  0.7546771E-02  0.1528983E+00
          2   -1    0    0  502    0  0.00000000000E+00  0.00000000000E+00  0.35125506035E+01  0.35125506035E+01  0.00000000000E+00 0. -1.
         -2   -1    0    0    0  501 -0.00000000000E+00 -0.00000000000E+00 -0.21510131614E+03  0.21510131614E+03  0.00000000000E+00 0.  1.
          1    1    1    2  502    0 -0.20272362117E+02 -0.15874290881E+01 -0.17934217168E+03  0.18049128273E+03  0.00000000000E+00 0.  1.
         -1    1    1    2    0  501  0.20272362117E+02  0.15874290881E+01 -0.32246593860E+02  0.38122584022E+02  0.00000000000E+00 0. -1.
</event>
<event>
 4    1  0.7060698E+001  0.2300672E+02  0.7546771E-02  0.1492414E+00
          2   -1    0    0  502    0  0.00000000000E+00  0.00000000000E+00  0.54449827694E+00  0.54449827694E+00  0.00000000000E+00 0. -1.
         -2   -1    0    0    0  501 -0.00000000000E+00 -0.00000000000E+00 -0.97554711373E+03  0.97554711373E+03  0.00000000000E+00 0.  1.
          1    1    1    2  502    0 -0.21952551057E+02 -0.68843627005E+01 -0.51649561662E+03  0.51700776680E+03  0.00000000000E+00 0.  1.
         -1    1    1    2    0  501  0.21952551057E+02  0.68843627005E+01 -0.45850699884E+03  0.45908384521E+03  0.00000000000E+00 0. -1.
</event>
<event>
 4    1  0.7060698E+001  0.3326490E+02  0.7546771E-02  0.1393190E+00
          2   -1    0    0  502    0  0.00000000000E+00  0.00000000000E+00  0.91844030138E+02  0.91844030138E+02  0.00000000000E+00 0. -1.
         -2   -1    0    0    0  501 -0.00000000000E+00 -0.00000000000E+00 -0.12364796232E+02  0.12364796232E+02  0.00000000000E+00 0.  1.
          1    1    1    2  502    0 -0.31313506900E+02  0.11225779363E+02  0.48077281295E+02  0.58463482734E+02  0.00000000000E+00 0. -1.
         -1    1    1    2    0  501  0.31313506900E+02 -0.11225779363E+02  0.31401952611E+02  0.45745343637E+02  0.00000000000E+00 0.  1.
</event>
<event>
 4    1  0.7060698E+001  0.2316368E+02  0.7546771E-02  0.1490453E+00
          2   -1    0    0  502    0  0.00000000000E+00  0.00000000000E+00  0.48102672002E+03  0.48102672002E+03  0.00000000000E+00 0.  1.
         -2   -1    0    0    0  501 -0.00000000000E+00 -0.00000000000E+00 -0.11190244452E+01  0.11190244452E+01  0.00000000000E+00 0. -1.
          1    1    1    2  502    0  0.23161932328E+02  0.28491655082E+00  0.22630929133E+03  0.22749165178E+03  0.00000000000E+00 0. -1.
         -1    1    1    2    0  501 -0.23161932328E+02 -0.28491655082E+00  0.25359840425E+03  0.25465409269E+03  0.00000000000E+00 0.  1.
</event>
<event>
 4    1  0.7060698E+001  0.3031700E+02  0.7546771E-02  0.1416861E+00
          2   -1    0    0  502    0  0.00000000000E+00  0.00000000000E+00  0.14231316495E+04  0.14231316495E+04  0.00000000000E+00 0.  1.
         -2   -1    0    0    0  501 -0.00000000000E+00 -0.00000000000E+00 -0.79320942169E+00  0.79320942169E+00  0.00000000000E+00 0. -1.
          1    1    1    2  502    0 -0.26847318378E+02 -0.14083399098E+02  0.10180441122E+04  0.10184954271E+04  0.00000000000E+00 0.  1.
         -1    1    1    2    0  501  0.26847318378E+02  0.14083399098E+02  0.40429432782E+03  0.40542943176E+03  0.00000000000E+00 0. -1.
</event>
<event>
 4    1  0.7060698E+001  0.3281288E+02  0.7546771E-02  0.1396628E+00
          2   -1    0    0  502    0  0.00000000000E+00  0.00000000000E+00  0.88389877382E+03  0.88389877382E+03  0.00000000000E+00 0.  1.
         -2   -1    0    0    0  501 -0.00000000000E+00 -0.00000000000E+00 -0.19142823034E+01  0.19142823034E+01  0.00000000000E+00 0. -1.
          1    1    1    2  502    0  0.23376369891E+02  0.23026734395E+02  0.70808845927E+03  0.70884832744E+03  0.00000000000E+00 0.  1.
         -1    1    1    2    0  501 -0.23376369891E+02 -0.23026734395E+02  0.17389603225E+03  0.17696472868E+03  0.00000000000E+00 0. -1.
</event>
<event>
 4    1  0.7060698E+001  0.2152309E+02  0.7546771E-02  0.1511926E+00
          2   -1    0    0  502    0  0.00000000000E+00  0.00000000000E+00  0.36658859642E+02  0.36658859642E+02  0.00000000000E+00 0. -1.
         -2   -1    0    0    0  501 -0.00000000000E+00 -0.00000000000E+00 -0.13359339417E+02  0.13359339417E+02  0.00000000000E+00 0.  1.
          1    1    1    2  502    0  0.17918944271E+02  0.11922874531E+02  0.17466707853E+02  0.27718755096E+02  0.00000000000E+00 0. -1.
         -1    1    1    2    0  501 -0.17918944271E+02 -0.11922874531E+02  0.58328123718E+01  0.22299443962E+02  0.00000000000E+00 0.  1.
</event>
<event>
 4    1  0.7060698E+001  0.2309684E+02  0.7546771E-02  0.1491286E+00
          2   -1    0    0  502    0  0.00000000000E+00  0.00000000000E+00  0.14969834542E+04  0.14969834542E+04  0.00000000000E+00 0.  1.
         -2   -1    0    0    0  501 -0.00000000000E+00 -0.00000000000E+00 -0.36625471467E+00  0.36625471467E+00  0.00000000000E+00 0. -1.
          1    1    1    2  502    0  0.12769439503E+02  0.19245915346E+02  0.62524755856E+03  0.62567401523E+03  0.00000000000E+00 0. -1.
         -1    1    1    2    0  501 -0.12769439503E+02 -0.19245915346E+02  0.87136964096E+03  0.87167569373E+03  0.00000000000E+00 0.  1.
</event>
<event>
 4    1  0.7060698E+001  0.2280516E+02  0.7546771E-02  0.1494959E+00
          2   -1    0    0  502    0  0.00000000000E+00  0.00000000000E+00  0.66904410958E+03  0.66904410958E+03  0.00000000000E+00 0.  1.
         -2   -1    0    0    0  501 -0.00000000000E+00 -0.00000000000E+00 -0.77809737103E+00  0.77809737103E+00  0.00000000000E+00 0. -1.
          1    1    1    2  502    0 -0.19542374894E+01 -0.22721275071E+02  0.32369076277E+03  0.32449312055E+03  0.00000000000E+00 0.  1.
         -1    1    1    2    0  501  0.19542374894E+01  0.22721275071E+02  0.34457524944E+03  0.34532908640E+03  0.00000000000E+00 0. -1.
</event>
<event>
 4    1  0.7060698E+001  0.3678520E+02  0.7546771E-02  0.1368429E+00
          2   -1    0    0  502    0  0.00000000000E+00  0.00000000000E+00  0.65043855240E+03  0.65043855240E+03  0.00000000000E+00 0.  1.
         -2   -1    0    0    0  501 -0.00000000000E+00 -0.00000000000E+00 -0.56550754889E+01  0.56550754889E+01  0.00000000000E+00 0. -1.
          1    1    1    2  502    0 -0.16718852680E+02 -0.32766302660E+02  0.61574097583E+02  0.71725310164E+02  0.00000000000E+00 0. -1.
         -1    1    1    2    0  501  0.16718852680E+02  0.32766302660E+02  0.58320937933E+03  0.58436831773E+03  0.00000000000E+00 0.  1.
</event>
<event>
 4    1  0.7060698E+001  0.2664832E+02  0.7546771E-02  0.1451173E+00
          2   -1    0    0  502    0  0.00000000000E+00  0.00000000000E+00  0.63218596342E+00  0.63218596342E+00  0.00000000000E+00 0. -1.
         -2   -1    0    0    0  501 -0.00000000000E+00 -0.00000000000E+00 -0.11235565334E+04  0.11235565334E+04  0.00000000000E+00 0.  1.
          1    1    1    2  502    0 -0.25153998047E+02  0.87982649442E+01 -0.55293191794E+03  0.55357369786E+03  0.00000000000E+00 0.  1.
         -1    1    1    2    0  501  0.25153998047E+02 -0.87982649442E+01 -0.56999242947E+03  0.57061502147E+03  0.00000000000E+00 0. -1.
</event>
<event>
 4    1  0.7060698E+001  0.2212467E+02  0.7546771E-02  0.1503792E+00
          2   -1    0    0  502    0  0.00000000000E+00  0.00000000000E+00  0.41465571278E+02  0.41465571278E+02  0.00000000000E+00 0.  1.
         -2   -1    0    0    0  501 -0.00000000000E+00 -0.00000000000E+00 -0.16608156943E+02  0.16608156943E+02  0.00000000000E+00 0. -1.
          1    1    1    2  502    0  0.21625865624E+02 -0.46715061685E+01 -0.31866678616E+01  0.22352983826E+02  0.00000000000E+00 0. -1.
         -1    1    1    2    0  501 -0.21625865624E+02  0.46715061685E+01  0.28044082197E+02  0.35720744395E+02  0.00000000000E+00 0.  1.
</event>
<event>
 4    1  0.7060698E+001  0.2219497E+02  0.7546771E-02  0.1502862E+00
          2   -1    0    0  502    0  0.00000000000E+00  0.00000000000E+00  0.69918707393E+03  0.69918707393E+03  0.00000000000E+00 0. -1.
         -2   -1    0    0    0  501 -0.00000000000E+00 -0.00000000000E+00 -0.83371153157E+00  0.83371153157E+00  0.00000000000E+00 0.  1.
          1    1    1    2  502    0  0.46105453028E+01 -0.21710815253E+02  0.48693857714E+03  0.48744414504E+03  0.00000000000E+00 0. -1.
         -1    1    1    2    0  501 -0.46105453028E+01  0.21710815253E+02  0.21141478526E+03  0.21257664042E+03  0.00000000000E+00 0.  1.
</event>
<event>
 4    1  0.7060698E+001  0.4246897E+02  0.7546771E-02  0.1334595E+00
          2   -1    0    0  502    0  0.00000000000E+00  0.00000000000E+00  0.72671175756E+01  0.72671175756E+01  0.00000000000E+00 0.  1.
         -2   -1    0    0    0  501 -0.00000000000E+00 -0.00000000000E+00 -0.24874114547E+03  0.24874114547E+03  0.00000000000E+00 0. -1.
          1    1    1    2  502    0  0.32886546320E+02  0.26871711533E+02 -0.12677147373E+03  0.13369599980E+03  0.00000000000E+00 0.  1.
         -1    1    1    2    0  501 -0.32886546320E+02 -0.26871711533E+02 -0.11470255416E+03  0.12231226325E+03  0.00000000000E+00 0. -1.
</event>
<event>
 4    1  0.7060698E+001  0.2015954E+02  0.7546771E-02  0.1531611E+00
          2   -1    0    0  502    0  0.00000000000E+00  0.00000000000E+00  0.31201897804E+02  0.31201897804E+02  0.00000000000E+00 0. -1.
         -2   -1    0    0    0  501 -0.00000000000E+00 -0.00000000000E+00 -0.13043006663E+02  0.13043006663E+02  0.00000000000E+00 0.  1.
          1    1    1    2  502    0  0.87636565721E+01  0.18155037066E+02  0.82591710626E+01  0.21785797071E+02  0.00000000000E+00 0.  1.
         -1    1    1    2    0  501 -0.87636565721E+01 -0.18155037066E+02  0.98997200790E+01  0.22459107396E+02  0.00000000000E+00 0. -1.
</event>
<event>
 4    1  0.7060698E+001  0.2442341E+02  0.7546771E-02  0.1475358E+00
          2   -1    0    0  502    0  0.00000000000E+00  0.00000000000E+00  0.62292642245E+03  0.62292642245E+03  0.00000000000E+00 0.  1.
         -2   -1    0    0    0  501 -0.00000000000E+00 -0.00000000000E+00 -0.96007279916E+00  0.96007279916E+00  0.00000000000E+00 0. -1.
          1    1    1    2  502    0  0.14601088095E+02  0.19578339147E+02  0.32687199922E+03  0.32778317073E+03  0.00000000000E+00 0.  1.
         -1    1    1    2    0  501 -0.14601088095E+02 -0.19578339147E+02  0.29509435043E+03  0.29610332452E+03  0.00000000000E+00 0. -1.
</event>
<event>
 4    1  0.7060698E+001  0.6715270E+02  0.7546771E-02  0.1237293E+00
          2   -1    0    0  502    0  0.00000000000E+00  0.00000000000E+00  0.90800495133E+03  0.90800495133E+03  0.00000000000E+00 0. -1.
         -2   -1    0    0    0  501 -0.00000000000E+00 -0.00000000000E+00 -0.76370998042E+01  0.76370998042E+01  0.00000000000E+00 0.  1.
          1    1    1    2  502    0  0.27607010678E+02  0.61215503683E+02  0.72092042035E+03  0.72404125394E+03  0.00000000000E+00 0. -1.
         -1    1    1    2    0  501 -0.27607010678E+02 -0.61215503683E+02  0.17944743118E+03  0.19160079719E+03  0.00000000000E+00 0.  1.
</event>
<event>
 4    1  0.7060698E+001  0.3182281E+02  0.7546771E-02  0.1404391E+00
          2   -1    0    0  502    0  0.00000000000E+00  0.00000000000E+00  0.11338692245E+03  0.11338692245E+03  0.00000000000E+00 0.  1.
         -2   -1    0    0    0  501 -0.00000000000E+00 -0.00000000000E+00 -0.14977107761E+02  0.14977107761E+02  0.00000000000E+00 0. -1.
          1    1    1    2  502    0  0.13915432823E+02 -0.28619080122E+02  0.89983012901E+02  0.95444400718E+02  0.00000000000E+00 0.  1.
         -1    1    1    2    0  501 -0.13915432823E+02  0.28619080122E+02  0.84268017904E+01  0.32919629496E+02  0.00000000000E+00 0. -1.
</event>
<event>
 4    1  0.7060698E+001  0.2554315E+02  0.7546771E-02  0.1462818E+00
          2   -1    0    0  502    0  0.00000000000E+00  0.00000000000E+00  0.19977553317E+04  0.19977553317E+04  0.00000000000E+00 0. -1.
         -2   -1    0    0    0  501 -0.00000000000E+00 -0.00000000000E+00 -0.32660954214E+00  0.32660954214E+00  0.00000000000E+00 0.  1.
          1    1    1    2  502    0  0.18857194840E+02  0.17229584360E+02  0.10058813440E+04  0.10062056105E+04  0.00000000000E+00 0. -1.
         -1    1    1    2    0  501 -0.18857194840E+02 -0.17229584360E+02  0.99154737813E+03  0.99187633073E+03  0.00000000000E+00 0.  1.
</event>
<event>
 4    1  0.7060698E+001  0.3379938E+02  0.7546771E-02  0.1389206E+00
          2   -1    0    0  502    0  0.00000000000E+00  0.00000000000E+00  0.28514583608E+03  0.28514583608E+03  0.00000000000E+00 0.  1.
         -2   -1    0    0    0  501 -0.00000000000E+00 -0.00000000000E+00 -0.65837747345E+01  0.65837747345E+01  0.00000000000E+00 0. -1.
          1    1    1    2  502    0  0.31808640601E+02  0.11428407076E+02  0.23054614970E+03  0.23301056896E+03  0.00000000000E+00 0.  1.
         -1    1    1    2    0  501 -0.31808640601E+02 -0.11428407076E+02  0.48015911639E+02  0.58719041849E+02  0.00000000000E+00 0. -1.
</event>
<event>
 4    1  0.7060698E+001  0.2584870E+02  0.7546771E-02  0.1459529E+00
          2   -1    0    0  502    0  0.00000000000E+00  0.00000000000E+00  0.37058189439E+01  0.37058189439E+01  0.00000000000E+00 0.  1.
         -2   -1    0    0    0  501 -0.00000000000E+00 -0.00000000000E+00 -0.21328331119E+03  0.21328331119E+03  0.00000000000E+00 0. -1.
          1    1    1    2  502    0  0.25008320706E+02  0.65375398393E+01 -0.62122630103E+02  0.67285783808E+02  0.00000000000E+00 0.  1.
         -1    1    1    2    0  501 -0.25008320706E+02 -0.65375398393E+01 -0.14745486214E+03  0.14970334632E+03  0.00000000000E+00 0. -1.
</event>
<event>
 4    1  0.7060698E+001  0.2579756E+02  0.7546771E-02  0.1460076E+00
          2   -1    0    0  502    0  0.00000000000E+00  0.00000000000E+00  0.87996180501E+02  0.87996180501E+02  0.00000000000E+00 0. -1.
         -2   -1    0    0    0  501 -0.00000000000E+00 -0.00000000000E+00 -0.11337712559E+02  0.11337712559E+02  0.00000000000E+00 0.  1.
          1    1    1    2  502    0  0.54341856925E+01 -0.25218721400E+02  0.96711450853E+01  0.27550777311E+02  0.00000000000E+00 0.  1.
         -1    1    1    2    0  501 -0.54341856925E+01  0.25218721400E+02  0.66987322856E+02  0.71783115749E+02  0.00000000000E+00 0. -1.
</event>
<event>
 4    1  0.7060698E+001  0.2153187E+02  0.7546771E-02  0.1511805E+00
          2   -1    0    0  502    0  0.00000000000E+00  0.00000000000E+00  0.12244186429E+03  0.12244186429E+03  0.00000000000E+00 0.  1.
         -2   -1    0    0    0  501 -0.00000000000E+00 -0.00000000000E+00 -0.77349242996E+01  0.77349242996E+01  0.00000000000E+00 0. -1.
          1    1    1    2  502    0  0.88605012539E+01  0.19624299929E+02  0.10849562271E+02  0.24110882018E+02  0.00000000000E+00 0. -1.
         -1    1    1    2    0  501 -0.88605012539E+01 -0.19624299929E+02  0.10385737772E+03  0.10606590657E+03  0.00000000000E+00 0.  1.
</event>
<event>
 4    1  0.7060698E+001  0.2871208E+02  0.7546771E-02  0.1431129E+00
          2   -1    0    0  502    0  0.00000000000E+00  0.00000000000E+00  0.23377038361E+03  0.23377038361E+03  0.00000000000E+00 0.  1.
         -2   -1    0    0    0  501 -0.00000000000E+00 -0.00000000000E+00 -0.36779503577E+01  0.36779503577E+01  0.00000000000E+00 0. -1.
          1    1    1    2  502    0  0.19021029876E+02 -0.21507761497E+02  0.13914081267E+03  0.14207233767E+03  0.00000000000E+00 0.  1.
         -1    1    1    2    0  501 -0.19021029876E+02  0.21507761497E+02  0.90951620579E+02  0.95375996289E+02  0.00000000000E+00 0. -1.
</event>
<event>
 4    1  0.7060698E+001  0.2105130E+02  0.7546771E-02  0.1518534E+00
          2   -1    0    0  502    0  0.00000000000E+00  0.00000000000E+00  0.17104664793E+04  0.17104664793E+04  0.00000000000E+00 0.  1.
         -2   -1    0    0    0  501 -0.00000000000E+00 -0.00000000000E+00 -0.42394001227E+00  0.42394001227E+00  0.00000000000E+00 0. -1.
          1    1    1    2  502    0 -0.41128879869E+01 -0.20645614609E+02  0.13884670325E+04  0.13886266084E+04  0.00000000000E+00 0.  1.
         -1    1    1    2    0  501  0.41128879869E+01  0.20645614609E+02  0.32157550675E+03  0.32226381086E+03  0.00000000000E+00 0. -1.
</event>
<event>
 4    1  0.7060698E+001  0.1069726E+03  0.7546771E-02  0.1152245E+00
          2   -1    0    0  502    0  0.00000000000E+00  0.00000000000E+00  0.63374233086E+03  0.63374233086E+03  0.00000000000E+00 0. -1.
         -2   -1    0    0    0  501 -0.00000000000E+00 -0.00000000000E+00 -0.18519346835E+02  0.18519346835E+02  0.00000000000E+00 0.  1.
          1    1    1    2  502    0 -0.59541765562E+02 -0.88870192606E+02  0.25605018690E+03  0.27749744357E+03  0.00000000000E+00 0.  1.
         -1    1    1    2    0  501  0.59541765562E+02  0.88870192606E+02  0.35917279713E+03  0.37476423412E+03  0.00000000000E+00 0. -1.
</event>
<event>
 4    1  0.7060698E+001  0.2883186E+02  0.7546771E-02  0.1430027E+00
          2   -1    0    0  502    0  0.00000000000E+00  0.00000000000E+00  0.39255490310E+03  0.39255490310E+03  0.00000000000E+00 0. -1.
         -2   -1    0    0    0  501 -0.00000000000E+00 -0.00000000000E+00 -0.37821046381E+01  0.37821046381E+01  0.00000000000E+00 0.  1.
          1    1    1    2  502    0 -0.25366660806E+02  0.13704324671E+02  0.62921507041E+02  0.69212658116E+02  0.00000000000E+00 0.  1.
         -1    1    1    2    0  501  0.25366660806E+02 -0.13704324671E+02  0.32585129142E+03  0.32712434962E+03  0.00000000000E+00 0. -1.
</event>
<event>
 4    1  0.7060698E+001  0.2410264E+02  0.7546771E-02  0.1479098E+00
          2   -1    0    0  502    0  0.00000000000E+00  0.00000000000E+00  0.28797953173E+03  0.28797953173E+03  0.00000000000E+00 0.  1.
         -2   -1    0    0    0  501 -0.00000000000E+00 -0.00000000000E+00 -0.35328564612E+01  0.35328564612E+01  0.00000000000E+00 0. -1.
          1    1    1    2  502    0  0.79509279135E+01 -0.22753461430E+02  0.23769005684E+03  0.23890897929E+03  0.00000000000E+00 0.  1.
         -1    1    1    2    0  501 -0.79509279135E+01  0.22753461430E+02  0.46756618425E+02  0.52603408903E+02  0.00000000000E+00 0. -1.
</event>
<event>
 4    1  0.7060698E+001  0.2740372E+02  0.7546771E-02  0.1443594E+00
          2   -1    0    0  502    0  0.00000000000E+00  0.00000000000E+00  0.38205380734E+03  0.38205380734E+03  0.00000000000E+00 0. -1.
         -2   -1    0    0    0  501 -0.00000000000E+00 -0.00000000000E+00 -0.22651065659E+01  0.22651065659E+01  0.00000000000E+00 0.  1.
          1    1    1    2  502    0 -0.25993260441E+02  0.86783856663E+01  0.12001923950E+03  0.12310800875E+03  0.00000000000E+00 0.  1.
         -1    1    1    2    0  501  0.25993260441E+02 -0.86783856663E+01  0.25976946127E+03  0.26121090516E+03  0.00000000000E+00 0. -1.
</event>
<event>
 4    1  0.7060698E+001  0.2803809E+02  0.7546771E-02  0.1437450E+00
          2   -1    0    0  502    0  0.00000000000E+00  0.00000000000E+00  0.65121362115E+03  0.65121362115E+03  0.00000000000E+00 0. -1.
         -2   -1    0    0    0  501 -0.00000000000E+00 -0.00000000000E+00 -0.17306116283E+01  0.17306116283E+01  0.00000000000E+00 0.  1.
          1    1    1    2  502    0  0.14344810530E+02  0.24090676966E+02  0.14519587639E+03  0.14787825001E+03  0.00000000000E+00 0.  1.
         -1    1    1    2    0  501 -0.14344810530E+02 -0.24090676966E+02  0.50428713314E+03  0.50506598277E+03  0.00000000000E+00 0. -1.
</event>
<event>
 4    1  0.7060698E+001  0.3390826E+02  0.7546771E-02  0.1388405E+00
          2   -1    0    0  502    0  0.00000000000E+00  0.00000000000E+00  0.22547049378E+03  0.22547049378E+03  0.00000000000E+00 0.  1.
         -2   -1    0    0    0  501 -0.00000000000E+00 -0.00000000000E+00 -0.72305770096E+01  0.72305770096E+01  0.00000000000E+00 0. -1.
          1    1    1    2  502    0  0.32174478406E+02 -0.10703873820E+02  0.45953129390E+02  0.57109194323E+02  0.00000000000E+00 0. -1.
         -1    1    1    2    0  501 -0.32174478406E+02  0.10703873820E+02  0.17228678738E+03  0.17559187647E+03  0.00000000000E+00 0.  1.
</event>
<event>
 4    1  0.7060698E+001  0.2064675E+02  0.7546771E-02  0.1524369E+00
          2   -1    0    0  502    0  0.00000000000E+00  0.00000000000E+00  0.13397964331E+04  0.13397964331E+04  0.00000000000E+00 0.  1.
         -2   -1    0    0    0  501 -0.00000000000E+00 -0.00000000000E+00 -0.38313390939E+00  0.38313390939E+00  0.00000000000E+00 0. -1.
          1    1    1    2  502    0 -0.13225704210E+02  0.15854617710E+02  0.94562526013E+03  0.94585063343E+03  0.00000000000E+00 0.  1.
         -1    1    1    2    0  501  0.13225704210E+02 -0.15854617710E+02  0.39378803908E+03  0.39432893360E+03  0.00000000000E+00 0. -1.
</event>
<event>
 4    1  0.7060698E+001  0.2575310E+02  0.7546771E-02  0.1460552E+00
          2   -1    0    0  502    0  0.00000000000E+00  0.00000000000E+00  0.11863105939E+01  0.11863105939E+01  0.00000000000E+00 0. -1.
         -2   -1    0    0    0  501 -0.00000000000E+00 -0.00000000000E+00 -0.58735293311E+03  0.58735293311E+03  0.00000000000E+00 0.  1.
          1    1    1    2  502    0 -0.25748628857E+02 -0.47977715468E+00 -0.22850098755E+03  0.22994765358E+03  0.00000000000E+00 0. -1.
         -1    1    1    2    0  501  0.25748628857E+02  0.47977715468E+00 -0.35766563496E+03  0.35859159012E+03  0.00000000000E+00 0.  1.
</event>
<event>
 4    1  0.7060698E+001  0.3169840E+02  0.7546771E-02  0.1405390E+00
          2   -1    0    0  502    0  0.00000000000E+00  0.00000000000E+00  0.23850701621E+04  0.23850701621E+04  0.00000000000E+00 0. -1.
         -2   -1    0    0    0  501 -0.00000000000E+00 -0.00000000000E+00 -0.74365241857E+00  0.74365241857E+00  0.00000000000E+00 0.  1.
          1    1    1    2  502    0 -0.14388640588E+02  0.28244563103E+02  0.40674894427E+03  0.40798222018E+03  0.00000000000E+00 0.  1.
         -1    1    1    2    0  501  0.14388640588E+02 -0.28244563103E+02  0.19775775654E+04  0.19778315943E+04  0.00000000000E+00 0. -1.
</event>
<event>
 4    1  0.7060698E+001  0.2805315E+02  0.7546771E-02  0.1437307E+00
          2   -1    0    0  502    0  0.00000000000E+00  0.00000000000E+00  0.18714161141E+04  0.18714161141E+04  0.00000000000E+00 0.  1.
         -2   -1    0    0    0  501 -0.00000000000E+00 -0.00000000000E+00 -0.50159290268E+00  0.50159290268E+00  0.00000000000E+00 0. -1.
          1    1    1    2  502    0 -0.19870854937E+02  0.19802226043E+02  0.55918430959E+03  0.55988755221E+03  0.00000000000E+00 0. -1.
         -1    1    1    2    0  501  0.19870854937E+02 -0.19802226043E+02  0.13117302116E+04  0.13120301548E+04  0.00000000000E+00 0.  1.
</event>
<event>
 4    1  0.7060698E+001  0.2045591E+02  0.7546771E-02  0.1527177E+00
          2   -1    0    0  502    0  0.00000000000E+00  0.00000000000E+00  0.37885211430E+03  0.37885211430E+03  0.00000000000E+00 0. -1.
         -2   -1    0    0    0  501 -0.00000000000E+00 -0.00000000000E+00 -0.17698276149E+01  0.17698276149E+01  0.00000000000E+00 0.  1.
          1    1    1    2  502    0 -0.97496398026E+01 -0.17983017793E+02  0.71856371283E+02  0.74711327783E+02  0.00000000000E+00 0.  1.
         -1    1    1    2    0  501  0.97496398026E+01  0.17983017793E+02  0.30522591540E+03  0.30591061413E+03  0.00000000000E+00 0. -1.
</event>
<event>
 4    1  0.7060698E+001  0.6439662E+02  0.7546771E-02  0.1245584E+00
          2   -1    0    0  502    0  0.00000000000E+00  0.00000000000E+00  0.12068214505E+02  0.12068214505E+02  0.00000000000E+00 0. -1.
         -2   -1    0    0    0  501 -0.00000000000E+00 -0.00000000000E+00 -0.36997143984E+03  0.36997143984E+03  0.00000000000E+00 0.  1.
          1    1    1    2  502    0  0.10351993613E+02  0.63559115313E+02 -0.12797561146E+03  0.14326437812E+03  0.00000000000E+00 0. -1.
         -1    1    1    2    0  501 -0.10351993613E+02 -0.63559115313E+02 -0.22992761388E+03  0.23877527622E+03  0.00000000000E+00 0.  1.
</event>
<event>
 4    1  0.7060698E+001  0.3727962E+02  0.7546771E-02  0.1365209E+00
          2   -1    0    0  502    0  0.00000000000E+00  0.00000000000E+00  0.28769387194E+01  0.28769387194E+01  0.00000000000E+00 0. -1.
         -2   -1    0    0    0  501 -0.00000000000E+00 -0.00000000000E+00 -0.62371148383E+03  0.62371148383E+03  0.00000000000E+00 0.  1.
          1    1    1    2  502    0  0.32664669603E+02 -0.17966332680E+02 -0.45918662865E+03  0.46069743833E+03  0.00000000000E+00 0.  1.
         -1    1    1    2    0  501 -0.32664669603E+02  0.17966332680E+02 -0.16164791646E+03  0.16589098422E+03  0.00000000000E+00 0. -1.
</event>
<event>
 4    1  0.7060698E+001  0.2251671E+02  0.7546771E-02  0.1498658E+00
          2   -1    0    0  502    0  0.00000000000E+00  0.00000000000E+00  0.53646001368E+02  0.53646001368E+02  0.00000000000E+00 0.  1.
         -2   -1    0    0    0  501 -0.00000000000E+00 -0.00000000000E+00 -0.94608502535E+01  0.94608502535E+01  0.00000000000E+00 0. -1.
          1    1    1    2  502    0  0.20351722127E+02  0.96337664070E+01  0.21068380113E+02  0.30836320943E+02  0.00000000000E+00 0. -1.
         -1    1    1    2    0  501 -0.20351722127E+02 -0.96337664070E+01  0.23116771002E+02  0.32270530679E+02  0.00000000000E+00 0.  1.
</event>
<event>
 4    1  0.7060698E+001  0.4958154E+02  0.7546771E-02  0.1299997E+00
          2   -1    0    0  502    0  0.00000000000E+00  0.00000000000E+00  0.14962778637E+04  0.14962778637E+04  0.00000000000E+00 0. -1.
         -2   -1    0    0    0  501 -0.00000000000E+00 -0.00000000000E+00 -0.23577219995E+01  0.23577219995E+01  0.00000000000E+00 0.  1.
          1    1    1    2  502    0 -0.13654419841E+02  0.47664304248E+02  0.33438823165E+03  0.33804410740E+03  0.00000000000E+00 0. -1.
         -1    1    1    2    0  501  0.13654419841E+02 -0.47664304248E+02  0.11595319101E+04  0.11605914783E+04  0.00000000000E+00 0.  1.
</event>
<event>
 4    1  0.7060698E+001  0.2000782E+02  0.7546771E-02  0.1533916E+00
          2   -1    0    0  502    0  0.00000000000E+00  0.00000000000E+00  0.37674306671E+01  0.37674306671E+01  0.00000000000E+00 0.  1.
         -2   -1    0    0    0  501 -0.00000000000E+00 -0.00000000000E+00 -0.66329798481E+03  0.66329798481E+03  0.00000000000E+00 0. -1.
          1    1    1    2  502    0 -0.19876222164E+02  0.22909762904E+01 -0.63541780084E+03  0.63573272246E+03  0.00000000000E+00 0. -1.
         -1    1    1    2    0  501  0.19876222164E+02 -0.22909762904E+01 -0.24112753297E+02  0.31332693013E+02  0.00000000000E+00 0.  1.
</event>
<event>
 4    1  0.7060698E+001  0.3448850E+02  0.7546771E-02  0.1384195E+00
          2   -1    0    0  502    0  0.00000000000E+00  0.00000000000E+00  0.70365136610E+01  0.70365136610E+01  0.00000000000E+00 0.  1.
         -2   -1    0    0    0  501 -0.00000000000E+00 -0.00000000000E+00 -0.18152752352E+03  0.18152752352E+03  0.00000000000E+00 0. -1.
          1    1    1    2  502    0 -0.10857722008E+02  0.32734788852E+02 -0.62517717156E+02  0.71399730299E+02  0.00000000000E+00 0.  1.
         -1    1    1    2    0  501  0.10857722008E+02 -0.32734788852E+02 -0.11197329271E+03  0.11716430689E+03  0.00000000000E+00 0. -1.
</event>
<event>
 4    1  0.7060698E+001  0.2358604E+02  0.7546771E-02  0.1485267E+00
          2   -1    0    0  502    0  0.00000000000E+00  0.00000000000E+00  0.10736363160E+03  0.10736363160E+03  0.00000000000E+00 0.  1.
         -2   -1    0    0    0  501 -0.00000000000E+00 -0.00000000000E+00 -0.57326094660E+01  0.57326094660E+01  0.00000000000E+00 0. -1.
          1    1    1    2  502    0 -0.18824401143E+01 -0.23510796461E+02  0.68349223222E+02  0.72304339054E+02  0.00000000000E+00 0.  1.
         -1    1    1    2    0  501  0.18824401143E+01  0.23510796461E+02  0.33281798917E+02  0.40791902017E+02  0.00000000000E+00 0. -1.
</event>
<event>
 4    1  0.7060698E+001  0.3961467E+02  0.7546771E-02  0.1350759E+00
          2   -1    0    0  502    0  0.00000000000E+00  0.00000000000E+00  0.96430999026E+03  0.96430999026E+03  0.00000000000E+00 0.  1.
         -2   -1    0    0    0  501 -0.00000000000E+00 -0.00000000000E+00 -0.30892787972E+01  0.30892787972E+01  0.00000000000E+00 0. -1.
          1    1    1    2  502    0  0.39605796417E+02 -0.83842990500E+00  0.14787245260E+03  0.15308685219E+03  0.00000000000E+00 0. -1.
         -1    1    1    2    0  501 -0.39605796417E+02  0.83842990500E+00  0.81334825886E+03  0.81431241687E+03  0.00000000000E+00 0.  1.
</event>
<event>
 4    1  0.7060698E+001  0.3023165E+02  0.7546771E-02  0.1417594E+00
          2   -1    0    0  502    0  0.00000000000E+00  0.00000000000E+00  0.52094634546E+02  0.52094634546E+02  0.00000000000E+00 0.  1.
         -2   -1    0    0    0  501 -0.00000000000E+00 -0.00000000000E+00 -0.20279575315E+02  0.20279575315E+02  0.00000000000E+00 0. -1.
          1    1    1    2  502    0 -0.24112653338E+02  0.18235472183E+02  0.26169994088E+01  0.30344706007E+02  0.00000000000E+00 0. -1.
         -1    1    1    2    0  501  0.24112653338E+02 -0.18235472183E+02  0.29198059822E+02  0.42029503853E+02  0.00000000000E+00 0.  1.
</event>
<event>
 4    1  0.7060698E+001  0.2099497E+02  0.7546771E-02  0.1519337E+00
          2   -1    0    0  502    0  0.00000000000E+00  0.00000000000E+00  0.59988680793E+02  0.59988680793E+02  0.00000000000E+00 0.  1.
         -2   -1    0    0    0  501 -0.00000000000E+00 -0.00000000000E+00 -0.99380034710E+01  0.99380034710E+01  0.00000000000E+00 0. -1.
          1    1    1    2  502    0 -0.18260839497E+02 -0.10360042496E+02  0.42874788836E+02  0.47739252795E+02  0.00000000000E+00 0.  1.
         -1    1    1    2    0  501  0.18260839497E+02  0.10360042496E+02  0.71758884858E+01  0.22187431469E+02  0.00000000000E+00 0. -1.
</event>
<event>
 4    1  0.7060698E+001  0.2839056E+02  0.7546771E-02  0.1434118E+00
          2   -1    0    0  502    0  0.00000000000E+00  0.00000000000E+00  0.38409770750E+00  0.38409770750E+00  0.00000000000E+00 0.  1.
         -2   -1    0    0    0  501 -0.00000000000E+00 -0.00000000000E+00 -0.25556008890E+04  0.25556008890E+04  0.00000000000E+00 0. -1.
          1    1    1    2  502    0 -0.28324962001E+02 -0.19288250455E+01 -0.18181065967E+04  0.18183282489E+04  0.00000000000E+00 0. -1.
         -1    1    1    2    0  501  0.28324962001E+02  0.19288250455E+01 -0.73711019459E+03  0.73765673779E+03  0.00000000000E+00 0.  1.
</event>
<event>
 4    1  0.7060698E+001  0.2550248E+02  0.7546771E-02  0.1463260E+00
          2   -1    0    0  502    0  0.00000000000E+00  0.00000000000E+00  0.41190905158E+03  0.41190905158E+03  0.00000000000E+00 0. -1.
         -2   -1    0    0    0  501 -0.00000000000E+00 -0.00000000000E+00 -0.18504029475E+01  0.18504029475E+01  0.00000000000E+00 0.  1.
          1    1    1    2  502    0 -0.87048061749E+01  0.23970869467E+02  0.28426974054E+03  0.28541139014E+03  0.00000000000E+00 0. -1.
         -1    1    1    2    0  501  0.87048061749E+01 -0.23970869467E+02  0.12578890809E+03  0.12834806439E+03  0.00000000000E+00 0.  1.
</event>
<event>
 4    1  0.7060698E+001  0.4609529E+02  0.7546771E-02  0.1316052E+00
          2   -1    0    0  502    0  0.00000000000E+00  0.00000000000E+00  0.89565370674E+02  0.89565370674E+02  0.00000000000E+00 0.  1.
         -2   -1    0    0    0  501 -0.00000000000E+00 -0.00000000000E+00 -0.36718105038E+02  0.36718105038E+02  0.00000000000E+00 0. -1.
          1    1    1    2  502    0 -0.32080605723E+02 -0.33100006012E+02 -0.11139624329E+02  0.47422219389E+02  0.00000000000E+00 0. -1.
         -1    1    1    2    0  501  0.32080605723E+02  0.33100006012E+02  0.63986889965E+02  0.78861256323E+02  0.00000000000E+00 0.  1.
</event>
<event>
 4    1  0.7060698E+001  0.2107771E+02  0.7546771E-02  0.1518158E+00
          2   -1    0    0  502    0  0.00000000000E+00  0.00000000000E+00  0.19635135064E+03  0.19635135064E+03  0.00000000000E+00 0. -1.
         -2   -1    0    0    0  501 -0.00000000000E+00 -0.00000000000E+00 -0.26828382571E+01  0.26828382571E+01  0.00000000000E+00 0.  1.
          1    1    1    2  502    0 -0.21073104405E+02  0.44064173877E+00  0.13621956116E+03  0.13784062804E+03  0.00000000000E+00 0. -1.
         -1    1    1    2    0  501  0.21073104405E+02 -0.44064173877E+00  0.57448951223E+02  0.61193560862E+02  0.00000000000E+00 0.  1.
</event>
<event>
 4    1  0.7060698E+001  0.2137576E+02  0.7546771E-02  0.1513967E+00
          2   -1    0    0  502    0  0.00000000000E+00  0.00000000000E+00  0.46529250577E+03  0.46529250577E+03  0.00000000000E+00 0.  1.
         -2   -1    0    0    0  501 -0.00000000000E+00 -0.00000000000E+00 -0.19496229297E+01  0.19496229297E+01  0.00000000000E+00 0. -1.
          1    1    1    2  502    0  0.13903161377E+02 -0.16236534156E+02  0.39625521443E+03  0.39683134693E+03  0.00000000000E+00 0.  1.
         -1    1    1    2    0  501 -0.13903161377E+02  0.16236534156E+02  0.67087668406E+02  0.70410781772E+02  0.00000000000E+00 0. -1.
</event>
<event>
 4    1  0.7060698E+001  0.3050910E+02  0.7546771E-02  0.1415223E+00
          2   -1    0    0  502    0  0.00000000000E+00  0.00000000000E+00  0.12197450522E+04  0.12197450522E+04  0.00000000000E+00 0. -1.
         -2   -1    0    0    0  501 -0.00000000000E+00 -0.00000000000E+00 -0.77964650878E+00  0.77964650878E+00  0.00000000000E+00 0.  1.
          1    1    1    2  502    0 -0.30183709379E+02  0.44439801889E+01  0.69834735706E+03  0.69901347368E+03  0.00000000000E+00 0.  1.
         -1    1    1    2    0  501  0.30183709379E+02 -0.44439801889E+01  0.52061804867E+03  0.52151122506E+03  0.00000000000E+00 0. -1.
</event>
<event>
 4    1  0.7060698E+001  0.3482165E+02  0.7546771E-02  0.1381821E+00
          2   -1    0    0  502    0  0.00000000000E+00  0.00000000000E+00  0.29663186042E+03  0.29663186042E+03  0.00000000000E+00 0.  1.
         -2   -1    0    0    0  501 -0.00000000000E+00 -0.00000000000E+00 -0.41241339338E+01  0.41241339338E+01  0.00000000000E+00 0. -1.
          1    1    1    2  502    0 -0.71727670410E+01 -0.34074897516E+02  0.16038467163E+03  0.16412126652E+03  0.00000000000E+00 0.  1.
         -1    1    1    2    0  501  0.71727670410E+01  0.34074897516E+02  0.13212305485E+03  0.13663472783E+03  0.00000000000E+00 0. -1.
</event>
<event>
 4    1  0.7060698E+001  0.2533880E+02  0.7546771E-02  0.1465049E+00
          2   -1    0    0  502    0  0.00000000000E+00  0.00000000000E+00  0.17763178285E+03  0.17763178285E+03  0.00000000000E+00 0.  1.
         -2   -1    0    0    0  501 -0.00000000000E+00 -0.00000000000E+00 -0.41706968121E+01  0.41706968121E+01  0.00000000000E+00 0. -1.
          1    1    1    2  502    0 -0.60591516645E+01  0.24603689306E+02  0.11992528263E+03  0.12257295077E+03  0.00000000000E+00 0.  1.
         -1    1    1    2    0  501  0.60591516645E+01 -0.24603689306E+02  0.53535803406E+02  0.59229528891E+02  0.00000000000E+00 0. -1.
</event>
<event>
 4    1  0.7060698E+001  0.2048511E+02  0.7546771E-02  0.1526745E+00
          2   -1    0    0  502    0  0.00000000000E+00  0.00000000000E+00  0.36631164443E+03  0.36631164443E+03  0.00000000000E+00 0. -1.
         -2   -1    0    0    0  501 -0.00000000000E+00 -0.00000000000E+00 -0.13409894956E+01  0.13409894956E+01  0.00000000000E+00 0.  1.
          1    1    1    2  502    0 -0.23292553758E+01 -0.20352254174E+02  0.25265778012E+03  0.25348687054E+03  0.00000000000E+00 0. -1.
         -1    1    1    2    0  501  0.23292553758E+01  0.20352254174E+02  0.11231287482E+03  0.11416576339E+03  0.00000000000E+00 0.  1.
</event>
<event>
 4    1  0.7060698E+001  0.3199644E+02  0.7546771E-02  0.1403005E+00
          2   -1    0    0  502    0  0.00000000000E+00  0.00000000000E+00  0.45532437525E+03  0.45532437525E+03  0.00000000000E+00 0.  1.
         -2   -1    0    0    0  501 -0.00000000000E+00 -0.00000000000E+00 -0.24818242535E+01  0.24818242535E+01  0.00000000000E+00 0. -1.
          1    1    1    2  502    0 -0.25655359426E+02 -0.19120014295E+02  0.29661464020E+03  0.29833541056E+03  0.00000000000E+00 0.  1.
         -1    1    1    2    0  501  0.25655359426E+02  0.19120014295E+02  0.15622791079E+03  0.15947078894E+03  0.00000000000E+00 0. -1.
</event>
<event>
 4    1  0.7060698E+001  0.2262398E+02  0.7546771E-02  0.1497275E+00
          2   -1    0    0  502    0  0.00000000000E+00  0.00000000000E+00  0.38604176619E+02  0.38604176619E+02  0.00000000000E+00 0.  1.
         -2   -1    0    0    0  501 -0.00000000000E+00 -0.00000000000E+00 -0.13574288808E+02  0.13574288808E+02  0.00000000000E+00 0. -1.
          1    1    1    2  502    0 -0.14596046303E+02  0.17285831112E+02  0.85374984867E+01  0.24181261450E+02  0.00000000000E+00 0. -1.
         -1    1    1    2    0  501  0.14596046303E+02 -0.17285831112E+02  0.16492389325E+02  0.27997203977E+02  0.00000000000E+00 0.  1.
</event>
<event>
 4    1  0.7060698E+001  0.2917895E+02  0.7546771E-02  0.1426868E+00
          2   -1    0    0  502    0  0.00000000000E+00  0.00000000000E+00  0.63503042621E+02  0.63503042621E+02  0.00000000000E+00 0. -1.
         -2   -1    0    0    0  501 -0.00000000000E+00 -0.00000000000E+00 -0.10295778317E+03  0.10295778317E+03  0.00000000000E+00 0.  1.
          1    1    1    2  502    0  0.21116307643E+01  0.29102445017E+02 -0.97349608078E+02  0.10162852692E+03  0.00000000000E+00 0.  1.
         -1    1    1    2    0  501 -0.21116307643E+01 -0.29102445017E+02  0.57894867532E+02  0.64832298872E+02  0.00000000000E+00 0. -1.
</event>
<event>
 4    1  0.7060698E+001  0.2234448E+02  0.7546771E-02  0.1500898E+00
          2   -1    0    0  502    0  0.00000000000E+00  0.00000000000E+00  0.29524588273E+02  0.29524588273E+02  0.00000000000E+00 0. -1.
         -2   -1    0    0    0  501 -0.00000000000E+00 -0.00000000000E+00 -0.22266655722E+02  0.22266655722E+02  0.00000000000E+00 0.  1.
          1    1    1    2  502    0  0.22184661270E+02  0.26677264255E+01  0.16329585169E+02  0.27675464074E+02  0.00000000000E+00 0. -1.
         -1    1    1    2    0  501 -0.22184661270E+02 -0.26677264255E+01 -0.90716526186E+01  0.24115779920E+02  0.00000000000E+00 0.  1.
</event>
<event>
 4    1  0.7060698E+001  0.2083417E+02  0.7546771E-02  0.1521646E+00
          2   -1    0    0  502    0  0.00000000000E+00  0.00000000000E+00  0.57726070003E+03  0.57726070003E+03  0.00000000000E+00 0.  1.
         -2   -1    0    0    0  501 -0.00000000000E+00 -0.00000000000E+00 -0.93075641093E+00  0.93075641093E+00  0.00000000000E+00 0. -1.
          1    1    1    2  502    0 -0.10075261479E+02  0.18236003643E+02  0.41488142189E+03  0.41540420912E+03  0.00000000000E+00 0. -1.
         -1    1    1    2    0  501  0.10075261479E+02 -0.18236003643E+02  0.16144852173E+03  0.16278724732E+03  0.00000000000E+00 0.  1.
</event>
<event>
 4    1  0.7060698E+001  0.2420235E+02  0.7546771E-02  0.1477928E+00
          2   -1    0    0  502    0  0.00000000000E+00  0.00000000000E+00  0.19112709387E+03  0.19112709387E+03  0.00000000000E+00 0. -1.
         -2   -1    0    0    0  501 -0.00000000000E+00 -0.00000000000E+00 -0.93939362120E+01  0.93939362120E+01  0.00000000000E+00 0.  1.
          1    1    1    2  502    0 -0.24201316820E+02  0.22368622986E+00  0.85702236552E+01  0.25674939237E+02  0.00000000000E+00 0.  1.
         -1    1    1    2    0  501  0.24201316820E+02 -0.22368622986E+00  0.17316293401E+03  0.17484609085E+03  0.00000000000E+00 0. -1.
</event>
<event>
 4    1  0.7060698E+001  0.4360326E+02  0.7546771E-02  0.1328573E+00
          2   -1    0    0  502    0  0.00000000000E+00  0.00000000000E+00  0.63760923530E+02  0.63760923530E+02  0.00000000000E+00 0.  1.
         -2   -1    0    0    0  501 -0.00000000000E+00 -0.00000000000E+00 -0.35185124842E+02  0.35185124842E+02  0.00000000000E+00 0. -1.
          1    1    1    2  502    0  0.43415733566E+02  0.40396301166E+01  0.33609639344E+02  0.55053177832E+02  0.00000000000E+00 0. -1.
         -1    1    1    2    0  501 -0.43415733566E+02 -0.40396301166E+01 -0.50338406562E+01  0.43892870541E+02  0.00000000000E+00 0.  1.
</event>
<event>
 4    1  0.7060698E+001  0.2166869E+02  0.7546771E-02  0.1509928E+00
          2   -1    0    0  502    0  0.00000000000E+00  0.00000000000E+00  0.19334757140E+04  0.19334757140E+04  0.00000000000E+00 0. -1.
         -2   -1    0    0    0  501 -0.00000000000E+00 -0.00000000000E+00 -0.24286268758E+00  0.24286268758E+00  0.00000000000E+00 0.  1.
          1    1    1    2  502    0  0.21328023804E+02  0.38272238090E+01  0.97518347275E+03  0.97542418350E+03  0.00000000000E+00 0. -1.
         -1    1    1    2    0  501 -0.21328023804E+02 -0.38272238090E+01  0.95804937856E+03  0.95829439318E+03  0.00000000000E+00 0.  1.
</event>
<event>
 4    1  0.7060698E+001  0.4351521E+02  0.7546771E-02  0.1329033E+00
          2   -1    0    0  502    0  0.00000000000E+00  0.00000000000E+00  0.69643918396E+02  0.69643918396E+02  0.00000000000E+00 0.  1.
         -2   -1    0    0    0  501 -0.00000000000E+00 -0.00000000000E+00 -0.28164217806E+02  0.28164217806E+02  0.00000000000E+00 0. -1.
          1    1    1    2  502    0 -0.36088114140E+02 -0.24315049655E+02  0.29838283440E+02  0.52762645693E+02  0.00000000000E+00 0.  1.
         -1    1    1    2    0  501  0.36088114140E+02  0.24315049655E+02  0.11641417151E+02  0.45045490509E+02  0.00000000000E+00 0. -1.
</event>
<event>
 4    1  0.7060698E+001  0.2166217E+02  0.7546771E-02  0.1510017E+00
          2   -1    0    0  502    0  0.00000000000E+00  0.00000000000E+00  0.20432239910E+03  0.20432239910E+03  0.00000000000E+00 0.  1.
         -2   -1    0    0    0  501 -0.00000000000E+00 -0.00000000000E+00 -0.27398941531E+01  0.27398941531E+01  0.00000000000E+00 0. -1.
          1    1    1    2  502    0 -0.22438593018E+01 -0.21545645962E+02  0.14243435495E+03  0.14407218758E+03  0.00000000000E+00 0.  1.
         -1    1    1    2    0  501  0.22438593018E+01  0.21545645962E+02  0.59148149997E+02  0.62990105672E+02  0.00000000000E+00 0. -1.
</event>
<event>
 4    1  0.7060698E+001  0.2071333E+02  0.7546771E-02  0.1523397E+00
          2   -1    0    0  502    0  0.00000000000E+00  0.00000000000E+00  0.27225450546E+03  0.27225450546E+03  0.00000000000E+00 0.  1.
         -2   -1    0    0    0  501 -0.00000000000E+00 -0.00000000000E+00 -0.15967782630E+01  0.15967782630E+01  0.00000000000E+00 0. -1.
          1    1    1    2  502    0 -0.48251064575E+01  0.20143494699E+02  0.15099119700E+03  0.15240532668E+03  0.00000000000E+00 0.  1.
         -1    1    1    2    0  501  0.48251064575E+01 -0.20143494699E+02  0.11966653020E+03  0.12144595704E+03  0.00000000000E+00 0. -1.
</event>
<event>
 4    1  0.7060698E+001  0.2175797E+02  0.7546771E-02  0.1508712E+00
          2   -1    0    0  502    0  0.00000000000E+00  0.00000000000E+00  0.51536619569E+03  0.51536619569E+03  0.00000000000E+00 0. -1.
         -2   -1    0    0    0  501 -0.00000000000E+00 -0.00000000000E+00 -0.10330363877E+01  0.10330363877E+01  0.00000000000E+00 0.  1.
          1    1    1    2  502    0 -0.47690130844E+01 -0.21228895079E+02  0.17122533658E+03  0.17260221713E+03  0.00000000000E+00 0.  1.
         -1    1    1    2    0  501  0.47690130844E+01  0.21228895079E+02  0.34310782272E+03  0.34379701494E+03  0.00000000000E+00 0. -1.
</event>
<event>
 4    1  0.7060698E+001  0.2718175E+02  0.7546771E-02  0.1445791E+00
          2   -1    0    0  502    0  0.00000000000E+00  0.00000000000E+00  0.90568954255E+03  0.90568954255E+03  0.00000000000E+00 0. -1.
         -2   -1    0    0    0  501 -0.00000000000E+00 -0.00000000000E+00 -0.91991000729E+00  0.91991000729E+00  0.00000000000E+00 0.  1.
          1    1    1    2  502    0 -0.16350357967E+02 -0.21714354915E+02  0.60489411171E+03  0.60550452830E+03  0.00000000000E+00 0. -1.
         -1    1    1    2    0  501  0.16350357967E+02  0.21714354915E+02  0.29987552084E+03  0.30110492426E+03  0.00000000000E+00 0.  1.
</event>
<event>
 4    1  0.7060698E+001  0.2082471E+02  0.7546771E-02  0.1521782E+00
          2   -1    0    0  502    0  0.00000000000E+00  0.00000000000E+00  0.52773059789E+01  0.52773059789E+01  0.00000000000E+00 0.  1.
         -2   -1    0    0    0  501 -0.00000000000E+00 -0.00000000000E+00 -0.84319376433E+02  0.84319376433E+02  0.00000000000E+00 0. -1.
          1    1    1    2  502    0  0.74294532342E+01  0.19454346242E+02 -0.32378728425E+02  0.38497407932E+02  0.00000000000E+00 0. -1.
         -1    1    1    2    0  501 -0.74294532342E+01 -0.19454346242E+02 -0.46663342029E+02  0.51099274480E+02  0.00000000000E+00 0.  1.
</event>
<event>
 4    1  0.7060698E+001  0.2571904E+02  0.7546771E-02  0.1460918E+00
          2   -1    0    0  502    0  0.00000000000E+00  0.00000000000E+00  0.52931516299E+03  0.52931516299E+03  0.00000000000E+00 0.  1.
         -2   -1    0    0    0  501 -0.00000000000E+00 -0.00000000000E+00 -0.15085427836E+01  0.15085427836E+01  0.00000000000E+00 0. -1.
          1    1    1    2  502    0 -0.20918817129E+02 -0.14962355466E+02  0.15395586242E+03  0.15608932239E+03  0.00000000000E+00 0. -1.
         -1    1    1    2    0  501  0.20918817129E+02  0.14962355466E+02  0.37385075779E+03  0.37473438339E+03  0.00000000000E+00 0.  1.
</event>
<event>
 4    1  0.7060698E+001  0.2491854E+02  0.7546771E-02  0.1469717E+00
          2   -1    0    0  502    0  0.00000000000E+00  0.00000000000E+00  0.13521520907E+04  0.13521520907E+04  0.00000000000E+00 0.  1.
         -2   -1    0    0    0  501 -0.00000000000E+00 -0.00000000000E+00 -0.47299799562E+00  0.47299799562E+00  0.00000000000E+00 0. -1.
          1    1    1    2  502    0  0.20879208458E+02  0.13601184732E+02  0.56040634025E+03  0.56096006967E+03  0.00000000000E+00 0.  1.
         -1    1    1    2    0  501 -0.20879208458E+02 -0.13601184732E+02  0.79127275248E+03  0.79166501905E+03  0.00000000000E+00 0. -1.
</event>
<event>
 4    1  0.7060698E+001  0.2112865E+02  0.7546771E-02  0.1517436E+00
          2   -1    0    0  502    0  0.00000000000E+00  0.00000000000E+00  0.37849183548E+02  0.37849183548E+02  0.00000000000E+00 0.  1.
         -2   -1    0    0    0  501 -0.00000000000E+00 -0.00000000000E+00 -0.14049076559E+02  0.14049076559E+02  0.00000000000E+00 0. -1.
          1    1    1    2  502    0  0.11151962944E+01 -0.21099198104E+02  0.22294754339E+02  0.30716052716E+02  0.00000000000E+00 0.  1.
         -1    1    1    2    0  501 -0.11151962944E+01  0.21099198104E+02  0.15053526498E+01  0.21182207392E+02  0.00000000000E+00 0. -1.
</event>
<event>
 4    1  0.7060698E+001  0.2484693E+02  0.7546771E-02  0.1470523E+00
          2   -1    0    0  502    0  0.00000000000E+00  0.00000000000E+00  0.12000214130E+04  0.12000214130E+04  0.00000000000E+00 0.  1.
         -2   -1    0    0    0  501 -0.00000000000E+00 -0.00000000000E+00 -0.63861773206E+00  0.63861773206E+00  0.00000000000E+00 0. -1.
          1    1    1    2  502    0  0.74861380493E+01  0.23692350614E+02  0.33499583792E+03  0.33591603291E+03  0.00000000000E+00 0. -1.
         -1    1    1    2    0  501 -0.74861380493E+01 -0.23692350614E+02  0.86438695734E+03  0.86474399781E+03  0.00000000000E+00 0.  1.
</event>
<event>
 4    1  0.7060698E+001  0.2346975E+02  0.7546771E-02  0.1486682E+00
          2   -1    0    0  502    0  0.00000000000E+00  0.00000000000E+00  0.45821359683E+03  0.45821359683E+03  0.00000000000E+00 0. -1.
         -2   -1    0    0    0  501 -0.00000000000E+00 -0.00000000000E+00 -0.15301111647E+01  0.15301111647E+01  0.00000000000E+00 0.  1.
          1    1    1    2  502    0 -0.23420770177E+02 -0.15154070846E+01  0.12191429749E+03  0.12415282867E+03  0.00000000000E+00 0.  1.
         -1    1    1    2    0  501  0.23420770177E+02  0.15154070846E+01  0.33476918818E+03  0.33559087932E+03  0.00000000000E+00 0. -1.
</event>
<event>
 4    1  0.7060698E+001  0.2301219E+02  0.7546771E-02  0.1492345E+00
          2   -1    0    0  502    0  0.00000000000E+00  0.00000000000E+00  0.19571327097E+02  0.19571327097E+02  0.00000000000E+00 0.  1.
         -2   -1    0    0    0  501 -0.00000000000E+00 -0.00000000000E+00 -0.40320576058E+02  0.40320576058E+02  0.00000000000E+00 0. -1.
          1    1    1    2  502    0  0.22800340091E+02 -0.31153698887E+01 -0.27549303917E+02  0.35896032986E+02  0.00000000000E+00 0. -1.
         -1    1    1    2    0  501 -0.22800340091E+02  0.31153698887E+01  0.68000549556E+01  0.23995870170E+02  0.00000000000E+00 0.  1.
</event>
<event>
 4    1  0.7060698E+001  0.2478576E+02  0.7546771E-02  0.1471214E+00
          2   -1    0    0  502    0  0.00000000000E+00  0.00000000000E+00  0.40271175577E+03  0.40271175577E+03  0.00000000000E+00 0.  1.
         -2   -1    0    0    0  501 -0.00000000000E+00 -0.00000000000E+00 -0.56093061210E+01  0.56093061210E+01  0.00000000000E+00 0. -1.
          1    1    1    2  502    0 -0.12405445480E+02 -0.21457839424E+02  0.37275202580E+03  0.37357516872E+03  0.00000000000E+00 0.  1.
         -1    1    1    2    0  501  0.12405445480E+02  0.21457839424E+02  0.24350423851E+02  0.34745893168E+02  0.00000000000E+00 0. -1.
</event>
<event>
 4    1  0.7060698E+001  0.4611433E+02  0.7546771E-02  0.1315960E+00
          2   -1    0    0  502    0  0.00000000000E+00  0.00000000000E+00  0.29399658862E+03  0.29399658862E+03  0.00000000000E+00 0.  1.
         -2   -1    0    0    0  501 -0.00000000000E+00 -0.00000000000E+00 -0.78244801123E+01  0.78244801123E+01  0.00000000000E+00 0. -1.
          1    1    1    2  502    0 -0.27497353124E+02 -0.37019280565E+02  0.10160076271E+03  0.11157619166E+03  0.00000000000E+00 0. -1.
         -1    1    1    2    0  501  0.27497353124E+02  0.37019280565E+02  0.18457134579E+03  0.19024487707E+03  0.00000000000E+00 0.  1.
</event>
<event>
 4    1  0.7060698E+001  0.2463961E+02  0.7546771E-02  0.1472876E+00
          2   -1    0    0  502    0  0.00000000000E+00  0.00000000000E+00  0.13526710015E+04  0.13526710015E+04  0.00000000000E+00 0. -1.
         -2   -1    0    0    0  501 -0.00000000000E+00 -0.00000000000E+00 -0.50448161145E+00  0.50448161145E+00  0.00000000000E+00 0.  1.
          1    1    1    2  502    0  0.23447097635E+02  0.75725968218E+01  0.90081554414E+03  0.90115245945E+03  0.00000000000E+00 0.  1.
         -1    1    1    2    0  501 -0.23447097635E+02 -0.75725968218E+01  0.45135097576E+03  0.45202302367E+03  0.00000000000E+00 0. -1.
</event>
<event>
 4    1  0.7060698E+001  0.2906505E+02  0.7546771E-02  0.1427899E+00
          2   -1    0    0  502    0  0.00000000000E+00  0.00000000000E+00  0.17496392328E+04  0.17496392328E+04  0.00000000000E+00 0.  1.
         -2   -1    0    0    0  501 -0.00000000000E+00 -0.00000000000E+00 -0.90997403393E+00  0.90997403393E+00  0.00000000000E+00 0. -1.
          1    1    1    2  502    0 -0.35956776789E+01 -0.28841782533E+02  0.14740414860E+04  0.14743280095E+04  0.00000000000E+00 0.  1.
         -1    1    1    2    0  501  0.35956776789E+01  0.28841782533E+02  0.27468777282E+03  0.27622119733E+03  0.00000000000E+00 0. -1.
</event>
<event>
 4    1  0.7060698E+001  0.2146388E+02  0.7546771E-02  0.1512744E+00
          2   -1    0    0  502    0  0.00000000000E+00  0.00000000000E+00  0.11469747402E+02  0.11469747402E+02  0.00000000000E+00 0.  1.
         -2   -1    0    0    0  501 -0.00000000000E+00 -0.00000000000E+00 -0.87808036761E+02  0.87808036761E+02  0.00000000000E+00 0. -1.
          1    1    1    2  502    0 -0.21403221276E+02 -0.16124989122E+01 -0.74732702911E+02  0.77753938280E+02  0.00000000000E+00 0. -1.
         -1    1    1    2    0  501  0.21403221276E+02  0.16124989122E+01 -0.16055864489E+01  0.21523845882E+02  0.00000000000E+00 0.  1.
</event>
<event>
 4    1  0.7060698E+001  0.2100770E+02  0.7546771E-02  0.1519155E+00
          2   -1    0    0  502    0  0.00000000000E+00  0.00000000000E+00  0.78470685553E+01  0.78470685553E+01  0.00000000000E+00 0.  1.
         -2   -1    0    0    0  501 -0.00000000000E+00 -0.00000000000E+00 -0.62892538704E+02  0.62892538704E+02  0.00000000000E+00 0. -1.
          1    1    1    2  502    0 -0.16922331403E+02 -0.12448226923E+02 -0.39025652338E+02  0.44320708411E+02  0.00000000000E+00 0. -1.
         -1    1    1    2    0  501  0.16922331403E+02  0.12448226923E+02 -0.16019817811E+02  0.26418898848E+02  0.00000000000E+00 0.  1.
</event>
<event>
 4    1  0.7060698E+001  0.2616007E+02  0.7546771E-02  0.1456233E+00
          2   -1    0    0  502    0  0.00000000000E+00  0.00000000000E+00  0.30466039167E+03  0.30466039167E+03  0.00000000000E+00 0.  1.
         -2   -1    0    0    0  501 -0.00000000000E+00 -0.00000000000E+00 -0.22614817768E+01  0.22614817768E+01  0.00000000000E+00 0. -1.
          1    1    1    2  502    0 -0.25575597143E+02  0.54989208101E+01  0.16378582744E+03  0.16586182976E+03  0.00000000000E+00 0.  1.
         -1    1    1    2    0  501  0.25575597143E+02 -0.54989208101E+01  0.13861308245E+03  0.14106004369E+03  0.00000000000E+00 0. -1.
</event>
<event>
 4    1  0.7060698E+001  0.2767268E+02  0.7546771E-02  0.1440965E+00
          2   -1    0    0  502    0  0.00000000000E+00  0.00000000000E+00  0.22160626630E+03  0.22160626630E+03  0.00000000000E+00 0.  1.
         -2   -1    0    0    0  501 -0.00000000000E+00 -0.00000000000E+00 -0.49362519922E+01  0.49362519922E+01  0.00000000000E+00 0. -1.
          1    1    1    2  502    0 -0.37507565096E+01  0.27417317163E+02  0.46297979854E+02  0.53937745535E+02  0.00000000000E+00 0. -1.
         -1    1    1    2    0  501  0.37507565096E+01 -0.27417317163E+02  0.17037203446E+03  0.17260477276E+03  0.00000000000E+00 0.  1.
</event>
<event>
 4    1  0.7060698E+001  0.5438816E+02  0.7546771E-02  0.1280191E+00
          2   -1    0    0  502    0  0.00000000000E+00  0.00000000000E+00  0.10176470153E+04  0.10176470153E+04  0.00000000000E+00 0.  1.
         -2   -1    0    0    0  501 -0.00000000000E+00 -0.00000000000E+00 -0.35762077892E+01  0.35762077892E+01  0.00000000000E+00 0. -1.
          1    1    1    2  502    0 -0.49142469156E+02  0.23304280652E+02  0.28611667899E+03  0.29124015136E+03  0.00000000000E+00 0.  1.
         -1    1    1    2    0  501  0.49142469156E+02 -0.23304280652E+02  0.72795412850E+03  0.72998307171E+03  0.00000000000E+00 0. -1.
</event>
<event>
 4    1  0.7060698E+001  0.2043235E+02  0.7546771E-02  0.1527526E+00
          2   -1    0    0  502    0  0.00000000000E+00  0.00000000000E+00  0.55334321596E+03  0.55334321596E+03  0.00000000000E+00 0.  1.
         -2   -1    0    0    0  501 -0.00000000000E+00 -0.00000000000E+00 -0.11136638069E+01  0.11136638069E+01  0.00000000000E+00 0. -1.
          1    1    1    2  502    0  0.14334003529E+02 -0.14560809165E+02  0.11867111250E+03  0.12041724860E+03  0.00000000000E+00 0. -1.
         -1    1    1    2    0  501 -0.14334003529E+02  0.14560809165E+02  0.43355843965E+03  0.43403963116E+03  0.00000000000E+00 0.  1.
</event>
<event>
 4    1  0.7060698E+001  0.3261092E+02  0.7546771E-02  0.1398185E+00
          2   -1    0    0  502    0  0.00000000000E+00  0.00000000000E+00  0.27294060226E+03  0.27294060226E+03  0.00000000000E+00 0.  1.
         -2   -1    0    0    0  501 -0.00000000000E+00 -0.00000000000E+00 -0.39019249695E+01  0.39019249695E+01  0.00000000000E+00 0. -1.
          1    1    1    2  502    0 -0.26206998614E+02 -0.19407872716E+02  0.13975122528E+03  0.14350566980E+03  0.00000000000E+00 0.  1.
         -1    1    1    2    0  501  0.26206998614E+02  0.19407872716E+02  0.12928745201E+03  0.13333685743E+03  0.00000000000E+00 0. -1.
</event>
<event>
 4    1  0.7060698E+001  0.2204248E+02  0.7546771E-02  0.1504885E+00
          2   -1    0    0  502    0  0.00000000000E+00  0.00000000000E+00  0.30099421505E+01  0.30099421505E+01  0.00000000000E+00 0. -1.
         -2   -1    0    0    0  501 -0.00000000000E+00 -0.00000000000E+00 -0.16322153254E+03  0.16322153254E+03  0.00000000000E+00 0.  1.
          1    1    1    2  502    0 -0.21848417177E+02 -0.29184643577E+01 -0.71378513829E+02  0.74704504575E+02  0.00000000000E+00 0.  1.
         -1    1    1    2    0  501  0.21848417177E+02  0.29184643577E+01 -0.88833076556E+02  0.91526970111E+02  0.00000000000E+00 0. -1.
</event>
<event>
 4    1  0.7060698E+001  0.2460975E+02  0.7546771E-02  0.1473217E+00
          2   -1    0    0  502    0  0.00000000000E+00  0.00000000000E+00  0.79344470141E+01  0.79344470141E+01  0.00000000000E+00 0.  1.
         -2   -1    0    0    0  501 -0.00000000000E+00 -0.00000000000E+00 -0.10153714037E+03  0.10153714037E+03  0.00000000000E+00 0. -1.
          1    1    1    2  502    0 -0.21833240722E+02 -0.11355585387E+02 -0.19529341115E+02  0.31417111329E+02  0.00000000000E+00 0.  1.
         -1    1    1    2    0  501  0.21833240722E+02  0.11355585387E+02 -0.74073352237E+02  0.78054476051E+02  0.00000000000E+00 0. -1.
</event>
<event>
 4    1  0.7060698E+001  0.4065085E+02  0.7546771E-02  0.1344714E+00
          2   -1    0    0  502    0  0.00000000000E+00  0.00000000000E+00  0.21230729840E+04  0.21230729840E+04  0.00000000000E+00 0.  1.
         -2   -1    0    0    0  501 -0.00000000000E+00 -0.00000000000E+00 -0.10362060373E+01  0.10362060373E+01  0.00000000000E+00 0. -1.
          1    1    1    2  502    0 -0.37529782552E+02  0.15620713146E+02  0.15908202339E+04  0.15913395325E+04  0.00000000000E+00 0.  1.
         -1    1    1    2    0  501  0.37529782552E+02 -0.15620713146E+02  0.53121654403E+03  0.53276965746E+03  0.00000000000E+00 0. -1.
</event>
<event>
 4    1  0.7060698E+001  0.2221544E+02  0.7546771E-02  0.1502592E+00
          2   -1    0    0  502    0  0.00000000000E+00  0.00000000000E+00  0.87850611274E+03  0.87850611274E+03  0.00000000000E+00 0. -1.
         -2   -1    0    0    0  501 -0.00000000000E+00 -0.00000000000E+00 -0.56578979819E+00  0.56578979819E+00  0.00000000000E+00 0.  1.
          1    1    1    2  502    0 -0.21274728873E+02  0.63962399488E+01  0.40196166488E+03  0.40257509362E+03  0.00000000000E+00 0.  1.
         -1    1    1    2    0  501  0.21274728873E+02 -0.63962399488E+01  0.47597865806E+03  0.47649680892E+03  0.00000000000E+00 0. -1.
</event>
<event>
 4    1  0.7060698E+001  0.3433501E+02  0.7546771E-02  0.1385299E+00
          2   -1    0    0  502    0  0.00000000000E+00  0.00000000000E+00  0.11892002262E+02  0.11892002262E+02  0.00000000000E+00 0. -1.
         -2   -1    0    0    0  501 -0.00000000000E+00 -0.00000000000E+00 -0.99511490448E+02  0.99511490448E+02  0.00000000000E+00 0.  1.
          1    1    1    2  502    0 -0.34175540241E+02 -0.33053223854E+01 -0.40375570192E+02  0.53000748817E+02  0.00000000000E+00 0. -1.
         -1    1    1    2    0  501  0.34175540241E+02  0.33053223854E+01 -0.47243917994E+02  0.58402743893E+02  0.00000000000E+00 0.  1.
</event>
<event>
 4    1  0.7060698E+001  0.2012789E+02  0.7546771E-02  0.1532090E+00
          2   -1    0    0  502    0  0.00000000000E+00  0.00000000000E+00  0.30982741682E+03  0.30982741682E+03  0.00000000000E+00 0. -1.
         -2   -1    0    0    0  501 -0.00000000000E+00 -0.00000000000E+00 -0.17558537001E+01  0.17558537001E+01  0.00000000000E+00 0.  1.
          1    1    1    2  502    0 -0.19703965892E+02  0.41092219723E+01  0.75320448216E+02  0.77963465139E+02  0.00000000000E+00 0.  1.
         -1    1    1    2    0  501  0.19703965892E+02 -0.41092219723E+01  0.23275111491E+03  0.23361980538E+03  0.00000000000E+00 0. -1.
</event>
<event>
 4    1  0.7060698E+001  0.3293628E+02  0.7546771E-02  0.1395683E+00
          2   -1    0    0  502    0  0.00000000000E+00  0.00000000000E+00  0.17186193331E+02  0.17186193331E+02  0.00000000000E+00 0.  1.
         -2   -1    0    0    0  501 -0.00000000000E+00 -0.00000000000E+00 -0.64864121740E+02  0.64864121740E+02  0.00000000000E+00 0. -1.
          1    1    1    2  502    0  0.92837235150E+01  0.31600811736E+02 -0.30565488706E+02  0.44933817159E+02  0.00000000000E+00 0.  1.
         -1    1    1    2    0  501 -0.92837235150E+01 -0.31600811736E+02 -0.17112439702E+02  0.37116497912E+02  0.00000000000E+00 0. -1.
</event>
<event>
 4    1  0.7060698E+001  0.2101102E+02  0.7546771E-02  0.1519107E+00
          2   -1    0    0  502    0  0.00000000000E+00  0.00000000000E+00  0.88870553286E+03  0.88870553286E+03  0.00000000000E+00 0. -1.
         -2   -1    0    0    0  501 -0.00000000000E+00 -0.00000000000E+00 -0.49900275235E+00  0.49900275235E+00  0.00000000000E+00 0.  1.
          1    1    1    2  502    0 -0.17852240116E+02  0.11079736092E+02  0.47398690797E+03  0.47445237058E+03  0.00000000000E+00 0.  1.
         -1    1    1    2    0  501  0.17852240116E+02 -0.11079736092E+02  0.41421962214E+03  0.41475216503E+03  0.00000000000E+00 0. -1.
</event>
<event>
 4    1  0.7060698E+001  0.3996468E+02  0.7546771E-02  0.1348693E+00
          2   -1    0    0  502    0  0.00000000000E+00  0.00000000000E+00  0.13485061073E+04  0.13485061073E+04  0.00000000000E+00 0.  1.
         -2   -1    0    0    0  501 -0.00000000000E+00 -0.00000000000E+00 -0.18738588918E+01  0.18738588918E+01  0.00000000000E+00 0. -1.
          1    1    1    2  502    0  0.12555816550E+02  0.37941100131E+02  0.10828695615E+04  0.10836067843E+04  0.00000000000E+00 0. -1.
         -1    1    1    2    0  501 -0.12555816550E+02 -0.37941100131E+02  0.26376268690E+03  0.26677318195E+03  0.00000000000E+00 0.  1.
</event>
<event>
 4    1  0.7060698E+001  0.2160928E+02  0.7546771E-02  0.1510741E+00
          2   -1    0    0  502    0  0.00000000000E+00  0.00000000000E+00  0.50448390611E+02  0.50448390611E+02  0.00000000000E+00 0.  1.
         -2   -1    0    0    0  501 -0.00000000000E+00 -0.00000000000E+00 -0.15459430555E+02  0.15459430555E+02  0.00000000000E+00 0. -1.
          1    1    1    2  502    0  0.17450387480E+02  0.12745391117E+02  0.38369107821E+02  0.44035774694E+02  0.00000000000E+00 0. -1.
         -1    1    1    2    0  501 -0.17450387480E+02 -0.12745391117E+02 -0.33801477650E+01  0.21872046471E+02  0.00000000000E+00 0.  1.
</event>
<event>
 4    1  0.7060698E+001  0.2175615E+02  0.7546771E-02  0.1508737E+00
          2   -1    0    0  502    0  0.00000000000E+00  0.00000000000E+00  0.89174852431E+02  0.89174852431E+02  0.00000000000E+00 0.  1.
         -2   -1    0    0    0  501 -0.00000000000E+00 -0.00000000000E+00 -0.53552687005E+01  0.53552687005E+01  0.00000000000E+00 0. -1.
          1    1    1    2  502    0 -0.34961841974E+01 -0.21473395098E+02  0.37463920333E+02  0.43322919196E+02  0.00000000000E+00 0.  1.
         -1    1    1    2    0  501  0.34961841974E+01  0.21473395098E+02  0.46355663397E+02  0.51207201935E+02  0.00000000000E+00 0. -1.
</event>
<event>
 4    1  0.7060698E+001  0.3182602E+02  0.7546771E-02  0.1404365E+00
          2   -1    0    0  502    0  0.00000000000E+00  0.00000000000E+00  0.62613171283E+01  0.62613171283E+01  0.00000000000E+00 0.  1.
         -2   -1    0    0    0  501 -0.00000000000E+00 -0.00000000000E+00 -0.26582156911E+03  0.26582156911E+03  0.00000000000E+00 0. -1.
          1    1    1    2  502    0  0.31808488428E+02 -0.10561979685E+01 -0.44666381135E+02  0.54845064444E+02  0.00000000000E+00 0.  1.
         -1    1    1    2    0  501 -0.31808488428E+02  0.10561979685E+01 -0.21489387084E+03  0.21723782179E+03  0.00000000000E+00 0. -1.
</event>
<event>
 4    1  0.7060698E+001  0.3795679E+02  0.7546771E-02  0.1360894E+00
          2   -1    0    0  502    0  0.00000000000E+00  0.00000000000E+00  0.24280197020E+02  0.24280197020E+02  0.00000000000E+00 0.  1.
         -2   -1    0    0    0  501 -0.00000000000E+00 -0.00000000000E+00 -0.62268323468E+02  0.62268323468E+02  0.00000000000E+00 0. -1.
          1    1    1    2  502    0 -0.36293698855E+02  0.11112406990E+02 -0.96051487427E+01  0.39153250798E+02  0.00000000000E+00 0. -1.
         -1    1    1    2    0  501  0.36293698855E+02 -0.11112406990E+02 -0.28382977705E+02  0.47395269691E+02  0.00000000000E+00 0.  1.
</event>
<event>
 4    1  0.7060698E+001  0.2275428E+02  0.7546771E-02  0.1495607E+00
          2   -1    0    0  502    0  0.00000000000E+00  0.00000000000E+00  0.74437911948E+01  0.74437911948E+01  0.00000000000E+00 0. -1.
         -2   -1    0    0    0  501 -0.00000000000E+00 -0.00000000000E+00 -0.79449207405E+02  0.79449207405E+02  0.00000000000E+00 0.  1.
          1    1    1    2  502    0 -0.15600227205E+02  0.16564721693E+02 -0.20671084994E+02  0.30741679337E+02  0.00000000000E+00 0. -1.
         -1    1    1    2    0  501  0.15600227205E+02 -0.16564721693E+02 -0.51334331216E+02  0.56151319263E+02  0.00000000000E+00 0.  1.
</event>
<event>
 4    1  0.7060698E+001  0.2205582E+02  0.7546771E-02  0.1504707E+00
          2   -1    0    0  502    0  0.00000000000E+00  0.00000000000E+00  0.27249958833E+03  0.27249958833E+03  0.00000000000E+00 0.  1.
         -2   -1    0    0    0  501 -0.00000000000E+00 -0.00000000000E+00 -0.17853144797E+01  0.17853144797E+01  0.00000000000E+00 0. -1.
          1    1    1    2  502    0 -0.20995669759E+02  0.67558169310E+01  0.13657317096E+03  0.13834265517E+03  0.00000000000E+00 0. -1.
         -1    1    1    2    0  501  0.20995669759E+02 -0.67558169310E+01  0.13414110288E+03  0.13594224764E+03  0.00000000000E+00 0.  1.
</event>
<event>
 4    1  0.7060698E+001  0.2710616E+02  0.7546771E-02  0.1446545E+00
          2   -1    0    0  502    0  0.00000000000E+00  0.00000000000E+00  0.92183971955E+03  0.92183971955E+03  0.00000000000E+00 0. -1.
         -2   -1    0    0    0  501 -0.00000000000E+00 -0.00000000000E+00 -0.55222877744E+01  0.55222877744E+01  0.00000000000E+00 0.  1.
          1    1    1    2  502    0  0.16480826045E+02  0.21520374357E+02  0.29242931035E+02  0.39873464298E+02  0.00000000000E+00 0.  1.
         -1    1    1    2    0  501 -0.16480826045E+02 -0.21520374357E+02  0.88707450074E+03  0.88748854303E+03  0.00000000000E+00 0. -1.
</event>
<event>
 4    1  0.7060698E+001  0.4866665E+02  0.7546771E-02  0.1304059E+00
          2   -1    0    0  502    0  0.00000000000E+00  0.00000000000E+00  0.53894996695E+03  0.53894996695E+03  0.00000000000E+00 0. -1.
         -2   -1    0    0    0  501 -0.00000000000E+00 -0.00000000000E+00 -0.15698875249E+02  0.15698875249E+02  0.00000000000E+00 0.  1.
          1    1    1    2  502    0  0.43523518788E+02  0.21774900406E+02  0.26296164007E+02  0.55316645026E+02  0.00000000000E+00 0.  1.
         -1    1    1    2    0  501 -0.43523518788E+02 -0.21774900406E+02  0.49695492769E+03  0.49933219717E+03  0.00000000000E+00 0. -1.
</event>
<event>
 4    1  0.7060698E+001  0.2043848E+02  0.7546771E-02  0.1527435E+00
          2   -1    0    0  502    0  0.00000000000E+00  0.00000000000E+00  0.33044270243E+03  0.33044270243E+03  0.00000000000E+00 0. -1.
         -2   -1    0    0    0  501 -0.00000000000E+00 -0.00000000000E+00 -0.12710151749E+01  0.12710151749E+01  0.00000000000E+00 0.  1.
          1    1    1    2  502    0 -0.10620878844E+02 -0.17462195457E+02  0.17676938746E+03  0.17794703617E+03  0.00000000000E+00 0. -1.
         -1    1    1    2    0  501  0.10620878844E+02  0.17462195457E+02  0.15240229979E+03  0.15376668143E+03  0.00000000000E+00 0.  1.
</event>
<event>
 4    1  0.7060698E+001  0.2587423E+02  0.7546771E-02  0.1459257E+00
          2   -1    0    0  502    0  0.00000000000E+00  0.00000000000E+00  0.26510891488E+01  0.26510891488E+01  0.00000000000E+00 0. -1.
         -2   -1    0    0    0  501 -0.00000000000E+00 -0.00000000000E+00 -0.34452326174E+03  0.34452326174E+03  0.00000000000E+00 0.  1.
          1    1    1    2  502    0  0.18551193913E+02  0.18036879396E+02 -0.26063551773E+03  0.26191668315E+03  0.00000000000E+00 0. -1.
         -1    1    1    2    0  501 -0.18551193913E+02 -0.18036879396E+02 -0.81236654868E+02  0.85257667738E+02  0.00000000000E+00 0.  1.
</event>
<event>
 4    1  0.7060698E+001  0.3856045E+02  0.7546771E-02  0.1357134E+00
          2   -1    0    0  502    0  0.00000000000E+00  0.00000000000E+00  0.35661124013E+03  0.35661124013E+03  0.00000000000E+00 0.  1.
         -2   -1    0    0    0  501 -0.00000000000E+00 -0.00000000000E+00 -0.42659835344E+01  0.42659835344E+01  0.00000000000E+00 0. -1.
          1    1    1    2  502    0  0.25956977103E+02 -0.28515670487E+02  0.14904351160E+03  0.15395088981E+03  0.00000000000E+00 0.  1.
         -1    1    1    2    0  501 -0.25956977103E+02  0.28515670487E+02  0.20330174499E+03  0.20692633385E+03  0.00000000000E+00 0. -1.
</event>
<event>
 4    1  0.7060698E+001  0.4408030E+02  0.7546771E-02  0.1326103E+00
          2   -1    0    0  502    0  0.00000000000E+00  0.00000000000E+00  0.12960559010E+03  0.12960559010E+03  0.00000000000E+00 0.  1.
         -2   -1    0    0    0  501 -0.00000000000E+00 -0.00000000000E+00 -0.26330628416E+02  0.26330628416E+02  0.00000000000E+00 0. -1.
          1    1    1    2  502    0 -0.15041080759E+02 -0.41434755019E+02  0.47367925203E+00  0.44082847071E+02  0.00000000000E+00 0. -1.
         -1    1    1    2    0  501  0.15041080759E+02  0.41434755019E+02  0.10280128243E+03  0.11185337145E+03  0.00000000000E+00 0.  1.
</event>
<event>
 4    1  0.7060698E+001  0.2507986E+02  0.7546771E-02  0.1467912E+00
          2   -1    0    0  502    0  0.00000000000E+00  0.00000000000E+00  0.37244556441E+03  0.37244556441E+03  0.00000000000E+00 0.  1.
         -2   -1    0    0    0  501 -0.00000000000E+00 -0.00000000000E+00 -0.18151805668E+01  0.18151805668E+01  0.00000000000E+00 0. -1.
          1    1    1    2  502    0 -0.88723189449E+01  0.23458080665E+02  0.23468507758E+03  0.23602136604E+03  0.00000000000E+00 0.  1.
         -1    1    1    2    0  501  0.88723189449E+01 -0.23458080665E+02  0.13594530626E+03  0.13823937893E+03  0.00000000000E+00 0. -1.
</event>
<event>
 4    1  0.7060698E+001  0.3448663E+02  0.7546771E-02  0.1384209E+00
          2   -1    0    0  502    0  0.00000000000E+00  0.00000000000E+00  0.77691434689E+03  0.77691434689E+03  0.00000000000E+00 0.  1.
         -2   -1    0    0    0  501 -0.00000000000E+00 -0.00000000000E+00 -0.23852080051E+01  0.23852080051E+01  0.00000000000E+00 0. -1.
          1    1    1    2  502    0  0.26687568296E+02 -0.21842656064E+02  0.15406111457E+03  0.15787385771E+03  0.00000000000E+00 0. -1.
         -1    1    1    2    0  501 -0.26687568296E+02  0.21842656064E+02  0.62046802432E+03  0.62142569719E+03  0.00000000000E+00 0.  1.
</event>
<event>
 4    1  0.7060698E+001  0.2271490E+02  0.7546771E-02  0.1496110E+00
          2   -1    0    0  502    0  0.00000000000E+00  0.00000000000E+00  0.21161521069E+03  0.21161521069E+03  0.00000000000E+00 0.  1.
         -2   -1    0    0    0  501 -0.00000000000E+00 -0.00000000000E+00 -0.25738795035E+01  0.25738795035E+01  0.00000000000E+00 0. -1.
          1    1    1    2  502    0 -0.73189442264E+01 -0.21503476830E+02  0.79934937963E+02  0.83099703775E+02  0.00000000000E+00 0. -1.
         -1    1    1    2    0  501  0.73189442264E+01  0.21503476830E+02  0.12910639322E+03  0.13108938642E+03  0.00000000000E+00 0.  1.
</event>
<event>
 4    1  0.7060698E+001  0.2244829E+02  0.7546771E-02  0.1499545E+00
          2   -1    0    0  502    0  0.00000000000E+00  0.00000000000E+00  0.32558248142E+01  0.32558248142E+01  0.00000000000E+00 0.  1.
         -2   -1    0    0    0  501 -0.00000000000E+00 -0.00000000000E+00 -0.16789378062E+03  0.16789378062E+03  0.00000000000E+00 0. -1.
          1    1    1    2  502    0 -0.20822067228E+02 -0.83885213790E+01 -0.10623822085E+03  0.10858400132E+03  0.00000000000E+00 0.  1.
         -1    1    1    2    0  501  0.20822067228E+02  0.83885213790E+01 -0.58399734962E+02  0.62565604115E+02  0.00000000000E+00 0. -1.
</event>
<event>
 4    1  0.7060698E+001  0.3301240E+02  0.7546771E-02  0.1395102E+00
          2   -1    0    0  502    0  0.00000000000E+00  0.00000000000E+00  0.69151974232E+03  0.69151974232E+03  0.00000000000E+00 0.  1.
         -2   -1    0    0    0  501 -0.00000000000E+00 -0.00000000000E+00 -0.17445399279E+01  0.17445399279E+01  0.00000000000E+00 0. -1.
          1    1    1    2  502    0  0.32947003752E+02 -0.20769094519E+01  0.45263592517E+03  0.45383818633E+03  0.00000000000E+00 0.  1.
         -1    1    1    2    0  501 -0.32947003752E+02  0.20769094519E+01  0.23713927722E+03  0.23942609592E+03  0.00000000000E+00 0. -1.
</event>
<event>
 4    1  0.7060698E+001  0.3400699E+02  0.7546771E-02  0.1387682E+00
          2   -1    0    0  502    0  0.00000000000E+00  0.00000000000E+00  0.14967818427E+04  0.14967818427E+04  0.00000000000E+00 0.  1.
         -2   -1    0    0    0  501 -0.00000000000E+00 -0.00000000000E+00 -0.93230844017E+00  0.93230844017E+00  0.00000000000E+00 0. -1.
          1    1    1    2  502    0  0.25290907869E+02  0.22734235938E+02  0.10578285449E+04  0.10583750309E+04  0.00000000000E+00 0.  1.
         -1    1    1    2    0  501 -0.25290907869E+02 -0.22734235938E+02  0.43802098932E+03  0.43933912026E+03  0.00000000000E+00 0. -1.
</event>
<event>
 4    1  0.7060698E+001  0.2100706E+02  0.7546771E-02  0.1519164E+00
          2   -1    0    0  502    0  0.00000000000E+00  0.00000000000E+00  0.71587033505E+03  0.71587033505E+03  0.00000000000E+00 0. -1.
         -2   -1    0    0    0  501 -0.00000000000E+00 -0.00000000000E+00 -0.61715125897E+00  0.61715125897E+00  0.00000000000E+00 0.  1.
          1    1    1    2  502    0 -0.73313000317E+01 -0.19686259642E+02  0.36972046014E+03  0.37031677713E+03  0.00000000000E+00 0. -1.
         -1    1    1    2    0  501  0.73313000317E+01  0.19686259642E+02  0.34553272365E+03  0.34617070918E+03  0.00000000000E+00 0.  1.
</event>
<event>
 4    1  0.7060698E+001  0.2165979E+02  0.7546771E-02  0.1510050E+00
          2   -1    0    0  502    0  0.00000000000E+00  0.00000000000E+00  0.17177828456E+03  0.17177828456E+03  0.00000000000E+00 0. -1.
         -2   -1    0    0    0  501 -0.00000000000E+00 -0.00000000000E+00 -0.33627287045E+01  0.33627287045E+01  0.00000000000E+00 0.  1.
          1    1    1    2  502    0 -0.15137429005E+02  0.15492090374E+02  0.12215997965E+03  0.12406533460E+03  0.00000000000E+00 0. -1.
         -1    1    1    2    0  501  0.15137429005E+02 -0.15492090374E+02  0.46255576203E+02  0.51075678663E+02  0.00000000000E+00 0.  1.
</event>
<event>
 4    1  0.7060698E+001  0.2589310E+02  0.7546771E-02  0.1459056E+00
          2   -1    0    0  502    0  0.00000000000E+00  0.00000000000E+00  0.21161572594E+04  0.21161572594E+04  0.00000000000E+00 0. -1.
         -2   -1    0    0    0  501 -0.00000000000E+00 -0.00000000000E+00 -0.35619510298E+00  0.35619510298E+00  0.00000000000E+00 0.  1.
          1    1    1    2  502    0 -0.14408692040E+02 -0.21513767359E+02  0.70607483578E+03  0.70654945072E+03  0.00000000000E+00 0.  1.
         -1    1    1    2    0  501  0.14408692040E+02  0.21513767359E+02  0.14097262285E+04  0.14099640038E+04  0.00000000000E+00 0. -1.
</event>
<event>
 4    1  0.7060698E+001  0.2113866E+02  0.7546771E-02  0.1517294E+00
          2   -1    0    0  502    0  0.00000000000E+00  0.00000000000E+00  0.10880853804E+03  0.10880853804E+03  0.00000000000E+00 0.  1.
         -2   -1    0    0    0  501 -0.00000000000E+00 -0.00000000000E+00 -0.41747534925E+01  0.41747534925E+01  0.00000000000E+00 0. -1.
          1    1    1    2  502    0  0.19692804140E+02  0.76835281364E+01  0.59529958662E+02  0.63171663884E+02  0.00000000000E+00 0.  1.
         -1    1    1    2    0  501 -0.19692804140E+02 -0.76835281364E+01  0.45103825888E+02  0.49811627651E+02  0.00000000000E+00 0. -1.
</event>
<event>
 4    1  0.7060698E+001  0.4075443E+02  0.7546771E-02  0.1344121E+00
          2   -1    0    0  502    0  0.00000000000E+00  0.00000000000E+00  0.75938828193E+03  0.75938828193E+03  0.00000000000E+00 0. -1.
         -2   -1    0    0    0  501 -0.00000000000E+00 -0.00000000000E+00 -0.39342875113E+01  0.39342875113E+01  0.00000000000E+00 0.  1.
          1    1    1    2  502    0 -0.49295178343E+01 -0.40455203895E+02  0.63206080276E+03  0.63337333545E+03  0.00000000000E+00 0. -1.
         -1    1    1    2    0  501  0.49295178343E+01  0.40455203895E+02  0.12339319166E+03  0.12994923400E+03  0.00000000000E+00 0.  1.
</event>
<event>
 4    1  0.7060698E+001  0.2031086E+02  0.7546771E-02  0.1529336E+00
          2   -1    0    0  502    0  0.00000000000E+00  0.00000000000E+00  0.26637372008E+03  0.26637372008E+03  0.00000000000E+00 0.  1.
         -2   -1    0    0    0  501 -0.00000000000E+00 -0.00000000000E+00 -0.17808716772E+01  0.17808716772E+01  0.00000000000E+00 0. -1.
          1    1    1    2  502    0  0.13179141505E+01 -0.20268057505E+02  0.18070812227E+03  0.18184596918E+03  0.00000000000E+00 0.  1.
         -1    1    1    2    0  501 -0.13179141505E+01  0.20268057505E+02  0.83884726131E+02  0.86308622575E+02  0.00000000000E+00 0. -1.
</event>
<event>
 4    1  0.7060698E+001  0.2833928E+02  0.7546771E-02  0.1434600E+00
          2   -1    0    0  502    0  0.00000000000E+00  0.00000000000E+00  0.16718640252E+04  0.16718640252E+04  0.00000000000E+00 0. -1.
         -2   -1    0    0    0  501 -0.00000000000E+00 -0.00000000000E+00 -0.82814289064E+00  0.82814289064E+00  0.00000000000E+00 0.  1.
          1    1    1    2  502    0  0.28324131592E+02 -0.92648078428E+00  0.13774947462E+04  0.13777862282E+04  0.00000000000E+00 0. -1.
         -1    1    1    2    0  501 -0.28324131592E+02  0.92648078428E+00  0.29354113616E+03  0.29490593994E+03  0.00000000000E+00 0.  1.
</event>
<event>
 4    1  0.7060698E+001  0.2170572E+02  0.7546771E-02  0.1509423E+00
          2   -1    0    0  502    0  0.00000000000E+00  0.00000000000E+00  0.87543412721E+03  0.87543412721E+03  0.00000000000E+00 0.  1.
         -2   -1    0    0    0  501 -0.00000000000E+00 -0.00000000000E+00 -0.86192492468E+00  0.86192492468E+00  0.00000000000E+00 0. -1.
          1    1    1    2  502    0  0.19729145929E+02  0.90498016337E+01  0.70581432883E+03  0.70614800495E+03  0.00000000000E+00 0.  1.
         -1    1    1    2    0  501 -0.19729145929E+02 -0.90498016337E+01  0.16875787346E+03  0.17014804719E+03  0.00000000000E+00 0. -1.
</event>
<event>
 4    1  0.7060698E+001  0.2270328E+02  0.7546771E-02  0.1496258E+00
          2   -1    0    0  502    0  0.00000000000E+00  0.00000000000E+00  0.70352869638E+01  0.70352869638E+01  0.00000000000E+00 0. -1.
         -2   -1    0    0    0  501 -0.00000000000E+00 -0.00000000000E+00 -0.10196393347E+03  0.10196393347E+03  0.00000000000E+00 0.  1.
          1    1    1    2  502    0  0.17325122201E+02 -0.14672396335E+02 -0.76378065356E+02  0.79680913279E+02  0.00000000000E+00 0.  1.
         -1    1    1    2    0  501 -0.17325122201E+02  0.14672396335E+02 -0.18550581155E+02  0.29318307159E+02  0.00000000000E+00 0. -1.
</event>
<event>
 4    1  0.7060698E+001  0.2010507E+02  0.7546771E-02  0.1532436E+00
          2   -1    0    0  502    0  0.00000000000E+00  0.00000000000E+00  0.17970257973E+03  0.17970257973E+03  0.00000000000E+00 0.  1.
         -2   -1    0    0    0  501 -0.00000000000E+00 -0.00000000000E+00 -0.32874382744E+01  0.32874382744E+01  0.00000000000E+00 0. -1.
          1    1    1    2  502    0  0.12352061776E+01  0.20067094198E+02  0.13962208488E+03  0.14106218696E+03  0.00000000000E+00 0.  1.
         -1    1    1    2    0  501 -0.12352061776E+01 -0.20067094198E+02  0.36793056576E+02  0.41927831044E+02  0.00000000000E+00 0. -1.
</event>
<event>
 4    1  0.7060698E+001  0.2168222E+02  0.7546771E-02  0.1509743E+00
          2   -1    0    0  502    0  0.00000000000E+00  0.00000000000E+00  0.18764763169E+02  0.18764763169E+02  0.00000000000E+00 0.  1.
         -2   -1    0    0    0  501 -0.00000000000E+00 -0.00000000000E+00 -0.33500182235E+02  0.33500182235E+02  0.00000000000E+00 0. -1.
          1    1    1    2  502    0 -0.80585244211E+00  0.21667243486E+02 -0.20489880506E+02  0.29832097505E+02  0.00000000000E+00 0. -1.
         -1    1    1    2    0  501  0.80585244211E+00 -0.21667243486E+02  0.57544614401E+01  0.22432847900E+02  0.00000000000E+00 0.  1.
</event>
<event>
 4    1  0.7060698E+001  0.3621874E+02  0.7546771E-02  0.1372192E+00
          2   -1    0    0  502    0  0.00000000000E+00  0.00000000000E+00  0.17195546202E+03  0.17195546202E+03  0.00000000000E+00 0.  1.
         -2   -1    0    0    0  501 -0.00000000000E+00 -0.00000000000E+00 -0.21367178062E+02  0.21367178062E+02  0.00000000000E+00 0. -1.
          1    1    1    2  502    0 -0.52386109234E+01  0.35837885648E+02  0.15280247690E+03  0.15703628256E+03  0.00000000000E+00 0.  1.
         -1    1    1    2    0  501  0.52386109234E+01 -0.35837885648E+02 -0.22141929427E+01  0.36286357526E+02  0.00000000000E+00 0. -1.
</event>
<event>
 4    1  0.7060698E+001  0.2860839E+02  0.7546771E-02  0.1432088E+00
          2   -1    0    0  502    0  0.00000000000E+00  0.00000000000E+00  0.28251226330E+01  0.28251226330E+01  0.00000000000E+00 0.  1.
         -2   -1    0    0    0  501 -0.00000000000E+00 -0.00000000000E+00 -0.33257656777E+03  0.33257656777E+03  0.00000000000E+00 0. -1.
          1    1    1    2  502    0  0.21111690228E+02 -0.19306392027E+02 -0.22508944436E+03  0.22690019436E+03  0.00000000000E+00 0. -1.
         -1    1    1    2    0  501 -0.21111690228E+02  0.19306392027E+02 -0.10466200078E+03  0.10850149605E+03  0.00000000000E+00 0.  1.
</event>
<event>
 4    1  0.7060698E+001  0.2117486E+02  0.7546771E-02  0.1516783E+00
          2   -1    0    0  502    0  0.00000000000E+00  0.00000000000E+00  0.11290690186E+01  0.11290690186E+01  0.00000000000E+00 0. -1.
         -2   -1    0    0    0  501 -0.00000000000E+00 -0.00000000000E+00 -0.41260653882E+03  0.41260653882E+03  0.00000000000E+00 0.  1.
          1    1    1    2  502    0  0.53372026075E+01 -0.20491189299E+02 -0.24581787568E+03  0.24672819574E+03  0.00000000000E+00 0. -1.
         -1    1    1    2    0  501 -0.53372026075E+01  0.20491189299E+02 -0.16565959413E+03  0.16700741210E+03  0.00000000000E+00 0.  1.
</event>
<event>
 4    1  0.7060698E+001  0.2327780E+02  0.7546771E-02  0.1489039E+00
          2   -1    0    0  502    0  0.00000000000E+00  0.00000000000E+00  0.89286608883E+03  0.89286608883E+03  0.00000000000E+00 0. -1.
         -2   -1    0    0    0  501 -0.00000000000E+00 -0.00000000000E+00 -0.60690128253E+00  0.60690128253E+00  0.00000000000E+00 0.  1.
          1    1    1    2  502    0 -0.19677741540E+02 -0.12435526167E+02  0.44920922359E+03  0.44981194113E+03  0.00000000000E+00 0. -1.
         -1    1    1    2    0  501  0.19677741540E+02  0.12435526167E+02  0.44304996396E+03  0.44366104899E+03  0.00000000000E+00 0.  1.
</event>
<event>
 4    1  0.7060698E+001  0.2137756E+02  0.7546771E-02  0.1513942E+00
          2   -1    0    0  502    0  0.00000000000E+00  0.00000000000E+00  0.99695081956E+03  0.99695081956E+03  0.00000000000E+00 0.  1.
         -2   -1    0    0    0  501 -0.00000000000E+00 -0.00000000000E+00 -0.74778002508E+00  0.74778002508E+00  0.00000000000E+00 0. -1.
          1    1    1    2  502    0  0.21323650239E+02  0.15172454417E+01  0.18777539399E+03  0.18898835594E+03  0.00000000000E+00 0. -1.
         -1    1    1    2    0  501 -0.21323650239E+02 -0.15172454417E+01  0.80842764554E+03  0.80871024364E+03  0.00000000000E+00 0.  1.
</event>
<event>
 4    1  0.7060698E+001  0.3118860E+02  0.7546771E-02  0.1409541E+00
          2   -1    0    0  502    0  0.00000000000E+00  0.00000000000E+00  0.49956221797E+03  0.49956221797E+03  0.00000000000E+00 0. -1.
         -2   -1    0    0    0  501 -0.00000000000E+00 -0.00000000000E+00 -0.20307577569E+01  0.20307577569E+01  0.00000000000E+00 0.  1.
          1    1    1    2  502    0 -0.14472740880E+02 -0.27627317603E+02  0.29964990587E+03  0.30126864257E+03  0.00000000000E+00 0.  1.
         -1    1    1    2    0  501  0.14472740880E+02  0.27627317603E+02  0.19788155434E+03  0.20032433315E+03  0.00000000000E+00 0. -1.
</event>
<event>
 4    1  0.7060698E+001  0.2292732E+02  0.7546771E-02  0.1493413E+00
          2   -1    0    0  502    0  0.00000000000E+00  0.00000000000E+00  0.10637624530E+04  0.10637624530E+04  0.00000000000E+00 0. -1.
         -2   -1    0    0    0  501 -0.00000000000E+00 -0.00000000000E+00 -0.49513096624E+00  0.49513096624E+00  0.00000000000E+00 0.  1.
          1    1    1    2  502    0 -0.21343238260E+02 -0.83742533258E+01  0.55527694709E+03  0.55575007864E+03  0.00000000000E+00 0.  1.
         -1    1    1    2    0  501  0.21343238260E+02  0.83742533258E+01  0.50799037496E+03  0.50850750534E+03  0.00000000000E+00 0. -1.
</event>
<event>
 4    1  0.7060698E+001  0.3723282E+02  0.7546771E-02  0.1365512E+00
          2   -1    0    0  502    0  0.00000000000E+00  0.00000000000E+00  0.24523471998E+03  0.24523471998E+03  0.00000000000E+00 0.  1.
         -2   -1    0    0    0  501 -0.00000000000E+00 -0.00000000000E+00 -0.74201217031E+01  0.74201217031E+01  0.00000000000E+00 0. -1.
          1    1    1    2  502    0  0.36010989920E+02  0.94599763326E+01  0.57256311384E+02  0.68297640813E+02  0.00000000000E+00 0. -1.
         -1    1    1    2    0  501 -0.36010989920E+02 -0.94599763326E+01  0.18055828690E+03  0.18435720087E+03  0.00000000000E+00 0.  1.
</event>
<event>
 4    1  0.7060698E+001  0.8813289E+02  0.7546771E-02  0.1186130E+00
          2   -1    0    0  502    0  0.00000000000E+00  0.00000000000E+00  0.14096441838E+04  0.14096441838E+04  0.00000000000E+00 0. -1.
         -2   -1    0    0    0  501 -0.00000000000E+00 -0.00000000000E+00 -0.55408711826E+01  0.55408711826E+01  0.00000000000E+00 0.  1.
          1    1    1    2  502    0 -0.12574301896E+02 -0.87231264260E+02  0.75470597973E+03  0.75983453618E+03  0.00000000000E+00 0. -1.
         -1    1    1    2    0  501  0.12574301896E+02  0.87231264260E+02  0.64939733285E+03  0.65535051877E+03  0.00000000000E+00 0.  1.
</event>
<event>
 4    1  0.7060698E+001  0.4169008E+02  0.7546771E-02  0.1338857E+00
          2   -1    0    0  502    0  0.00000000000E+00  0.00000000000E+00  0.93304352884E+01  0.93304352884E+01  0.00000000000E+00 0.  1.
         -2   -1    0    0    0  501 -0.00000000000E+00 -0.00000000000E+00 -0.20146204977E+03  0.20146204977E+03  0.00000000000E+00 0. -1.
          1    1    1    2  502    0  0.39911790030E+02 -0.12046246626E+02 -0.67131724486E+02  0.79023613393E+02  0.00000000000E+00 0.  1.
         -1    1    1    2    0  501 -0.39911790030E+02  0.12046246626E+02 -0.12499989000E+03  0.13176887167E+03  0.00000000000E+00 0. -1.
</event>
<event>
 4    1  0.7060698E+001  0.5714127E+02  0.7546771E-02  0.1269868E+00
          2   -1    0    0  502    0  0.00000000000E+00  0.00000000000E+00  0.91638265674E+03  0.91638265674E+03  0.00000000000E+00 0.  1.
         -2   -1    0    0    0  501 -0.00000000000E+00 -0.00000000000E+00 -0.64886042750E+01  0.64886042750E+01  0.00000000000E+00 0. -1.
          1    1    1    2  502    0 -0.19185282948E+02  0.53824251156E+02  0.76478805392E+03  0.76691974321E+03  0.00000000000E+00 0.  1.
         -1    1    1    2    0  501  0.19185282948E+02 -0.53824251156E+02  0.14510599854E+03  0.15595151781E+03  0.00000000000E+00 0. -1.
</event>
<event>
 4    1  0.7060698E+001  0.2268111E+02  0.7546771E-02  0.1496542E+00
          2   -1    0    0  502    0  0.00000000000E+00  0.00000000000E+00  0.56854647930E+02  0.56854647930E+02  0.00000000000E+00 0. -1.
         -2   -1    0    0    0  501 -0.00000000000E+00 -0.00000000000E+00 -0.92649211136E+01  0.92649211136E+01  0.00000000000E+00 0.  1.
          1    1    1    2  502    0 -0.22041715389E+02  0.53474655081E+01  0.18738676919E+02  0.29420581526E+02  0.00000000000E+00 0. -1.
         -1    1    1    2    0  501  0.22041715389E+02 -0.53474655081E+01  0.28851049897E+02  0.36698987517E+02  0.00000000000E+00 0.  1.
</event>
<event>
 4    1  0.7060698E+001  0.3152755E+02  0.7546771E-02  0.1406771E+00
          2   -1    0    0  502    0  0.00000000000E+00  0.00000000000E+00  0.31018340100E+03  0.31018340100E+03  0.00000000000E+00 0.  1.
         -2   -1    0    0    0  501 -0.00000000000E+00 -0.00000000000E+00 -0.32083380913E+01  0.32083380913E+01  0.00000000000E+00 0. -1.
          1    1    1    2  502    0  0.43659202595E+01 -0.31223791688E+02  0.14807630368E+03  0.15139543632E+03  0.00000000000E+00 0.  1.
         -1    1    1    2    0  501 -0.43659202595E+01  0.31223791688E+02  0.15889875923E+03  0.16199630277E+03  0.00000000000E+00 0. -1.
</event>
<event>
 4    1  0.7060698E+001  0.2187234E+02  0.7546771E-02  0.1507165E+00
          2   -1    0    0  502    0  0.00000000000E+00  0.00000000000E+00  0.15428967600E+04  0.15428967600E+04  0.00000000000E+00 0.  1.
         -2   -1    0    0    0  501 -0.00000000000E+00 -0.00000000000E+00 -0.49876130885E+00  0.49876130885E+00  0.00000000000E+00 0. -1.
          1    1    1    2  502    0  0.21846684845E+02  0.10589782191E+01  0.12458582786E+04  0.12460502596E+04  0.00000000000E+00 0.  1.
         -1    1    1    2    0  501 -0.21846684845E+02 -0.10589782191E+01  0.29653972008E+03  0.29734526171E+03  0.00000000000E+00 0. -1.
</event>
<event>
 4    1  0.7060698E+001  0.2058150E+02  0.7546771E-02  0.1525325E+00
          2   -1    0    0  502    0  0.00000000000E+00  0.00000000000E+00  0.24905705863E+01  0.24905705863E+01  0.00000000000E+00 0. -1.
         -2   -1    0    0    0  501 -0.00000000000E+00 -0.00000000000E+00 -0.17474073210E+03  0.17474073210E+03  0.00000000000E+00 0.  1.
          1    1    1    2  502    0 -0.17901154966E+02  0.10156121683E+02 -0.71653876653E+02  0.74551164955E+02  0.00000000000E+00 0. -1.
         -1    1    1    2    0  501  0.17901154966E+02 -0.10156121683E+02 -0.10059628486E+03  0.10268013773E+03  0.00000000000E+00 0.  1.
</event>
<event>
 4    1  0.7060698E+001  0.3224539E+02  0.7546771E-02  0.1401037E+00
          2   -1    0    0  502    0  0.00000000000E+00  0.00000000000E+00  0.29794569184E+01  0.29794569184E+01  0.00000000000E+00 0.  1.
         -2   -1    0    0    0  501 -0.00000000000E+00 -0.00000000000E+00 -0.38984820004E+03  0.38984820004E+03  0.00000000000E+00 0. -1.
          1    1    1    2  502    0 -0.30584952088E+02 -0.10214003430E+02 -0.25702999675E+03  0.25904475364E+03  0.00000000000E+00 0. -1.
         -1    1    1    2    0  501  0.30584952088E+02  0.10214003430E+02 -0.12983874638E+03  0.13378290332E+03  0.00000000000E+00 0.  1.
</event>
<event>
 4    1  0.7060698E+001  0.2542553E+02  0.7546771E-02  0.1464099E+00
          2   -1    0    0  502    0  0.00000000000E+00  0.00000000000E+00  0.25055037512E+01  0.25055037512E+01  0.00000000000E+00 0.  1.
         -2   -1    0    0    0  501 -0.00000000000E+00 -0.00000000000E+00 -0.45573151608E+03  0.45573151608E+03  0.00000000000E+00 0. -1.
          1    1    1    2  502    0 -0.22895128940E+02  0.11057601702E+02 -0.37752617834E+03  0.37838138540E+03  0.00000000000E+00 0. -1.
         -1    1    1    2    0  501  0.22895128940E+02 -0.11057601702E+02 -0.75699833986E+02  0.79855634429E+02  0.00000000000E+00 0.  1.
</event>
<event>
 4    1  0.7060698E+001  0.2880988E+02  0.7546771E-02  0.1430228E+00
          2   -1    0    0  502    0  0.00000000000E+00  0.00000000000E+00  0.79203441401E+01  0.79203441401E+01  0.00000000000E+00 0. -1.
         -2   -1    0    0    0  501 -0.00000000000E+00 -0.00000000000E+00 -0.11406680990E+03  0.11406680990E+03  0.00000000000E+00 0.  1.
          1    1    1    2  502    0  0.20476031458E+02  0.20266748228E+02 -0.70463133977E+02  0.76125305896E+02  0.00000000000E+00 0. -1.
         -1    1    1    2    0  501 -0.20476031458E+02 -0.20266748228E+02 -0.35683331783E+02  0.45861848144E+02  0.00000000000E+00 0.  1.
</event>
<event>
 4    1  0.7060698E+001  0.2348999E+02  0.7546771E-02  0.1486435E+00
          2   -1    0    0  502    0  0.00000000000E+00  0.00000000000E+00  0.39177619607E+02  0.39177619607E+02  0.00000000000E+00 0. -1.
         -2   -1    0    0    0  501 -0.00000000000E+00 -0.00000000000E+00 -0.16590167131E+02  0.16590167131E+02  0.00000000000E+00 0.  1.
          1    1    1    2  502    0  0.22422499842E+02  0.70007834139E+01  0.45623136241E+00  0.23494416669E+02  0.00000000000E+00 0.  1.
         -1    1    1    2    0  501 -0.22422499842E+02 -0.70007834139E+01  0.22131221114E+02  0.32273370068E+02  0.00000000000E+00 0. -1.
</event>
<event>
 4    1  0.7060698E+001  0.2420100E+02  0.7546771E-02  0.1477944E+00
          2   -1    0    0  502    0  0.00000000000E+00  0.00000000000E+00  0.82099762417E+02  0.82099762417E+02  0.00000000000E+00 0. -1.
         -2   -1    0    0    0  501 -0.00000000000E+00 -0.00000000000E+00 -0.12039383195E+02  0.12039383195E+02  0.00000000000E+00 0.  1.
          1    1    1    2  502    0 -0.10450708385E+01 -0.24178420704E+02  0.49845945131E+01  0.24708993975E+02  0.00000000000E+00 0.  1.
         -1    1    1    2    0  501  0.10450708385E+01  0.24178420704E+02  0.65075784709E+02  0.69430151636E+02  0.00000000000E+00 0. -1.
</event>
<event>
 4    1  0.7060698E+001  0.3706673E+02  0.7546771E-02  0.1366588E+00
          2   -1    0    0  502    0  0.00000000000E+00  0.00000000000E+00  0.19937070532E+04  0.19937070532E+04  0.00000000000E+00 0.  1.
         -2   -1    0    0    0  501 -0.00000000000E+00 -0.00000000000E+00 -0.10024674950E+01  0.10024674950E+01  0.00000000000E+00 0. -1.
          1    1    1    2  502    0 -0.11524596530E+02  0.35229616393E+02  0.15539412250E+04  0.15543832452E+04  0.00000000000E+00 0.  1.
         -1    1    1    2    0  501  0.11524596530E+02 -0.35229616393E+02  0.43876336072E+03  0.44032627551E+03  0.00000000000E+00 0. -1.
</event>
<event>
 4    1  0.7060698E+001  0.2199848E+02  0.7546771E-02  0.1505472E+00
          2   -1    0    0  502    0  0.00000000000E+00  0.00000000000E+00  0.17588285198E+02  0.17588285198E+02  0.00000000000E+00 0.  1.
         -2   -1    0    0    0  501 -0.00000000000E+00 -0.00000000000E+00 -0.43454778667E+02  0.43454778667E+02  0.00000000000E+00 0. -1.
          1    1    1    2  502    0 -0.72297603277E+01  0.20776512611E+02  0.55524354591E+01  0.22688376985E+02  0.00000000000E+00 0.  1.
         -1    1    1    2    0  501  0.72297603277E+01 -0.20776512611E+02 -0.31418928928E+02  0.38354686880E+02  0.00000000000E+00 0. -1.
</event>
<event>
 4    1  0.7060698E+001  0.2243697E+02  0.7546771E-02  0.1499692E+00
          2   -1    0    0  502    0  0.00000000000E+00  0.00000000000E+00  0.47722351253E+02  0.47722351253E+02  0.00000000000E+00 0. -1.
         -2   -1    0    0    0  501 -0.00000000000E+00 -0.00000000000E+00 -0.10993576350E+02  0.10993576350E+02  0.00000000000E+00 0.  1.
          1    1    1    2  502    0  0.85745118368E+01 -0.20733920513E+02  0.24268907043E+02  0.33051438125E+02  0.00000000000E+00 0.  1.
         -1    1    1    2    0  501 -0.85745118368E+01  0.20733920513E+02  0.12459867860E+02  0.25664489478E+02  0.00000000000E+00 0. -1.
</event>
<event>
 4    1  0.7060698E+001  0.2192465E+02  0.7546771E-02  0.1506462E+00
          2   -1    0    0  502    0  0.00000000000E+00  0.00000000000E+00  0.29100770196E+03  0.29100770196E+03  0.00000000000E+00 0.  1.
         -2   -1    0    0    0  501 -0.00000000000E+00 -0.00000000000E+00 -0.26511432427E+01  0.26511432427E+01  0.00000000000E+00 0. -1.
          1    1    1    2  502    0  0.16067053659E+02  0.14917781041E+02  0.23432520815E+03  0.23534866386E+03  0.00000000000E+00 0.  1.
         -1    1    1    2    0  501 -0.16067053659E+02 -0.14917781041E+02  0.54031350562E+02  0.58310181341E+02  0.00000000000E+00 0. -1.
</event>
<event>
 4    1  0.7060698E+001  0.3243990E+02  0.7546771E-02  0.1399514E+00
          2   -1    0    0  502    0  0.00000000000E+00  0.00000000000E+00  0.30992230609E+03  0.30992230609E+03  0.00000000000E+00 0.  1.
         -2   -1    0    0    0  501 -0.00000000000E+00 -0.00000000000E+00 -0.37302009247E+01  0.37302009247E+01  0.00000000000E+00 0. -1.
          1    1    1    2  502    0 -0.28400640326E+02  0.15676432496E+02  0.10612079783E+03  0.11096833169E+03  0.00000000000E+00 0. -1.
         -1    1    1    2    0  501  0.28400640326E+02 -0.15676432496E+02  0.20007130733E+03  0.20268417532E+03  0.00000000000E+00 0.  1.
</event>
<event>
 4    1  0.7060698E+001  0.2319870E+02  0.7546771E-02  0.1490018E+00
          2   -1    0    0  502    0  0.00000000000E+00  0.00000000000E+00  0.54354588538E+02  0.54354588538E+02  0.00000000000E+00 0. -1.
         -2   -1    0    0    0  501 -0.00000000000E+00 -0.00000000000E+00 -0.10363953062E+02  0.10363953062E+02  0.00000000000E+00 0.  1.
          1    1    1    2  502    0  0.23004916957E+02  0.29922482130E+01  0.28832469921E+02  0.37006635557E+02  0.00000000000E+00 0.  1.
         -1    1    1    2    0  501 -0.23004916957E+02 -0.29922482130E+01  0.15158165554E+02  0.27711906043E+02  0.00000000000E+00 0. -1.
</event>
<event>
 4    1  0.7060698E+001  0.2425619E+02  0.7546771E-02  0.1477299E+00
          2   -1    0    0  502    0  0.00000000000E+00  0.00000000000E+00  0.40780997732E+02  0.40780997732E+02  0.00000000000E+00 0. -1.
         -2   -1    0    0    0  501 -0.00000000000E+00 -0.00000000000E+00 -0.18434226195E+02  0.18434226195E+02  0.00000000000E+00 0.  1.
          1    1    1    2  502    0  0.14301926322E+02 -0.19591264181E+02  0.24976991803E+02  0.34816847190E+02  0.00000000000E+00 0. -1.
         -1    1    1    2    0  501 -0.14301926322E+02  0.19591264181E+02 -0.26302202657E+01  0.24398376737E+02  0.00000000000E+00 0.  1.
</event>
<event>
 4    1  0.7060698E+001  0.2810833E+02  0.7546771E-02  0.1436782E+00
          2   -1    0    0  502    0  0.00000000000E+00  0.00000000000E+00  0.97671345724E+01  0.97671345724E+01  0.00000000000E+00 0. -1.
         -2   -1    0    0    0  501 -0.00000000000E+00 -0.00000000000E+00 -0.80893963006E+02  0.80893963006E+02  0.00000000000E+00 0.  1.
          1    1    1    2  502    0  0.22047750118E+02  0.17434869045E+02 -0.35814697693E+02  0.45527689539E+02  0.00000000000E+00 0. -1.
         -1    1    1    2    0  501 -0.22047750118E+02 -0.17434869045E+02 -0.35312130741E+02  0.45133408040E+02  0.00000000000E+00 0.  1.
</event>
<event>
 4    1  0.7060698E+001  0.2110209E+02  0.7546771E-02  0.1517812E+00
          2   -1    0    0  502    0  0.00000000000E+00  0.00000000000E+00  0.11683087038E+03  0.11683087038E+03  0.00000000000E+00 0.  1.
         -2   -1    0    0    0  501 -0.00000000000E+00 -0.00000000000E+00 -0.42071281701E+01  0.42071281701E+01  0.00000000000E+00 0. -1.
          1    1    1    2  502    0 -0.19066575407E+02  0.90423498233E+01  0.37752891502E+02  0.43250193119E+02  0.00000000000E+00 0. -1.
         -1    1    1    2    0  501  0.19066575407E+02 -0.90423498233E+01  0.74870850713E+02  0.77787805436E+02  0.00000000000E+00 0.  1.
</event>
<event>
 4    1  0.7060698E+001  0.2979854E+02  0.7546771E-02  0.1421355E+00
          2   -1    0    0  502    0  0.00000000000E+00  0.00000000000E+00  0.42839983802E+02  0.42839983802E+02  0.00000000000E+00 0. -1.
         -2   -1    0    0    0  501 -0.00000000000E+00 -0.00000000000E+00 -0.20862806649E+02  0.20862806649E+02  0.00000000000E+00 0.  1.
          1    1    1    2  502    0 -0.17927352334E+02  0.23802587602E+02  0.84207120429E+01  0.30965489332E+02  0.00000000000E+00 0.  1.
         -1    1    1    2    0  501  0.17927352334E+02 -0.23802587602E+02  0.13556465109E+02  0.32737301119E+02  0.00000000000E+00 0. -1.
</event>
<event>
 4    1  0.7060698E+001  0.3702675E+02  0.7546771E-02  0.1366849E+00
          2   -1    0    0  502    0  0.00000000000E+00  0.00000000000E+00  0.19455537722E+04  0.19455537722E+04  0.00000000000E+00 0. -1.
         -2   -1    0    0    0  501 -0.00000000000E+00 -0.00000000000E+00 -0.84918047392E+00  0.84918047392E+00  0.00000000000E+00 0.  1.
          1    1    1    2  502    0  0.23214099660E+02 -0.28845891430E+02  0.13738170310E+04  0.13743159079E+04  0.00000000000E+00 0. -1.
         -1    1    1    2    0  501 -0.23214099660E+02  0.28845891430E+02  0.57088756071E+03  0.57208704482E+03  0.00000000000E+00 0.  1.
</event>
<event>
 4    1  0.7060698E+001  0.2826450E+02  0.7546771E-02  0.1435303E+00
          2   -1    0    0  502    0  0.00000000000E+00  0.00000000000E+00  0.66109560778E+02  0.66109560778E+02  0.00000000000E+00 0.  1.
         -2   -1    0    0    0  501 -0.00000000000E+00 -0.00000000000E+00 -0.21275459469E+02  0.21275459469E+02  0.00000000000E+00 0. -1.
          1    1    1    2  502    0 -0.19136204480E+02 -0.20801149768E+02 -0.63009815159E+01  0.28958323874E+02  0.00000000000E+00 0.  1.
         -1    1    1    2    0  501  0.19136204480E+02  0.20801149768E+02  0.51135082825E+02  0.58426696373E+02  0.00000000000E+00 0. -1.
</event>
<event>
 4    1  0.7060698E+001  0.3540833E+02  0.7546771E-02  0.1377715E+00
          2   -1    0    0  502    0  0.00000000000E+00  0.00000000000E+00  0.60115233481E+03  0.60115233481E+03  0.00000000000E+00 0. -1.
         -2   -1    0    0    0  501 -0.00000000000E+00 -0.00000000000E+00 -0.28956279770E+01  0.28956279770E+01  0.00000000000E+00 0.  1.
          1    1    1    2  502    0 -0.35367248096E+02  0.17052571397E+01  0.13938384823E+03  0.14381101239E+03  0.00000000000E+00 0.  1.
         -1    1    1    2    0  501  0.35367248096E+02 -0.17052571397E+01  0.45887285860E+03  0.46023695039E+03  0.00000000000E+00 0. -1.
</event>
<event>
 4    1  0.7060698E+001  0.3864216E+02  0.7546771E-02  0.1356632E+00
          2   -1    0    0  502    0  0.00000000000E+00  0.00000000000E+00  0.39986444522E+03  0.39986444522E+03  0.00000000000E+00 0.  1.
         -2   -1    0    0    0  501 -0.00000000000E+00 -0.00000000000E+00 -0.37525352748E+01  0.37525352748E+01  0.00000000000E+00 0. -1.
          1    1    1    2  502    0  0.21424081925E+02 -0.32159369895E+02  0.18399039811E+03  0.18800447589E+03  0.00000000000E+00 0. -1.
         -1    1    1    2    0  501 -0.21424081925E+02  0.32159369895E+02  0.21212151184E+03  0.21561250461E+03  0.00000000000E+00 0.  1.
</event>
<event>
 4    1  0.7060698E+001  0.2570014E+02  0.7546771E-02  0.1461121E+00
          2   -1    0    0  502    0  0.00000000000E+00  0.00000000000E+00  0.41654555032E+02  0.41654555032E+02  0.00000000000E+00 0.  1.
         -2   -1    0    0    0  501 -0.00000000000E+00 -0.00000000000E+00 -0.32493697776E+02  0.32493697776E+02  0.00000000000E+00 0. -1.
          1    1    1    2  502    0 -0.25360241514E+02 -0.41659490498E+01 -0.21947965944E+02  0.33796600276E+02  0.00000000000E+00 0. -1.
         -1    1    1    2    0  501  0.25360241514E+02  0.41659490498E+01  0.31108823200E+02  0.40351652531E+02  0.00000000000E+00 0.  1.
</event>
<event>
 4    1  0.7060698E+001  0.2700271E+02  0.7546771E-02  0.1447581E+00
          2   -1    0    0  502    0  0.00000000000E+00  0.00000000000E+00  0.14070542127E+02  0.14070542127E+02  0.00000000000E+00 0.  1.
         -2   -1    0    0    0  501 -0.00000000000E+00 -0.00000000000E+00 -0.61970117273E+02  0.61970117273E+02  0.00000000000E+00 0. -1.
          1    1    1    2  502    0  0.25996436599E+02  0.73028660884E+01 -0.85631611868E+01  0.28327977310E+02  0.00000000000E+00 0.  1.
         -1    1    1    2    0  501 -0.25996436599E+02 -0.73028660884E+01 -0.39336413959E+02  0.47712682089E+02  0.00000000000E+00 0. -1.
</event>
<event>
 4    1  0.7060698E+001  0.3867173E+02  0.7546771E-02  0.1356450E+00
          2   -1    0    0  502    0  0.00000000000E+00  0.00000000000E+00  0.31532609197E+02  0.31532609197E+02  0.00000000000E+00 0. -1.
         -2   -1    0    0    0  501 -0.00000000000E+00 -0.00000000000E+00 -0.47631897977E+02  0.47631897977E+02  0.00000000000E+00 0.  1.
          1    1    1    2  502    0 -0.82564107744E+01 -0.37780075977E+02 -0.54546361995E+01  0.39054519787E+02  0.00000000000E+00 0.  1.
         -1    1    1    2    0  501  0.82564107744E+01  0.37780075977E+02 -0.10644652581E+02  0.40109987388E+02  0.00000000000E+00 0. -1.
</event>
<event>
 4    1  0.7060698E+001  0.3434990E+02  0.7546771E-02  0.1385192E+00
          2   -1    0    0  502    0  0.00000000000E+00  0.00000000000E+00  0.58652841139E+03  0.58652841139E+03  0.00000000000E+00 0.  1.
         -2   -1    0    0    0  501 -0.00000000000E+00 -0.00000000000E+00 -0.34750987146E+01  0.34750987146E+01  0.00000000000E+00 0. -1.
          1    1    1    2  502    0 -0.24095224891E+02 -0.24481330989E+02  0.48296252648E+03  0.48418252490E+03  0.00000000000E+00 0.  1.
         -1    1    1    2    0  501  0.24095224891E+02  0.24481330989E+02  0.10009078619E+03  0.10582098521E+03  0.00000000000E+00 0. -1.
</event>
<event>
 4    1  0.7060698E+001  0.2729623E+02  0.7546771E-02  0.1444655E+00
          2   -1    0    0  502    0  0.00000000000E+00  0.00000000000E+00  0.73039418331E+02  0.73039418331E+02  0.00000000000E+00 0.  1.
         -2   -1    0    0    0  501 -0.00000000000E+00 -0.00000000000E+00 -0.10546505339E+02  0.10546505339E+02  0.00000000000E+00 0. -1.
          1    1    1    2  502    0  0.12333883435E+02  0.24350760772E+02  0.38809519448E+02  0.47447476546E+02  0.00000000000E+00 0.  1.
         -1    1    1    2    0  501 -0.12333883435E+02 -0.24350760772E+02  0.23683393544E+02  0.36138447124E+02  0.00000000000E+00 0. -1.
</event>
<event>
 4    1  0.7060698E+001  0.2687444E+02  0.7546771E-02  0.1448873E+00
          2   -1    0    0  502    0  0.00000000000E+00  0.00000000000E+00  0.98586064360E+01  0.98586064360E+01  0.00000000000E+00 0.  1.
         -2   -1    0    0    0  501 -0.00000000000E+00 -0.00000000000E+00 -0.13935295498E+03  0.13935295498E+03  0.00000000000E+00 0. -1.
          1    1    1    2  502    0 -0.99625689072E+01  0.24959621950E+02 -0.11612715920E+03  0.11919627767E+03  0.00000000000E+00 0. -1.
         -1    1    1    2    0  501  0.99625689072E+01 -0.24959621950E+02 -0.13367189341E+02  0.30015283740E+02  0.00000000000E+00 0.  1.
</event>
<event>
 4    1  0.7060698E+001  0.2219266E+02  0.7546771E-02  0.1502893E+00
          2   -1    0    0  502    0  0.00000000000E+00  0.00000000000E+00  0.15036332936E+04  0.15036332936E+04  0.00000000000E+00 0.  1.
         -2   -1    0    0    0  501 -0.00000000000E+00 -0.00000000000E+00 -0.33211841378E+00  0.33211841378E+00  0.00000000000E+00 0. -1.
          1    1    1    2  502    0  0.10471872494E+02 -0.19566656144E+02  0.83985164200E+03  0.84014480580E+03  0.00000000000E+00 0.  1.
         -1    1    1    2    0  501 -0.10471872494E+02  0.19566656144E+02  0.66344953322E+03  0.66382060624E+03  0.00000000000E+00 0. -1.
</event>
<event>
 4    1  0.7060698E+001  0.2073216E+02  0.7546771E-02  0.1523123E+00
          2   -1    0    0  502    0  0.00000000000E+00  0.00000000000E+00  0.11487056707E+04  0.11487056707E+04  0.00000000000E+00 0. -1.
         -2   -1    0    0    0  501 -0.00000000000E+00 -0.00000000000E+00 -0.38793616898E+00  0.38793616898E+00  0.00000000000E+00 0.  1.
          1    1    1    2  502    0  0.18350470726E+02  0.96479465880E+01  0.68235072010E+03  0.68266560472E+03  0.00000000000E+00 0. -1.
         -1    1    1    2    0  501 -0.18350470726E+02 -0.96479465880E+01  0.46596701445E+03  0.46642800216E+03  0.00000000000E+00 0.  1.
</event>
<event>
 4    1  0.7060698E+001  0.2377213E+02  0.7546771E-02  0.1483024E+00
          2   -1    0    0  502    0  0.00000000000E+00  0.00000000000E+00  0.52195679605E+02  0.52195679605E+02  0.00000000000E+00 0.  1.
         -2   -1    0    0    0  501 -0.00000000000E+00 -0.00000000000E+00 -0.10949842310E+02  0.10949842310E+02  0.00000000000E+00 0. -1.
          1    1    1    2  502    0 -0.88193008538E+01  0.22075648015E+02  0.17276623748E+02  0.29387004457E+02  0.00000000000E+00 0. -1.
         -1    1    1    2    0  501  0.88193008538E+01 -0.22075648015E+02  0.23969213548E+02  0.33758517458E+02  0.00000000000E+00 0.  1.
</event>
<event>
 4    1  0.7060698E+001  0.2792904E+02  0.7546771E-02  0.1438492E+00
          2   -1    0    0  502    0  0.00000000000E+00  0.00000000000E+00  0.15334343580E+04  0.15334343580E+04  0.00000000000E+00 0.  1.
         -2   -1    0    0    0  501 -0.00000000000E+00 -0.00000000000E+00 -0.10132426715E+01  0.10132426715E+01  0.00000000000E+00 0. -1.
          1    1    1    2  502    0 -0.15751576709E+02  0.23063375404E+02  0.22480619739E+03  0.22653445177E+03  0.00000000000E+00 0. -1.
         -1    1    1    2    0  501  0.15751576709E+02 -0.23063375404E+02  0.13076149179E+04  0.13079131489E+04  0.00000000000E+00 0.  1.
</event>
<event>
 4    1  0.7060698E+001  0.2522292E+02  0.7546771E-02  0.1466325E+00
          2   -1    0    0  502    0  0.00000000000E+00  0.00000000000E+00  0.25285434048E+04  0.25285434048E+04  0.00000000000E+00 0.  1.
         -2   -1    0    0    0  501 -0.00000000000E+00 -0.00000000000E+00 -0.25292508533E+00  0.25292508533E+00  0.00000000000E+00 0. -1.
          1    1    1    2  502    0  0.19502045363E+02 -0.15995811766E+02  0.11728213224E+04  0.11730925156E+04  0.00000000000E+00 0.  1.
         -1    1    1    2    0  501 -0.19502045363E+02  0.15995811766E+02  0.13554691573E+04  0.13557038143E+04  0.00000000000E+00 0. -1.
</event>
<event>
 4    1  0.7060698E+001  0.2760479E+02  0.7546771E-02  0.1441626E+00
          2   -1    0    0  502    0  0.00000000000E+00  0.00000000000E+00  0.12086157939E+04  0.12086157939E+04  0.00000000000E+00 0. -1.
         -2   -1    0    0    0  501 -0.00000000000E+00 -0.00000000000E+00 -0.75473623259E+00  0.75473623259E+00  0.00000000000E+00 0.  1.
          1    1    1    2  502    0 -0.80719278987E+01  0.26398264371E+02  0.84926993671E+03  0.84971845324E+03  0.00000000000E+00 0. -1.
         -1    1    1    2    0  501  0.80719278987E+01 -0.26398264371E+02  0.35859112100E+03  0.35965207693E+03  0.00000000000E+00 0.  1.
</event>
<event>
 4    1  0.7060698E+001  0.2909437E+02  0.7546771E-02  0.1427633E+00
          2   -1    0    0  502    0  0.00000000000E+00  0.00000000000E+00  0.18434382034E+02  0.18434382034E+02  0.00000000000E+00 0.  1.
         -2   -1    0    0    0  501 -0.00000000000E+00 -0.00000000000E+00 -0.49040062989E+02  0.49040062989E+02  0.00000000000E+00 0. -1.
          1    1    1    2  502    0  0.28740206989E+02 -0.45258029225E+01 -0.23814372198E+02  0.37597961554E+02  0.00000000000E+00 0.  1.
         -1    1    1    2    0  501 -0.28740206989E+02  0.45258029225E+01 -0.67913087576E+01  0.29876483469E+02  0.00000000000E+00 0. -1.
</event>
<event>
 4    1  0.7060698E+001  0.2551740E+02  0.7546771E-02  0.1463098E+00
          2   -1    0    0  502    0  0.00000000000E+00  0.00000000000E+00  0.53803402281E+03  0.53803402281E+03  0.00000000000E+00 0.  1.
         -2   -1    0    0    0  501 -0.00000000000E+00 -0.00000000000E+00 -0.17143980548E+01  0.17143980548E+01  0.00000000000E+00 0. -1.
          1    1    1    2  502    0 -0.24822801435E+02 -0.59132278216E+01  0.41451191382E+03  0.41529659815E+03  0.00000000000E+00 0. -1.
         -1    1    1    2    0  501  0.24822801435E+02  0.59132278216E+01  0.12180771093E+03  0.12445182272E+03  0.00000000000E+00 0.  1.
</event>
<event>
 4    1  0.7060698E+001  0.2038330E+02  0.7546771E-02  0.1528255E+00
          2   -1    0    0  502    0  0.00000000000E+00  0.00000000000E+00  0.12391799767E+02  0.12391799767E+02  0.00000000000E+00 0. -1.
         -2   -1    0    0    0  501 -0.00000000000E+00 -0.00000000000E+00 -0.50763893459E+02  0.50763893459E+02  0.00000000000E+00 0.  1.
          1    1    1    2  502    0 -0.81829902844E+01 -0.18668631177E+02 -0.78616740812E+00  0.20398460216E+02  0.00000000000E+00 0. -1.
         -1    1    1    2    0  501  0.81829902844E+01  0.18668631177E+02 -0.37585926284E+02  0.42757233009E+02  0.00000000000E+00 0.  1.
</event>
<event>
 4    1  0.7060698E+001  0.3414741E+02  0.7546771E-02  0.1386658E+00
          2   -1    0    0  502    0  0.00000000000E+00  0.00000000000E+00  0.30954604587E+04  0.30954604587E+04  0.00000000000E+00 0.  1.
         -2   -1    0    0    0  501 -0.00000000000E+00 -0.00000000000E+00 -0.48698646830E+00  0.48698646830E+00  0.00000000000E+00 0. -1.
          1    1    1    2  502    0 -0.72786605947E+01 -0.33362653211E+02  0.81081259164E+03  0.81153133291E+03  0.00000000000E+00 0. -1.
         -1    1    1    2    0  501  0.72786605947E+01  0.33362653211E+02  0.22841608806E+04  0.22844161123E+04  0.00000000000E+00 0.  1.
</event>
<event>
 4    1  0.7060698E+001  0.3207719E+02  0.7546771E-02  0.1402365E+00
          2   -1    0    0  502    0  0.00000000000E+00  0.00000000000E+00  0.16511708325E+01  0.16511708325E+01  0.00000000000E+00 0.  1.
         -2   -1    0    0    0  501 -0.00000000000E+00 -0.00000000000E+00 -0.63445896964E+03  0.63445896964E+03  0.00000000000E+00 0. -1.
          1    1    1    2  502    0 -0.13561749968E+02  0.29069310653E+02 -0.35884567778E+03  0.36027651373E+03  0.00000000000E+00 0. -1.
         -1    1    1    2    0  501  0.13561749968E+02 -0.29069310653E+02 -0.27396212102E+03  0.27583362674E+03  0.00000000000E+00 0.  1.
</event>
<event>
 4    1  0.7060698E+001  0.3319438E+02  0.7546771E-02  0.1393722E+00
          2   -1    0    0  502    0  0.00000000000E+00  0.00000000000E+00  0.10678316179E+04  0.10678316179E+04  0.00000000000E+00 0.  1.
         -2   -1    0    0    0  501 -0.00000000000E+00 -0.00000000000E+00 -0.15358361894E+01  0.15358361894E+01  0.00000000000E+00 0. -1.
          1    1    1    2  502    0  0.26940652863E+02  0.19392468997E+02  0.83943161564E+03  0.84008767636E+03  0.00000000000E+00 0.  1.
         -1    1    1    2    0  501 -0.26940652863E+02 -0.19392468997E+02  0.22686416612E+03  0.22927977778E+03  0.00000000000E+00 0. -1.
</event>
<event>
 4    1  0.7060698E+001  0.2420881E+02  0.7546771E-02  0.1477852E+00
          2   -1    0    0  502    0  0.00000000000E+00  0.00000000000E+00  0.69731917428E+03  0.69731917428E+03  0.00000000000E+00 0.  1.
         -2   -1    0    0    0  501 -0.00000000000E+00 -0.00000000000E+00 -0.89013885413E+00  0.89013885413E+00  0.00000000000E+00 0. -1.
          1    1    1    2  502    0  0.11775554962E+02 -0.21151893698E+02  0.43069072211E+03  0.43137056507E+03  0.00000000000E+00 0.  1.
         -1    1    1    2    0  501 -0.11775554962E+02  0.21151893698E+02  0.26573831332E+03  0.26683874806E+03  0.00000000000E+00 0. -1.
</event>
<event>
 4    1  0.7060698E+001  0.2775173E+02  0.7546771E-02  0.1440199E+00
          2   -1    0    0  502    0  0.00000000000E+00  0.00000000000E+00  0.74554495492E+03  0.74554495492E+03  0.00000000000E+00 0.  1.
         -2   -1    0    0    0  501 -0.00000000000E+00 -0.00000000000E+00 -0.10431038276E+01  0.10431038276E+01  0.00000000000E+00 0. -1.
          1    1    1    2  502    0 -0.19255536190E+02  0.19984571487E+02  0.40896374436E+03  0.40990426074E+03  0.00000000000E+00 0. -1.
         -1    1    1    2    0  501  0.19255536190E+02 -0.19984571487E+02  0.33553810673E+03  0.33668379801E+03  0.00000000000E+00 0.  1.
</event>
<event>
 4    1  0.7060698E+001  0.2288478E+02  0.7546771E-02  0.1493950E+00
          2   -1    0    0  502    0  0.00000000000E+00  0.00000000000E+00  0.31022793253E+03  0.31022793253E+03  0.00000000000E+00 0.  1.
         -2   -1    0    0    0  501 -0.00000000000E+00 -0.00000000000E+00 -0.21773982430E+01  0.21773982430E+01  0.00000000000E+00 0. -1.
          1    1    1    2  502    0 -0.85716881528E+01 -0.21218838556E+02  0.22806788480E+03  0.22921316067E+03  0.00000000000E+00 0.  1.
         -1    1    1    2    0  501  0.85716881528E+01  0.21218838556E+02  0.79982649495E+02  0.83192170111E+02  0.00000000000E+00 0. -1.
</event>
<event>
 4    1  0.7060698E+001  0.2963144E+02  0.7546771E-02  0.1422827E+00
          2   -1    0    0  502    0  0.00000000000E+00  0.00000000000E+00  0.32308321860E+03  0.32308321860E+03  0.00000000000E+00 0.  1.
         -2   -1    0    0    0  501 -0.00000000000E+00 -0.00000000000E+00 -0.28286852856E+01  0.28286852856E+01  0.00000000000E+00 0. -1.
          1    1    1    2  502    0 -0.18879913797E+02 -0.22837929262E+02  0.19241506158E+03  0.19468327632E+03  0.00000000000E+00 0.  1.
         -1    1    1    2    0  501  0.18879913797E+02  0.22837929262E+02  0.12783947173E+03  0.13122862756E+03  0.00000000000E+00 0. -1.
</event>
<event>
 4    1  0.7060698E+001  0.2086219E+02  0.7546771E-02  0.1521242E+00
          2   -1    0    0  502    0  0.00000000000E+00  0.00000000000E+00  0.16003054908E+03  0.16003054908E+03  0.00000000000E+00 0.  1.
         -2   -1    0    0    0  501 -0.00000000000E+00 -0.00000000000E+00 -0.28018931260E+01  0.28018931260E+01  0.00000000000E+00 0. -1.
          1    1    1    2  502    0 -0.16209767870E+02 -0.13132948356E+02  0.92561040853E+02  0.94882965756E+02  0.00000000000E+00 0.  1.
         -1    1    1    2    0  501  0.16209767870E+02  0.13132948356E+02  0.64667615099E+02  0.67949476448E+02  0.00000000000E+00 0. -1.
</event>
<event>
 4    1  0.7060698E+001  0.3886358E+02  0.7546771E-02  0.1355277E+00
          2   -1    0    0  502    0  0.00000000000E+00  0.00000000000E+00  0.42117143159E+03  0.42117143159E+03  0.00000000000E+00 0.  1.
         -2   -1    0    0    0  501 -0.00000000000E+00 -0.00000000000E+00 -0.48295788132E+01  0.48295788132E+01  0.00000000000E+00 0. -1.
          1    1    1    2  502    0 -0.28541784021E+02 -0.26376963489E+02  0.31624936870E+03  0.31862837420E+03  0.00000000000E+00 0.  1.
         -1    1    1    2    0  501  0.28541784021E+02  0.26376963489E+02  0.10009248407E+03  0.10737263621E+03  0.00000000000E+00 0. -1.
</event>
<event>
 4    1  0.7060698E+001  0.2093051E+02  0.7546771E-02  0.1520259E+00
          2   -1    0    0  502    0  0.00000000000E+00  0.00000000000E+00  0.82462886830E+02  0.82462886830E+02  0.00000000000E+00 0.  1.
         -2   -1    0    0    0  501 -0.00000000000E+00 -0.00000000000E+00 -0.53217855784E+01  0.53217855784E+01  0.00000000000E+00 0. -1.
          1    1    1    2  502    0  0.17304556460E+02  0.11774488548E+02  0.40401383226E+02  0.45501187033E+02  0.00000000000E+00 0.  1.
         -1    1    1    2    0  501 -0.17304556460E+02 -0.11774488548E+02  0.36739718026E+02  0.42283485375E+02  0.00000000000E+00 0. -1.
</event>
<event>
 4    1  0.7060698E+001  0.4588437E+02  0.7546771E-02  0.1317075E+00
          2   -1    0    0  502    0  0.00000000000E+00  0.00000000000E+00  0.77500091277E+01  0.77500091277E+01  0.00000000000E+00 0. -1.
         -2   -1    0    0    0  501 -0.00000000000E+00 -0.00000000000E+00 -0.31635701195E+03  0.31635701195E+03  0.00000000000E+00 0.  1.
          1    1    1    2  502    0 -0.44247670354E+02  0.12145757395E+02 -0.93391373799E+02  0.10405443025E+03  0.00000000000E+00 0. -1.
         -1    1    1    2    0  501  0.44247670354E+02 -0.12145757395E+02 -0.21521562903E+03  0.22005259083E+03  0.00000000000E+00 0.  1.
</event>
<event>
 4    1  0.7060698E+001  0.2508632E+02  0.7546771E-02  0.1467840E+00
          2   -1    0    0  502    0  0.00000000000E+00  0.00000000000E+00  0.61722095033E+02  0.61722095033E+02  0.00000000000E+00 0.  1.
         -2   -1    0    0    0  501 -0.00000000000E+00 -0.00000000000E+00 -0.10200280521E+02  0.10200280521E+02  0.00000000000E+00 0. -1.
          1    1    1    2  502    0 -0.24286816839E+02  0.62828315700E+01  0.26490629823E+02  0.36483926778E+02  0.00000000000E+00 0.  1.
         -1    1    1    2    0  501  0.24286816839E+02 -0.62828315700E+01  0.25031184690E+02  0.35438448777E+02  0.00000000000E+00 0. -1.
</event>
<event>
 4    1  0.7060698E+001  0.2433632E+02  0.7546771E-02  0.1476367E+00
          2   -1    0    0  502    0  0.00000000000E+00  0.00000000000E+00  0.15273771672E+03  0.15273771672E+03  0.00000000000E+00 0. -1.
         -2   -1    0    0    0  501 -0.00000000000E+00 -0.00000000000E+00 -0.17571731145E+02  0.17571731145E+02  0.00000000000E+00 0.  1.
          1    1    1    2  502    0 -0.24076287232E+02 -0.35481041844E+01  0.14275715910E+03  0.14481665348E+03  0.00000000000E+00 0. -1.
         -1    1    1    2    0  501  0.24076287232E+02  0.35481041844E+01 -0.75911735254E+01  0.25492794387E+02  0.00000000000E+00 0.  1.
</event>
<event>
 4    1  0.7060698E+001  0.2604487E+02  0.7546771E-02  0.1457446E+00
          2   -1    0    0  502    0  0.00000000000E+00  0.00000000000E+00  0.84171775529E+03  0.84171775529E+03  0.00000000000E+00 0. -1.
         -2   -1    0    0    0  501 -0.00000000000E+00 -0.00000000000E+00 -0.92294912308E+00  0.92294912308E+00  0.00000000000E+00 0.  1.
          1    1    1    2  502    0  0.73497875006E+01  0.24986311674E+02  0.27035324803E+03  0.27160488558E+03  0.00000000000E+00 0.  1.
         -1    1    1    2    0  501 -0.73497875006E+01 -0.24986311674E+02  0.57044155813E+03  0.57103581883E+03  0.00000000000E+00 0. -1.
</event>
<event>
 4    1  0.7060698E+001  0.2047292E+02  0.7546771E-02  0.1526925E+00
          2   -1    0    0  502    0  0.00000000000E+00  0.00000000000E+00  0.94896501558E+03  0.94896501558E+03  0.00000000000E+00 0.  1.
         -2   -1    0    0    0  501 -0.00000000000E+00 -0.00000000000E+00 -0.54997714300E+00  0.54997714300E+00  0.00000000000E+00 0. -1.
          1    1    1    2  502    0  0.38544608860E+01  0.20106805010E+02  0.68487844902E+03  0.68518437694E+03  0.00000000000E+00 0.  1.
         -1    1    1    2    0  501 -0.38544608860E+01 -0.20106805010E+02  0.26353658941E+03  0.26433061578E+03  0.00000000000E+00 0. -1.
</event>
<event>
 4    1  0.7060698E+001  0.2157421E+02  0.7546771E-02  0.1511222E+00
          2   -1    0    0  502    0  0.00000000000E+00  0.00000000000E+00  0.11134530275E+04  0.11134530275E+04  0.00000000000E+00 0. -1.
         -2   -1    0    0    0  501 -0.00000000000E+00 -0.00000000000E+00 -0.46262917517E+00  0.46262917517E+00  0.00000000000E+00 0.  1.
          1    1    1    2  502    0  0.18305572135E+02  0.11417205653E+02  0.38354786527E+03  0.38415415071E+03  0.00000000000E+00 0.  1.
         -1    1    1    2    0  501 -0.18305572135E+02 -0.11417205653E+02  0.72944253303E+03  0.72976150593E+03  0.00000000000E+00 0. -1.
</event>
<event>
 4    1  0.7060698E+001  0.2610753E+02  0.7546771E-02  0.1456785E+00
          2   -1    0    0  502    0  0.00000000000E+00  0.00000000000E+00  0.67086629025E+02  0.67086629025E+02  0.00000000000E+00 0. -1.
         -2   -1    0    0    0  501 -0.00000000000E+00 -0.00000000000E+00 -0.11228165447E+02  0.11228165447E+02  0.00000000000E+00 0.  1.
          1    1    1    2  502    0  0.70074459436E+01 -0.25149533299E+02  0.40006509776E+02  0.47771583063E+02  0.00000000000E+00 0. -1.
         -1    1    1    2    0  501 -0.70074459436E+01  0.25149533299E+02  0.15851953802E+02  0.30543211409E+02  0.00000000000E+00 0.  1.
</event>
<event>
 4    1  0.7060698E+001  0.2884114E+02  0.7546771E-02  0.1429941E+00
          2   -1    0    0  502    0  0.00000000000E+00  0.00000000000E+00  0.53427887114E+03  0.53427887114E+03  0.00000000000E+00 0.  1.
         -2   -1    0    0    0  501 -0.00000000000E+00 -0.00000000000E+00 -0.28338718481E+01  0.28338718481E+01  0.00000000000E+00 0. -1.
          1    1    1    2  502    0 -0.20482412608E+02 -0.20304728873E+02  0.44599870844E+03  0.44693026208E+03  0.00000000000E+00 0.  1.
         -1    1    1    2    0  501  0.20482412608E+02  0.20304728873E+02  0.85446290859E+02  0.90182480906E+02  0.00000000000E+00 0. -1.
</event>
<event>
 4    1  0.7060698E+001  0.5725492E+02  0.7546771E-02  0.1269456E+00
          2   -1    0    0  502    0  0.00000000000E+00  0.00000000000E+00  0.91721066306E+03  0.91721066306E+03  0.00000000000E+00 0.  1.
         -2   -1    0    0    0  501 -0.00000000000E+00 -0.00000000000E+00 -0.52062890620E+01  0.52062890620E+01  0.00000000000E+00 0. -1.
          1    1    1    2  502    0 -0.35217422424E+02  0.45142656385E+02  0.19775865721E+03  0.20588009318E+03  0.00000000000E+00 0. -1.
         -1    1    1    2    0  501  0.35217422424E+02 -0.45142656385E+02  0.71424571679E+03  0.71653685894E+03  0.00000000000E+00 0.  1.
</event>
<event>
 4    1  0.7060698E+001  0.2880578E+02  0.7546771E-02  0.1430266E+00
          2   -1    0    0  502    0  0.00000000000E+00  0.00000000000E+00  0.23484208429E+03  0.23484208429E+03  0.00000000000E+00 0. -1.
         -2   -1    0    0    0  501 -0.00000000000E+00 -0.00000000000E+00 -0.36029564463E+01  0.36029564463E+01  0.00000000000E+00 0.  1.
          1    1    1    2  502    0 -0.28748097756E+02 -0.18219660012E+01  0.13219408919E+03  0.13529615627E+03  0.00000000000E+00 0. -1.
         -1    1    1    2    0  501  0.28748097756E+02  0.18219660012E+01  0.99045038652E+02  0.10314888446E+03  0.00000000000E+00 0.  1.
</event>
<event>
 4    1  0.7060698E+001  0.2300257E+02  0.7546771E-02  0.1492466E+00
          2   -1    0    0  502    0  0.00000000000E+00  0.00000000000E+00  0.72298281903E+03  0.72298281903E+03  0.00000000000E+00 0.  1.
         -2   -1    0    0    0  501 -0.00000000000E+00 -0.00000000000E+00 -0.78529471918E+00  0.78529471918E+00  0.00000000000E+00 0. -1.
          1    1    1    2  502    0 -0.20369314258E+02  0.10686864302E+02  0.26669520964E+03  0.26768536172E+03  0.00000000000E+00 0.  1.
         -1    1    1    2    0  501  0.20369314258E+02 -0.10686864302E+02  0.45550231467E+03  0.45608275203E+03  0.00000000000E+00 0. -1.
</event>
<event>
 4    1  0.7060698E+001  0.2305388E+02  0.7546771E-02  0.1491823E+00
          2   -1    0    0  502    0  0.00000000000E+00  0.00000000000E+00  0.49389298399E+03  0.49389298399E+03  0.00000000000E+00 0. -1.
         -2   -1    0    0    0  501 -0.00000000000E+00 -0.00000000000E+00 -0.18024938137E+01  0.18024938137E+01  0.00000000000E+00 0.  1.
          1    1    1    2  502    0  0.19762778572E+02 -0.11870726256E+02  0.88707786996E+02  0.91654530889E+02  0.00000000000E+00 0.  1.
         -1    1    1    2    0  501 -0.19762778572E+02  0.11870726256E+02  0.40338270318E+03  0.40404094692E+03  0.00000000000E+00 0. -1.
</event>
<event>
 4    1  0.7060698E+001  0.2181632E+02  0.7546771E-02  0.1507922E+00
          2   -1    0    0  502    0  0.00000000000E+00  0.00000000000E+00  0.24296836259E+02  0.24296836259E+02  0.00000000000E+00 0. -1.
         -2   -1    0    0    0  501 -0.00000000000E+00 -0.00000000000E+00 -0.31101919008E+02  0.31101919008E+02  0.00000000000E+00 0.  1.
          1    1    1    2  502    0 -0.70646240617E+01 -0.20640812054E+02 -0.20255188451E+02  0.29769526274E+02  0.00000000000E+00 0.  1.
         -1    1    1    2    0  501  0.70646240617E+01  0.20640812054E+02  0.13450105702E+02  0.25629228993E+02  0.00000000000E+00 0. -1.
</event>
<event>
 4    1  0.7060698E+001  0.2055210E+02  0.7546771E-02  0.1525757E+00
          2   -1    0    0  502    0  0.00000000000E+00  0.00000000000E+00  0.55200766391E+01  0.55200766391E+01  0.00000000000E+00 0.  1.
         -2   -1    0    0    0  501 -0.00000000000E+00 -0.00000000000E+00 -0.93208287062E+02  0.93208287062E+02  0.00000000000E+00 0. -1.
          1    1    1    2  502    0  0.58673426756E+01  0.19696782053E+02 -0.64732633432E+02  0.67916881291E+02  0.00000000000E+00 0. -1.
         -1    1    1    2    0  501 -0.58673426756E+01 -0.19696782053E+02 -0.22955576991E+02  0.30811482410E+02  0.00000000000E+00 0.  1.
</event>
<event>
 4    1  0.7060698E+001  0.2099070E+02  0.7546771E-02  0.1519398E+00
          2   -1    0    0  502    0  0.00000000000E+00  0.00000000000E+00  0.24462860331E+03  0.24462860331E+03  0.00000000000E+00 0.  1.
         -2   -1    0    0    0  501 -0.00000000000E+00 -0.00000000000E+00 -0.61582336877E+01  0.61582336877E+01  0.00000000000E+00 0. -1.
          1    1    1    2  502    0  0.17841115195E+02 -0.11059114542E+02  0.22470915745E+03  0.22568742732E+03  0.00000000000E+00 0.  1.
         -1    1    1    2    0  501 -0.17841115195E+02  0.11059114542E+02  0.13761212165E+02  0.25099409676E+02  0.00000000000E+00 0. -1.
</event>
<event>
 4    1  0.7060698E+001  0.2675695E+02  0.7546771E-02  0.1450065E+00
          2   -1    0    0  502    0  0.00000000000E+00  0.00000000000E+00  0.18321238502E+04  0.18321238502E+04  0.00000000000E+00 0. -1.
         -2   -1    0    0    0  501 -0.00000000000E+00 -0.00000000000E+00 -0.42862691988E+00  0.42862691988E+00  0.00000000000E+00 0.  1.
          1    1    1    2  502    0  0.23679431968E+01 -0.26651969116E+02  0.11881636317E+04  0.11884648713E+04  0.00000000000E+00 0. -1.
         -1    1    1    2    0  501 -0.23679431968E+01  0.26651969116E+02  0.64353159150E+03  0.64408760575E+03  0.00000000000E+00 0.  1.
</event>
<event>
 4    1  0.7060698E+001  0.2424816E+02  0.7546771E-02  0.1477393E+00
          2   -1    0    0  502    0  0.00000000000E+00  0.00000000000E+00  0.13425107838E+03  0.13425107838E+03  0.00000000000E+00 0.  1.
         -2   -1    0    0    0  501 -0.00000000000E+00 -0.00000000000E+00 -0.62838525997E+01  0.62838525997E+01  0.00000000000E+00 0. -1.
          1    1    1    2  502    0 -0.18927879401E+02  0.15156141654E+02  0.10266458994E+03  0.10548929461E+03  0.00000000000E+00 0.  1.
         -1    1    1    2    0  501  0.18927879401E+02 -0.15156141654E+02  0.25302635835E+02  0.35045636371E+02  0.00000000000E+00 0. -1.
</event>
<event>
 4    1  0.7060698E+001  0.2095144E+02  0.7546771E-02  0.1519959E+00
          2   -1    0    0  502    0  0.00000000000E+00  0.00000000000E+00  0.15730512016E+04  0.15730512016E+04  0.00000000000E+00 0.  1.
         -2   -1    0    0    0  501 -0.00000000000E+00 -0.00000000000E+00 -0.36109856049E+00  0.36109856049E+00  0.00000000000E+00 0. -1.
          1    1    1    2  502    0 -0.12875376905E+02 -0.16528382715E+02  0.11613442953E+04  0.11615332690E+04  0.00000000000E+00 0.  1.
         -1    1    1    2    0  501  0.12875376905E+02  0.16528382715E+02  0.41134580768E+03  0.41187903110E+03  0.00000000000E+00 0. -1.
</event>
<event>
 4    1  0.7060698E+001  0.2011569E+02  0.7546771E-02  0.1532274E+00
          2   -1    0    0  502    0  0.00000000000E+00  0.00000000000E+00  0.10598391371E+01  0.10598391371E+01  0.00000000000E+00 0.  1.
         -2   -1    0    0    0  501 -0.00000000000E+00 -0.00000000000E+00 -0.38769030326E+03  0.38769030326E+03  0.00000000000E+00 0. -1.
          1    1    1    2  502    0 -0.19307159888E+02  0.56457731861E+01 -0.21728450380E+03  0.21821364936E+03  0.00000000000E+00 0.  1.
         -1    1    1    2    0  501  0.19307159888E+02 -0.56457731861E+01 -0.16934596033E+03  0.17053649304E+03  0.00000000000E+00 0. -1.
</event>
<event>
 4    1  0.7060698E+001  0.4863308E+02  0.7546771E-02  0.1304210E+00
          2   -1    0    0  502    0  0.00000000000E+00  0.00000000000E+00  0.14301173580E+03  0.14301173580E+03  0.00000000000E+00 0. -1.
         -2   -1    0    0    0  501 -0.00000000000E+00 -0.00000000000E+00 -0.21805266336E+02  0.21805266336E+02  0.00000000000E+00 0.  1.
          1    1    1    2  502    0  0.22219217745E+02 -0.43260637710E+02  0.20101835704E+02  0.52623760897E+02  0.00000000000E+00 0.  1.
         -1    1    1    2    0  501 -0.22219217745E+02  0.43260637710E+02  0.10110463376E+03  0.11219324124E+03  0.00000000000E+00 0. -1.
</event>
<event>
 4    1  0.7060698E+001  0.2014882E+02  0.7546771E-02  0.1531773E+00
          2   -1    0    0  502    0  0.00000000000E+00  0.00000000000E+00  0.99950800078E+02  0.99950800078E+02  0.00000000000E+00 0.  1.
         -2   -1    0    0    0  501 -0.00000000000E+00 -0.00000000000E+00 -0.26704619129E+02  0.26704619129E+02  0.00000000000E+00 0. -1.
          1    1    1    2  502    0  0.10296271453E+01 -0.20122499585E+02 -0.21690034943E+02  0.29604606693E+02  0.00000000000E+00 0. -1.
         -1    1    1    2    0  501 -0.10296271453E+01  0.20122499585E+02  0.94936215893E+02  0.97050812514E+02  0.00000000000E+00 0.  1.
</event>
<event>
 4    1  0.7060698E+001  0.2838939E+02  0.7546771E-02  0.1434129E+00
          2   -1    0    0  502    0  0.00000000000E+00  0.00000000000E+00  0.10897629547E+04  0.10897629547E+04  0.00000000000E+00 0.  1.
         -2   -1    0    0    0  501 -0.00000000000E+00 -0.00000000000E+00 -0.11313833949E+01  0.11313833949E+01  0.00000000000E+00 0. -1.
          1    1    1    2  502    0 -0.25059584078E+02  0.13340725667E+02  0.86530212737E+03  0.86576771096E+03  0.00000000000E+00 0.  1.
         -1    1    1    2    0  501  0.25059584078E+02 -0.13340725667E+02  0.22332944398E+03  0.22512662717E+03  0.00000000000E+00 0. -1.
</event>
<event>
 4    1  0.7060698E+001  0.2226170E+02  0.7546771E-02  0.1501983E+00
          2   -1    0    0  502    0  0.00000000000E+00  0.00000000000E+00  0.30262514910E+02  0.30262514910E+02  0.00000000000E+00 0. -1.
         -2   -1    0    0    0  501 -0.00000000000E+00 -0.00000000000E+00 -0.19337868424E+02  0.19337868424E+02  0.00000000000E+00 0.  1.
          1    1    1    2  502    0 -0.17728827670E+02  0.13463728821E+02  0.15167937040E+02  0.26937884816E+02  0.00000000000E+00 0. -1.
         -1    1    1    2    0  501  0.17728827670E+02 -0.13463728821E+02 -0.42432905536E+01  0.22662498517E+02  0.00000000000E+00 0.  1.
</event>
<event>
 4    1  0.7060698E+001  0.2740404E+02  0.7546771E-02  0.1443591E+00
          2   -1    0    0  502    0  0.00000000000E+00  0.00000000000E+00  0.11333495350E+03  0.11333495350E+03  0.00000000000E+00 0.  1.
         -2   -1    0    0    0  501 -0.00000000000E+00 -0.00000000000E+00 -0.11983739133E+02  0.11983739133E+02  0.00000000000E+00 0. -1.
          1    1    1    2  502    0  0.22757994759E+02 -0.15266134618E+02  0.92571549317E+02  0.96542596477E+02  0.00000000000E+00 0.  1.
         -1    1    1    2    0  501 -0.22757994759E+02  0.15266134618E+02  0.87796650528E+01  0.28776096158E+02  0.00000000000E+00 0. -1.
</event>
<event>
 4    1  0.7060698E+001  0.2058017E+02  0.7546771E-02  0.1525344E+00
          2   -1    0    0  502    0  0.00000000000E+00  0.00000000000E+00  0.15218831549E+03  0.15218831549E+03  0.00000000000E+00 0. -1.
         -2   -1    0    0    0  501 -0.00000000000E+00 -0.00000000000E+00 -0.35755359279E+01  0.35755359279E+01  0.00000000000E+00 0.  1.
          1    1    1    2  502    0  0.40747144677E+01  0.20172754159E+02  0.37639862525E+02  0.42898747758E+02  0.00000000000E+00 0.  1.
         -1    1    1    2    0  501 -0.40747144677E+01 -0.20172754159E+02  0.11097291704E+03  0.11286510366E+03  0.00000000000E+00 0. -1.
</event>
<event>
 4    1  0.7060698E+001  0.2616408E+02  0.7546771E-02  0.1456191E+00
          2   -1    0    0  502    0  0.00000000000E+00  0.00000000000E+00  0.11018130606E+03  0.11018130606E+03  0.00000000000E+00 0.  1.
         -2   -1    0    0    0  501 -0.00000000000E+00 -0.00000000000E+00 -0.68643173260E+01  0.68643173260E+01  0.00000000000E+00 0. -1.
          1    1    1    2  502    0  0.15054821025E+02  0.21398861188E+02  0.69685161298E+02  0.74435076418E+02  0.00000000000E+00 0. -1.
         -1    1    1    2    0  501 -0.15054821025E+02 -0.21398861188E+02  0.33631827438E+02  0.42610546969E+02  0.00000000000E+00 0.  1.
</event>
<event>
 4    1  0.7060698E+001  0.2920896E+02  0.7546771E-02  0.1426597E+00
          2   -1    0    0  502    0  0.00000000000E+00  0.00000000000E+00  0.18276218387E+03  0.18276218387E+03  0.00000000000E+00 0.  1.
         -2   -1    0    0    0  501 -0.00000000000E+00 -0.00000000000E+00 -0.48655498968E+01  0.48655498968E+01  0.00000000000E+00 0. -1.
          1    1    1    2  502    0 -0.23429028023E+02 -0.17442592609E+02  0.70052665156E+02  0.75898216623E+02  0.00000000000E+00 0. -1.
         -1    1    1    2    0  501  0.23429028023E+02  0.17442592609E+02  0.10784396882E+03  0.11172951715E+03  0.00000000000E+00 0.  1.
</event>
<event>
 4    1  0.7060698E+001  0.2556612E+02  0.7546771E-02  0.1462569E+00
          2   -1    0    0  502    0  0.00000000000E+00  0.00000000000E+00  0.18614356894E+04  0.18614356894E+04  0.00000000000E+00 0. -1.
         -2   -1    0    0    0  501 -0.00000000000E+00 -0.00000000000E+00 -0.83081376634E+00  0.83081376634E+00  0.00000000000E+00 0.  1.
          1    1    1    2  502    0  0.25550036850E+02 -0.90671530955E+00  0.22279258188E+03  0.22425467900E+03  0.00000000000E+00 0.  1.
         -1    1    1    2    0  501 -0.25550036850E+02  0.90671530955E+00  0.16378122938E+04  0.16380118242E+04  0.00000000000E+00 0. -1.
</event>
<event>
 4    1  0.7060698E+001  0.3627666E+02  0.7546771E-02  0.1371803E+00
          2   -1    0    0  502    0  0.00000000000E+00  0.00000000000E+00  0.90833065983E+03  0.90833065983E+03  0.00000000000E+00 0.  1.
         -2   -1    0    0    0  501 -0.00000000000E+00 -0.00000000000E+00 -0.14822135701E+01  0.14822135701E+01  0.00000000000E+00 0. -1.
          1    1    1    2  502    0  0.66423212442E+01 -0.35663367890E+02  0.52171776080E+03  0.52297745475E+03  0.00000000000E+00 0.  1.
         -1    1    1    2    0  501 -0.66423212442E+01  0.35663367890E+02  0.38513068545E+03  0.38683541865E+03  0.00000000000E+00 0. -1.
</event>
<event>
 4    1  0.7060698E+001  0.2229530E+02  0.7546771E-02  0.1501542E+00
          2   -1    0    0  502    0  0.00000000000E+00  0.00000000000E+00  0.69484615777E+03  0.69484615777E+03  0.00000000000E+00 0.  1.
         -2   -1    0    0    0  501 -0.00000000000E+00 -0.00000000000E+00 -0.85586547994E+00  0.85586547994E+00  0.00000000000E+00 0. -1.
          1    1    1    2  502    0  0.21494573391E+02  0.59214717004E+01  0.48792498968E+03  0.48843410617E+03  0.00000000000E+00 0.  1.
         -1    1    1    2    0  501 -0.21494573391E+02 -0.59214717004E+01  0.20606530261E+03  0.20726791708E+03  0.00000000000E+00 0. -1.
</event>
<event>
 4    1  0.7060698E+001  0.2082337E+02  0.7546771E-02  0.1521802E+00
          2   -1    0    0  502    0  0.00000000000E+00  0.00000000000E+00  0.51266560954E+02  0.51266560954E+02  0.00000000000E+00 0.  1.
         -2   -1    0    0    0  501 -0.00000000000E+00 -0.00000000000E+00 -0.97325655396E+02  0.97325655396E+02  0.00000000000E+00 0. -1.
          1    1    1    2  502    0  0.20421687089E+02 -0.40703073164E+01  0.47964878616E+02  0.52289982653E+02  0.00000000000E+00 0.  1.
         -1    1    1    2    0  501 -0.20421687089E+02  0.40703073164E+01 -0.94023973059E+02  0.96302233697E+02  0.00000000000E+00 0. -1.
</event>
<event>
 4    1  0.7060698E+001  0.2315375E+02  0.7546771E-02  0.1490577E+00
          2   -1    0    0  502    0  0.00000000000E+00  0.00000000000E+00  0.14456179082E+04  0.14456179082E+04  0.00000000000E+00 0.  1.
         -2   -1    0    0    0  501 -0.00000000000E+00 -0.00000000000E+00 -0.45800875707E+00  0.45800875707E+00  0.00000000000E+00 0. -1.
          1    1    1    2  502    0 -0.21033389319E+02 -0.96794919722E+01  0.40715262269E+03  0.40781043905E+03  0.00000000000E+00 0.  1.
         -1    1    1    2    0  501  0.21033389319E+02  0.96794919722E+01  0.10380072767E+04  0.10382654779E+04  0.00000000000E+00 0. -1.
</event>
<event>
 4    1  0.7060698E+001  0.4865514E+02  0.7546771E-02  0.1304111E+00
          2   -1    0    0  502    0  0.00000000000E+00  0.00000000000E+00  0.93619097619E+03  0.93619097619E+03  0.00000000000E+00 0.  1.
         -2   -1    0    0    0  501 -0.00000000000E+00 -0.00000000000E+00 -0.28366726534E+01  0.28366726534E+01  0.00000000000E+00 0. -1.
          1    1    1    2  502    0 -0.32714858267E+01  0.48545031492E+02  0.62138683186E+03  0.62328879142E+03  0.00000000000E+00 0.  1.
         -1    1    1    2    0  501  0.32714858267E+01 -0.48545031492E+02  0.31196747167E+03  0.31573885742E+03  0.00000000000E+00 0. -1.
</event>
<event>
 4    1  0.7060698E+001  0.2049752E+02  0.7546771E-02  0.1526561E+00
          2   -1    0    0  502    0  0.00000000000E+00  0.00000000000E+00  0.11601007626E+04  0.11601007626E+04  0.00000000000E+00 0. -1.
         -2   -1    0    0    0  501 -0.00000000000E+00 -0.00000000000E+00 -0.47720594633E+00  0.47720594633E+00  0.00000000000E+00 0.  1.
          1    1    1    2  502    0 -0.70021309244E+00 -0.20485560845E+02  0.29489591173E+03  0.29560742084E+03  0.00000000000E+00 0.  1.
         -1    1    1    2    0  501  0.70021309244E+00  0.20485560845E+02  0.86472764496E+03  0.86497054774E+03  0.00000000000E+00 0. -1.
</event>
<event>
 4    1  0.7060698E+001  0.2216642E+02  0.7546771E-02  0.1503239E+00
          2   -1    0    0  502    0  0.00000000000E+00  0.00000000000E+00  0.57926936586E+03  0.57926936586E+03  0.00000000000E+00 0. -1.
         -2   -1    0    0    0  501 -0.00000000000E+00 -0.00000000000E+00 -0.99178201059E+00  0.99178201059E+00  0.00000000000E+00 0.  1.
          1    1    1    2  502    0 -0.13532626528E+02  0.17556142506E+02  0.17875653964E+03  0.18012565221E+03  0.00000000000E+00 0.  1.
         -1    1    1    2    0  501  0.13532626528E+02 -0.17556142506E+02  0.39952104422E+03  0.40013549567E+03  0.00000000000E+00 0. -1.
</event>
<event>
 4    1  0.7060698E+001  0.4363597E+02  0.7546771E-02  0.1328402E+00
          2   -1    0    0  502    0  0.00000000000E+00  0.00000000000E+00  0.15243898661E+02  0.15243898661E+02  0.00000000000E+00 0. -1.
         -2   -1    0    0    0  501 -0.00000000000E+00 -0.00000000000E+00 -0.49585334741E+03  0.49585334741E+03  0.00000000000E+00 0.  1.
          1    1    1    2  502    0 -0.40304172412E+02 -0.16723377247E+02 -0.19274637493E+02  0.47703346957E+02  0.00000000000E+00 0. -1.
         -1    1    1    2    0  501  0.40304172412E+02  0.16723377247E+02 -0.46133481126E+03  0.46339389912E+03  0.00000000000E+00 0.  1.
</event>
<event>
 4    1  0.7060698E+001  0.4045389E+02  0.7546771E-02  0.1345846E+00
          2   -1    0    0  502    0  0.00000000000E+00  0.00000000000E+00  0.36037553623E+01  0.36037553623E+01  0.00000000000E+00 0. -1.
         -2   -1    0    0    0  501 -0.00000000000E+00 -0.00000000000E+00 -0.45725924954E+03  0.45725924954E+03  0.00000000000E+00 0.  1.
          1    1    1    2  502    0  0.13971041812E+02 -0.37964818277E+02 -0.24593754492E+03  0.24924243908E+03  0.00000000000E+00 0. -1.
         -1    1    1    2    0  501 -0.13971041812E+02  0.37964818277E+02 -0.20771794926E+03  0.21162056582E+03  0.00000000000E+00 0.  1.
</event>
<event>
 4    1  0.7060698E+001  0.3063056E+02  0.7546771E-02  0.1414194E+00
          2   -1    0    0  502    0  0.00000000000E+00  0.00000000000E+00  0.71927880503E+01  0.71927880503E+01  0.00000000000E+00 0. -1.
         -2   -1    0    0    0  501 -0.00000000000E+00 -0.00000000000E+00 -0.13071878778E+03  0.13071878778E+03  0.00000000000E+00 0.  1.
          1    1    1    2  502    0 -0.21893342100E+02  0.21422253344E+02 -0.58581771305E+02  0.66106393759E+02  0.00000000000E+00 0.  1.
         -1    1    1    2    0  501  0.21893342100E+02 -0.21422253344E+02 -0.64944228428E+02  0.71805182075E+02  0.00000000000E+00 0. -1.
</event>
<event>
 4    1  0.7060698E+001  0.2362550E+02  0.7546771E-02  0.1484790E+00
          2   -1    0    0  502    0  0.00000000000E+00  0.00000000000E+00  0.48468640213E+02  0.48468640213E+02  0.00000000000E+00 0.  1.
         -2   -1    0    0    0  501 -0.00000000000E+00 -0.00000000000E+00 -0.11520784104E+02  0.11520784104E+02  0.00000000000E+00 0. -1.
          1    1    1    2  502    0 -0.87419372913E+01  0.21948636287E+02  0.19086155627E+02  0.30371786893E+02  0.00000000000E+00 0. -1.
         -1    1    1    2    0  501  0.87419372913E+01 -0.21948636287E+02  0.17861700483E+02  0.29617637424E+02  0.00000000000E+00 0.  1.
</event>
<event>
 4    1  0.7060698E+001  0.2419530E+02  0.7546771E-02  0.1478010E+00
          2   -1    0    0  502    0  0.00000000000E+00  0.00000000000E+00  0.17300866120E+04  0.17300866120E+04  0.00000000000E+00 0.  1.
         -2   -1    0    0    0  501 -0.00000000000E+00 -0.00000000000E+00 -0.57689454941E+00  0.57689454941E+00  0.00000000000E+00 0. -1.
          1    1    1    2  502    0 -0.18267052049E+02  0.15865920965E+02  0.30833930174E+03  0.30928714431E+03  0.00000000000E+00 0. -1.
         -1    1    1    2    0  501  0.18267052049E+02 -0.15865920965E+02  0.14211704157E+04  0.14213763622E+04  0.00000000000E+00 0.  1.
</event>
<event>
 4    1  0.7060698E+001  0.2171536E+02  0.7546771E-02  0.1509292E+00
          2   -1    0    0  502    0  0.00000000000E+00  0.00000000000E+00  0.24829051019E+02  0.24829051019E+02  0.00000000000E+00 0.  1.
         -2   -1    0    0    0  501 -0.00000000000E+00 -0.00000000000E+00 -0.19000890491E+02  0.19000890491E+02  0.00000000000E+00 0. -1.
          1    1    1    2  502    0  0.15444868997E+02 -0.15264755506E+02  0.33844551636E+01  0.21977517506E+02  0.00000000000E+00 0.  1.
         -1    1    1    2    0  501 -0.15444868997E+02  0.15264755506E+02  0.24437053642E+01  0.21852424005E+02  0.00000000000E+00 0. -1.
</event>
<event>
 4    1  0.7060698E+001  0.3249805E+02  0.7546771E-02  0.1399061E+00
          2   -1    0    0  502    0  0.00000000000E+00  0.00000000000E+00  0.55073926278E+01  0.55073926278E+01  0.00000000000E+00 0. -1.
         -2   -1    0    0    0  501 -0.00000000000E+00 -0.00000000000E+00 -0.19721363139E+03  0.19721363139E+03  0.00000000000E+00 0.  1.
          1    1    1    2  502    0 -0.30808985716E+02  0.10340680640E+02 -0.11270147725E+03  0.11729341948E+03  0.00000000000E+00 0.  1.
         -1    1    1    2    0  501  0.30808985716E+02 -0.10340680640E+02 -0.79004761513E+02  0.85427604547E+02  0.00000000000E+00 0. -1.
</event>
<event>
 4    1  0.7060698E+001  0.2642823E+02  0.7546771E-02  0.1453438E+00
          2   -1    0    0  502    0  0.00000000000E+00  0.00000000000E+00  0.11768601595E+01  0.11768601595E+01  0.00000000000E+00 0.  1.
         -2   -1    0    0    0  501 -0.00000000000E+00 -0.00000000000E+00 -0.59415906806E+03  0.59415906806E+03  0.00000000000E+00 0. -1.
          1    1    1    2  502    0  0.14140716982E+02  0.22326927098E+02 -0.28648205901E+03  0.28769849093E+03  0.00000000000E+00 0. -1.
         -1    1    1    2    0  501 -0.14140716982E+02 -0.22326927098E+02 -0.30650014889E+03  0.30763743729E+03  0.00000000000E+00 0.  1.
</event>
<event>
 4    1  0.7060698E+001  0.4671075E+02  0.7546771E-02  0.1313100E+00
          2   -1    0    0  502    0  0.00000000000E+00  0.00000000000E+00  0.14130101606E+03  0.14130101606E+03  0.00000000000E+00 0. -1.
         -2   -1    0    0    0  501 -0.00000000000E+00 -0.00000000000E+00 -0.15452811390E+02  0.15452811390E+02  0.00000000000E+00 0.  1.
          1    1    1    2  502    0  0.16858315398E+01  0.46680319774E+02  0.60800031349E+02  0.76671625092E+02  0.00000000000E+00 0. -1.
         -1    1    1    2    0  501 -0.16858315398E+01 -0.46680319774E+02  0.65048173323E+02  0.80082202360E+02  0.00000000000E+00 0.  1.
</event>
<event>
 4    1  0.7060698E+001  0.2228674E+02  0.7546771E-02  0.1501654E+00
          2   -1    0    0  502    0  0.00000000000E+00  0.00000000000E+00  0.87773230274E+00  0.87773230274E+00  0.00000000000E+00 0.  1.
         -2   -1    0    0    0  501 -0.00000000000E+00 -0.00000000000E+00 -0.62802338575E+03  0.62802338575E+03  0.00000000000E+00 0. -1.
          1    1    1    2  502    0 -0.20022435255E+02  0.97877964697E+01 -0.21466487876E+03  0.21581869485E+03  0.00000000000E+00 0.  1.
         -1    1    1    2    0  501  0.20022435255E+02 -0.97877964697E+01 -0.41248077469E+03  0.41308242320E+03  0.00000000000E+00 0. -1.
</event>
<event>
 4    1  0.7060698E+001  0.2351263E+02  0.7546771E-02  0.1486159E+00
          2   -1    0    0  502    0  0.00000000000E+00  0.00000000000E+00  0.98352261713E+03  0.98352261713E+03  0.00000000000E+00 0.  1.
         -2   -1    0    0    0  501 -0.00000000000E+00 -0.00000000000E+00 -0.58977799297E+00  0.58977799297E+00  0.00000000000E+00 0. -1.
          1    1    1    2  502    0  0.21186209136E+02 -0.10197474046E+02  0.38488269779E+03  0.38560022691E+03  0.00000000000E+00 0.  1.
         -1    1    1    2    0  501 -0.21186209136E+02  0.10197474046E+02  0.59805014134E+03  0.59851216821E+03  0.00000000000E+00 0. -1.
</event>
<event>
 4    1  0.7060698E+001  0.2403307E+02  0.7546771E-02  0.1479918E+00
          2   -1    0    0  502    0  0.00000000000E+00  0.00000000000E+00  0.20715654551E+03  0.20715654551E+03  0.00000000000E+00 0. -1.
         -2   -1    0    0    0  501 -0.00000000000E+00 -0.00000000000E+00 -0.42592203518E+01  0.42592203518E+01  0.00000000000E+00 0.  1.
          1    1    1    2  502    0  0.21384458412E+02 -0.10967844773E+02  0.16357208401E+03  0.16532820494E+03  0.00000000000E+00 0. -1.
         -1    1    1    2    0  501 -0.21384458412E+02  0.10967844773E+02  0.39325241145E+02  0.46087560921E+02  0.00000000000E+00 0.  1.
</event>
<event>
 4    1  0.7060698E+001  0.2185219E+02  0.7546771E-02  0.1507437E+00
          2   -1    0    0  502    0  0.00000000000E+00  0.00000000000E+00  0.11307230794E+03  0.11307230794E+03  0.00000000000E+00 0.  1.
         -2   -1    0    0    0  501 -0.00000000000E+00 -0.00000000000E+00 -0.49404371289E+01  0.49404371289E+01  0.00000000000E+00 0. -1.
          1    1    1    2  502    0 -0.21559268319E+02 -0.35659654048E+01  0.31582058389E+02  0.38405007119E+02  0.00000000000E+00 0. -1.
         -1    1    1    2    0  501  0.21559268319E+02  0.35659654048E+01  0.76549812419E+02  0.79607737948E+02  0.00000000000E+00 0.  1.
</event>
<event>
 4    1  0.7060698E+001  0.2864231E+02  0.7546771E-02  0.1431773E+00
          2   -1    0    0  502    0  0.00000000000E+00  0.00000000000E+00  0.38341653470E+03  0.38341653470E+03  0.00000000000E+00 0. -1.
         -2   -1    0    0    0  501 -0.00000000000E+00 -0.00000000000E+00 -0.35410747530E+01  0.35410747530E+01  0.00000000000E+00 0.  1.
          1    1    1    2  502    0  0.28627629084E+02  0.91703876334E+00  0.31165403294E+03  0.31296743977E+03  0.00000000000E+00 0. -1.
         -1    1    1    2    0  501 -0.28627629084E+02 -0.91703876334E+00  0.68221427001E+02  0.73990169679E+02  0.00000000000E+00 0.  1.
</event>
<event>
 4    1  0.7060698E+001  0.2171667E+02  0.7546771E-02  0.1509274E+00
          2   -1    0    0  502    0  0.00000000000E+00  0.00000000000E+00  0.46059554205E+03  0.46059554205E+03  0.00000000000E+00 0. -1.
         -2   -1    0    0    0  501 -0.00000000000E+00 -0.00000000000E+00 -0.11409998792E+01  0.11409998792E+01  0.00000000000E+00 0.  1.
          1    1    1    2  502    0  0.13696541929E+02 -0.16852845670E+02  0.30368096022E+03  0.30445646531E+03  0.00000000000E+00 0. -1.
         -1    1    1    2    0  501 -0.13696541929E+02  0.16852845670E+02  0.15577358195E+03  0.15728007662E+03  0.00000000000E+00 0.  1.
</event>
<event>
 4    1  0.7060698E+001  0.2018775E+02  0.7546771E-02  0.1531185E+00
          2   -1    0    0  502    0  0.00000000000E+00  0.00000000000E+00  0.28518210720E+01  0.28518210720E+01  0.00000000000E+00 0. -1.
         -2   -1    0    0    0  501 -0.00000000000E+00 -0.00000000000E+00 -0.17276789516E+03  0.17276789516E+03  0.00000000000E+00 0.  1.
          1    1    1    2  502    0  0.10572772559E+02 -0.17197728076E+02 -0.48452166002E+02  0.52489596691E+02  0.00000000000E+00 0. -1.
         -1    1    1    2    0  501 -0.10572772559E+02  0.17197728076E+02 -0.12146390809E+03  0.12313011954E+03  0.00000000000E+00 0.  1.
</event>
<event>
 4    1  0.7060698E+001  0.2367600E+02  0.7546771E-02  0.1484180E+00
          2   -1    0    0  502    0  0.00000000000E+00  0.00000000000E+00  0.64367297419E+03  0.64367297419E+03  0.00000000000E+00 0. -1.
         -2   -1    0    0    0  501 -0.00000000000E+00 -0.00000000000E+00 -0.11571420622E+01  0.11571420622E+01  0.00000000000E+00 0.  1.
          1    1    1    2  502    0  0.91407071636E+01  0.21840342362E+02  0.16089118021E+03  0.16262387571E+03  0.00000000000E+00 0.  1.
         -1    1    1    2    0  501 -0.91407071636E+01 -0.21840342362E+02  0.48162465191E+03  0.48220624053E+03  0.00000000000E+00 0. -1.
</event>
<event>
 4    1  0.7060698E+001  0.4563889E+02  0.7546771E-02  0.1318275E+00
          2   -1    0    0  502    0  0.00000000000E+00  0.00000000000E+00  0.77201210629E+03  0.77201210629E+03  0.00000000000E+00 0. -1.
         -2   -1    0    0    0  501 -0.00000000000E+00 -0.00000000000E+00 -0.35885366974E+01  0.35885366974E+01  0.00000000000E+00 0.  1.
          1    1    1    2  502    0  0.31262233510E+02  0.33250283801E+02  0.57739486066E+03  0.57919576461E+03  0.00000000000E+00 0.  1.
         -1    1    1    2    0  501 -0.31262233510E+02 -0.33250283801E+02  0.19102870893E+03  0.19640487838E+03  0.00000000000E+00 0. -1.
</event>
<event>
 4    1  0.7060698E+001  0.2098032E+02  0.7546771E-02  0.1519546E+00
          2   -1    0    0  502    0  0.00000000000E+00  0.00000000000E+00  0.29103773212E+03  0.29103773212E+03  0.00000000000E+00 0. -1.
         -2   -1    0    0    0  501 -0.00000000000E+00 -0.00000000000E+00 -0.17152744521E+01  0.17152744521E+01  0.00000000000E+00 0.  1.
          1    1    1    2  502    0 -0.20268388277E+02 -0.54190534102E+01  0.19499830000E+03  0.19612371276E+03  0.00000000000E+00 0. -1.
         -1    1    1    2    0  501  0.20268388277E+02  0.54190534102E+01  0.94324157672E+02  0.96629293818E+02  0.00000000000E+00 0.  1.
</event>
<event>
 4    1  0.7060698E+001  0.3075292E+02  0.7546771E-02  0.1413164E+00
          2   -1    0    0  502    0  0.00000000000E+00  0.00000000000E+00  0.58093950458E+03  0.58093950458E+03  0.00000000000E+00 0.  1.
         -2   -1    0    0    0  501 -0.00000000000E+00 -0.00000000000E+00 -0.33154037891E+01  0.33154037891E+01  0.00000000000E+00 0. -1.
          1    1    1    2  502    0 -0.94728680349E+01 -0.29257596039E+02  0.80401486097E+02  0.86082176561E+02  0.00000000000E+00 0. -1.
         -1    1    1    2    0  501  0.94728680349E+01  0.29257596039E+02  0.49722261470E+03  0.49817273181E+03  0.00000000000E+00 0.  1.
</event>
<event>
 4    1  0.7060698E+001  0.2301469E+02  0.7546771E-02  0.1492314E+00
          2   -1    0    0  502    0  0.00000000000E+00  0.00000000000E+00  0.23973050968E+02  0.23973050968E+02  0.00000000000E+00 0. -1.
         -2   -1    0    0    0  501 -0.00000000000E+00 -0.00000000000E+00 -0.29116190593E+02  0.29116190593E+02  0.00000000000E+00 0.  1.
          1    1    1    2  502    0 -0.22866890647E+02  0.26041131071E+01  0.10463865962E+02  0.25281783636E+02  0.00000000000E+00 0. -1.
         -1    1    1    2    0  501  0.22866890647E+02 -0.26041131071E+01 -0.15607005587E+02  0.27807457926E+02  0.00000000000E+00 0.  1.
</event>
<event>
 4    1  0.7060698E+001  0.2725995E+02  0.7546771E-02  0.1445014E+00
          2   -1    0    0  502    0  0.00000000000E+00  0.00000000000E+00  0.64674117386E+03  0.64674117386E+03  0.00000000000E+00 0.  1.
         -2   -1    0    0    0  501 -0.00000000000E+00 -0.00000000000E+00 -0.14196687292E+01  0.14196687292E+01  0.00000000000E+00 0. -1.
          1    1    1    2  502    0 -0.13622111902E+02  0.23612349845E+02  0.18115337379E+03  0.18319293063E+03  0.00000000000E+00 0. -1.
         -1    1    1    2    0  501  0.13622111902E+02 -0.23612349845E+02  0.46416813134E+03  0.46496791196E+03  0.00000000000E+00 0.  1.
</event>
<event>
 4    1  0.7060698E+001  0.2434206E+02  0.7546771E-02  0.1476300E+00
          2   -1    0    0  502    0  0.00000000000E+00  0.00000000000E+00  0.35453260679E+01  0.35453260679E+01  0.00000000000E+00 0. -1.
         -2   -1    0    0    0  501 -0.00000000000E+00 -0.00000000000E+00 -0.18488717846E+03  0.18488717846E+03  0.00000000000E+00 0.  1.
          1    1    1    2  502    0  0.23173464062E+02 -0.74515923358E+01 -0.61473735991E+02  0.66117742563E+02  0.00000000000E+00 0.  1.
         -1    1    1    2    0  501 -0.23173464062E+02  0.74515923358E+01 -0.11986811640E+03  0.12231476196E+03  0.00000000000E+00 0. -1.
</event>
<event>
 4    1  0.7060698E+001  0.2365761E+02  0.7546771E-02  0.1484402E+00
          2   -1    0    0  502    0  0.00000000000E+00  0.00000000000E+00  0.14342367330E+04  0.14342367330E+04  0.00000000000E+00 0. -1.
         -2   -1    0    0    0  501 -0.00000000000E+00 -0.00000000000E+00 -0.39482392050E+00  0.39482392050E+00  0.00000000000E+00 0.  1.
          1    1    1    2  502    0  0.23629537423E+02  0.11521067417E+01  0.79429479998E+03  0.79464703590E+03  0.00000000000E+00 0. -1.
         -1    1    1    2    0  501 -0.23629537423E+02 -0.11521067417E+01  0.63954710908E+03  0.63998452101E+03  0.00000000000E+00 0.  1.
</event>
<event>
 4    1  0.7060698E+001  0.3472855E+02  0.7546771E-02  0.1382482E+00
          2   -1    0    0  502    0  0.00000000000E+00  0.00000000000E+00  0.84995341075E+03  0.84995341075E+03  0.00000000000E+00 0.  1.
         -2   -1    0    0    0  501 -0.00000000000E+00 -0.00000000000E+00 -0.15553160953E+01  0.15553160953E+01  0.00000000000E+00 0. -1.
          1    1    1    2  502    0 -0.13737267042E+02  0.31896074286E+02  0.29814827467E+03  0.30016406472E+03  0.00000000000E+00 0. -1.
         -1    1    1    2    0  501  0.13737267042E+02 -0.31896074286E+02  0.55024981998E+03  0.55134466212E+03  0.00000000000E+00 0.  1.
</event>
<event>
 4    1  0.7060698E+001  0.2123051E+02  0.7546771E-02  0.1515999E+00
          2   -1    0    0  502    0  0.00000000000E+00  0.00000000000E+00  0.82629805497E+02  0.82629805497E+02  0.00000000000E+00 0.  1.
         -2   -1    0    0    0  501 -0.00000000000E+00 -0.00000000000E+00 -0.99616397500E+01  0.99616397500E+01  0.00000000000E+00 0. -1.
          1    1    1    2  502    0 -0.18455161767E+02  0.10494825293E+02  0.51948130770E+01  0.21856816710E+02  0.00000000000E+00 0. -1.
         -1    1    1    2    0  501  0.18455161767E+02 -0.10494825293E+02  0.67473352670E+02  0.70734628537E+02  0.00000000000E+00 0.  1.
</event>
<event>
 4    1  0.7060698E+001  0.2602262E+02  0.7546771E-02  0.1457681E+00
          2   -1    0    0  502    0  0.00000000000E+00  0.00000000000E+00  0.29193013833E+02  0.29193013833E+02  0.00000000000E+00 0.  1.
         -2   -1    0    0    0  501 -0.00000000000E+00 -0.00000000000E+00 -0.47561919491E+02  0.47561919491E+02  0.00000000000E+00 0. -1.
          1    1    1    2  502    0  0.25658804892E+02 -0.43361673828E+01  0.18283942995E+02  0.31803760587E+02  0.00000000000E+00 0.  1.
         -1    1    1    2    0  501 -0.25658804892E+02  0.43361673828E+01 -0.36652848653E+02  0.44951172737E+02  0.00000000000E+00 0. -1.
</event>
<event>
 4    1  0.7060698E+001  0.2189344E+02  0.7546771E-02  0.1506881E+00
          2   -1    0    0  502    0  0.00000000000E+00  0.00000000000E+00  0.15570426176E+04  0.15570426176E+04  0.00000000000E+00 0.  1.
         -2   -1    0    0    0  501 -0.00000000000E+00 -0.00000000000E+00 -0.32177025073E+00  0.32177025073E+00  0.00000000000E+00 0. -1.
          1    1    1    2  502    0 -0.93721352571E+01  0.19785996331E+02  0.94037012763E+03  0.94062495156E+03  0.00000000000E+00 0.  1.
         -1    1    1    2    0  501  0.93721352571E+01 -0.19785996331E+02  0.61635071972E+03  0.61673943629E+03  0.00000000000E+00 0. -1.
</event>
<event>
 4    1  0.7060698E+001  0.3035498E+02  0.7546771E-02  0.1416536E+00
          2   -1    0    0  502    0  0.00000000000E+00  0.00000000000E+00  0.50799302987E+03  0.50799302987E+03  0.00000000000E+00 0. -1.
         -2   -1    0    0    0  501 -0.00000000000E+00 -0.00000000000E+00 -0.21036259661E+01  0.21036259661E+01  0.00000000000E+00 0.  1.
          1    1    1    2  502    0 -0.48062320167E+01 -0.29972074061E+02  0.15828469115E+03  0.16116906819E+03  0.00000000000E+00 0.  1.
         -1    1    1    2    0  501  0.48062320167E+01  0.29972074061E+02  0.34760471276E+03  0.34892758765E+03  0.00000000000E+00 0. -1.
</event>
<event>
 4    1  0.7060698E+001  0.2769153E+02  0.7546771E-02  0.1440783E+00
          2   -1    0    0  502    0  0.00000000000E+00  0.00000000000E+00  0.33530266135E+01  0.33530266135E+01  0.00000000000E+00 0.  1.
         -2   -1    0    0    0  501 -0.00000000000E+00 -0.00000000000E+00 -0.26552151589E+03  0.26552151589E+03  0.00000000000E+00 0. -1.
          1    1    1    2  502    0  0.17716931778E+02 -0.21282183371E+02 -0.18115096307E+03  0.18325526575E+03  0.00000000000E+00 0.  1.
         -1    1    1    2    0  501 -0.17716931778E+02  0.21282183371E+02 -0.81017526205E+02  0.85619276761E+02  0.00000000000E+00 0. -1.
</event>
<event>
 4    1  0.7060698E+001  0.2395257E+02  0.7546771E-02  0.1480871E+00
          2   -1    0    0  502    0  0.00000000000E+00  0.00000000000E+00  0.54402399665E+03  0.54402399665E+03  0.00000000000E+00 0.  1.
         -2   -1    0    0    0  501 -0.00000000000E+00 -0.00000000000E+00 -0.13428637373E+01  0.13428637373E+01  0.00000000000E+00 0. -1.
          1    1    1    2  502    0 -0.23952292027E+02  0.11580719615E+00  0.39768047384E+03  0.39840116086E+03  0.00000000000E+00 0.  1.
         -1    1    1    2    0  501  0.23952292027E+02 -0.11580719615E+00  0.14500065908E+03  0.14696569953E+03  0.00000000000E+00 0. -1.
</event>
<event>
 4    1  0.7060698E+001  0.4471016E+02  0.7546771E-02  0.1322895E+00
          2   -1    0    0  502    0  0.00000000000E+00  0.00000000000E+00  0.43163183932E+03  0.43163183932E+03  0.00000000000E+00 0.  1.
         -2   -1    0    0    0  501 -0.00000000000E+00 -0.00000000000E+00 -0.61829417878E+01  0.61829417878E+01  0.00000000000E+00 0. -1.
          1    1    1    2  502    0  0.42436848867E+02  0.14075239300E+02  0.32238853544E+03  0.32547406392E+03  0.00000000000E+00 0.  1.
         -1    1    1    2    0  501 -0.42436848867E+02 -0.14075239300E+02  0.10306036209E+03  0.11234071718E+03  0.00000000000E+00 0. -1.
</event>
<event>
 4    1  0.7060698E+001  0.2334090E+02  0.7546771E-02  0.1488261E+00
          2   -1    0    0  502    0  0.00000000000E+00  0.00000000000E+00  0.11029281421E+03  0.11029281421E+03  0.00000000000E+00 0.  1.
         -2   -1    0    0    0  501 -0.00000000000E+00 -0.00000000000E+00 -0.79446157507E+01  0.79446157507E+01  0.00000000000E+00 0. -1.
          1    1    1    2  502    0  0.23306761985E+02  0.12619094211E+01  0.87533361966E+02  0.90591870644E+02  0.00000000000E+00 0.  1.
         -1    1    1    2    0  501 -0.23306761985E+02 -0.12619094211E+01  0.14814836493E+02  0.27645559316E+02  0.00000000000E+00 0. -1.
</event>
<event>
 4    1  0.7060698E+001  0.2298663E+02  0.7546771E-02  0.1492666E+00
          2   -1    0    0  502    0  0.00000000000E+00  0.00000000000E+00  0.42335573284E+02  0.42335573284E+02  0.00000000000E+00 0.  1.
         -2   -1    0    0    0  501 -0.00000000000E+00 -0.00000000000E+00 -0.15098289731E+02  0.15098289731E+02  0.00000000000E+00 0. -1.
          1    1    1    2  502    0 -0.22714903147E+02  0.35239581441E+01  0.16619725558E+01  0.23046632265E+02  0.00000000000E+00 0. -1.
         -1    1    1    2    0  501  0.22714903147E+02 -0.35239581441E+01  0.25575310998E+02  0.34387230749E+02  0.00000000000E+00 0.  1.
</event>
<event>
 4    1  0.7060698E+001  0.2128298E+02  0.7546771E-02  0.1515263E+00
          2   -1    0    0  502    0  0.00000000000E+00  0.00000000000E+00  0.18031942694E+02  0.18031942694E+02  0.00000000000E+00 0.  1.
         -2   -1    0    0    0  501 -0.00000000000E+00 -0.00000000000E+00 -0.27593145648E+02  0.27593145648E+02  0.00000000000E+00 0. -1.
          1    1    1    2  502    0  0.81933873951E+01 -0.19642650220E+02  0.20488185067E+01  0.21381369506E+02  0.00000000000E+00 0.  1.
         -1    1    1    2    0  501 -0.81933873951E+01  0.19642650220E+02 -0.11610021461E+02  0.24243718836E+02  0.00000000000E+00 0. -1.
</event>
<event>
 4    1  0.7060698E+001  0.2058379E+02  0.7546771E-02  0.1525291E+00
          2   -1    0    0  502    0  0.00000000000E+00  0.00000000000E+00  0.30493682623E+03  0.30493682623E+03  0.00000000000E+00 0.  1.
         -2   -1    0    0    0  501 -0.00000000000E+00 -0.00000000000E+00 -0.94453130318E+01  0.94453130318E+01  0.00000000000E+00 0. -1.
          1    1    1    2  502    0 -0.57829269054E+01 -0.19754749719E+02  0.25760787149E+01  0.20744362165E+02  0.00000000000E+00 0. -1.
         -1    1    1    2    0  501  0.57829269054E+01  0.19754749719E+02  0.29291543448E+03  0.29363777710E+03  0.00000000000E+00 0.  1.
</event>
<event>
 4    1  0.7060698E+001  0.2254138E+02  0.7546771E-02  0.1498339E+00
          2   -1    0    0  502    0  0.00000000000E+00  0.00000000000E+00  0.63800538301E+03  0.63800538301E+03  0.00000000000E+00 0.  1.
         -2   -1    0    0    0  501 -0.00000000000E+00 -0.00000000000E+00 -0.87765196032E+00  0.87765196032E+00  0.00000000000E+00 0. -1.
          1    1    1    2  502    0 -0.15511888427E+02 -0.16355277331E+02  0.41575368202E+03  0.41636430910E+03  0.00000000000E+00 0. -1.
         -1    1    1    2    0  501  0.15511888427E+02  0.16355277331E+02  0.22137404903E+03  0.22251872587E+03  0.00000000000E+00 0.  1.
</event>
<event>
 4    1  0.7060698E+001  0.2127317E+02  0.7546771E-02  0.1515400E+00
          2   -1    0    0  502    0  0.00000000000E+00  0.00000000000E+00  0.41972728708E+02  0.41972728708E+02  0.00000000000E+00 0. -1.
         -2   -1    0    0    0  501 -0.00000000000E+00 -0.00000000000E+00 -0.13204304650E+02  0.13204304650E+02  0.00000000000E+00 0.  1.
          1    1    1    2  502    0  0.13526580911E+02  0.16418871123E+02  0.25676877867E+01  0.21427569640E+02  0.00000000000E+00 0.  1.
         -1    1    1    2    0  501 -0.13526580911E+02 -0.16418871123E+02  0.26200736270E+02  0.33749463718E+02  0.00000000000E+00 0. -1.
</event>
<event>
 4    1  0.7060698E+001  0.2231611E+02  0.7546771E-02  0.1501269E+00
          2   -1    0    0  502    0  0.00000000000E+00  0.00000000000E+00  0.37191885700E+02  0.37191885700E+02  0.00000000000E+00 0. -1.
         -2   -1    0    0    0  501 -0.00000000000E+00 -0.00000000000E+00 -0.13770237350E+02  0.13770237350E+02  0.00000000000E+00 0.  1.
          1    1    1    2  502    0 -0.80971695433E+01 -0.20795304371E+02  0.74780174520E+01  0.23535708689E+02  0.00000000000E+00 0.  1.
         -1    1    1    2    0  501  0.80971695433E+01  0.20795304371E+02  0.15943630898E+02  0.27426414361E+02  0.00000000000E+00 0. -1.
</event>
<event>
 4    1  0.7060698E+001  0.3971009E+02  0.7546771E-02  0.1350193E+00
          2   -1    0    0  502    0  0.00000000000E+00  0.00000000000E+00  0.53487975848E+03  0.53487975848E+03  0.00000000000E+00 0. -1.
         -2   -1    0    0    0  501 -0.00000000000E+00 -0.00000000000E+00 -0.36269474541E+01  0.36269474541E+01  0.00000000000E+00 0.  1.
          1    1    1    2  502    0 -0.38824989775E+02 -0.83373617119E+01  0.14914163184E+03  0.15433767453E+03  0.00000000000E+00 0.  1.
         -1    1    1    2    0  501  0.38824989775E+02  0.83373617119E+01  0.38211117919E+03  0.38416903141E+03  0.00000000000E+00 0. -1.
</event>
<event>
 4    1  0.7060698E+001  0.2153679E+02  0.7546771E-02  0.1511737E+00
          2   -1    0    0  502    0  0.00000000000E+00  0.00000000000E+00  0.37797844962E+02  0.37797844962E+02  0.00000000000E+00 0. -1.
         -2   -1    0    0    0  501 -0.00000000000E+00 -0.00000000000E+00 -0.12881226667E+02  0.12881226667E+02  0.00000000000E+00 0.  1.
          1    1    1    2  502    0  0.58752879590E+01  0.20719899189E+02  0.17971666268E+02  0.28050205337E+02  0.00000000000E+00 0. -1.
         -1    1    1    2    0  501 -0.58752879590E+01 -0.20719899189E+02  0.69449520279E+01  0.22628866292E+02  0.00000000000E+00 0.  1.
</event>
<event>
 4    1  0.7060698E+001  0.2726298E+02  0.7546771E-02  0.1444984E+00
          2   -1    0    0  502    0  0.00000000000E+00  0.00000000000E+00  0.20598342331E+02  0.20598342331E+02  0.00000000000E+00 0.  1.
         -2   -1    0    0    0  501 -0.00000000000E+00 -0.00000000000E+00 -0.36085543179E+02  0.36085543179E+02  0.00000000000E+00 0. -1.
          1    1    1    2  502    0 -0.25234217466E+02  0.10320101633E+02 -0.79299757550E+01  0.28392864320E+02  0.00000000000E+00 0. -1.
         -1    1    1    2    0  501  0.25234217466E+02 -0.10320101633E+02 -0.75572250926E+01  0.28291021189E+02  0.00000000000E+00 0.  1.
</event>
<event>
 4    1  0.7060698E+001  0.3294662E+02  0.7546771E-02  0.1395604E+00
          2   -1    0    0  502    0  0.00000000000E+00  0.00000000000E+00  0.12765375731E+04  0.12765375731E+04  0.00000000000E+00 0.  1.
         -2   -1    0    0    0  501 -0.00000000000E+00 -0.00000000000E+00 -0.85859048860E+00  0.85859048860E+00  0.00000000000E+00 0. -1.
          1    1    1    2  502    0  0.16391726268E+02 -0.28579556892E+02  0.57519640326E+03  0.57613920374E+03  0.00000000000E+00 0. -1.
         -1    1    1    2    0  501 -0.16391726268E+02  0.28579556892E+02  0.70048257933E+03  0.70125695982E+03  0.00000000000E+00 0.  1.
</event>
<event>
 4    1  0.7060698E+001  0.2565942E+02  0.7546771E-02  0.1461560E+00
          2   -1    0    0  502    0  0.00000000000E+00  0.00000000000E+00  0.30113849285E+01  0.30113849285E+01  0.00000000000E+00 0.  1.
         -2   -1    0    0    0  501 -0.00000000000E+00 -0.00000000000E+00 -0.21888046603E+03  0.21888046603E+03  0.00000000000E+00 0. -1.
          1    1    1    2  502    0 -0.14496065083E+01 -0.25618440942E+02 -0.11162032248E+03  0.11453166491E+03  0.00000000000E+00 0. -1.
         -1    1    1    2    0  501  0.14496065083E+01  0.25618440942E+02 -0.10424875862E+03  0.10736018605E+03  0.00000000000E+00 0.  1.
</event>
<event>
 4    1  0.7060698E+001  0.4443463E+02  0.7546771E-02  0.1324291E+00
          2   -1    0    0  502    0  0.00000000000E+00  0.00000000000E+00  0.21778609702E+03  0.21778609702E+03  0.00000000000E+00 0.  1.
         -2   -1    0    0    0  501 -0.00000000000E+00 -0.00000000000E+00 -0.92990839451E+01  0.92990839451E+01  0.00000000000E+00 0. -1.
          1    1    1    2  502    0  0.44316656999E+02  0.32358157379E+01  0.86265276846E+02  0.97036769218E+02  0.00000000000E+00 0.  1.
         -1    1    1    2    0  501 -0.44316656999E+02 -0.32358157379E+01  0.12222173623E+03  0.13004841175E+03  0.00000000000E+00 0. -1.
</event>
<event>
 4    1  0.7060698E+001  0.5748732E+02  0.7546771E-02  0.1268617E+00
          2   -1    0    0  502    0  0.00000000000E+00  0.00000000000E+00  0.24430026279E+02  0.24430026279E+02  0.00000000000E+00 0.  1.
         -2   -1    0    0    0  501 -0.00000000000E+00 -0.00000000000E+00 -0.27997252110E+03  0.27997252110E+03  0.00000000000E+00 0. -1.
          1    1    1    2  502    0 -0.17611796166E+02 -0.54723090061E+02 -0.23718952923E+03  0.24405668343E+03  0.00000000000E+00 0. -1.
         -1    1    1    2    0  501  0.17611796166E+02  0.54723090061E+02 -0.18352965592E+02  0.60345863952E+02  0.00000000000E+00 0.  1.
</event>
<event>
 4    1  0.7060698E+001  0.2736475E+02  0.7546771E-02  0.1443978E+00
          2   -1    0    0  502    0  0.00000000000E+00  0.00000000000E+00  0.10350724629E+04  0.10350724629E+04  0.00000000000E+00 0.  1.
         -2   -1    0    0    0  501 -0.00000000000E+00 -0.00000000000E+00 -0.73542234251E+00  0.73542234251E+00  0.00000000000E+00 0. -1.
          1    1    1    2  502    0 -0.26728532188E+02 -0.58664315595E+01  0.45110521144E+03  0.45193444352E+03  0.00000000000E+00 0. -1.
         -1    1    1    2    0  501  0.26728532188E+02  0.58664315595E+01  0.58323182910E+03  0.58387344170E+03  0.00000000000E+00 0.  1.
</event>
<event>
 4    1  0.7060698E+001  0.4028449E+02  0.7546771E-02  0.1346827E+00
          2   -1    0    0  502    0  0.00000000000E+00  0.00000000000E+00  0.96641847585E+03  0.96641847585E+03  0.00000000000E+00 0. -1.
         -2   -1    0    0    0  501 -0.00000000000E+00 -0.00000000000E+00 -0.25397928562E+01  0.25397928562E+01  0.00000000000E+00 0.  1.
          1    1    1    2  502    0  0.35368833025E+02 -0.19284347817E+02  0.19992783426E+03  0.20394602063E+03  0.00000000000E+00 0. -1.
         -1    1    1    2    0  501 -0.35368833025E+02  0.19284347817E+02  0.76395084874E+03  0.76501224808E+03  0.00000000000E+00 0.  1.
</event>
<event>
 4    1  0.7060698E+001  0.2904315E+02  0.7546771E-02  0.1428098E+00
          2   -1    0    0  502    0  0.00000000000E+00  0.00000000000E+00  0.26515823088E+03  0.26515823088E+03  0.00000000000E+00 0. -1.
         -2   -1    0    0    0  501 -0.00000000000E+00 -0.00000000000E+00 -0.57299916336E+01  0.57299916336E+01  0.00000000000E+00 0.  1.
          1    1    1    2  502    0 -0.32710982738E+01  0.28858349454E+02  0.22004905649E+03  0.22195740961E+03  0.00000000000E+00 0. -1.
         -1    1    1    2    0  501  0.32710982738E+01 -0.28858349454E+02  0.39379182754E+02  0.48930812904E+02  0.00000000000E+00 0.  1.
</event>
<event>
 4    1  0.7060698E+001  0.2504245E+02  0.7546771E-02  0.1468329E+00
          2   -1    0    0  502    0  0.00000000000E+00  0.00000000000E+00  0.30406959917E+01  0.30406959917E+01  0.00000000000E+00 0. -1.
         -2   -1    0    0    0  501 -0.00000000000E+00 -0.00000000000E+00 -0.24923885152E+03  0.24923885152E+03  0.00000000000E+00 0.  1.
          1    1    1    2  502    0 -0.13861231071E+02  0.20856427574E+02 -0.17548976254E+03  0.17726754089E+03  0.00000000000E+00 0.  1.
         -1    1    1    2    0  501  0.13861231071E+02 -0.20856427574E+02 -0.70708392989E+02  0.75012006620E+02  0.00000000000E+00 0. -1.
</event>
<event>
 4    1  0.7060698E+001  0.2029148E+02  0.7546771E-02  0.1529626E+00
          2   -1    0    0  502    0  0.00000000000E+00  0.00000000000E+00  0.10198635486E+03  0.10198635486E+03  0.00000000000E+00 0.  1.
         -2   -1    0    0    0  501 -0.00000000000E+00 -0.00000000000E+00 -0.57069122401E+01  0.57069122401E+01  0.00000000000E+00 0. -1.
          1    1    1    2  502    0 -0.75215373294E+01  0.18845972040E+02  0.77265165650E+02  0.79885230229E+02  0.00000000000E+00 0.  1.
         -1    1    1    2    0  501  0.75215373294E+01 -0.18845972040E+02  0.19014276972E+02  0.27808036872E+02  0.00000000000E+00 0. -1.
</event>
<event>
 4    1  0.7060698E+001  0.2355302E+02  0.7546771E-02  0.1485668E+00
          2   -1    0    0  502    0  0.00000000000E+00  0.00000000000E+00  0.19516734591E+03  0.19516734591E+03  0.00000000000E+00 0. -1.
         -2   -1    0    0    0  501 -0.00000000000E+00 -0.00000000000E+00 -0.29149605663E+01  0.29149605663E+01  0.00000000000E+00 0.  1.
          1    1    1    2  502    0 -0.14649512979E+02 -0.18442794639E+02  0.11175157506E+03  0.11420665232E+03  0.00000000000E+00 0.  1.
         -1    1    1    2    0  501  0.14649512979E+02  0.18442794639E+02  0.80500810277E+02  0.83875654155E+02  0.00000000000E+00 0. -1.
</event>
<event>
 4    1  0.7060698E+001  0.2090423E+02  0.7546771E-02  0.1520637E+00
          2   -1    0    0  502    0  0.00000000000E+00  0.00000000000E+00  0.19885881237E+02  0.19885881237E+02  0.00000000000E+00 0. -1.
         -2   -1    0    0    0  501 -0.00000000000E+00 -0.00000000000E+00 -0.27161098275E+02  0.27161098275E+02  0.00000000000E+00 0.  1.
          1    1    1    2  502    0 -0.14627261254E+02  0.14934190928E+02 -0.13916821121E+02  0.25113039254E+02  0.00000000000E+00 0.  1.
         -1    1    1    2    0  501  0.14627261254E+02 -0.14934190928E+02  0.66416040837E+01  0.21933940258E+02  0.00000000000E+00 0. -1.
</event>
<event>
 4    1  0.7060698E+001  0.2289016E+02  0.7546771E-02  0.1493882E+00
          2   -1    0    0  502    0  0.00000000000E+00  0.00000000000E+00  0.60150250114E+03  0.60150250114E+03  0.00000000000E+00 0. -1.
         -2   -1    0    0    0  501 -0.00000000000E+00 -0.00000000000E+00 -0.87313097571E+00  0.87313097571E+00  0.00000000000E+00 0.  1.
          1    1    1    2  502    0  0.22887940019E+02  0.31858808111E+00  0.28573198894E+03  0.28664739455E+03  0.00000000000E+00 0.  1.
         -1    1    1    2    0  501 -0.22887940019E+02 -0.31858808111E+00  0.31489738122E+03  0.31572823756E+03  0.00000000000E+00 0. -1.
</event>
<event>
 4    1  0.7060698E+001  0.3069467E+02  0.7546771E-02  0.1413654E+00
          2   -1    0    0  502    0  0.00000000000E+00  0.00000000000E+00  0.76045103055E+02  0.76045103055E+02  0.00000000000E+00 0. -1.
         -2   -1    0    0    0  501 -0.00000000000E+00 -0.00000000000E+00 -0.13376714182E+02  0.13376714182E+02  0.00000000000E+00 0.  1.
          1    1    1    2  502    0  0.29610469588E+02  0.80859799029E+01  0.19188057562E+02  0.36198681374E+02  0.00000000000E+00 0.  1.
         -1    1    1    2    0  501 -0.29610469588E+02 -0.80859799029E+01  0.43480331311E+02  0.53223135863E+02  0.00000000000E+00 0. -1.
</event>
<event>
 4    1  0.7060698E+001  0.2255836E+02  0.7546771E-02  0.1498120E+00
          2   -1    0    0  502    0  0.00000000000E+00  0.00000000000E+00  0.50584008711E+03  0.50584008711E+03  0.00000000000E+00 0. -1.
         -2   -1    0    0    0  501 -0.00000000000E+00 -0.00000000000E+00 -0.10164948845E+01  0.10164948845E+01  0.00000000000E+00 0.  1.
          1    1    1    2  502    0 -0.22003308303E+02  0.49733490550E+01  0.22667223945E+03  0.22779197509E+03  0.00000000000E+00 0.  1.
         -1    1    1    2    0  501  0.22003308303E+02 -0.49733490550E+01  0.27815135277E+03  0.27906460690E+03  0.00000000000E+00 0. -1.
</event>
<event>
 4    1  0.7060698E+001  0.2675984E+02  0.7546771E-02  0.1450036E+00
          2   -1    0    0  502    0  0.00000000000E+00  0.00000000000E+00  0.66939447691E+03  0.66939447691E+03  0.00000000000E+00 0. -1.
         -2   -1    0    0    0  501 -0.00000000000E+00 -0.00000000000E+00 -0.12244573976E+01  0.12244573976E+01  0.00000000000E+00 0.  1.
          1    1    1    2  502    0 -0.21236500380E+02  0.16281894251E+02  0.45326971498E+03  0.45405894281E+03  0.00000000000E+00 0. -1.
         -1    1    1    2    0  501  0.21236500380E+02 -0.16281894251E+02  0.21490030453E+03  0.21655999150E+03  0.00000000000E+00 0.  1.
</event>
<event>
 4    1  0.7060698E+001  0.5256039E+02  0.7546771E-02  0.1287437E+00
          2   -1    0    0  502    0  0.00000000000E+00  0.00000000000E+00  0.23033304111E+04  0.23033304111E+04  0.00000000000E+00 0. -1.
         -2   -1    0    0    0  501 -0.00000000000E+00 -0.00000000000E+00 -0.12399467798E+01  0.12399467798E+01  0.00000000000E+00 0.  1.
          1    1    1    2  502    0 -0.27000454093E+02 -0.45095126451E+02  0.94265273688E+03  0.94411692989E+03  0.00000000000E+00 0. -1.
         -1    1    1    2    0  501  0.27000454093E+02  0.45095126451E+02  0.13594377274E+04  0.13604534280E+04  0.00000000000E+00 0.  1.
</event>
<event>
 4    1  0.7060698E+001  0.3342568E+02  0.7546771E-02  0.1391982E+00
          2   -1    0    0  502    0  0.00000000000E+00  0.00000000000E+00  0.24277282126E+04  0.24277282126E+04  0.00000000000E+00 0. -1.
         -2   -1    0    0    0  501 -0.00000000000E+00 -0.00000000000E+00 -0.52053167527E+00  0.52053167527E+00  0.00000000000E+00 0.  1.
          1    1    1    2  502    0 -0.19457420650E+02 -0.27178762051E+02  0.16268979394E+04  0.16272412795E+04  0.00000000000E+00 0. -1.
         -1    1    1    2    0  501  0.19457420650E+02  0.27178762051E+02  0.80030974149E+03  0.80100746479E+03  0.00000000000E+00 0.  1.
</event>
<event>
 4    1  0.7060698E+001  0.2065475E+02  0.7546771E-02  0.1524252E+00
          2   -1    0    0  502    0  0.00000000000E+00  0.00000000000E+00  0.66452497706E+03  0.66452497706E+03  0.00000000000E+00 0.  1.
         -2   -1    0    0    0  501 -0.00000000000E+00 -0.00000000000E+00 -0.64203765381E+00  0.64203765381E+00  0.00000000000E+00 0. -1.
          1    1    1    2  502    0 -0.12654779129E+02 -0.16324074460E+02  0.32909668578E+03  0.32974421516E+03  0.00000000000E+00 0. -1.
         -1    1    1    2    0  501  0.12654779129E+02  0.16324074460E+02  0.33478625362E+03  0.33542279955E+03  0.00000000000E+00 0.  1.
</event>
<event>
 4    1  0.7060698E+001  0.2839673E+02  0.7546771E-02  0.1434061E+00
          2   -1    0    0  502    0  0.00000000000E+00  0.00000000000E+00  0.26595871923E+03  0.26595871923E+03  0.00000000000E+00 0.  1.
         -2   -1    0    0    0  501 -0.00000000000E+00 -0.00000000000E+00 -0.31241287409E+01  0.31241287409E+01  0.00000000000E+00 0. -1.
          1    1    1    2  502    0 -0.12439823481E+02 -0.25526945182E+02  0.15452738498E+03  0.15711488424E+03  0.00000000000E+00 0. -1.
         -1    1    1    2    0  501  0.12439823481E+02  0.25526945182E+02  0.10830720551E+03  0.11196796374E+03  0.00000000000E+00 0.  1.
</event>
<event>
 4    1  0.7060698E+001  0.3202836E+02  0.7546771E-02  0.1402752E+00
          2   -1    0    0  502    0  0.00000000000E+00  0.00000000000E+00  0.66559728825E+03  0.66559728825E+03  0.00000000000E+00 0. -1.
         -2   -1    0    0    0  501 -0.00000000000E+00 -0.00000000000E+00 -0.51936931155E+01  0.51936931155E+01  0.00000000000E+00 0.  1.
          1    1    1    2  502    0  0.31884591051E+02  0.30312574539E+01  0.61146572493E+03  0.61230396735E+03  0.00000000000E+00 0. -1.
         -1    1    1    2    0  501 -0.31884591051E+02 -0.30312574539E+01  0.48937870200E+02  0.58487014011E+02  0.00000000000E+00 0.  1.
</event>
<event>
 4    1  0.7060698E+001  0.2051182E+02  0.7546771E-02  0.1526350E+00
          2   -1    0    0  502    0  0.00000000000E+00  0.00000000000E+00  0.38023289091E+03  0.38023289091E+03  0.00000000000E+00 0.  1.
         -2   -1    0    0    0  501 -0.00000000000E+00 -0.00000000000E+00 -0.21157390346E+01  0.21157390346E+01  0.00000000000E+00 0. -1.
          1    1    1    2  502    0 -0.16732993848E+02 -0.11863459255E+02  0.32109432116E+03  0.32174881169E+03  0.00000000000E+00 0.  1.
         -1    1    1    2    0  501  0.16732993848E+02  0.11863459255E+02  0.57022830723E+02  0.60599818253E+02  0.00000000000E+00 0. -1.
</event>
<event>
 4    1  0.7060698E+001  0.2946381E+02  0.7546771E-02  0.1424314E+00
          2   -1    0    0  502    0  0.00000000000E+00  0.00000000000E+00  0.19933838527E+03  0.19933838527E+03  0.00000000000E+00 0.  1.
         -2   -1    0    0    0  501 -0.00000000000E+00 -0.00000000000E+00 -0.13896139542E+02  0.13896139542E+02  0.00000000000E+00 0. -1.
          1    1    1    2  502    0  0.27333166202E+02  0.11000631666E+02  0.18106590148E+03  0.18344747627E+03  0.00000000000E+00 0.  1.
         -1    1    1    2    0  501 -0.27333166202E+02 -0.11000631666E+02  0.43763442458E+01  0.29787048539E+02  0.00000000000E+00 0. -1.
</event>
<event>
 4    1  0.7060698E+001  0.2966952E+02  0.7546771E-02  0.1422490E+00
          2   -1    0    0  502    0  0.00000000000E+00  0.00000000000E+00  0.11709102219E+02  0.11709102219E+02  0.00000000000E+00 0.  1.
         -2   -1    0    0    0  501 -0.00000000000E+00 -0.00000000000E+00 -0.75181648737E+02  0.75181648737E+02  0.00000000000E+00 0. -1.
          1    1    1    2  502    0 -0.57703567783E+01 -0.29102981244E+02 -0.31486590234E+02  0.43262985324E+02  0.00000000000E+00 0. -1.
         -1    1    1    2    0  501  0.57703567783E+01  0.29102981244E+02 -0.31985956284E+02  0.43627765632E+02  0.00000000000E+00 0.  1.
</event>
<event>
 4    1  0.7060698E+001  0.3575139E+02  0.7546771E-02  0.1375356E+00
          2   -1    0    0  502    0  0.00000000000E+00  0.00000000000E+00  0.28600147082E+03  0.28600147082E+03  0.00000000000E+00 0.  1.
         -2   -1    0    0    0  501 -0.00000000000E+00 -0.00000000000E+00 -0.45878070421E+01  0.45878070421E+01  0.00000000000E+00 0. -1.
          1    1    1    2  502    0 -0.26717615063E+02 -0.23755647607E+02  0.16408081617E+03  0.16793056893E+03  0.00000000000E+00 0. -1.
         -1    1    1    2    0  501  0.26717615063E+02  0.23755647607E+02  0.11733284761E+03  0.12265870893E+03  0.00000000000E+00 0.  1.
</event>
<event>
 4    1  0.7060698E+001  0.3273299E+02  0.7546771E-02  0.1397242E+00
          2   -1    0    0  502    0  0.00000000000E+00  0.00000000000E+00  0.59371219907E+03  0.59371219907E+03  0.00000000000E+00 0. -1.
         -2   -1    0    0    0  501 -0.00000000000E+00 -0.00000000000E+00 -0.18048721101E+01  0.18048721101E+01  0.00000000000E+00 0.  1.
          1    1    1    2  502    0  0.31654995254E+02 -0.83312486699E+01  0.29918449983E+03  0.30096978813E+03  0.00000000000E+00 0.  1.
         -1    1    1    2    0  501 -0.31654995254E+02  0.83312486699E+01  0.29272282714E+03  0.29454728306E+03  0.00000000000E+00 0. -1.
</event>
<event>
 4    1  0.7060698E+001  0.3445011E+02  0.7546771E-02  0.1384471E+00
          2   -1    0    0  502    0  0.00000000000E+00  0.00000000000E+00  0.68028461394E+03  0.68028461394E+03  0.00000000000E+00 0. -1.
         -2   -1    0    0    0  501 -0.00000000000E+00 -0.00000000000E+00 -0.21460419987E+01  0.21460419987E+01  0.00000000000E+00 0.  1.
          1    1    1    2  502    0 -0.68655938196E+01 -0.33759056867E+02  0.19148770854E+03  0.19456195111E+03  0.00000000000E+00 0.  1.
         -1    1    1    2    0  501  0.68655938196E+01  0.33759056867E+02  0.48665086340E+03  0.48786870483E+03  0.00000000000E+00 0. -1.
</event>
<event>
 4    1  0.7060698E+001  0.2100984E+02  0.7546771E-02  0.1519124E+00
          2   -1    0    0  502    0  0.00000000000E+00  0.00000000000E+00  0.51131005459E+01  0.51131005459E+01  0.00000000000E+00 0. -1.
         -2   -1    0    0    0  501 -0.00000000000E+00 -0.00000000000E+00 -0.10574175373E+03  0.10574175373E+03  0.00000000000E+00 0.  1.
          1    1    1    2  502    0  0.16905010675E+02 -0.12475331477E+02 -0.74062781457E+02  0.76985121150E+02  0.00000000000E+00 0.  1.
         -1    1    1    2    0  501 -0.16905010675E+02  0.12475331477E+02 -0.26565871728E+02  0.33869733126E+02  0.00000000000E+00 0. -1.
</event>
<event>
 4    1  0.7060698E+001  0.2674637E+02  0.7546771E-02  0.1450173E+00
          2   -1    0    0  502    0  0.00000000000E+00  0.00000000000E+00  0.20699411413E+02  0.20699411413E+02  0.00000000000E+00 0.  1.
         -2   -1    0    0    0  501 -0.00000000000E+00 -0.00000000000E+00 -0.45477370813E+02  0.45477370813E+02  0.00000000000E+00 0. -1.
          1    1    1    2  502    0  0.20283720116E+02 -0.17433849591E+02  0.38231520759E+01  0.27018232828E+02  0.00000000000E+00 0.  1.
         -1    1    1    2    0  501 -0.20283720116E+02  0.17433849591E+02 -0.28601111475E+02  0.39158549398E+02  0.00000000000E+00 0. -1.
</event>
<event>
 4    1  0.7060698E+001  0.2294231E+02  0.7546771E-02  0.1493224E+00
          2   -1    0    0  502    0  0.00000000000E+00  0.00000000000E+00  0.25503483923E+04  0.25503483923E+04  0.00000000000E+00 0. -1.
         -2   -1    0    0    0  501 -0.00000000000E+00 -0.00000000000E+00 -0.20639787008E+00  0.20639787008E+00  0.00000000000E+00 0.  1.
          1    1    1    2  502    0  0.21915393125E+02  0.67871237215E+01  0.12643832033E+04  0.12645913310E+04  0.00000000000E+00 0.  1.
         -1    1    1    2    0  501 -0.21915393125E+02 -0.67871237215E+01  0.12857587911E+04  0.12859634592E+04  0.00000000000E+00 0. -1.
</event>
<event>
 4    1  0.7060698E+001  0.2366230E+02  0.7546771E-02  0.1484345E+00
          2   -1    0    0  502    0  0.00000000000E+00  0.00000000000E+00  0.20588840161E+02  0.20588840161E+02  0.00000000000E+00 0. -1.
         -2   -1    0    0    0  501 -0.00000000000E+00 -0.00000000000E+00 -0.28479066223E+02  0.28479066223E+02  0.00000000000E+00 0.  1.
          1    1    1    2  502    0 -0.14427143913E-01  0.23662298443E+02 -0.91555209581E+01  0.25371798119E+02  0.00000000000E+00 0. -1.
         -1    1    1    2    0  501  0.14427143913E-01 -0.23662298443E+02  0.12652948957E+01  0.23696108266E+02  0.00000000000E+00 0.  1.
</event>
<event>
 4    1  0.7060698E+001  0.2122426E+02  0.7546771E-02  0.1516087E+00
          2   -1    0    0  502    0  0.00000000000E+00  0.00000000000E+00  0.21631923668E+03  0.21631923668E+03  0.00000000000E+00 0. -1.
         -2   -1    0    0    0  501 -0.00000000000E+00 -0.00000000000E+00 -0.26253901930E+01  0.26253901930E+01  0.00000000000E+00 0.  1.
          1    1    1    2  502    0  0.10330554195E+02 -0.18540468198E+02  0.15663117934E+03  0.15806263206E+03  0.00000000000E+00 0. -1.
         -1    1    1    2    0  501 -0.10330554195E+02  0.18540468198E+02  0.57062667148E+02  0.60881994819E+02  0.00000000000E+00 0.  1.
</event>
<event>
 4    1  0.7060698E+001  0.2062721E+02  0.7546771E-02  0.1524654E+00
          2   -1    0    0  502    0  0.00000000000E+00  0.00000000000E+00  0.42133282899E+03  0.42133282899E+03  0.00000000000E+00 0. -1.
         -2   -1    0    0    0  501 -0.00000000000E+00 -0.00000000000E+00 -0.16037443089E+01  0.16037443089E+01  0.00000000000E+00 0.  1.
          1    1    1    2  502    0 -0.71322868232E+01  0.19354908246E+02  0.33855107666E+03  0.33917888127E+03  0.00000000000E+00 0. -1.
         -1    1    1    2    0  501  0.71322868232E+01 -0.19354908246E+02  0.81178008013E+02  0.83757692026E+02  0.00000000000E+00 0.  1.
</event>
<event>
 4    1  0.7060698E+001  0.2491452E+02  0.7546771E-02  0.1469762E+00
          2   -1    0    0  502    0  0.00000000000E+00  0.00000000000E+00  0.72756328352E+03  0.72756328352E+03  0.00000000000E+00 0.  1.
         -2   -1    0    0    0  501 -0.00000000000E+00 -0.00000000000E+00 -0.88571765056E+00  0.88571765056E+00  0.00000000000E+00 0. -1.
          1    1    1    2  502    0 -0.56979759286E+01  0.24254204459E+02  0.29351588634E+03  0.29457139864E+03  0.00000000000E+00 0. -1.
         -1    1    1    2    0  501  0.56979759286E+01 -0.24254204459E+02  0.43316167953E+03  0.43387760253E+03  0.00000000000E+00 0.  1.
</event>
<event>
 4    1  0.7060698E+001  0.3497604E+02  0.7546771E-02  0.1380732E+00
          2   -1    0    0  502    0  0.00000000000E+00  0.00000000000E+00  0.11380954801E+02  0.11380954801E+02  0.00000000000E+00 0. -1.
         -2   -1    0    0    0  501 -0.00000000000E+00 -0.00000000000E+00 -0.10905079676E+03  0.10905079676E+03  0.00000000000E+00 0.  1.
          1    1    1    2  502    0  0.13380039102E+02  0.32315598513E+02 -0.56041993456E+02  0.66060793093E+02  0.00000000000E+00 0.  1.
         -1    1    1    2    0  501 -0.13380039102E+02 -0.32315598513E+02 -0.41627848499E+02  0.54370958464E+02  0.00000000000E+00 0. -1.
</event>
<event>
 4    1  0.7060698E+001  0.2051701E+02  0.7546771E-02  0.1526274E+00
          2   -1    0    0  502    0  0.00000000000E+00  0.00000000000E+00  0.15190985099E+01  0.15190985099E+01  0.00000000000E+00 0.  1.
         -2   -1    0    0    0  501 -0.00000000000E+00 -0.00000000000E+00 -0.28347414665E+03  0.28347414665E+03  0.00000000000E+00 0. -1.
          1    1    1    2  502    0 -0.53978383624E+01 -0.19794222021E+02 -0.16233900164E+03  0.16363037413E+03  0.00000000000E+00 0.  1.
         -1    1    1    2    0  501  0.53978383624E+01  0.19794222021E+02 -0.11961604650E+03  0.12136287103E+03  0.00000000000E+00 0. -1.
</event>
<event>
 4    1  0.7060698E+001  0.3542057E+02  0.7546771E-02  0.1377630E+00
          2   -1    0    0  502    0  0.00000000000E+00  0.00000000000E+00  0.31598714675E+03  0.31598714675E+03  0.00000000000E+00 0. -1.
         -2   -1    0    0    0  501 -0.00000000000E+00 -0.00000000000E+00 -0.48097517705E+01  0.48097517705E+01  0.00000000000E+00 0.  1.
          1    1    1    2  502    0 -0.20476253195E+02 -0.28902252004E+02  0.22259150988E+03  0.22539209699E+03  0.00000000000E+00 0.  1.
         -1    1    1    2    0  501  0.20476253195E+02  0.28902252004E+02  0.88585885096E+02  0.95404801525E+02  0.00000000000E+00 0. -1.
</event>
<event>
 4    1  0.7060698E+001  0.2878153E+02  0.7546771E-02  0.1430489E+00
          2   -1    0    0  502    0  0.00000000000E+00  0.00000000000E+00  0.15818217066E+04  0.15818217066E+04  0.00000000000E+00 0.  1.
         -2   -1    0    0    0  501 -0.00000000000E+00 -0.00000000000E+00 -0.59790901327E+00  0.59790901327E+00  0.00000000000E+00 0. -1.
          1    1    1    2  502    0  0.27478060195E+02  0.85634622327E+01  0.10693816394E+04  0.10697688850E+04  0.00000000000E+00 0.  1.
         -1    1    1    2    0  501 -0.27478060195E+02 -0.85634622327E+01  0.51184215818E+03  0.51265073059E+03  0.00000000000E+00 0. -1.
</event>
<event>
 4    1  0.7060698E+001  0.2018843E+02  0.7546771E-02  0.1531174E+00
          2   -1    0    0  502    0  0.00000000000E+00  0.00000000000E+00  0.80812676306E+03  0.80812676306E+03  0.00000000000E+00 0.  1.
         -2   -1    0    0    0  501 -0.00000000000E+00 -0.00000000000E+00 -0.76850018624E+00  0.76850018624E+00  0.00000000000E+00 0. -1.
          1    1    1    2  502    0 -0.20003634650E+02  0.27253151776E+01  0.64080113877E+03  0.64111907801E+03  0.00000000000E+00 0. -1.
         -1    1    1    2    0  501  0.20003634650E+02 -0.27253151776E+01  0.16655712411E+03  0.16777618524E+03  0.00000000000E+00 0.  1.
</event>
<event>
 4    1  0.7060698E+001  0.4106093E+02  0.7546771E-02  0.1342379E+00
          2   -1    0    0  502    0  0.00000000000E+00  0.00000000000E+00  0.62987339253E+03  0.62987339253E+03  0.00000000000E+00 0. -1.
         -2   -1    0    0    0  501 -0.00000000000E+00 -0.00000000000E+00 -0.28097999521E+01  0.28097999521E+01  0.00000000000E+00 0.  1.
          1    1    1    2  502    0 -0.41046699334E+02 -0.10808638067E+01  0.24468848604E+03  0.24810976400E+03  0.00000000000E+00 0. -1.
         -1    1    1    2    0  501  0.41046699334E+02  0.10808638067E+01  0.38237510654E+03  0.38457342848E+03  0.00000000000E+00 0.  1.
</event>
<event>
 4    1  0.7060698E+001  0.2881650E+02  0.7546771E-02  0.1430167E+00
          2   -1    0    0  502    0  0.00000000000E+00  0.00000000000E+00  0.11929763924E+04  0.11929763924E+04  0.00000000000E+00 0. -1.
         -2   -1    0    0    0  501 -0.00000000000E+00 -0.00000000000E+00 -0.85155146765E+00  0.85155146765E+00  0.00000000000E+00 0.  1.
          1    1    1    2  502    0  0.28511688849E+02  0.41802264628E+01  0.34099749577E+03  0.34221292030E+03  0.00000000000E+00 0. -1.
         -1    1    1    2    0  501 -0.28511688849E+02 -0.41802264628E+01  0.85112734515E+03  0.85161502356E+03  0.00000000000E+00 0.  1.
</event>
<event>
 4    1  0.7060698E+001  0.2041589E+02  0.7546771E-02  0.1527770E+00
          2   -1    0    0  502    0  0.00000000000E+00  0.00000000000E+00  0.71914971209E+02  0.71914971209E+02  0.00000000000E+00 0.  1.
         -2   -1    0    0    0  501 -0.00000000000E+00 -0.00000000000E+00 -0.57971910337E+01  0.57971910337E+01  0.00000000000E+00 0. -1.
          1    1    1    2  502    0  0.67541818561E+01 -0.19266279316E+02  0.32468236659E+02  0.38353551113E+02  0.00000000000E+00 0. -1.
         -1    1    1    2    0  501 -0.67541818561E+01  0.19266279316E+02  0.33649543516E+02  0.39358611129E+02  0.00000000000E+00 0.  1.
</event>
<event>
 4    1  0.7060698E+001  0.3480970E+02  0.7546771E-02  0.1381906E+00
          2   -1    0    0  502    0  0.00000000000E+00  0.00000000000E+00  0.29917743810E+03  0.29917743810E+03  0.00000000000E+00 0.  1.
         -2   -1    0    0    0  501 -0.00000000000E+00 -0.00000000000E+00 -0.41232188472E+01  0.41232188472E+01  0.00000000000E+00 0. -1.
          1    1    1    2  502    0 -0.34724599595E+02  0.24326146712E+01  0.16771412509E+03  0.17128847943E+03  0.00000000000E+00 0.  1.
         -1    1    1    2    0  501  0.34724599595E+02 -0.24326146712E+01  0.12734009416E+03  0.13201217751E+03  0.00000000000E+00 0. -1.
</event>
<event>
 4    1  0.7060698E+001  0.3133346E+02  0.7546771E-02  0.1408352E+00
          2   -1    0    0  502    0  0.00000000000E+00  0.00000000000E+00  0.11495408604E+04  0.11495408604E+04  0.00000000000E+00 0.  1.
         -2   -1    0    0    0  501 -0.00000000000E+00 -0.00000000000E+00 -0.87682510568E+00  0.87682510568E+00  0.00000000000E+00 0. -1.
          1    1    1    2  502    0 -0.13962190237E+02  0.28050720410E+02  0.66700023989E+03  0.66773580530E+03  0.00000000000E+00 0.  1.
         -1    1    1    2    0  501  0.13962190237E+02 -0.28050720410E+02  0.48166379544E+03  0.48268188024E+03  0.00000000000E+00 0. -1.
</event>
<event>
 4    1  0.7060698E+001  0.3192675E+02  0.7546771E-02  0.1403560E+00
          2   -1    0    0  502    0  0.00000000000E+00  0.00000000000E+00  0.12100396248E+03  0.12100396248E+03  0.00000000000E+00 0.  1.
         -2   -1    0    0    0  501 -0.00000000000E+00 -0.00000000000E+00 -0.11549757491E+02  0.11549757491E+02  0.00000000000E+00 0. -1.
          1    1    1    2  502    0  0.69697651880E+01  0.31156691766E+02  0.89206906845E+02  0.94748030572E+02  0.00000000000E+00 0.  1.
         -1    1    1    2    0  501 -0.69697651880E+01 -0.31156691766E+02  0.20247298140E+02  0.37805689394E+02  0.00000000000E+00 0. -1.
</event>
<event>
 4    1  0.7060698E+001  0.2383840E+02  0.7546771E-02  0.1482230E+00
          2   -1    0    0  502    0  0.00000000000E+00  0.00000000000E+00  0.76770388317E+02  0.76770388317E+02  0.00000000000E+00 0. -1.
         -2   -1    0    0    0  501 -0.00000000000E+00 -0.00000000000E+00 -0.83029624234E+01  0.83029624234E+01  0.00000000000E+00 0.  1.
          1    1    1    2  502    0  0.19101109326E+01 -0.23761755190E+02  0.48244188432E+02  0.53812370798E+02  0.00000000000E+00 0.  1.
         -1    1    1    2    0  501 -0.19101109326E+01  0.23761755190E+02  0.20223237462E+02  0.31260979942E+02  0.00000000000E+00 0. -1.
</event>
<event>
 4    1  0.7060698E+001  0.5032633E+02  0.7546771E-02  0.1296764E+00
          2   -1    0    0  502    0  0.00000000000E+00  0.00000000000E+00  0.48631242380E+03  0.48631242380E+03  0.00000000000E+00 0. -1.
         -2   -1    0    0    0  501 -0.00000000000E+00 -0.00000000000E+00 -0.52534339593E+01  0.52534339593E+01  0.00000000000E+00 0.  1.
          1    1    1    2  502    0  0.40897694536E+02 -0.29327778181E+02  0.26337367808E+03  0.26813883399E+03  0.00000000000E+00 0.  1.
         -1    1    1    2    0  501 -0.40897694536E+02  0.29327778181E+02  0.21768531177E+03  0.22342702377E+03  0.00000000000E+00 0. -1.
</event>
<event>
 4    1  0.7060698E+001  0.2195283E+02  0.7546771E-02  0.1506083E+00
          2   -1    0    0  502    0  0.00000000000E+00  0.00000000000E+00  0.59521242247E+03  0.59521242247E+03  0.00000000000E+00 0.  1.
         -2   -1    0    0    0  501 -0.00000000000E+00 -0.00000000000E+00 -0.46029833098E+01  0.46029833098E+01  0.00000000000E+00 0. -1.
          1    1    1    2  502    0 -0.10854480678E+02 -0.19081583638E+02  0.56756054877E+03  0.56798494971E+03  0.00000000000E+00 0.  1.
         -1    1    1    2    0  501  0.10854480678E+02  0.19081583638E+02  0.23048890389E+02  0.31830456061E+02  0.00000000000E+00 0. -1.
</event>
<event>
 4    1  0.7060698E+001  0.2461556E+02  0.7546771E-02  0.1473150E+00
          2   -1    0    0  502    0  0.00000000000E+00  0.00000000000E+00  0.13888298160E+03  0.13888298160E+03  0.00000000000E+00 0. -1.
         -2   -1    0    0    0  501 -0.00000000000E+00 -0.00000000000E+00 -0.45238974600E+01  0.45238974600E+01  0.00000000000E+00 0.  1.
          1    1    1    2  502    0 -0.15174176582E+02  0.19382209124E+02  0.53650717209E+02  0.59028172278E+02  0.00000000000E+00 0. -1.
         -1    1    1    2    0  501  0.15174176582E+02 -0.19382209124E+02  0.80708366933E+02  0.84378706783E+02  0.00000000000E+00 0.  1.
</event>
<event>
 4    1  0.7060698E+001  0.3444977E+02  0.7546771E-02  0.1384473E+00
          2   -1    0    0  502    0  0.00000000000E+00  0.00000000000E+00  0.18766253734E+01  0.18766253734E+01  0.00000000000E+00 0. -1.
         -2   -1    0    0    0  501 -0.00000000000E+00 -0.00000000000E+00 -0.90212747973E+03  0.90212747973E+03  0.00000000000E+00 0.  1.
          1    1    1    2  502    0  0.27321182838E+02 -0.20984262661E+02 -0.20297268470E+03  0.20587544061E+03  0.00000000000E+00 0. -1.
         -1    1    1    2    0  501 -0.27321182838E+02  0.20984262661E+02 -0.69727816966E+03  0.69812866450E+03  0.00000000000E+00 0.  1.
</event>
<event>
 4    1  0.7060698E+001  0.5698997E+02  0.7546771E-02  0.1270417E+00
          2   -1    0    0  502    0  0.00000000000E+00  0.00000000000E+00  0.42735940445E+04  0.42735940445E+04  0.00000000000E+00 0.  1.
         -2   -1    0    0    0  501 -0.00000000000E+00 -0.00000000000E+00 -0.10443769543E+01  0.10443769543E+01  0.00000000000E+00 0. -1.
          1    1    1    2  502    0 -0.54479077610E+02  0.16729821661E+02  0.32515994441E+04  0.32520988303E+04  0.00000000000E+00 0.  1.
         -1    1    1    2    0  501  0.54479077610E+02 -0.16729821661E+02  0.10209502234E+04  0.10225395911E+04  0.00000000000E+00 0. -1.
</event>
<event>
 4    1  0.7060698E+001  0.2679255E+02  0.7546771E-02  0.1449703E+00
          2   -1    0    0  502    0  0.00000000000E+00  0.00000000000E+00  0.15226003484E+01  0.15226003484E+01  0.00000000000E+00 0. -1.
         -2   -1    0    0    0  501 -0.00000000000E+00 -0.00000000000E+00 -0.49888967223E+03  0.49888967223E+03  0.00000000000E+00 0.  1.
          1    1    1    2  502    0  0.23689099884E+02  0.12516685683E+02 -0.19001188693E+03  0.19189152678E+03  0.00000000000E+00 0. -1.
         -1    1    1    2    0  501 -0.23689099884E+02 -0.12516685683E+02 -0.30735518495E+03  0.30852074580E+03  0.00000000000E+00 0.  1.
</event>
<event>
 4    1  0.7060698E+001  0.2752969E+02  0.7546771E-02  0.1442359E+00
          2   -1    0    0  502    0  0.00000000000E+00  0.00000000000E+00  0.81581941570E+03  0.81581941570E+03  0.00000000000E+00 0.  1.
         -2   -1    0    0    0  501 -0.00000000000E+00 -0.00000000000E+00 -0.20688737172E+01  0.20688737172E+01  0.00000000000E+00 0. -1.
          1    1    1    2  502    0  0.26312238549E+02 -0.80962781059E+01  0.10332661096E+03  0.10693115612E+03  0.00000000000E+00 0. -1.
         -1    1    1    2    0  501 -0.26312238549E+02  0.80962781059E+01  0.71042393102E+03  0.71095713329E+03  0.00000000000E+00 0.  1.
</event>
<event>
 4    1  0.7060698E+001  0.1316313E+03  0.7546771E-02  0.1118089E+00
          2   -1    0    0  502    0  0.00000000000E+00  0.00000000000E+00  0.13613570376E+04  0.13613570376E+04  0.00000000000E+00 0. -1.
         -2   -1    0    0    0  501 -0.00000000000E+00 -0.00000000000E+00 -0.13045552556E+02  0.13045552556E+02  0.00000000000E+00 0.  1.
          1    1    1    2  502    0 -0.13150962482E+03 -0.56575393845E+01  0.56686969364E+03  0.58195192133E+03  0.00000000000E+00 0.  1.
         -1    1    1    2    0  501  0.13150962482E+03  0.56575393845E+01  0.78144179144E+03  0.79245066886E+03  0.00000000000E+00 0. -1.
</event>
<event>
 4    1  0.7060698E+001  0.2633086E+02  0.7546771E-02  0.1454448E+00
          2   -1    0    0  502    0  0.00000000000E+00  0.00000000000E+00  0.12387491157E+03  0.12387491157E+03  0.00000000000E+00 0.  1.
         -2   -1    0    0    0  501 -0.00000000000E+00 -0.00000000000E+00 -0.55971434499E+01  0.55971434499E+01  0.00000000000E+00 0. -1.
          1    1    1    2  502    0  0.18427392890E+02  0.18808122857E+02  0.59574225629E+02  0.65133729000E+02  0.00000000000E+00 0.  1.
         -1    1    1    2    0  501 -0.18427392890E+02 -0.18808122857E+02  0.58703542495E+02  0.64338326024E+02  0.00000000000E+00 0. -1.
</event>
<event>
 4    1  0.7060698E+001  0.4626349E+02  0.7546771E-02  0.1315240E+00
          2   -1    0    0  502    0  0.00000000000E+00  0.00000000000E+00  0.34131959853E+01  0.34131959853E+01  0.00000000000E+00 0. -1.
         -2   -1    0    0    0  501 -0.00000000000E+00 -0.00000000000E+00 -0.71541224700E+03  0.71541224700E+03  0.00000000000E+00 0.  1.
          1    1    1    2  502    0 -0.14591989514E+02  0.43901987104E+02 -0.22970019509E+03  0.23431280429E+03  0.00000000000E+00 0. -1.
         -1    1    1    2    0  501  0.14591989514E+02 -0.43901987104E+02 -0.48229885592E+03  0.48451263869E+03  0.00000000000E+00 0.  1.
</event>
<event>
 4    1  0.7060698E+001  0.2716834E+02  0.7546771E-02  0.1445924E+00
          2   -1    0    0  502    0  0.00000000000E+00  0.00000000000E+00  0.38116358153E+03  0.38116358153E+03  0.00000000000E+00 0. -1.
         -2   -1    0    0    0  501 -0.00000000000E+00 -0.00000000000E+00 -0.25448867617E+01  0.25448867617E+01  0.00000000000E+00 0.  1.
          1    1    1    2  502    0  0.20947071706E+02 -0.17301405111E+02  0.95503141560E+02  0.99292338475E+02  0.00000000000E+00 0.  1.
         -1    1    1    2    0  501 -0.20947071706E+02  0.17301405111E+02  0.28311555321E+03  0.28441612982E+03  0.00000000000E+00 0. -1.
</event>
<event>
 4    1  0.7060698E+001  0.3243439E+02  0.7546771E-02  0.1399557E+00
          2   -1    0    0  502    0  0.00000000000E+00  0.00000000000E+00  0.52787943261E+03  0.52787943261E+03  0.00000000000E+00 0.  1.
         -2   -1    0    0    0  501 -0.00000000000E+00 -0.00000000000E+00 -0.20501573763E+01  0.20501573763E+01  0.00000000000E+00 0. -1.
          1    1    1    2  502    0 -0.72117606581E+01 -0.31622465048E+02  0.30721038929E+03  0.30891780958E+03  0.00000000000E+00 0. -1.
         -1    1    1    2    0  501  0.72117606581E+01  0.31622465048E+02  0.21861888595E+03  0.22101178041E+03  0.00000000000E+00 0.  1.
</event>
<event>
 4    1  0.7060698E+001  0.2517325E+02  0.7546771E-02  0.1466874E+00
          2   -1    0    0  502    0  0.00000000000E+00  0.00000000000E+00  0.16771567491E+04  0.16771567491E+04  0.00000000000E+00 0. -1.
         -2   -1    0    0    0  501 -0.00000000000E+00 -0.00000000000E+00 -0.52454903859E+00  0.52454903859E+00  0.00000000000E+00 0.  1.
          1    1    1    2  502    0 -0.18103421278E+02  0.17491679442E+02  0.39468850060E+03  0.39549046160E+03  0.00000000000E+00 0.  1.
         -1    1    1    2    0  501  0.18103421278E+02 -0.17491679442E+02  0.12819436994E+04  0.12821908365E+04  0.00000000000E+00 0. -1.
</event>
<event>
 4    1  0.7060698E+001  0.4219575E+02  0.7546771E-02  0.1336078E+00
          2   -1    0    0  502    0  0.00000000000E+00  0.00000000000E+00  0.60012645698E+02  0.60012645698E+02  0.00000000000E+00 0. -1.
         -2   -1    0    0    0  501 -0.00000000000E+00 -0.00000000000E+00 -0.32793801322E+02  0.32793801322E+02  0.00000000000E+00 0.  1.
          1    1    1    2  502    0 -0.32169155089E+02 -0.27306172126E+02  0.27934678135E+02  0.50604622495E+02  0.00000000000E+00 0. -1.
         -1    1    1    2    0  501  0.32169155089E+02  0.27306172126E+02 -0.71583375924E+00  0.42201824526E+02  0.00000000000E+00 0.  1.
</event>
<event>
 4    1  0.7060698E+001  0.2192997E+02  0.7546771E-02  0.1506390E+00
          2   -1    0    0  502    0  0.00000000000E+00  0.00000000000E+00  0.17058757726E+03  0.17058757726E+03  0.00000000000E+00 0.  1.
         -2   -1    0    0    0  501 -0.00000000000E+00 -0.00000000000E+00 -0.57299692881E+01  0.57299692881E+01  0.00000000000E+00 0. -1.
          1    1    1    2  502    0 -0.10882197478E+02  0.19039467416E+02  0.19595202653E+02  0.29409105877E+02  0.00000000000E+00 0. -1.
         -1    1    1    2    0  501  0.10882197478E+02 -0.19039467416E+02  0.14526240532E+03  0.14690844067E+03  0.00000000000E+00 0.  1.
</event>
<event>
 4    1  0.7060698E+001  0.2257676E+02  0.7546771E-02  0.1497882E+00
          2   -1    0    0  502    0  0.00000000000E+00  0.00000000000E+00  0.19439153353E+03  0.19439153353E+03  0.00000000000E+00 0.  1.
         -2   -1    0    0    0  501 -0.00000000000E+00 -0.00000000000E+00 -0.27169393076E+01  0.27169393076E+01  0.00000000000E+00 0. -1.
          1    1    1    2  502    0  0.12872899551E+02  0.18547196249E+02  0.11425250920E+03  0.11646177866E+03  0.00000000000E+00 0. -1.
         -1    1    1    2    0  501 -0.12872899551E+02 -0.18547196249E+02  0.77422085020E+02  0.80646694169E+02  0.00000000000E+00 0.  1.
</event>
<event>
 4    1  0.7060698E+001  0.2201730E+02  0.7546771E-02  0.1505221E+00
          2   -1    0    0  502    0  0.00000000000E+00  0.00000000000E+00  0.15150106802E+03  0.15150106802E+03  0.00000000000E+00 0. -1.
         -2   -1    0    0    0  501 -0.00000000000E+00 -0.00000000000E+00 -0.33179254831E+01  0.33179254831E+01  0.00000000000E+00 0.  1.
          1    1    1    2  502    0  0.13511629418E+02  0.17383822520E+02  0.59480748340E+02  0.63424922846E+02  0.00000000000E+00 0. -1.
         -1    1    1    2    0  501 -0.13511629418E+02 -0.17383822520E+02  0.88702394193E+02  0.91394070653E+02  0.00000000000E+00 0.  1.
</event>
<event>
 4    1  0.7060698E+001  0.2662222E+02  0.7546771E-02  0.1451440E+00
          2   -1    0    0  502    0  0.00000000000E+00  0.00000000000E+00  0.18773133624E+02  0.18773133624E+02  0.00000000000E+00 0.  1.
         -2   -1    0    0    0  501 -0.00000000000E+00 -0.00000000000E+00 -0.41821182757E+02  0.41821182757E+02  0.00000000000E+00 0. -1.
          1    1    1    2  502    0  0.23597553453E+02 -0.12324690079E+02 -0.20973393961E+02  0.33891381925E+02  0.00000000000E+00 0.  1.
         -1    1    1    2    0  501 -0.23597553453E+02  0.12324690079E+02 -0.20746551717E+01  0.26702934456E+02  0.00000000000E+00 0. -1.
</event>
<event>
 4    1  0.7060698E+001  0.2275999E+02  0.7546771E-02  0.1495534E+00
          2   -1    0    0  502    0  0.00000000000E+00  0.00000000000E+00  0.95245759028E+03  0.95245759028E+03  0.00000000000E+00 0. -1.
         -2   -1    0    0    0  501 -0.00000000000E+00 -0.00000000000E+00 -0.62831505416E+00  0.62831505416E+00  0.00000000000E+00 0.  1.
          1    1    1    2  502    0  0.15393812030E+02  0.16764478650E+02  0.30121604642E+03  0.30207469906E+03  0.00000000000E+00 0.  1.
         -1    1    1    2    0  501 -0.15393812030E+02 -0.16764478650E+02  0.65061322881E+03  0.65101120627E+03  0.00000000000E+00 0. -1.
</event>
<event>
 4    1  0.7060698E+001  0.2545041E+02  0.7546771E-02  0.1463827E+00
          2   -1    0    0  502    0  0.00000000000E+00  0.00000000000E+00  0.34892351536E+02  0.34892351536E+02  0.00000000000E+00 0. -1.
         -2   -1    0    0    0  501 -0.00000000000E+00 -0.00000000000E+00 -0.21678756459E+02  0.21678756459E+02  0.00000000000E+00 0.  1.
          1    1    1    2  502    0  0.49362955108E+01 -0.24967108688E+02 -0.41156932868E+01  0.25781048482E+02  0.00000000000E+00 0.  1.
         -1    1    1    2    0  501 -0.49362955108E+01  0.24967108688E+02  0.17329288364E+02  0.30790059513E+02  0.00000000000E+00 0. -1.
</event>
<event>
 4    1  0.7060698E+001  0.2041659E+02  0.7546771E-02  0.1527760E+00
          2   -1    0    0  502    0  0.00000000000E+00  0.00000000000E+00  0.51756565485E+01  0.51756565485E+01  0.00000000000E+00 0. -1.
         -2   -1    0    0    0  501 -0.00000000000E+00 -0.00000000000E+00 -0.12814742208E+03  0.12814742208E+03  0.00000000000E+00 0.  1.
          1    1    1    2  502    0  0.15393666636E+02 -0.13411643918E+02 -0.20854019884E+02  0.29184367569E+02  0.00000000000E+00 0. -1.
         -1    1    1    2    0  501 -0.15393666636E+02  0.13411643918E+02 -0.10211774565E+03  0.10413871106E+03  0.00000000000E+00 0.  1.
</event>
<event>
 4    1  0.7060698E+001  0.4704738E+02  0.7546771E-02  0.1311508E+00
          2   -1    0    0  502    0  0.00000000000E+00  0.00000000000E+00  0.22905465118E+04  0.22905465118E+04  0.00000000000E+00 0.  1.
         -2   -1    0    0    0  501 -0.00000000000E+00 -0.00000000000E+00 -0.12418859391E+01  0.12418859391E+01  0.00000000000E+00 0. -1.
          1    1    1    2  502    0  0.43433308345E+02 -0.18083234599E+02  0.60489616156E+03  0.60672301911E+03  0.00000000000E+00 0. -1.
         -1    1    1    2    0  501 -0.43433308345E+02  0.18083234599E+02  0.16844084643E+04  0.16850653786E+04  0.00000000000E+00 0.  1.
</event>
<event>
 4    1  0.7060698E+001  0.2532150E+02  0.7546771E-02  0.1465239E+00
          2   -1    0    0  502    0  0.00000000000E+00  0.00000000000E+00  0.53287060180E+02  0.53287060180E+02  0.00000000000E+00 0.  1.
         -2   -1    0    0    0  501 -0.00000000000E+00 -0.00000000000E+00 -0.22128444581E+02  0.22128444581E+02  0.00000000000E+00 0. -1.
          1    1    1    2  502    0 -0.19867664234E+02  0.15698859017E+02  0.41049251980E+02  0.48230896163E+02  0.00000000000E+00 0.  1.
         -1    1    1    2    0  501  0.19867664234E+02 -0.15698859017E+02 -0.98906363823E+01  0.27184608598E+02  0.00000000000E+00 0. -1.
</event>
<event>
 4    1  0.7060698E+001  0.2675844E+02  0.7546771E-02  0.1450050E+00
          2   -1    0    0  502    0  0.00000000000E+00  0.00000000000E+00  0.95800475762E+01  0.95800475762E+01  0.00000000000E+00 0. -1.
         -2   -1    0    0    0  501 -0.00000000000E+00 -0.00000000000E+00 -0.85007319216E+02  0.85007319216E+02  0.00000000000E+00 0.  1.
          1    1    1    2  502    0 -0.25066908050E+02 -0.93629220786E+01 -0.21277476293E+02  0.34186915427E+02  0.00000000000E+00 0. -1.
         -1    1    1    2    0  501  0.25066908050E+02  0.93629220786E+01 -0.54149795347E+02  0.60400451365E+02  0.00000000000E+00 0.  1.
</event>
<event>
 4    1  0.7060698E+001  0.2117734E+02  0.7546771E-02  0.1516748E+00
          2   -1    0    0  502    0  0.00000000000E+00  0.00000000000E+00  0.15236240650E+04  0.15236240650E+04  0.00000000000E+00 0.  1.
         -2   -1    0    0    0  501 -0.00000000000E+00 -0.00000000000E+00 -0.38222570445E+00  0.38222570445E+00  0.00000000000E+00 0. -1.
          1    1    1    2  502    0  0.14385609701E+02  0.15541365094E+02  0.39625374841E+03  0.39681924465E+03  0.00000000000E+00 0. -1.
         -1    1    1    2    0  501 -0.14385609701E+02 -0.15541365094E+02  0.11269880908E+04  0.11271870460E+04  0.00000000000E+00 0.  1.
</event>
<event>
 4    1  0.7060698E+001  0.2324655E+02  0.7546771E-02  0.1489425E+00
          2   -1    0    0  502    0  0.00000000000E+00  0.00000000000E+00  0.19543671757E+03  0.19543671757E+03  0.00000000000E+00 0. -1.
         -2   -1    0    0    0  501 -0.00000000000E+00 -0.00000000000E+00 -0.65754102772E+01  0.65754102772E+01  0.00000000000E+00 0.  1.
          1    1    1    2  502    0 -0.51073339761E+01  0.22678564264E+02  0.17132000023E+03  0.17288997836E+03  0.00000000000E+00 0. -1.
         -1    1    1    2    0  501  0.51073339761E+01 -0.22678564264E+02  0.17541307060E+02  0.29122149487E+02  0.00000000000E+00 0.  1.
</event>
<event>
 4    1  0.7060698E+001  0.2202563E+02  0.7546771E-02  0.1505110E+00
          2   -1    0    0  502    0  0.00000000000E+00  0.00000000000E+00  0.21174223869E+03  0.21174223869E+03  0.00000000000E+00 0. -1.
         -2   -1    0    0    0  501 -0.00000000000E+00 -0.00000000000E+00 -0.22923852025E+01  0.22923852025E+01  0.00000000000E+00 0.  1.
          1    1    1    2  502    0  0.60260381102E+01  0.21185262993E+02  0.10723143237E+03  0.10947012648E+03  0.00000000000E+00 0.  1.
         -1    1    1    2    0  501 -0.60260381102E+01 -0.21185262993E+02  0.10221842112E+03  0.10456449742E+03  0.00000000000E+00 0. -1.
</event>
<event>
 4    1  0.7060698E+001  0.2204153E+02  0.7546771E-02  0.1504898E+00
          2   -1    0    0  502    0  0.00000000000E+00  0.00000000000E+00  0.56488938719E+00  0.56488938719E+00  0.00000000000E+00 0. -1.
         -2   -1    0    0    0  501 -0.00000000000E+00 -0.00000000000E+00 -0.15825709023E+04  0.15825709023E+04  0.00000000000E+00 0.  1.
          1    1    1    2  502    0 -0.90746421295E+01  0.20086812880E+02 -0.25615068443E+03  0.25709726236E+03  0.00000000000E+00 0. -1.
         -1    1    1    2    0  501  0.90746421295E+01 -0.20086812880E+02 -0.13258553285E+04  0.13260385293E+04  0.00000000000E+00 0.  1.
</event>
<event>
 4    1  0.7060698E+001  0.4329075E+02  0.7546771E-02  0.1330211E+00
          2   -1    0    0  502    0  0.00000000000E+00  0.00000000000E+00  0.21290014598E+04  0.21290014598E+04  0.00000000000E+00 0.  1.
         -2   -1    0    0    0  501 -0.00000000000E+00 -0.00000000000E+00 -0.10123531998E+01  0.10123531998E+01  0.00000000000E+00 0. -1.
          1    1    1    2  502    0  0.54634704385E+00 -0.43287305676E+02  0.14486885650E+04  0.14493352434E+04  0.00000000000E+00 0. -1.
         -1    1    1    2    0  501 -0.54634704385E+00  0.43287305676E+02  0.67930054162E+03  0.68067856965E+03  0.00000000000E+00 0.  1.
</event>
<event>
 4    1  0.7060698E+001  0.2557973E+02  0.7546771E-02  0.1462421E+00
          2   -1    0    0  502    0  0.00000000000E+00  0.00000000000E+00  0.14524016789E+03  0.14524016789E+03  0.00000000000E+00 0.  1.
         -2   -1    0    0    0  501 -0.00000000000E+00 -0.00000000000E+00 -0.61017902001E+01  0.61017902001E+01  0.00000000000E+00 0. -1.
          1    1    1    2  502    0 -0.67434187217E+01  0.24674867051E+02  0.30860376277E+02  0.40083482683E+02  0.00000000000E+00 0. -1.
         -1    1    1    2    0  501  0.67434187217E+01 -0.24674867051E+02  0.10827800141E+03  0.11125847541E+03  0.00000000000E+00 0.  1.
</event>
<event>
 4    1  0.7060698E+001  0.2135393E+02  0.7546771E-02  0.1514271E+00
          2   -1    0    0  502    0  0.00000000000E+00  0.00000000000E+00  0.87107549943E+00  0.87107549943E+00  0.00000000000E+00 0. -1.
         -2   -1    0    0    0  501 -0.00000000000E+00 -0.00000000000E+00 -0.62333265864E+03  0.62333265864E+03  0.00000000000E+00 0.  1.
          1    1    1    2  502    0  0.12148938289E+02 -0.17561142615E+02 -0.43614638888E+03  0.43666882527E+03  0.00000000000E+00 0.  1.
         -1    1    1    2    0  501 -0.12148938289E+02  0.17561142615E+02 -0.18631519426E+03  0.18753490886E+03  0.00000000000E+00 0. -1.
</event>
<event>
 4    1  0.7060698E+001  0.2163270E+02  0.7546771E-02  0.1510420E+00
          2   -1    0    0  502    0  0.00000000000E+00  0.00000000000E+00  0.41712381521E+03  0.41712381521E+03  0.00000000000E+00 0. -1.
         -2   -1    0    0    0  501 -0.00000000000E+00 -0.00000000000E+00 -0.11220003664E+01  0.11220003664E+01  0.00000000000E+00 0.  1.
          1    1    1    2  502    0  0.21599218104E+02 -0.12030593185E+01  0.20607973555E+03  0.20721204352E+03  0.00000000000E+00 0. -1.
         -1    1    1    2    0  501 -0.21599218104E+02  0.12030593185E+01  0.20992207929E+03  0.21103377205E+03  0.00000000000E+00 0.  1.
</event>
<event>
 4    1  0.7060698E+001  0.2141912E+02  0.7546771E-02  0.1513364E+00
          2   -1    0    0  502    0  0.00000000000E+00  0.00000000000E+00  0.10302324458E+03  0.10302324458E+03  0.00000000000E+00 0. -1.
         -2   -1    0    0    0  501 -0.00000000000E+00 -0.00000000000E+00 -0.79833856453E+01  0.79833856453E+01  0.00000000000E+00 0.  1.
          1    1    1    2  502    0  0.52322138060E+01 -0.20770235908E+02  0.10611400202E+02  0.23903568253E+02  0.00000000000E+00 0.  1.
         -1    1    1    2    0  501 -0.52322138060E+01  0.20770235908E+02  0.84428458733E+02  0.87103061973E+02  0.00000000000E+00 0. -1.
</event>
<event>
 4    1  0.7060698E+001  0.2725018E+02  0.7546771E-02  0.1445111E+00
          2   -1    0    0  502    0  0.00000000000E+00  0.00000000000E+00  0.29381757045E+02  0.29381757045E+02  0.00000000000E+00 0. -1.
         -2   -1    0    0    0  501 -0.00000000000E+00 -0.00000000000E+00 -0.31016352137E+02  0.31016352137E+02  0.00000000000E+00 0.  1.
          1    1    1    2  502    0 -0.20466629948E+02  0.17991362371E+02  0.12177568617E+02  0.29847365693E+02  0.00000000000E+00 0. -1.
         -1    1    1    2    0  501  0.20466629948E+02 -0.17991362371E+02 -0.13812163709E+02  0.30550743489E+02  0.00000000000E+00 0.  1.
</event>
<event>
 4    1  0.7060698E+001  0.2717591E+02  0.7546771E-02  0.1445849E+00
          2   -1    0    0  502    0  0.00000000000E+00  0.00000000000E+00  0.16681427596E+03  0.16681427596E+03  0.00000000000E+00 0.  1.
         -2   -1    0    0    0  501 -0.00000000000E+00 -0.00000000000E+00 -0.57270938281E+01  0.57270938281E+01  0.00000000000E+00 0. -1.
          1    1    1    2  502    0  0.15272324789E+00  0.27175482717E+02  0.39443763444E+02  0.47899276195E+02  0.00000000000E+00 0. -1.
         -1    1    1    2    0  501 -0.15272324789E+00 -0.27175482717E+02  0.12164341868E+03  0.12464209359E+03  0.00000000000E+00 0.  1.
</event>
<event>
 4    1  0.7060698E+001  0.2046041E+02  0.7546771E-02  0.1527110E+00
          2   -1    0    0  502    0  0.00000000000E+00  0.00000000000E+00  0.70138595181E+02  0.70138595181E+02  0.00000000000E+00 0. -1.
         -2   -1    0    0    0  501 -0.00000000000E+00 -0.00000000000E+00 -0.15352308863E+02  0.15352308863E+02  0.00000000000E+00 0.  1.
          1    1    1    2  502    0  0.15110808970E+02 -0.13794637431E+02 -0.60256329893E+01  0.21329248053E+02  0.00000000000E+00 0.  1.
         -1    1    1    2    0  501 -0.15110808970E+02  0.13794637431E+02  0.60811919308E+02  0.64161655991E+02  0.00000000000E+00 0. -1.
</event>
<event>
 4    1  0.7060698E+001  0.2759083E+02  0.7546771E-02  0.1441762E+00
          2   -1    0    0  502    0  0.00000000000E+00  0.00000000000E+00  0.49446595423E+01  0.49446595423E+01  0.00000000000E+00 0. -1.
         -2   -1    0    0    0  501 -0.00000000000E+00 -0.00000000000E+00 -0.15876566072E+03  0.15876566072E+03  0.00000000000E+00 0.  1.
          1    1    1    2  502    0  0.25516754544E+02 -0.10495194155E+02 -0.62661609521E+02  0.68467007898E+02  0.00000000000E+00 0. -1.
         -1    1    1    2    0  501 -0.25516754544E+02  0.10495194155E+02 -0.91159391658E+02  0.95243312365E+02  0.00000000000E+00 0.  1.
</event>
<event>
 4    1  0.7060698E+001  0.2296522E+02  0.7546771E-02  0.1492935E+00
          2   -1    0    0  502    0  0.00000000000E+00  0.00000000000E+00  0.44526387174E+02  0.44526387174E+02  0.00000000000E+00 0. -1.
         -2   -1    0    0    0  501 -0.00000000000E+00 -0.00000000000E+00 -0.14684339993E+02  0.14684339993E+02  0.00000000000E+00 0.  1.
          1    1    1    2  502    0 -0.21964234930E+02  0.67062593220E+01  0.19020989252E+01  0.23043860581E+02  0.00000000000E+00 0. -1.
         -1    1    1    2    0  501  0.21964234930E+02 -0.67062593220E+01  0.27939948255E+02  0.36166866586E+02  0.00000000000E+00 0.  1.
</event>
<event>
 4    1  0.7060698E+001  0.2444884E+02  0.7546771E-02  0.1475065E+00
          2   -1    0    0  502    0  0.00000000000E+00  0.00000000000E+00  0.55637585289E+02  0.55637585289E+02  0.00000000000E+00 0. -1.
         -2   -1    0    0    0  501 -0.00000000000E+00 -0.00000000000E+00 -0.51176669883E+02  0.51176669883E+02  0.00000000000E+00 0.  1.
          1    1    1    2  502    0  0.54221214898E+01  0.23840018000E+02  0.49701828270E+02  0.55389688509E+02  0.00000000000E+00 0. -1.
         -1    1    1    2    0  501 -0.54221214898E+01 -0.23840018000E+02 -0.45240912864E+02  0.51424566663E+02  0.00000000000E+00 0.  1.
</event>
<event>
 4    1  0.7060698E+001  0.2170749E+02  0.7546771E-02  0.1509399E+00
          2   -1    0    0  502    0  0.00000000000E+00  0.00000000000E+00  0.12863338563E+04  0.12863338563E+04  0.00000000000E+00 0.  1.
         -2   -1    0    0    0  501 -0.00000000000E+00 -0.00000000000E+00 -0.43408683535E+00  0.43408683535E+00  0.00000000000E+00 0. -1.
          1    1    1    2  502    0 -0.62614779881E+01  0.20784826340E+02  0.89715093656E+03  0.89741351566E+03  0.00000000000E+00 0.  1.
         -1    1    1    2    0  501  0.62614779881E+01 -0.20784826340E+02  0.38874883288E+03  0.38935442745E+03  0.00000000000E+00 0. -1.
</event>
<event>
 4    1  0.7060698E+001  0.3306301E+02  0.7546771E-02  0.1394717E+00
          2   -1    0    0  502    0  0.00000000000E+00  0.00000000000E+00  0.31048655797E+04  0.31048655797E+04  0.00000000000E+00 0.  1.
         -2   -1    0    0    0  501 -0.00000000000E+00 -0.00000000000E+00 -0.35523940275E+00  0.35523940275E+00  0.00000000000E+00 0. -1.
          1    1    1    2  502    0 -0.26490925042E+02 -0.19783670427E+02  0.16986641974E+04  0.16989859383E+04  0.00000000000E+00 0. -1.
         -1    1    1    2    0  501  0.26490925042E+02  0.19783670427E+02  0.14058461429E+04  0.14062348808E+04  0.00000000000E+00 0.  1.
</event>
<event>
 4    1  0.7060698E+001  0.2125007E+02  0.7546771E-02  0.1515724E+00
          2   -1    0    0  502    0  0.00000000000E+00  0.00000000000E+00  0.13791079007E+02  0.13791079007E+02  0.00000000000E+00 0. -1.
         -2   -1    0    0    0  501 -0.00000000000E+00 -0.00000000000E+00 -0.34883128346E+02  0.34883128346E+02  0.00000000000E+00 0.  1.
          1    1    1    2  502    0 -0.14795106798E+02  0.15253531830E+02 -0.16573712961E+02  0.26949088663E+02  0.00000000000E+00 0.  1.
         -1    1    1    2    0  501  0.14795106798E+02 -0.15253531830E+02 -0.45183363773E+01  0.21725118690E+02  0.00000000000E+00 0. -1.
</event>
<event>
 4    1  0.7060698E+001  0.2051900E+02  0.7546771E-02  0.1526244E+00
          2   -1    0    0  502    0  0.00000000000E+00  0.00000000000E+00  0.43201037952E+01  0.43201037952E+01  0.00000000000E+00 0. -1.
         -2   -1    0    0    0  501 -0.00000000000E+00 -0.00000000000E+00 -0.10050968765E+03  0.10050968765E+03  0.00000000000E+00 0.  1.
          1    1    1    2  502    0 -0.20475848169E+02 -0.13299656035E+01 -0.57227776337E+02  0.60795127693E+02  0.00000000000E+00 0. -1.
         -1    1    1    2    0  501  0.20475848169E+02  0.13299656035E+01 -0.38961807519E+02  0.44034663754E+02  0.00000000000E+00 0.  1.
</event>
<event>
 4    1  0.7060698E+001  0.2086235E+02  0.7546771E-02  0.1521239E+00
          2   -1    0    0  502    0  0.00000000000E+00  0.00000000000E+00  0.22760571006E+02  0.22760571006E+02  0.00000000000E+00 0. -1.
         -2   -1    0    0    0  501 -0.00000000000E+00 -0.00000000000E+00 -0.28564467194E+02  0.28564467194E+02  0.00000000000E+00 0.  1.
          1    1    1    2  502    0 -0.54227172161E+01  0.20145268175E+02 -0.17656254775E+02  0.27330953597E+02  0.00000000000E+00 0.  1.
         -1    1    1    2    0  501  0.54227172161E+01 -0.20145268175E+02  0.11852358588E+02  0.23994084603E+02  0.00000000000E+00 0. -1.
</event>
<event>
 4    1  0.7060698E+001  0.2676911E+02  0.7546771E-02  0.1449941E+00
          2   -1    0    0  502    0  0.00000000000E+00  0.00000000000E+00  0.33937670353E+03  0.33937670353E+03  0.00000000000E+00 0. -1.
         -2   -1    0    0    0  501 -0.00000000000E+00 -0.00000000000E+00 -0.84028669136E+01  0.84028669136E+01  0.00000000000E+00 0.  1.
          1    1    1    2  502    0  0.93816134115E+01  0.25071306363E+02  0.31595131018E+03  0.31708329423E+03  0.00000000000E+00 0. -1.
         -1    1    1    2    0  501 -0.93816134115E+01 -0.25071306363E+02  0.15022526433E+02  0.30696276214E+02  0.00000000000E+00 0.  1.
</event>
<event>
 4    1  0.7060698E+001  0.2138134E+02  0.7546771E-02  0.1513889E+00
          2   -1    0    0  502    0  0.00000000000E+00  0.00000000000E+00  0.35307952775E+03  0.35307952775E+03  0.00000000000E+00 0.  1.
         -2   -1    0    0    0  501 -0.00000000000E+00 -0.00000000000E+00 -0.69339345704E+01  0.69339345704E+01  0.00000000000E+00 0. -1.
          1    1    1    2  502    0 -0.13069306383E+02  0.16922024156E+02  0.33540538996E+03  0.33608620514E+03  0.00000000000E+00 0.  1.
         -1    1    1    2    0  501  0.13069306383E+02 -0.16922024156E+02  0.10740203215E+02  0.23927257176E+02  0.00000000000E+00 0. -1.
</event>
<event>
 4    1  0.7060698E+001  0.3110602E+02  0.7546771E-02  0.1410222E+00
          2   -1    0    0  502    0  0.00000000000E+00  0.00000000000E+00  0.15809538093E+03  0.15809538093E+03  0.00000000000E+00 0. -1.
         -2   -1    0    0    0  501 -0.00000000000E+00 -0.00000000000E+00 -0.69439824620E+01  0.69439824620E+01  0.00000000000E+00 0.  1.
          1    1    1    2  502    0  0.20187872294E+02  0.23665046955E+02  0.10399700494E+03  0.10854935132E+03  0.00000000000E+00 0. -1.
         -1    1    1    2    0  501 -0.20187872294E+02 -0.23665046955E+02  0.47154393527E+02  0.56490012073E+02  0.00000000000E+00 0.  1.
</event>
<event>
 4    1  0.7060698E+001  0.4261146E+02  0.7546771E-02  0.1333827E+00
          2   -1    0    0  502    0  0.00000000000E+00  0.00000000000E+00  0.23213369746E+02  0.23213369746E+02  0.00000000000E+00 0. -1.
         -2   -1    0    0    0  501 -0.00000000000E+00 -0.00000000000E+00 -0.82753665464E+02  0.82753665464E+02  0.00000000000E+00 0.  1.
          1    1    1    2  502    0 -0.16906960207E+02 -0.39113824689E+02 -0.17367936446E+02  0.46015017131E+02  0.00000000000E+00 0.  1.
         -1    1    1    2    0  501  0.16906960207E+02  0.39113824689E+02 -0.42172359272E+02  0.59952018079E+02  0.00000000000E+00 0. -1.
</event>
<event>
 4    1  0.7060698E+001  0.3719508E+02  0.7546771E-02  0.1365756E+00
          2   -1    0    0  502    0  0.00000000000E+00  0.00000000000E+00  0.18953404500E+04  0.18953404500E+04  0.00000000000E+00 0. -1.
         -2   -1    0    0    0  501 -0.00000000000E+00 -0.00000000000E+00 -0.11618673037E+01  0.11618673037E+01  0.00000000000E+00 0.  1.
          1    1    1    2  502    0  0.23694349246E+02  0.28671441786E+02  0.36892218943E+03  0.37079246974E+03  0.00000000000E+00 0. -1.
         -1    1    1    2    0  501 -0.23694349246E+02 -0.28671441786E+02  0.15252563932E+04  0.15257098475E+04  0.00000000000E+00 0.  1.
</event>
