<event>
 4    1  0.1776638E+004  0.2588854E+02  0.7546771E-02  0.1459104E+00
         21   -1    0    0  503  502  0.00000000000E+00  0.00000000000E+00  0.84695149603E+02  0.84695149603E+02  0.00000000000E+00 0.  1.
         21   -1    0    0  501  503 -0.00000000000E+00 -0.00000000000E+00 -0.36000414513E+02  0.36000414513E+02  0.00000000000E+00 0. -1.
          2    1    1    2  501    0 -0.12207793688E+02  0.22829504163E+02 -0.28956813433E+02  0.38842161773E+02  0.00000000000E+00 0. -1.
         -2    1    1    2    0  502  0.12207793688E+02 -0.22829504163E+02  0.77651548523E+02  0.81853402342E+02  0.00000000000E+00 0.  1.
</event>
<event>
 4    1  0.1776638E+004  0.4693586E+02  0.7546771E-02  0.1312034E+00
         21   -1    0    0  501  502  0.00000000000E+00  0.00000000000E+00  0.18851455531E+02  0.18851455531E+02  0.00000000000E+00 0.  1.
         21   -1    0    0  502  503 -0.00000000000E+00 -0.00000000000E+00 -0.11905111970E+03  0.11905111970E+03  0.00000000000E+00 0. -1.
          2    1    1    2  501    0 -0.20291368828E+01 -0.46891974706E+02 -0.59454801236E+02  0.75748584662E+02  0.00000000000E+00 0. -1.
         -2    1    1    2    0  503  0.20291368828E+01  0.46891974706E+02 -0.40744862937E+02  0.62153990573E+02  0.00000000000E+00 0.  1.
</event>
<event>
 4    1  0.1776638E+004  0.3513182E+02  0.7546771E-02  0.1379639E+00
         21   -1    0    0  503  502  0.00000000000E+00  0.00000000000E+00  0.76550851739E+02  0.76550851739E+02  0.00000000000E+00 0.  1.
         21   -1    0    0  501  503 -0.00000000000E+00 -0.00000000000E+00 -0.16128615788E+02  0.16128615788E+02  0.00000000000E+00 0. -1.
          2    1    1    2  501    0  0.22061651589E+02 -0.27340963997E+02  0.29362057825E+02  0.45786190307E+02  0.00000000000E+00 0. -1.
         -2    1    1    2    0  502 -0.22061651589E+02  0.27340963997E+02  0.31060178126E+02  0.46893277219E+02  0.00000000000E+00 0.  1.
</event>
<event>
 4    1  0.1776638E+004  0.2208598E+02  0.7546771E-02  0.1504306E+00
         21   -1    0    0  503  502  0.00000000000E+00  0.00000000000E+00  0.37486594262E+02  0.37486594262E+02  0.00000000000E+00 0. -1.
         21   -1    0    0  501  503 -0.00000000000E+00 -0.00000000000E+00 -0.93963556270E+02  0.93963556270E+02  0.00000000000E+00 0.  1.
          2    1    1    2  501    0 -0.12589696112E+02  0.18146355886E+02 -0.89243123869E+02  0.91935443862E+02  0.00000000000E+00 0.  1.
         -2    1    1    2    0  502  0.12589696112E+02 -0.18146355886E+02  0.32766161861E+02  0.39514706670E+02  0.00000000000E+00 0. -1.
</event>
<event>
 4    1  0.1776638E+004  0.2392817E+02  0.7546771E-02  0.1481161E+00
         21   -1    0    0  501  502  0.00000000000E+00  0.00000000000E+00  0.94326817666E+00  0.94326817666E+00  0.00000000000E+00 0.  1.
         21   -1    0    0  502  503 -0.00000000000E+00 -0.00000000000E+00 -0.61786915198E+03  0.61786915198E+03  0.00000000000E+00 0. -1.
          2    1    1    2  501    0 -0.15532303102E+02  0.18201787074E+02 -0.26741307063E+03  0.26848148509E+03  0.00000000000E+00 0.  1.
         -2    1    1    2    0  503  0.15532303102E+02 -0.18201787074E+02 -0.34951281317E+03  0.35033093507E+03  0.00000000000E+00 0. -1.
</event>
<event>
 4    1  0.1776638E+004  0.2821805E+02  0.7546771E-02  0.1435742E+00
         21   -1    0    0  501  502  0.00000000000E+00  0.00000000000E+00  0.12260110214E+03  0.12260110214E+03  0.00000000000E+00 0. -1.
         21   -1    0    0  502  503 -0.00000000000E+00 -0.00000000000E+00 -0.65201524268E+01  0.65201524268E+01  0.00000000000E+00 0.  1.
          2    1    1    2  501    0 -0.27207814432E+02  0.74828728625E+01  0.54007535127E+02  0.60934985049E+02  0.00000000000E+00 0. -1.
         -2    1    1    2    0  503  0.27207814432E+02 -0.74828728625E+01  0.62073414590E+02  0.68186269522E+02  0.00000000000E+00 0.  1.
</event>
<event>
 4    1  0.1776638E+004  0.2210352E+02  0.7546771E-02  0.1504073E+00
         21   -1    0    0  503  502  0.00000000000E+00  0.00000000000E+00  0.45638539438E+01  0.45638539438E+01  0.00000000000E+00 0. -1.
         21   -1    0    0  501  503 -0.00000000000E+00 -0.00000000000E+00 -0.29761073821E+03  0.29761073821E+03  0.00000000000E+00 0.  1.
          2    1    1    2  501    0 -0.72803311562E+01 -0.20870131913E+02 -0.26742143741E+03  0.26833335762E+03  0.00000000000E+00 0.  1.
         -2    1    1    2    0  502  0.72803311562E+01  0.20870131913E+02 -0.25625446853E+02  0.33841234526E+02  0.00000000000E+00 0. -1.
</event>
<event>
 4    1  0.1776638E+004  0.2032248E+02  0.7546771E-02  0.1529162E+00
         21   -1    0    0  503  502  0.00000000000E+00  0.00000000000E+00  0.10501232680E+03  0.10501232680E+03  0.00000000000E+00 0.  1.
         21   -1    0    0  501  503 -0.00000000000E+00 -0.00000000000E+00 -0.85516537336E+01  0.85516537336E+01  0.00000000000E+00 0. -1.
          2    1    1    2  501    0 -0.52883694852E+01  0.19622343913E+02  0.89960284920E+02  0.92227198240E+02  0.00000000000E+00 0.  1.
         -2    1    1    2    0  502  0.52883694852E+01 -0.19622343913E+02  0.65003881427E+01  0.21336782289E+02  0.00000000000E+00 0. -1.
</event>
<event>
 4    1  0.1776638E+004  0.4339076E+02  0.7546771E-02  0.1329685E+00
         21   -1    0    0  503  502  0.00000000000E+00  0.00000000000E+00  0.16588748922E+03  0.16588748922E+03  0.00000000000E+00 0.  1.
         21   -1    0    0  501  503 -0.00000000000E+00 -0.00000000000E+00 -0.14097050846E+02  0.14097050846E+02  0.00000000000E+00 0. -1.
          2    1    1    2  501    0 -0.43340902422E+02 -0.20794184715E+01  0.36166415425E+02  0.56486878198E+02  0.00000000000E+00 0. -1.
         -2    1    1    2    0  502  0.43340902422E+02  0.20794184715E+01  0.11562402295E+03  0.12349766186E+03  0.00000000000E+00 0.  1.
</event>
<event>
 4    1  0.1776638E+004  0.2125186E+02  0.7546771E-02  0.1515699E+00
         21   -1    0    0  503  502  0.00000000000E+00  0.00000000000E+00  0.35408918394E+03  0.35408918394E+03  0.00000000000E+00 0.  1.
         21   -1    0    0  501  503 -0.00000000000E+00 -0.00000000000E+00 -0.15479214364E+01  0.15479214364E+01  0.00000000000E+00 0. -1.
          2    1    1    2  501    0  0.20133166433E+02  0.68041942487E+01  0.10167357554E+03  0.10387086893E+03  0.00000000000E+00 0. -1.
         -2    1    1    2    0  502 -0.20133166433E+02 -0.68041942487E+01  0.25086768697E+03  0.25176623645E+03  0.00000000000E+00 0.  1.
</event>
<event>
 4    1  0.1776638E+004  0.4809171E+02  0.7546771E-02  0.1306665E+00
         21   -1    0    0  503  502  0.00000000000E+00  0.00000000000E+00  0.13660400895E+03  0.13660400895E+03  0.00000000000E+00 0. -1.
         21   -1    0    0  501  503 -0.00000000000E+00 -0.00000000000E+00 -0.17079743901E+02  0.17079743901E+02  0.00000000000E+00 0.  1.
          2    1    1    2  501    0 -0.45627363290E+02 -0.15197252572E+02  0.52585939145E+02  0.71260744890E+02  0.00000000000E+00 0.  1.
         -2    1    1    2    0  502  0.45627363290E+02  0.15197252572E+02  0.66938325905E+02  0.82423007962E+02  0.00000000000E+00 0. -1.
</event>
<event>
 4    1  0.1776638E+004  0.2105983E+02  0.7546771E-02  0.1518412E+00
         21   -1    0    0  503  502  0.00000000000E+00  0.00000000000E+00  0.55766360331E+02  0.55766360331E+02  0.00000000000E+00 0.  1.
         21   -1    0    0  501  503 -0.00000000000E+00 -0.00000000000E+00 -0.29107738645E+02  0.29107738645E+02  0.00000000000E+00 0. -1.
          2    1    1    2  501    0 -0.16485121031E+02 -0.13105616287E+02 -0.22848607814E+02  0.31073707096E+02  0.00000000000E+00 0. -1.
         -2    1    1    2    0  502  0.16485121031E+02  0.13105616287E+02  0.49507229499E+02  0.53800391880E+02  0.00000000000E+00 0.  1.
</event>
<event>
 4    1  0.1776638E+004  0.4174050E+02  0.7546771E-02  0.1338578E+00
         21   -1    0    0  503  502  0.00000000000E+00  0.00000000000E+00  0.23707043932E+03  0.23707043932E+03  0.00000000000E+00 0.  1.
         21   -1    0    0  501  503 -0.00000000000E+00 -0.00000000000E+00 -0.76974015302E+01  0.76974015302E+01  0.00000000000E+00 0. -1.
          2    1    1    2  501    0  0.41071632748E+02 -0.74424482019E+01  0.88655488679E+02  0.97990125649E+02  0.00000000000E+00 0. -1.
         -2    1    1    2    0  502 -0.41071632748E+02  0.74424482019E+01  0.14071754912E+03  0.14677771521E+03  0.00000000000E+00 0.  1.
</event>
<event>
 4    1  0.1776638E+004  0.2547606E+02  0.7546771E-02  0.1463548E+00
         21   -1    0    0  503  502  0.00000000000E+00  0.00000000000E+00  0.54123229981E+01  0.54123229981E+01  0.00000000000E+00 0.  1.
         21   -1    0    0  501  503 -0.00000000000E+00 -0.00000000000E+00 -0.37867327833E+03  0.37867327833E+03  0.00000000000E+00 0. -1.
          2    1    1    2  501    0  0.25108262795E+02 -0.43133265444E+01 -0.34537952663E+03  0.34631784109E+03  0.00000000000E+00 0. -1.
         -2    1    1    2    0  502 -0.25108262795E+02  0.43133265444E+01 -0.27881428702E+02  0.37767760232E+02  0.00000000000E+00 0.  1.
</event>
<event>
 4    1  0.1776638E+004  0.3060255E+02  0.7546771E-02  0.1414431E+00
         21   -1    0    0  503  502  0.00000000000E+00  0.00000000000E+00  0.37877137992E+02  0.37877137992E+02  0.00000000000E+00 0. -1.
         21   -1    0    0  501  503 -0.00000000000E+00 -0.00000000000E+00 -0.24779729801E+02  0.24779729801E+02  0.00000000000E+00 0.  1.
          2    1    1    2  501    0 -0.30572125715E+02  0.13641743627E+01  0.50776646212E+01  0.31020936808E+02  0.00000000000E+00 0. -1.
         -2    1    1    2    0  502  0.30572125715E+02 -0.13641743627E+01  0.80197435702E+01  0.31635930986E+02  0.00000000000E+00 0.  1.
</event>
<event>
 4    1  0.1776638E+004  0.2149110E+02  0.7546771E-02  0.1512367E+00
         21   -1    0    0  501  502  0.00000000000E+00  0.00000000000E+00  0.55530253990E+01  0.55530253990E+01  0.00000000000E+00 0.  1.
         21   -1    0    0  502  503 -0.00000000000E+00 -0.00000000000E+00 -0.83175944411E+02  0.83175944411E+02  0.00000000000E+00 0. -1.
          2    1    1    2  501    0 -0.20647834148E+02  0.59610819483E+01 -0.39023779928E+02  0.44550229549E+02  0.00000000000E+00 0.  1.
         -2    1    1    2    0  503  0.20647834148E+02 -0.59610819483E+01 -0.38599139084E+02  0.44178740261E+02  0.00000000000E+00 0. -1.
</event>
<event>
 4    1  0.1776638E+004  0.2393476E+02  0.7546771E-02  0.1481082E+00
         21   -1    0    0  503  502  0.00000000000E+00  0.00000000000E+00  0.43739935042E+02  0.43739935042E+02  0.00000000000E+00 0.  1.
         21   -1    0    0  501  503 -0.00000000000E+00 -0.00000000000E+00 -0.13467910529E+02  0.13467910529E+02  0.00000000000E+00 0. -1.
          2    1    1    2  501    0  0.13836452279E+02 -0.19530110194E+02  0.10390676107E+02  0.26092887265E+02  0.00000000000E+00 0.  1.
         -2    1    1    2    0  502 -0.13836452279E+02  0.19530110194E+02  0.19881348407E+02  0.31114958306E+02  0.00000000000E+00 0. -1.
</event>
<event>
 4    1  0.1776638E+004  0.2165192E+02  0.7546771E-02  0.1510157E+00
         21   -1    0    0  501  502  0.00000000000E+00  0.00000000000E+00  0.23497757234E+02  0.23497757234E+02  0.00000000000E+00 0.  1.
         21   -1    0    0  502  503 -0.00000000000E+00 -0.00000000000E+00 -0.27946636758E+02  0.27946636758E+02  0.00000000000E+00 0. -1.
          2    1    1    2  501    0  0.21648788620E+02 -0.36804248766E+00  0.11533955781E+02  0.24532379419E+02  0.00000000000E+00 0.  1.
         -2    1    1    2    0  503 -0.21648788620E+02  0.36804248766E+00 -0.15982835305E+02  0.26912014573E+02  0.00000000000E+00 0. -1.
</event>
<event>
 4    1  0.1776638E+004  0.2090953E+02  0.7546771E-02  0.1520560E+00
         21   -1    0    0  501  502  0.00000000000E+00  0.00000000000E+00  0.20568150225E+01  0.20568150225E+01  0.00000000000E+00 0. -1.
         21   -1    0    0  502  503 -0.00000000000E+00 -0.00000000000E+00 -0.22547201568E+03  0.22547201568E+03  0.00000000000E+00 0.  1.
          2    1    1    2  501    0  0.19400319293E+02 -0.77997458257E+01 -0.84489334520E+02  0.87038244877E+02  0.00000000000E+00 0. -1.
         -2    1    1    2    0  503 -0.19400319293E+02  0.77997458257E+01 -0.13892586614E+03  0.14049058583E+03  0.00000000000E+00 0.  1.
</event>
<event>
 4    1  0.1776638E+004  0.2583716E+02  0.7546771E-02  0.1459652E+00
         21   -1    0    0  503  502  0.00000000000E+00  0.00000000000E+00  0.61723819072E+03  0.61723819072E+03  0.00000000000E+00 0. -1.
         21   -1    0    0  501  503 -0.00000000000E+00 -0.00000000000E+00 -0.11073300694E+01  0.11073300694E+01  0.00000000000E+00 0.  1.
          2    1    1    2  501    0  0.15193499066E+02  0.20897759788E+02  0.26086870481E+03  0.26214507420E+03  0.00000000000E+00 0.  1.
         -2    1    1    2    0  502 -0.15193499066E+02 -0.20897759788E+02  0.35526215585E+03  0.35620044660E+03  0.00000000000E+00 0. -1.
</event>
<event>
 4    1  0.1776638E+004  0.2473638E+02  0.7546771E-02  0.1471774E+00
         21   -1    0    0  503  502  0.00000000000E+00  0.00000000000E+00  0.35155137493E+02  0.35155137493E+02  0.00000000000E+00 0. -1.
         21   -1    0    0  501  503 -0.00000000000E+00 -0.00000000000E+00 -0.58852188561E+02  0.58852188561E+02  0.00000000000E+00 0.  1.
          2    1    1    2  501    0  0.15060631724E+02  0.19623091649E+02 -0.51293889584E+02  0.56946917936E+02  0.00000000000E+00 0.  1.
         -2    1    1    2    0  502 -0.15060631724E+02 -0.19623091649E+02  0.27596838516E+02  0.37060408118E+02  0.00000000000E+00 0. -1.
</event>
<event>
 4    1  0.1776638E+004  0.2152264E+02  0.7546771E-02  0.1511932E+00
         21   -1    0    0  501  502  0.00000000000E+00  0.00000000000E+00  0.25884683740E+01  0.25884683740E+01  0.00000000000E+00 0.  1.
         21   -1    0    0  502  503 -0.00000000000E+00 -0.00000000000E+00 -0.69983126606E+03  0.69983126606E+03  0.00000000000E+00 0. -1.
          2    1    1    2  501    0  0.83517409861E+00  0.21506424664E+02 -0.45625601684E+02  0.50447193644E+02  0.00000000000E+00 0.  1.
         -2    1    1    2    0  503 -0.83517409861E+00 -0.21506424664E+02 -0.65161719600E+03  0.65197254079E+03  0.00000000000E+00 0. -1.
</event>
<event>
 4    1  0.1776638E+004  0.2347908E+02  0.7546771E-02  0.1486568E+00
         21   -1    0    0  503  502  0.00000000000E+00  0.00000000000E+00  0.40698046709E+03  0.40698046709E+03  0.00000000000E+00 0. -1.
         21   -1    0    0  501  503 -0.00000000000E+00 -0.00000000000E+00 -0.14426410951E+01  0.14426410951E+01  0.00000000000E+00 0.  1.
          2    1    1    2  501    0 -0.20792834466E+02 -0.10905274801E+02  0.15230068156E+03  0.15409985265E+03  0.00000000000E+00 0. -1.
         -2    1    1    2    0  502  0.20792834466E+02  0.10905274801E+02  0.25323714444E+03  0.25432325554E+03  0.00000000000E+00 0.  1.
</event>
<event>
 4    1  0.1776638E+004  0.2598438E+02  0.7546771E-02  0.1458086E+00
         21   -1    0    0  503  502  0.00000000000E+00  0.00000000000E+00  0.19149153679E+03  0.19149153679E+03  0.00000000000E+00 0.  1.
         21   -1    0    0  501  503 -0.00000000000E+00 -0.00000000000E+00 -0.14995191223E+02  0.14995191223E+02  0.00000000000E+00 0. -1.
          2    1    1    2  501    0  0.20887567629E+02 -0.15456310908E+02 -0.20447351541E+01  0.26064707368E+02  0.00000000000E+00 0. -1.
         -2    1    1    2    0  502 -0.20887567629E+02  0.15456310908E+02  0.17854108072E+03  0.18042202064E+03  0.00000000000E+00 0.  1.
</event>
<event>
 4    1  0.1776638E+004  0.3662584E+02  0.7546771E-02  0.1369480E+00
         21   -1    0    0  501  502  0.00000000000E+00  0.00000000000E+00  0.51290808021E+02  0.51290808021E+02  0.00000000000E+00 0. -1.
         21   -1    0    0  502  503 -0.00000000000E+00 -0.00000000000E+00 -0.31480135138E+03  0.31480135138E+03  0.00000000000E+00 0.  1.
          2    1    1    2  501    0 -0.35267733825E+02  0.98812418576E+01  0.43522176113E+02  0.56882614245E+02  0.00000000000E+00 0. -1.
         -2    1    1    2    0  503  0.35267733825E+02 -0.98812418576E+01 -0.30703271948E+03  0.30920954516E+03  0.00000000000E+00 0.  1.
</event>
<event>
 4    1  0.1776638E+004  0.2485578E+02  0.7546771E-02  0.1470423E+00
         21   -1    0    0  503  502  0.00000000000E+00  0.00000000000E+00  0.23487715572E+02  0.23487715572E+02  0.00000000000E+00 0. -1.
         21   -1    0    0  501  503 -0.00000000000E+00 -0.00000000000E+00 -0.34560805016E+02  0.34560805016E+02  0.00000000000E+00 0.  1.
          2    1    1    2  501    0  0.95840521535E+01 -0.22933727785E+02 -0.19723444609E+02  0.31730493111E+02  0.00000000000E+00 0.  1.
         -2    1    1    2    0  502 -0.95840521535E+01  0.22933727785E+02  0.86503551659E+01  0.26318027477E+02  0.00000000000E+00 0. -1.
</event>
<event>
 4    1  0.1776638E+004  0.2429877E+02  0.7546771E-02  0.1476803E+00
         21   -1    0    0  501  502  0.00000000000E+00  0.00000000000E+00  0.38322373876E+01  0.38322373876E+01  0.00000000000E+00 0. -1.
         21   -1    0    0  502  503 -0.00000000000E+00 -0.00000000000E+00 -0.20437524553E+03  0.20437524553E+03  0.00000000000E+00 0.  1.
          2    1    1    2  501    0  0.15183389362E+02 -0.18970891020E+02 -0.48622496874E+02  0.54356022857E+02  0.00000000000E+00 0. -1.
         -2    1    1    2    0  503 -0.15183389362E+02  0.18970891020E+02 -0.15192051127E+03  0.15385146006E+03  0.00000000000E+00 0.  1.
</event>
<event>
 4    1  0.1776638E+004  0.2509655E+02  0.7546771E-02  0.1467726E+00
         21   -1    0    0  503  502  0.00000000000E+00  0.00000000000E+00  0.33412705257E+02  0.33412705257E+02  0.00000000000E+00 0.  1.
         21   -1    0    0  501  503 -0.00000000000E+00 -0.00000000000E+00 -0.21680206290E+02  0.21680206290E+02  0.00000000000E+00 0. -1.
          2    1    1    2  501    0  0.94573262252E+01  0.23246411230E+02 -0.40861231171E+01  0.25427014307E+02  0.00000000000E+00 0. -1.
         -2    1    1    2    0  502 -0.94573262252E+01 -0.23246411230E+02  0.15818622084E+02  0.29665897240E+02  0.00000000000E+00 0.  1.
</event>
<event>
 4    1  0.1776638E+004  0.2035361E+02  0.7546771E-02  0.1528697E+00
         21   -1    0    0  503  502  0.00000000000E+00  0.00000000000E+00  0.69379465237E+02  0.69379465237E+02  0.00000000000E+00 0. -1.
         21   -1    0    0  501  503 -0.00000000000E+00 -0.00000000000E+00 -0.10078613794E+02  0.10078613794E+02  0.00000000000E+00 0.  1.
          2    1    1    2  501    0 -0.10238875093E+02 -0.17590759353E+02  0.42875223203E+01  0.20800293878E+02  0.00000000000E+00 0.  1.
         -2    1    1    2    0  502  0.10238875093E+02  0.17590759353E+02  0.55013329123E+02  0.58657785152E+02  0.00000000000E+00 0. -1.
</event>
<event>
 4    1  0.1776638E+004  0.2687950E+02  0.7546771E-02  0.1448822E+00
         21   -1    0    0  501  502  0.00000000000E+00  0.00000000000E+00  0.14764658344E+03  0.14764658344E+03  0.00000000000E+00 0.  1.
         21   -1    0    0  502  503 -0.00000000000E+00 -0.00000000000E+00 -0.56768431888E+02  0.56768431888E+02  0.00000000000E+00 0. -1.
          2    1    1    2  501    0 -0.42019961877E+01 -0.26549026539E+02  0.14314213144E+03  0.14564400906E+03  0.00000000000E+00 0.  1.
         -2    1    1    2    0  503  0.42019961877E+01  0.26549026539E+02 -0.52263979896E+02  0.58771006259E+02  0.00000000000E+00 0. -1.
</event>
<event>
 4    1  0.1776638E+004  0.2008188E+02  0.7546771E-02  0.1532788E+00
         21   -1    0    0  501  502  0.00000000000E+00  0.00000000000E+00  0.92948565490E+01  0.92948565490E+01  0.00000000000E+00 0.  1.
         21   -1    0    0  502  503 -0.00000000000E+00 -0.00000000000E+00 -0.31433328474E+03  0.31433328474E+03  0.00000000000E+00 0. -1.
          2    1    1    2  501    0  0.11773221283E+02  0.16268779497E+02 -0.22873064521E+01  0.20211721760E+02  0.00000000000E+00 0.  1.
         -2    1    1    2    0  503 -0.11773221283E+02 -0.16268779497E+02 -0.30275112174E+03  0.30341641953E+03  0.00000000000E+00 0. -1.
</event>
<event>
 4    1  0.1776638E+004  0.2153719E+02  0.7546771E-02  0.1511732E+00
         21   -1    0    0  503  502  0.00000000000E+00  0.00000000000E+00  0.22030155147E+03  0.22030155147E+03  0.00000000000E+00 0.  1.
         21   -1    0    0  501  503 -0.00000000000E+00 -0.00000000000E+00 -0.23883389566E+01  0.23883389566E+01  0.00000000000E+00 0. -1.
          2    1    1    2  501    0  0.72559446899E+01  0.20278112053E+02  0.70641285651E+02  0.73851484753E+02  0.00000000000E+00 0. -1.
         -2    1    1    2    0  502 -0.72559446899E+01 -0.20278112053E+02  0.14727192686E+03  0.14883840567E+03  0.00000000000E+00 0.  1.
</event>
<event>
 4    1  0.1776638E+004  0.3791346E+02  0.7546771E-02  0.1361167E+00
         21   -1    0    0  501  502  0.00000000000E+00  0.00000000000E+00  0.30623573683E+03  0.30623573683E+03  0.00000000000E+00 0.  1.
         21   -1    0    0  502  503 -0.00000000000E+00 -0.00000000000E+00 -0.29782423899E+02  0.29782423899E+02  0.00000000000E+00 0. -1.
          2    1    1    2  501    0 -0.28857167987E+01 -0.37803474833E+02  0.29242885574E+03  0.29487635670E+03  0.00000000000E+00 0.  1.
         -2    1    1    2    0  503  0.28857167987E+01  0.37803474833E+02 -0.15975542808E+02  0.41141804031E+02  0.00000000000E+00 0. -1.
</event>
<event>
 4    1  0.1776638E+004  0.2038476E+02  0.7546771E-02  0.1528233E+00
         21   -1    0    0  501  502  0.00000000000E+00  0.00000000000E+00  0.14560900372E+02  0.14560900372E+02  0.00000000000E+00 0. -1.
         21   -1    0    0  502  503 -0.00000000000E+00 -0.00000000000E+00 -0.65038308973E+02  0.65038308973E+02  0.00000000000E+00 0.  1.
          2    1    1    2  501    0 -0.18310637264E+02 -0.89587361949E+01  0.45768334492E+01  0.20892242476E+02  0.00000000000E+00 0. -1.
         -2    1    1    2    0  503  0.18310637264E+02  0.89587361949E+01 -0.55054242050E+02  0.58706966869E+02  0.00000000000E+00 0.  1.
</event>
<event>
 4    1  0.1776638E+004  0.2364824E+02  0.7546771E-02  0.1484515E+00
         21   -1    0    0  503  502  0.00000000000E+00  0.00000000000E+00  0.18164409313E+01  0.18164409313E+01  0.00000000000E+00 0. -1.
         21   -1    0    0  501  503 -0.00000000000E+00 -0.00000000000E+00 -0.30968639155E+03  0.30968639155E+03  0.00000000000E+00 0.  1.
          2    1    1    2  501    0 -0.60567772276E+01  0.22859456104E+02 -0.14202776723E+03  0.14398307521E+03  0.00000000000E+00 0. -1.
         -2    1    1    2    0  502  0.60567772276E+01 -0.22859456104E+02 -0.16584218339E+03  0.16751975727E+03  0.00000000000E+00 0.  1.
</event>
<event>
 4    1  0.1776638E+004  0.2038676E+02  0.7546771E-02  0.1528203E+00
         21   -1    0    0  503  502  0.00000000000E+00  0.00000000000E+00  0.16612639098E+03  0.16612639098E+03  0.00000000000E+00 0. -1.
         21   -1    0    0  501  503 -0.00000000000E+00 -0.00000000000E+00 -0.52475297197E+01  0.52475297197E+01  0.00000000000E+00 0.  1.
          2    1    1    2  501    0  0.53577391047E+01  0.19670144448E+02  0.18457682454E+02  0.27501018027E+02  0.00000000000E+00 0.  1.
         -2    1    1    2    0  502 -0.53577391047E+01 -0.19670144448E+02  0.14242117881E+03  0.14387290268E+03  0.00000000000E+00 0. -1.
</event>
<event>
 4    1  0.1776638E+004  0.2223358E+02  0.7546771E-02  0.1502353E+00
         21   -1    0    0  503  502  0.00000000000E+00  0.00000000000E+00  0.19945795875E+02  0.19945795875E+02  0.00000000000E+00 0. -1.
         21   -1    0    0  501  503 -0.00000000000E+00 -0.00000000000E+00 -0.26611491009E+02  0.26611491009E+02  0.00000000000E+00 0.  1.
          2    1    1    2  501    0 -0.20967798803E+02 -0.73948202982E+01 -0.94335296639E+01  0.24152089677E+02  0.00000000000E+00 0.  1.
         -2    1    1    2    0  502  0.20967798803E+02  0.73948202982E+01  0.27678345296E+01  0.22405197206E+02  0.00000000000E+00 0. -1.
</event>
<event>
 4    1  0.1776638E+004  0.2415447E+02  0.7546771E-02  0.1478489E+00
         21   -1    0    0  503  502  0.00000000000E+00  0.00000000000E+00  0.56375323242E+03  0.56375323242E+03  0.00000000000E+00 0.  1.
         21   -1    0    0  501  503 -0.00000000000E+00 -0.00000000000E+00 -0.16331434228E+01  0.16331434228E+01  0.00000000000E+00 0. -1.
          2    1    1    2  501    0  0.24129984632E+02 -0.10872664257E+01  0.10996570075E+03  0.11258727125E+03  0.00000000000E+00 0. -1.
         -2    1    1    2    0  502 -0.24129984632E+02  0.10872664257E+01  0.45215438825E+03  0.45279910459E+03  0.00000000000E+00 0.  1.
</event>
<event>
 4    1  0.1776638E+004  0.3638990E+02  0.7546771E-02  0.1371046E+00
         21   -1    0    0  503  502  0.00000000000E+00  0.00000000000E+00  0.51892109023E+02  0.51892109023E+02  0.00000000000E+00 0. -1.
         21   -1    0    0  501  503 -0.00000000000E+00 -0.00000000000E+00 -0.29866827546E+02  0.29866827546E+02  0.00000000000E+00 0.  1.
          2    1    1    2  501    0 -0.21859505704E+02 -0.29092729902E+02 -0.45849056162E+01  0.36677599189E+02  0.00000000000E+00 0.  1.
         -2    1    1    2    0  502  0.21859505704E+02  0.29092729902E+02  0.26610187093E+02  0.45081337379E+02  0.00000000000E+00 0. -1.
</event>
<event>
 4    1  0.1776638E+004  0.3918888E+02  0.7546771E-02  0.1353306E+00
         21   -1    0    0  501  502  0.00000000000E+00  0.00000000000E+00  0.26605746098E+02  0.26605746098E+02  0.00000000000E+00 0. -1.
         21   -1    0    0  502  503 -0.00000000000E+00 -0.00000000000E+00 -0.90191166878E+02  0.90191166878E+02  0.00000000000E+00 0.  1.
          2    1    1    2  501    0  0.38172451241E+02 -0.88674907396E+01  0.32459107833E+01  0.39323076718E+02  0.00000000000E+00 0. -1.
         -2    1    1    2    0  503 -0.38172451241E+02  0.88674907396E+01 -0.66831331563E+02  0.77473836257E+02  0.00000000000E+00 0.  1.
</event>
<event>
 4    1  0.1776638E+004  0.2000643E+02  0.7546771E-02  0.1533937E+00
         21   -1    0    0  501  502  0.00000000000E+00  0.00000000000E+00  0.18539717762E+03  0.18539717762E+03  0.00000000000E+00 0. -1.
         21   -1    0    0  502  503 -0.00000000000E+00 -0.00000000000E+00 -0.39401570563E+02  0.39401570563E+02  0.00000000000E+00 0.  1.
          2    1    1    2  501    0 -0.19418845459E+02  0.48130670274E+01  0.18227446870E+03  0.18336913348E+03  0.00000000000E+00 0. -1.
         -2    1    1    2    0  503  0.19418845459E+02 -0.48130670274E+01 -0.36278861638E+02  0.41429614709E+02  0.00000000000E+00 0.  1.
</event>
<event>
 4    1  0.1776638E+004  0.2425123E+02  0.7546771E-02  0.1477357E+00
         21   -1    0    0  501  502  0.00000000000E+00  0.00000000000E+00  0.10779814303E+03  0.10779814303E+03  0.00000000000E+00 0. -1.
         21   -1    0    0  502  503 -0.00000000000E+00 -0.00000000000E+00 -0.75827833790E+01  0.75827833790E+01  0.00000000000E+00 0.  1.
          2    1    1    2  501    0 -0.23813974414E+02  0.45844251637E+01  0.80662123432E+02  0.84228857810E+02  0.00000000000E+00 0. -1.
         -2    1    1    2    0  503  0.23813974414E+02 -0.45844251637E+01  0.19553236224E+02  0.31152068604E+02  0.00000000000E+00 0.  1.
</event>
<event>
 4    1  0.1776638E+004  0.2905635E+02  0.7546771E-02  0.1427978E+00
         21   -1    0    0  501  502  0.00000000000E+00  0.00000000000E+00  0.34888018646E+03  0.34888018646E+03  0.00000000000E+00 0. -1.
         21   -1    0    0  502  503 -0.00000000000E+00 -0.00000000000E+00 -0.63664676615E+01  0.63664676615E+01  0.00000000000E+00 0.  1.
          2    1    1    2  501    0  0.27871001518E+02  0.82145314546E+01  0.31110541037E+03  0.31245935354E+03  0.00000000000E+00 0. -1.
         -2    1    1    2    0  503 -0.27871001518E+02 -0.82145314546E+01  0.31408308422E+02  0.42787300576E+02  0.00000000000E+00 0.  1.
</event>
<event>
 4    1  0.1776638E+004  0.2541096E+02  0.7546771E-02  0.1464258E+00
         21   -1    0    0  503  502  0.00000000000E+00  0.00000000000E+00  0.68781063412E+02  0.68781063412E+02  0.00000000000E+00 0. -1.
         21   -1    0    0  501  503 -0.00000000000E+00 -0.00000000000E+00 -0.96570762758E+01  0.96570762758E+01  0.00000000000E+00 0.  1.
          2    1    1    2  501    0 -0.17979462006E+02  0.17957059820E+02  0.23015524209E+02  0.34284565128E+02  0.00000000000E+00 0.  1.
         -2    1    1    2    0  502  0.17979462006E+02 -0.17957059820E+02  0.36108462927E+02  0.44153574560E+02  0.00000000000E+00 0. -1.
</event>
<event>
 4    1  0.1776638E+004  0.2211932E+02  0.7546771E-02  0.1503863E+00
         21   -1    0    0  501  502  0.00000000000E+00  0.00000000000E+00  0.50630608065E+01  0.50630608065E+01  0.00000000000E+00 0. -1.
         21   -1    0    0  502  503 -0.00000000000E+00 -0.00000000000E+00 -0.10030722713E+03  0.10030722713E+03  0.00000000000E+00 0.  1.
          2    1    1    2  501    0  0.16634798861E+02 -0.14579023509E+02 -0.37540274329E+02  0.43572200499E+02  0.00000000000E+00 0. -1.
         -2    1    1    2    0  503 -0.16634798861E+02  0.14579023509E+02 -0.57703891998E+02  0.61798087441E+02  0.00000000000E+00 0.  1.
</event>
<event>
 4    1  0.1776638E+004  0.2214100E+02  0.7546771E-02  0.1503576E+00
         21   -1    0    0  503  502  0.00000000000E+00  0.00000000000E+00  0.31858603184E+01  0.31858603184E+01  0.00000000000E+00 0. -1.
         21   -1    0    0  501  503 -0.00000000000E+00 -0.00000000000E+00 -0.15396843288E+03  0.15396843288E+03  0.00000000000E+00 0.  1.
          2    1    1    2  501    0 -0.17751228116E+02  0.13233210377E+02 -0.77327926775E+02  0.80435267239E+02  0.00000000000E+00 0.  1.
         -2    1    1    2    0  502  0.17751228116E+02 -0.13233210377E+02 -0.73454645792E+02  0.76719025964E+02  0.00000000000E+00 0. -1.
</event>
<event>
 4    1  0.1776638E+004  0.3972248E+02  0.7546771E-02  0.1350120E+00
         21   -1    0    0  501  502  0.00000000000E+00  0.00000000000E+00  0.65993331947E+02  0.65993331947E+02  0.00000000000E+00 0. -1.
         21   -1    0    0  502  503 -0.00000000000E+00 -0.00000000000E+00 -0.24480831530E+02  0.24480831530E+02  0.00000000000E+00 0.  1.
          2    1    1    2  501    0  0.17681061133E+00 -0.39722089626E+02  0.27666264757E+02  0.48407622043E+02  0.00000000000E+00 0. -1.
         -2    1    1    2    0  503 -0.17681061133E+00  0.39722089626E+02  0.13846235660E+02  0.42066541434E+02  0.00000000000E+00 0.  1.
</event>
<event>
 4    1  0.1776638E+004  0.2460616E+02  0.7546771E-02  0.1473258E+00
         21   -1    0    0  503  502  0.00000000000E+00  0.00000000000E+00  0.11422396539E+03  0.11422396539E+03  0.00000000000E+00 0.  1.
         21   -1    0    0  501  503 -0.00000000000E+00 -0.00000000000E+00 -0.61723462780E+01  0.61723462780E+01  0.00000000000E+00 0. -1.
          2    1    1    2  501    0 -0.11361645741E+02 -0.21826040518E+02  0.31403509054E+02  0.39895405996E+02  0.00000000000E+00 0. -1.
         -2    1    1    2    0  502  0.11361645741E+02  0.21826040518E+02  0.76648110062E+02  0.80500905676E+02  0.00000000000E+00 0.  1.
</event>
<event>
 4    1  0.1776638E+004  0.2879824E+02  0.7546771E-02  0.1430335E+00
         21   -1    0    0  503  502  0.00000000000E+00  0.00000000000E+00  0.11971801180E+03  0.11971801180E+03  0.00000000000E+00 0. -1.
         21   -1    0    0  501  503 -0.00000000000E+00 -0.00000000000E+00 -0.10561332769E+02  0.10561332769E+02  0.00000000000E+00 0.  1.
          2    1    1    2  501    0 -0.71204966424E+01 -0.27904069988E+02  0.16368726970E+02  0.33125123652E+02  0.00000000000E+00 0.  1.
         -2    1    1    2    0  502  0.71204966424E+01  0.27904069988E+02  0.92787952058E+02  0.97154220914E+02  0.00000000000E+00 0. -1.
</event>
<event>
 4    1  0.1776638E+004  0.2249180E+02  0.7546771E-02  0.1498980E+00
         21   -1    0    0  503  502  0.00000000000E+00  0.00000000000E+00  0.72627367145E+01  0.72627367145E+01  0.00000000000E+00 0.  1.
         21   -1    0    0  501  503 -0.00000000000E+00 -0.00000000000E+00 -0.74167203828E+02  0.74167203828E+02  0.00000000000E+00 0. -1.
          2    1    1    2  501    0  0.46611015807E+01  0.22003529915E+02 -0.23408993159E+02  0.32463243174E+02  0.00000000000E+00 0.  1.
         -2    1    1    2    0  502 -0.46611015807E+01 -0.22003529915E+02 -0.43495473954E+02  0.48966697368E+02  0.00000000000E+00 0. -1.
</event>
<event>
 4    1  0.1776638E+004  0.3078005E+02  0.7546771E-02  0.1412936E+00
         21   -1    0    0  503  502  0.00000000000E+00  0.00000000000E+00  0.16963780739E+01  0.16963780739E+01  0.00000000000E+00 0.  1.
         21   -1    0    0  501  503 -0.00000000000E+00 -0.00000000000E+00 -0.57510110499E+03  0.57510110499E+03  0.00000000000E+00 0. -1.
          2    1    1    2  501    0  0.30128752608E+02  0.62983943079E+01 -0.33571526290E+03  0.33712334426E+03  0.00000000000E+00 0. -1.
         -2    1    1    2    0  502 -0.30128752608E+02 -0.62983943079E+01 -0.23768946402E+03  0.23967413880E+03  0.00000000000E+00 0.  1.
</event>
<event>
 4    1  0.1776638E+004  0.2265178E+02  0.7546771E-02  0.1496918E+00
         21   -1    0    0  503  502  0.00000000000E+00  0.00000000000E+00  0.76108275744E+01  0.76108275744E+01  0.00000000000E+00 0. -1.
         21   -1    0    0  501  503 -0.00000000000E+00 -0.00000000000E+00 -0.14899600425E+03  0.14899600425E+03  0.00000000000E+00 0.  1.
          2    1    1    2  501    0 -0.19032606833E+02 -0.12282622780E+02 -0.12863295969E+03  0.13061217885E+03  0.00000000000E+00 0.  1.
         -2    1    1    2    0  502  0.19032606833E+02  0.12282622780E+02 -0.12752216986E+02  0.25994652975E+02  0.00000000000E+00 0. -1.
</event>
<event>
 4    1  0.1776638E+004  0.2491407E+02  0.7546771E-02  0.1469767E+00
         21   -1    0    0  503  502  0.00000000000E+00  0.00000000000E+00  0.28567562356E+03  0.28567562356E+03  0.00000000000E+00 0.  1.
         21   -1    0    0  501  503 -0.00000000000E+00 -0.00000000000E+00 -0.25862106207E+01  0.25862106207E+01  0.00000000000E+00 0. -1.
          2    1    1    2  501    0 -0.62971328394E+01  0.24105123633E+02  0.83917781357E+02  0.87538019713E+02  0.00000000000E+00 0. -1.
         -2    1    1    2    0  502  0.62971328394E+01 -0.24105123633E+02  0.19917163158E+03  0.20072381447E+03  0.00000000000E+00 0.  1.
</event>
<event>
 4    1  0.1776638E+004  0.3058047E+02  0.7546771E-02  0.1414618E+00
         21   -1    0    0  503  502  0.00000000000E+00  0.00000000000E+00  0.57159141207E+02  0.57159141207E+02  0.00000000000E+00 0. -1.
         21   -1    0    0  501  503 -0.00000000000E+00 -0.00000000000E+00 -0.58881880099E+02  0.58881880099E+02  0.00000000000E+00 0.  1.
          2    1    1    2  501    0  0.24657464277E+02  0.18087973856E+02 -0.50166624295E+02  0.58752493870E+02  0.00000000000E+00 0.  1.
         -2    1    1    2    0  502 -0.24657464277E+02 -0.18087973856E+02  0.48443885403E+02  0.57288527435E+02  0.00000000000E+00 0. -1.
</event>
<event>
 4    1  0.1776638E+004  0.2053151E+02  0.7546771E-02  0.1526060E+00
         21   -1    0    0  503  502  0.00000000000E+00  0.00000000000E+00  0.16097769066E+03  0.16097769066E+03  0.00000000000E+00 0. -1.
         21   -1    0    0  501  503 -0.00000000000E+00 -0.00000000000E+00 -0.26769847967E+01  0.26769847967E+01  0.00000000000E+00 0.  1.
          2    1    1    2  501    0 -0.18255653166E+02  0.93954195959E+01  0.67070190099E+02  0.70142377931E+02  0.00000000000E+00 0. -1.
         -2    1    1    2    0  502  0.18255653166E+02 -0.93954195959E+01  0.91230515768E+02  0.93512297529E+02  0.00000000000E+00 0.  1.
</event>
<event>
 4    1  0.1776638E+004  0.2322324E+02  0.7546771E-02  0.1489714E+00
         21   -1    0    0  503  502  0.00000000000E+00  0.00000000000E+00  0.16938367694E+02  0.16938367694E+02  0.00000000000E+00 0. -1.
         21   -1    0    0  501  503 -0.00000000000E+00 -0.00000000000E+00 -0.42694103460E+02  0.42694103460E+02  0.00000000000E+00 0.  1.
          2    1    1    2  501    0 -0.19396995783E+02  0.12770096823E+02 -0.27911517839E+02  0.36309387854E+02  0.00000000000E+00 0.  1.
         -2    1    1    2    0  502  0.19396995783E+02 -0.12770096823E+02  0.21557820734E+01  0.23323083300E+02  0.00000000000E+00 0. -1.
</event>
<event>
 4    1  0.1776638E+004  0.2723162E+02  0.7546771E-02  0.1445295E+00
         21   -1    0    0  503  502  0.00000000000E+00  0.00000000000E+00  0.34494475384E+02  0.34494475384E+02  0.00000000000E+00 0. -1.
         21   -1    0    0  501  503 -0.00000000000E+00 -0.00000000000E+00 -0.21935189328E+02  0.21935189328E+02  0.00000000000E+00 0.  1.
          2    1    1    2  501    0  0.26741859498E+02 -0.51413927900E+01  0.10263096383E+02  0.29101410904E+02  0.00000000000E+00 0.  1.
         -2    1    1    2    0  502 -0.26741859498E+02  0.51413927900E+01  0.22961896736E+01  0.27328253809E+02  0.00000000000E+00 0. -1.
</event>
<event>
 4    1  0.1776638E+004  0.2461796E+02  0.7546771E-02  0.1473123E+00
         21   -1    0    0  501  502  0.00000000000E+00  0.00000000000E+00  0.99560795558E+01  0.99560795558E+01  0.00000000000E+00 0.  1.
         21   -1    0    0  502  503 -0.00000000000E+00 -0.00000000000E+00 -0.15694060541E+03  0.15694060541E+03  0.00000000000E+00 0. -1.
          2    1    1    2  501    0 -0.10272628555E+02  0.22372240719E+02 -0.82030630821E+01  0.25948685827E+02  0.00000000000E+00 0.  1.
         -2    1    1    2    0  503  0.10272628555E+02 -0.22372240719E+02 -0.13878146278E+03  0.14094799914E+03  0.00000000000E+00 0. -1.
</event>
<event>
 4    1  0.1776638E+004  0.7208621E+02  0.7546771E-02  0.1223517E+00
         21   -1    0    0  501  502  0.00000000000E+00  0.00000000000E+00  0.53253393610E+03  0.53253393610E+03  0.00000000000E+00 0. -1.
         21   -1    0    0  502  503 -0.00000000000E+00 -0.00000000000E+00 -0.10501109938E+02  0.10501109938E+02  0.00000000000E+00 0.  1.
          2    1    1    2  501    0 -0.57365604621E+02  0.43653274398E+02  0.33324873744E+03  0.34095621708E+03  0.00000000000E+00 0. -1.
         -2    1    1    2    0  503  0.57365604621E+02 -0.43653274398E+02  0.18878408872E+03  0.20207882896E+03  0.00000000000E+00 0.  1.
</event>
<event>
 4    1  0.1776638E+004  0.2456839E+02  0.7546771E-02  0.1473690E+00
         21   -1    0    0  501  502  0.00000000000E+00  0.00000000000E+00  0.70955142912E+01  0.70955142912E+01  0.00000000000E+00 0.  1.
         21   -1    0    0  502  503 -0.00000000000E+00 -0.00000000000E+00 -0.20522740220E+03  0.20522740220E+03  0.00000000000E+00 0. -1.
          2    1    1    2  501    0  0.13954820853E+02 -0.20220502780E+02 -0.17833985735E+02  0.30358801111E+02  0.00000000000E+00 0.  1.
         -2    1    1    2    0  503 -0.13954820853E+02  0.20220502780E+02 -0.18029790218E+03  0.18196411538E+03  0.00000000000E+00 0. -1.
</event>
<event>
 4    1  0.1776638E+004  0.2288715E+02  0.7546771E-02  0.1493920E+00
         21   -1    0    0  501  502  0.00000000000E+00  0.00000000000E+00  0.41830408517E+01  0.41830408517E+01  0.00000000000E+00 0. -1.
         21   -1    0    0  502  503 -0.00000000000E+00 -0.00000000000E+00 -0.15280806117E+03  0.15280806117E+03  0.00000000000E+00 0.  1.
          2    1    1    2  501    0  0.94457027006E+01 -0.20847064949E+02 -0.40962735476E+02  0.46922991317E+02  0.00000000000E+00 0. -1.
         -2    1    1    2    0  503 -0.94457027006E+01  0.20847064949E+02 -0.10766228484E+03  0.11006811070E+03  0.00000000000E+00 0.  1.
</event>
<event>
 4    1  0.1776638E+004  0.3868049E+02  0.7546771E-02  0.1356396E+00
         21   -1    0    0  501  502  0.00000000000E+00  0.00000000000E+00  0.14677108981E+04  0.14677108981E+04  0.00000000000E+00 0. -1.
         21   -1    0    0  502  503 -0.00000000000E+00 -0.00000000000E+00 -0.10580813717E+01  0.10580813717E+01  0.00000000000E+00 0.  1.
          2    1    1    2  501    0  0.37286739956E+02  0.10289775543E+02  0.87374684426E+03  0.87460261165E+03  0.00000000000E+00 0. -1.
         -2    1    1    2    0  503 -0.37286739956E+02 -0.10289775543E+02  0.59290597244E+03  0.59416636779E+03  0.00000000000E+00 0.  1.
</event>
<event>
 4    1  0.1776638E+004  0.2601850E+02  0.7546771E-02  0.1457725E+00
         21   -1    0    0  501  502  0.00000000000E+00  0.00000000000E+00  0.23879961611E+01  0.23879961611E+01  0.00000000000E+00 0. -1.
         21   -1    0    0  502  503 -0.00000000000E+00 -0.00000000000E+00 -0.37456316140E+03  0.37456316140E+03  0.00000000000E+00 0.  1.
          2    1    1    2  501    0  0.17398697184E+02 -0.19345481609E+02 -0.93148484567E+02  0.96714024316E+02  0.00000000000E+00 0. -1.
         -2    1    1    2    0  503 -0.17398697184E+02  0.19345481609E+02 -0.27902668067E+03  0.28023713325E+03  0.00000000000E+00 0.  1.
</event>
<event>
 4    1  0.1776638E+004  0.2302615E+02  0.7546771E-02  0.1492170E+00
         21   -1    0    0  503  502  0.00000000000E+00  0.00000000000E+00  0.87963720636E+01  0.87963720636E+01  0.00000000000E+00 0.  1.
         21   -1    0    0  501  503 -0.00000000000E+00 -0.00000000000E+00 -0.13964725995E+03  0.13964725995E+03  0.00000000000E+00 0. -1.
          2    1    1    2  501    0  0.10898854573E+02  0.20283451211E+02 -0.12138175650E+03  0.12354648613E+03  0.00000000000E+00 0. -1.
         -2    1    1    2    0  502 -0.10898854573E+02 -0.20283451211E+02 -0.94691313895E+01  0.24897145887E+02  0.00000000000E+00 0.  1.
</event>
<event>
 4    1  0.1776638E+004  0.2505236E+02  0.7546771E-02  0.1468218E+00
         21   -1    0    0  503  502  0.00000000000E+00  0.00000000000E+00  0.63427073862E+02  0.63427073862E+02  0.00000000000E+00 0.  1.
         21   -1    0    0  501  503 -0.00000000000E+00 -0.00000000000E+00 -0.11681242817E+02  0.11681242817E+02  0.00000000000E+00 0. -1.
          2    1    1    2  501    0 -0.86759342668E+01 -0.23502103473E+02  0.11188219620E+02  0.27437145648E+02  0.00000000000E+00 0. -1.
         -2    1    1    2    0  502  0.86759342668E+01  0.23502103473E+02  0.40557611424E+02  0.47671171031E+02  0.00000000000E+00 0.  1.
</event>
<event>
 4    1  0.1776638E+004  0.3347754E+02  0.7546771E-02  0.1391594E+00
         21   -1    0    0  503  502  0.00000000000E+00  0.00000000000E+00  0.26580124483E+03  0.26580124483E+03  0.00000000000E+00 0.  1.
         21   -1    0    0  501  503 -0.00000000000E+00 -0.00000000000E+00 -0.49464507582E+01  0.49464507582E+01  0.00000000000E+00 0. -1.
          2    1    1    2  501    0  0.12384394603E+02 -0.31102612568E+02  0.78422942947E+02  0.85269594339E+02  0.00000000000E+00 0. -1.
         -2    1    1    2    0  502 -0.12384394603E+02  0.31102612568E+02  0.18243185113E+03  0.18547810125E+03  0.00000000000E+00 0.  1.
</event>
<event>
 4    1  0.1776638E+004  0.2336430E+02  0.7546771E-02  0.1487974E+00
         21   -1    0    0  503  502  0.00000000000E+00  0.00000000000E+00  0.28538534435E+03  0.28538534435E+03  0.00000000000E+00 0.  1.
         21   -1    0    0  501  503 -0.00000000000E+00 -0.00000000000E+00 -0.27026426158E+01  0.27026426158E+01  0.00000000000E+00 0. -1.
          2    1    1    2  501    0  0.38839757061E+01  0.23039210981E+02  0.63472117390E+02  0.67635790791E+02  0.00000000000E+00 0. -1.
         -2    1    1    2    0  502 -0.38839757061E+01 -0.23039210981E+02  0.21921058435E+03  0.22045219618E+03  0.00000000000E+00 0.  1.
</event>
<event>
 4    1  0.1776638E+004  0.2823699E+02  0.7546771E-02  0.1435563E+00
         21   -1    0    0  503  502  0.00000000000E+00  0.00000000000E+00  0.19186228517E+02  0.19186228517E+02  0.00000000000E+00 0. -1.
         21   -1    0    0  501  503 -0.00000000000E+00 -0.00000000000E+00 -0.42817038636E+02  0.42817038636E+02  0.00000000000E+00 0.  1.
          2    1    1    2  501    0  0.13688824063E+02 -0.24697039354E+02 -0.17133036859E+02  0.33028300124E+02  0.00000000000E+00 0. -1.
         -2    1    1    2    0  502 -0.13688824063E+02  0.24697039354E+02 -0.64977732597E+01  0.28974967030E+02  0.00000000000E+00 0.  1.
</event>
<event>
 4    1  0.1776638E+004  0.2382012E+02  0.7546771E-02  0.1482449E+00
         21   -1    0    0  501  502  0.00000000000E+00  0.00000000000E+00  0.66585402569E+00  0.66585402569E+00  0.00000000000E+00 0. -1.
         21   -1    0    0  502  503 -0.00000000000E+00 -0.00000000000E+00 -0.88106184043E+03  0.88106184043E+03  0.00000000000E+00 0.  1.
          2    1    1    2  501    0  0.88907580110E+01  0.22098697988E+02 -0.52007946054E+03  0.52062466644E+03  0.00000000000E+00 0.  1.
         -2    1    1    2    0  503 -0.88907580110E+01 -0.22098697988E+02 -0.36031652586E+03  0.36110302802E+03  0.00000000000E+00 0. -1.
</event>
<event>
 4    1  0.1776638E+004  0.2198113E+02  0.7546771E-02  0.1505704E+00
         21   -1    0    0  503  502  0.00000000000E+00  0.00000000000E+00  0.12183568200E+02  0.12183568200E+02  0.00000000000E+00 0. -1.
         21   -1    0    0  501  503 -0.00000000000E+00 -0.00000000000E+00 -0.27519775658E+03  0.27519775658E+03  0.00000000000E+00 0.  1.
          2    1    1    2  501    0 -0.28532609558E+01  0.21795161717E+02 -0.26444188307E+03  0.26535387635E+03  0.00000000000E+00 0.  1.
         -2    1    1    2    0  502  0.28532609558E+01 -0.21795161717E+02  0.14276946871E+01  0.22027448433E+02  0.00000000000E+00 0. -1.
</event>
<event>
 4    1  0.1776638E+004  0.2434365E+02  0.7546771E-02  0.1476282E+00
         21   -1    0    0  501  502  0.00000000000E+00  0.00000000000E+00  0.80492552659E+01  0.80492552659E+01  0.00000000000E+00 0. -1.
         21   -1    0    0  502  503 -0.00000000000E+00 -0.00000000000E+00 -0.11848161734E+03  0.11848161734E+03  0.00000000000E+00 0.  1.
          2    1    1    2  501    0  0.11528201584E+02  0.21440940802E+02 -0.16288177984E+02  0.29290239266E+02  0.00000000000E+00 0. -1.
         -2    1    1    2    0  503 -0.11528201584E+02 -0.21440940802E+02 -0.94144184094E+02  0.97240633343E+02  0.00000000000E+00 0.  1.
</event>
<event>
 4    1  0.1776638E+004  0.2015020E+02  0.7546771E-02  0.1531752E+00
         21   -1    0    0  503  502  0.00000000000E+00  0.00000000000E+00  0.26384106028E+03  0.26384106028E+03  0.00000000000E+00 0. -1.
         21   -1    0    0  501  503 -0.00000000000E+00 -0.00000000000E+00 -0.17949486562E+01  0.17949486562E+01  0.00000000000E+00 0.  1.
          2    1    1    2  501    0  0.11987719212E+02 -0.16196457260E+02  0.80861143778E+02  0.83333997940E+02  0.00000000000E+00 0.  1.
         -2    1    1    2    0  502 -0.11987719212E+02  0.16196457260E+02  0.18118496784E+03  0.18230201099E+03  0.00000000000E+00 0. -1.
</event>
<event>
 4    1  0.1776638E+004  0.2771474E+02  0.7546771E-02  0.1440558E+00
         21   -1    0    0  503  502  0.00000000000E+00  0.00000000000E+00  0.10498401605E+03  0.10498401605E+03  0.00000000000E+00 0.  1.
         21   -1    0    0  501  503 -0.00000000000E+00 -0.00000000000E+00 -0.76060218299E+01  0.76060218299E+01  0.00000000000E+00 0. -1.
          2    1    1    2  501    0  0.17234408210E+02 -0.21704426666E+02  0.37704170557E+02  0.46794352657E+02  0.00000000000E+00 0.  1.
         -2    1    1    2    0  502 -0.17234408210E+02  0.21704426666E+02  0.59673823663E+02  0.65795685222E+02  0.00000000000E+00 0. -1.
</event>
<event>
 4    1  0.1776638E+004  0.2262075E+02  0.7546771E-02  0.1497316E+00
         21   -1    0    0  501  502  0.00000000000E+00  0.00000000000E+00  0.83631275008E+01  0.83631275008E+01  0.00000000000E+00 0.  1.
         21   -1    0    0  502  503 -0.00000000000E+00 -0.00000000000E+00 -0.61638586088E+02  0.61638586088E+02  0.00000000000E+00 0. -1.
          2    1    1    2  501    0  0.10932819745E+02  0.19803326906E+02 -0.29640085972E+02  0.37285828414E+02  0.00000000000E+00 0. -1.
         -2    1    1    2    0  503 -0.10932819745E+02 -0.19803326906E+02 -0.23635372616E+02  0.32715885175E+02  0.00000000000E+00 0.  1.
</event>
<event>
 4    1  0.1776638E+004  0.2666848E+02  0.7546771E-02  0.1450967E+00
         21   -1    0    0  501  502  0.00000000000E+00  0.00000000000E+00  0.67487483682E+03  0.67487483682E+03  0.00000000000E+00 0. -1.
         21   -1    0    0  502  503 -0.00000000000E+00 -0.00000000000E+00 -0.11481146474E+01  0.11481146474E+01  0.00000000000E+00 0.  1.
          2    1    1    2  501    0 -0.16742680911E+02  0.20757895154E+02  0.43372345474E+03  0.43454256726E+03  0.00000000000E+00 0. -1.
         -2    1    1    2    0  503  0.16742680911E+02 -0.20757895154E+02  0.24000326744E+03  0.24148038420E+03  0.00000000000E+00 0.  1.
</event>
<event>
 4    1  0.1776638E+004  0.4134228E+02  0.7546771E-02  0.1340795E+00
         21   -1    0    0  501  502  0.00000000000E+00  0.00000000000E+00  0.81186074422E+02  0.81186074422E+02  0.00000000000E+00 0.  1.
         21   -1    0    0  502  503 -0.00000000000E+00 -0.00000000000E+00 -0.21112472692E+02  0.21112472692E+02  0.00000000000E+00 0. -1.
          2    1    1    2  501    0 -0.35834202232E+02  0.20617814991E+02  0.27314735961E+02  0.49550773406E+02  0.00000000000E+00 0. -1.
         -2    1    1    2    0  503  0.35834202232E+02 -0.20617814991E+02  0.32758865769E+02  0.52747773707E+02  0.00000000000E+00 0.  1.
</event>
<event>
 4    1  0.1776638E+004  0.2084195E+02  0.7546771E-02  0.1521533E+00
         21   -1    0    0  503  502  0.00000000000E+00  0.00000000000E+00  0.99247812757E+02  0.99247812757E+02  0.00000000000E+00 0.  1.
         21   -1    0    0  501  503 -0.00000000000E+00 -0.00000000000E+00 -0.52661045004E+01  0.52661045004E+01  0.00000000000E+00 0. -1.
          2    1    1    2  501    0  0.19441690469E+02  0.75104865573E+01  0.25516143478E+02  0.32946324751E+02  0.00000000000E+00 0.  1.
         -2    1    1    2    0  502 -0.19441690469E+02 -0.75104865573E+01  0.68465564779E+02  0.71567592506E+02  0.00000000000E+00 0. -1.
</event>
<event>
 4    1  0.1776638E+004  0.3253173E+02  0.7546771E-02  0.1398799E+00
         21   -1    0    0  501  502  0.00000000000E+00  0.00000000000E+00  0.90930796586E+02  0.90930796586E+02  0.00000000000E+00 0. -1.
         21   -1    0    0  502  503 -0.00000000000E+00 -0.00000000000E+00 -0.14393350892E+02  0.14393350892E+02  0.00000000000E+00 0.  1.
          2    1    1    2  501    0  0.30571102114E+02  0.11122995075E+02  0.61307151172E+02  0.69403746935E+02  0.00000000000E+00 0. -1.
         -2    1    1    2    0  503 -0.30571102114E+02 -0.11122995075E+02  0.15230294523E+02  0.35920400543E+02  0.00000000000E+00 0.  1.
</event>
<event>
 4    1  0.1776638E+004  0.2015195E+02  0.7546771E-02  0.1531725E+00
         21   -1    0    0  503  502  0.00000000000E+00  0.00000000000E+00  0.13483480747E+03  0.13483480747E+03  0.00000000000E+00 0. -1.
         21   -1    0    0  501  503 -0.00000000000E+00 -0.00000000000E+00 -0.30508452195E+01  0.30508452195E+01  0.00000000000E+00 0.  1.
          2    1    1    2  501    0 -0.21854492806E+01  0.20033099573E+02  0.58096842902E+02  0.61492637139E+02  0.00000000000E+00 0.  1.
         -2    1    1    2    0  502  0.21854492806E+01 -0.20033099573E+02  0.73687119347E+02  0.76393015550E+02  0.00000000000E+00 0. -1.
</event>
<event>
 4    1  0.1776638E+004  0.2409258E+02  0.7546771E-02  0.1479216E+00
         21   -1    0    0  503  502  0.00000000000E+00  0.00000000000E+00  0.40306374747E+03  0.40306374747E+03  0.00000000000E+00 0. -1.
         21   -1    0    0  501  503 -0.00000000000E+00 -0.00000000000E+00 -0.14424860246E+02  0.14424860246E+02  0.00000000000E+00 0.  1.
          2    1    1    2  501    0  0.22920252791E+02 -0.74239086822E+01 -0.37309825340E+01  0.24379758792E+02  0.00000000000E+00 0.  1.
         -2    1    1    2    0  502 -0.22920252791E+02  0.74239086822E+01  0.39236986976E+03  0.39310884893E+03  0.00000000000E+00 0. -1.
</event>
<event>
 4    1  0.1776638E+004  0.6757781E+02  0.7546771E-02  0.1236053E+00
         21   -1    0    0  503  502  0.00000000000E+00  0.00000000000E+00  0.94671795558E+01  0.94671795558E+01  0.00000000000E+00 0. -1.
         21   -1    0    0  501  503 -0.00000000000E+00 -0.00000000000E+00 -0.54652766537E+03  0.54652766537E+03  0.00000000000E+00 0.  1.
          2    1    1    2  501    0 -0.65277027279E+02  0.17483405121E+02 -0.17328754808E+03  0.18599820984E+03  0.00000000000E+00 0. -1.
         -2    1    1    2    0  502  0.65277027279E+02 -0.17483405121E+02 -0.36377293774E+03  0.36999663509E+03  0.00000000000E+00 0.  1.
</event>
<event>
 4    1  0.1776638E+004  0.2900639E+02  0.7546771E-02  0.1428432E+00
         21   -1    0    0  501  502  0.00000000000E+00  0.00000000000E+00  0.11464638045E+03  0.11464638045E+03  0.00000000000E+00 0.  1.
         21   -1    0    0  502  503 -0.00000000000E+00 -0.00000000000E+00 -0.12963021370E+02  0.12963021370E+02  0.00000000000E+00 0. -1.
          2    1    1    2  501    0 -0.28602536427E+02 -0.48234335334E+01  0.92868787040E+02  0.97293279353E+02  0.00000000000E+00 0. -1.
         -2    1    1    2    0  503  0.28602536427E+02  0.48234335334E+01  0.88145720404E+01  0.30316122466E+02  0.00000000000E+00 0.  1.
</event>
<event>
 4    1  0.1776638E+004  0.2295983E+02  0.7546771E-02  0.1493003E+00
         21   -1    0    0  503  502  0.00000000000E+00  0.00000000000E+00  0.19562715233E+02  0.19562715233E+02  0.00000000000E+00 0.  1.
         21   -1    0    0  501  503 -0.00000000000E+00 -0.00000000000E+00 -0.30555937824E+02  0.30555937824E+02  0.00000000000E+00 0. -1.
          2    1    1    2  501    0 -0.19430138592E+02 -0.12232066312E+02 -0.14108923419E+02  0.26948384962E+02  0.00000000000E+00 0. -1.
         -2    1    1    2    0  502  0.19430138592E+02  0.12232066312E+02  0.31157008281E+01  0.23170268096E+02  0.00000000000E+00 0.  1.
</event>
<event>
 4    1  0.1776638E+004  0.2049559E+02  0.7546771E-02  0.1526590E+00
         21   -1    0    0  503  502  0.00000000000E+00  0.00000000000E+00  0.29142301435E+02  0.29142301435E+02  0.00000000000E+00 0.  1.
         21   -1    0    0  501  503 -0.00000000000E+00 -0.00000000000E+00 -0.31242504022E+02  0.31242504022E+02  0.00000000000E+00 0. -1.
          2    1    1    2  501    0  0.14659056068E+01  0.20443095881E+02 -0.23208697222E+02  0.30963085686E+02  0.00000000000E+00 0. -1.
         -2    1    1    2    0  502 -0.14659056068E+01 -0.20443095881E+02  0.21108494635E+02  0.29421719770E+02  0.00000000000E+00 0.  1.
</event>
<event>
 4    1  0.1776638E+004  0.2835248E+02  0.7546771E-02  0.1434476E+00
         21   -1    0    0  503  502  0.00000000000E+00  0.00000000000E+00  0.66065617310E+02  0.66065617310E+02  0.00000000000E+00 0.  1.
         21   -1    0    0  501  503 -0.00000000000E+00 -0.00000000000E+00 -0.12563136595E+02  0.12563136595E+02  0.00000000000E+00 0. -1.
          2    1    1    2  501    0  0.26753065807E+02 -0.93881103079E+01  0.33726648065E+02  0.44060752773E+02  0.00000000000E+00 0. -1.
         -2    1    1    2    0  502 -0.26753065807E+02  0.93881103079E+01  0.19775832651E+02  0.34568001132E+02  0.00000000000E+00 0.  1.
</event>
<event>
 4    1  0.1776638E+004  0.4529922E+02  0.7546771E-02  0.1319950E+00
         21   -1    0    0  501  502  0.00000000000E+00  0.00000000000E+00  0.47791108807E+01  0.47791108807E+01  0.00000000000E+00 0. -1.
         21   -1    0    0  502  503 -0.00000000000E+00 -0.00000000000E+00 -0.18181825241E+04  0.18181825241E+04  0.00000000000E+00 0.  1.
          2    1    1    2  501    0 -0.39155992976E+02 -0.22777788353E+02 -0.11008356250E+03  0.11903953193E+03  0.00000000000E+00 0. -1.
         -2    1    1    2    0  503  0.39155992976E+02  0.22777788353E+02 -0.17033198507E+04  0.17039221031E+04  0.00000000000E+00 0.  1.
</event>
<event>
 4    1  0.1776638E+004  0.2644754E+02  0.7546771E-02  0.1453238E+00
         21   -1    0    0  501  502  0.00000000000E+00  0.00000000000E+00  0.29988961323E+01  0.29988961323E+01  0.00000000000E+00 0. -1.
         21   -1    0    0  502  503 -0.00000000000E+00 -0.00000000000E+00 -0.24957429871E+03  0.24957429871E+03  0.00000000000E+00 0.  1.
          2    1    1    2  501    0  0.25667079864E+02  0.63775844321E+01 -0.90983197363E+02  0.94749220442E+02  0.00000000000E+00 0. -1.
         -2    1    1    2    0  503 -0.25667079864E+02 -0.63775844321E+01 -0.15559220521E+03  0.15782397440E+03  0.00000000000E+00 0.  1.
</event>
<event>
 4    1  0.1776638E+004  0.2560356E+02  0.7546771E-02  0.1462163E+00
         21   -1    0    0  501  502  0.00000000000E+00  0.00000000000E+00  0.49406279924E+01  0.49406279924E+01  0.00000000000E+00 0. -1.
         21   -1    0    0  502  503 -0.00000000000E+00 -0.00000000000E+00 -0.13278882485E+03  0.13278882485E+03  0.00000000000E+00 0.  1.
          2    1    1    2  501    0 -0.25201128070E+02 -0.45216613181E+01 -0.61989230543E+02  0.67068673614E+02  0.00000000000E+00 0.  1.
         -2    1    1    2    0  503  0.25201128070E+02  0.45216613181E+01 -0.65858966312E+02  0.70660779225E+02  0.00000000000E+00 0. -1.
</event>
<event>
 4    1  0.1776638E+004  0.2079142E+02  0.7546771E-02  0.1522264E+00
         21   -1    0    0  503  502  0.00000000000E+00  0.00000000000E+00  0.28281320404E+01  0.28281320404E+01  0.00000000000E+00 0. -1.
         21   -1    0    0  501  503 -0.00000000000E+00 -0.00000000000E+00 -0.24669551455E+03  0.24669551455E+03  0.00000000000E+00 0.  1.
          2    1    1    2  501    0 -0.16487959903E+01 -0.20725937351E+02 -0.19888311493E+03  0.19996693829E+03  0.00000000000E+00 0.  1.
         -2    1    1    2    0  502  0.16487959903E+01  0.20725937351E+02 -0.44984267580E+02  0.49556708295E+02  0.00000000000E+00 0. -1.
</event>
<event>
 4    1  0.1776638E+004  0.2808318E+02  0.7546771E-02  0.1437021E+00
         21   -1    0    0  501  502  0.00000000000E+00  0.00000000000E+00  0.16402100765E+03  0.16402100765E+03  0.00000000000E+00 0. -1.
         21   -1    0    0  502  503 -0.00000000000E+00 -0.00000000000E+00 -0.10442039363E+02  0.10442039363E+02  0.00000000000E+00 0.  1.
          2    1    1    2  501    0  0.27527209975E+02 -0.55603485591E+01  0.14086300215E+03  0.14363512850E+03  0.00000000000E+00 0. -1.
         -2    1    1    2    0  503 -0.27527209975E+02  0.55603485591E+01  0.12715966143E+02  0.30827918517E+02  0.00000000000E+00 0.  1.
</event>
<event>
 4    1  0.1776638E+004  0.2580030E+02  0.7546771E-02  0.1460046E+00
         21   -1    0    0  501  502  0.00000000000E+00  0.00000000000E+00  0.67743070097E+02  0.67743070097E+02  0.00000000000E+00 0. -1.
         21   -1    0    0  502  503 -0.00000000000E+00 -0.00000000000E+00 -0.13333496073E+02  0.13333496073E+02  0.00000000000E+00 0.  1.
          2    1    1    2  501    0 -0.22968232937E+02 -0.11752257021E+02  0.47996060341E+02  0.54491073376E+02  0.00000000000E+00 0. -1.
         -2    1    1    2    0  503  0.22968232937E+02  0.11752257021E+02  0.64135136831E+01  0.26585492794E+02  0.00000000000E+00 0.  1.
</event>
<event>
 4    1  0.1776638E+004  0.2573643E+02  0.7546771E-02  0.1460731E+00
         21   -1    0    0  501  502  0.00000000000E+00  0.00000000000E+00  0.58592264727E+02  0.58592264727E+02  0.00000000000E+00 0. -1.
         21   -1    0    0  502  503 -0.00000000000E+00 -0.00000000000E+00 -0.18928209444E+02  0.18928209444E+02  0.00000000000E+00 0.  1.
          2    1    1    2  501    0 -0.21302377905E+02  0.14442035430E+02  0.44430674174E+02  0.51346358190E+02  0.00000000000E+00 0. -1.
         -2    1    1    2    0  503  0.21302377905E+02 -0.14442035430E+02 -0.47666188914E+01  0.26174115982E+02  0.00000000000E+00 0.  1.
</event>
<event>
 4    1  0.1776638E+004  0.2180435E+02  0.7546771E-02  0.1508084E+00
         21   -1    0    0  501  502  0.00000000000E+00  0.00000000000E+00  0.65002720805E+02  0.65002720805E+02  0.00000000000E+00 0.  1.
         21   -1    0    0  502  503 -0.00000000000E+00 -0.00000000000E+00 -0.74134621792E+01  0.74134621792E+01  0.00000000000E+00 0. -1.
          2    1    1    2  501    0 -0.15123295926E+02 -0.15707189712E+02  0.32988591133E+02  0.39543356373E+02  0.00000000000E+00 0.  1.
         -2    1    1    2    0  503  0.15123295926E+02  0.15707189712E+02  0.24600667492E+02  0.32872826611E+02  0.00000000000E+00 0. -1.
</event>
<event>
 4    1  0.1776638E+004  0.3074725E+02  0.7546771E-02  0.1413212E+00
         21   -1    0    0  501  502  0.00000000000E+00  0.00000000000E+00  0.14040828020E+02  0.14040828020E+02  0.00000000000E+00 0. -1.
         21   -1    0    0  502  503 -0.00000000000E+00 -0.00000000000E+00 -0.87333074450E+02  0.87333074450E+02  0.00000000000E+00 0.  1.
          2    1    1    2  501    0  0.14475291071E+02  0.27126724645E+02 -0.60903084180E+02  0.68224474378E+02  0.00000000000E+00 0.  1.
         -2    1    1    2    0  503 -0.14475291071E+02 -0.27126724645E+02 -0.12389162249E+02  0.33149428091E+02  0.00000000000E+00 0. -1.
</event>
<event>
 4    1  0.1776638E+004  0.3182300E+02  0.7546771E-02  0.1404389E+00
         21   -1    0    0  503  502  0.00000000000E+00  0.00000000000E+00  0.25953270236E+01  0.25953270236E+01  0.00000000000E+00 0. -1.
         21   -1    0    0  501  503 -0.00000000000E+00 -0.00000000000E+00 -0.41548319703E+03  0.41548319703E+03  0.00000000000E+00 0.  1.
          2    1    1    2  501    0 -0.30839590423E+02  0.78500262644E+01 -0.25800776097E+03  0.25996289730E+03  0.00000000000E+00 0.  1.
         -2    1    1    2    0  502  0.30839590423E+02 -0.78500262644E+01 -0.15488010903E+03  0.15811562676E+03  0.00000000000E+00 0. -1.
</event>
<event>
 4    1  0.1776638E+004  0.2289948E+02  0.7546771E-02  0.1493764E+00
         21   -1    0    0  501  502  0.00000000000E+00  0.00000000000E+00  0.10221047586E+03  0.10221047586E+03  0.00000000000E+00 0. -1.
         21   -1    0    0  502  503 -0.00000000000E+00 -0.00000000000E+00 -0.10519375922E+02  0.10519375922E+02  0.00000000000E+00 0.  1.
          2    1    1    2  501    0 -0.10642885811E+02  0.20275980007E+02  0.86188235422E+02  0.89178463257E+02  0.00000000000E+00 0. -1.
         -2    1    1    2    0  503  0.10642885811E+02 -0.20275980007E+02  0.55028645169E+01  0.23551388527E+02  0.00000000000E+00 0.  1.
</event>
<event>
 4    1  0.1776638E+004  0.2858413E+02  0.7546771E-02  0.1432313E+00
         21   -1    0    0  501  502  0.00000000000E+00  0.00000000000E+00  0.18437983673E+02  0.18437983673E+02  0.00000000000E+00 0. -1.
         21   -1    0    0  502  503 -0.00000000000E+00 -0.00000000000E+00 -0.44319831644E+02  0.44319831644E+02  0.00000000000E+00 0.  1.
          2    1    1    2  501    0  0.77025486675E+01  0.27526775281E+02 -0.12567515512E+02  0.31224910881E+02  0.00000000000E+00 0.  1.
         -2    1    1    2    0  503 -0.77025486675E+01 -0.27526775281E+02 -0.13314332459E+02  0.31532904436E+02  0.00000000000E+00 0. -1.
</event>
<event>
 4    1  0.1776638E+004  0.2156177E+02  0.7546771E-02  0.1511393E+00
         21   -1    0    0  501  502  0.00000000000E+00  0.00000000000E+00  0.53110649906E+01  0.53110649906E+01  0.00000000000E+00 0.  1.
         21   -1    0    0  502  503 -0.00000000000E+00 -0.00000000000E+00 -0.16819249316E+03  0.16819249316E+03  0.00000000000E+00 0. -1.
          2    1    1    2  501    0  0.18940583356E+02 -0.10303598057E+02 -0.21365610602E+02  0.30354557272E+02  0.00000000000E+00 0.  1.
         -2    1    1    2    0  503 -0.18940583356E+02  0.10303598057E+02 -0.14151581757E+03  0.14314900088E+03  0.00000000000E+00 0. -1.
</event>
<event>
 4    1  0.1776638E+004  0.3244209E+02  0.7546771E-02  0.1399497E+00
         21   -1    0    0  501  502  0.00000000000E+00  0.00000000000E+00  0.47043396605E+02  0.47043396605E+02  0.00000000000E+00 0. -1.
         21   -1    0    0  502  503 -0.00000000000E+00 -0.00000000000E+00 -0.48820752595E+02  0.48820752595E+02  0.00000000000E+00 0.  1.
          2    1    1    2  501    0  0.29712002751E+02  0.13026364779E+02  0.34390672570E+02  0.47277982684E+02  0.00000000000E+00 0. -1.
         -2    1    1    2    0  503 -0.29712002751E+02 -0.13026364779E+02 -0.36168028561E+02  0.48586166517E+02  0.00000000000E+00 0.  1.
</event>
<event>
 4    1  0.1776638E+004  0.2005264E+02  0.7546771E-02  0.1533233E+00
         21   -1    0    0  501  502  0.00000000000E+00  0.00000000000E+00  0.15192282921E+03  0.15192282921E+03  0.00000000000E+00 0.  1.
         21   -1    0    0  502  503 -0.00000000000E+00 -0.00000000000E+00 -0.26478994028E+01  0.26478994028E+01  0.00000000000E+00 0. -1.
          2    1    1    2  501    0 -0.43033710536E+01 -0.19585432913E+02  0.76217720141E+02  0.78811477897E+02  0.00000000000E+00 0.  1.
         -2    1    1    2    0  503  0.43033710536E+01  0.19585432913E+02  0.73057209663E+02  0.75759250712E+02  0.00000000000E+00 0. -1.
</event>
<event>
 4    1  0.1776638E+004  0.2040667E+02  0.7546771E-02  0.1527907E+00
         21   -1    0    0  503  502  0.00000000000E+00  0.00000000000E+00  0.40714731789E+02  0.40714731789E+02  0.00000000000E+00 0. -1.
         21   -1    0    0  501  503 -0.00000000000E+00 -0.00000000000E+00 -0.11260073386E+02  0.11260073386E+02  0.00000000000E+00 0.  1.
          2    1    1    2  501    0 -0.16594155974E+02 -0.11877128884E+02  0.68598138509E+01  0.21528800456E+02  0.00000000000E+00 0. -1.
         -2    1    1    2    0  502  0.16594155974E+02  0.11877128884E+02  0.22594844552E+02  0.30446004719E+02  0.00000000000E+00 0.  1.
</event>
<event>
 4    1  0.1776638E+004  0.4564351E+02  0.7546771E-02  0.1318253E+00
         21   -1    0    0  501  502  0.00000000000E+00  0.00000000000E+00  0.15099256120E+02  0.15099256120E+02  0.00000000000E+00 0. -1.
         21   -1    0    0  502  503 -0.00000000000E+00 -0.00000000000E+00 -0.17313723487E+03  0.17313723487E+03  0.00000000000E+00 0.  1.
          2    1    1    2  501    0 -0.18244739487E+02  0.41838497073E+02 -0.36604667523E+02  0.58508392908E+02  0.00000000000E+00 0. -1.
         -2    1    1    2    0  503  0.18244739487E+02 -0.41838497073E+02 -0.12143331123E+03  0.12972809809E+03  0.00000000000E+00 0.  1.
</event>
<event>
 4    1  0.1776638E+004  0.2066118E+02  0.7546771E-02  0.1524158E+00
         21   -1    0    0  503  502  0.00000000000E+00  0.00000000000E+00  0.22609123200E+03  0.22609123200E+03  0.00000000000E+00 0.  1.
         21   -1    0    0  501  503 -0.00000000000E+00 -0.00000000000E+00 -0.22130891358E+01  0.22130891358E+01  0.00000000000E+00 0. -1.
          2    1    1    2  501    0  0.19830074118E+02 -0.58010768256E+01  0.68195449431E+02  0.71256604290E+02  0.00000000000E+00 0. -1.
         -2    1    1    2    0  502 -0.19830074118E+02  0.58010768256E+01  0.15568269344E+03  0.15704771685E+03  0.00000000000E+00 0.  1.
</event>
<event>
 4    1  0.1776638E+004  0.3146467E+02  0.7546771E-02  0.1407282E+00
         21   -1    0    0  503  502  0.00000000000E+00  0.00000000000E+00  0.47180674668E+02  0.47180674668E+02  0.00000000000E+00 0.  1.
         21   -1    0    0  501  503 -0.00000000000E+00 -0.00000000000E+00 -0.10977537765E+03  0.10977537765E+03  0.00000000000E+00 0. -1.
          2    1    1    2  501    0  0.31191964475E+02  0.41335893541E+01 -0.10187736349E+03  0.10662561793E+03  0.00000000000E+00 0. -1.
         -2    1    1    2    0  502 -0.31191964475E+02 -0.41335893541E+01  0.39282660506E+02  0.50330434383E+02  0.00000000000E+00 0.  1.
</event>
<event>
 4    1  0.1776638E+004  0.2024144E+02  0.7546771E-02  0.1530376E+00
         21   -1    0    0  503  502  0.00000000000E+00  0.00000000000E+00  0.13967706295E+02  0.13967706295E+02  0.00000000000E+00 0.  1.
         21   -1    0    0  501  503 -0.00000000000E+00 -0.00000000000E+00 -0.32089547572E+02  0.32089547572E+02  0.00000000000E+00 0. -1.
          2    1    1    2  501    0  0.19364152296E+02 -0.58945199684E+01 -0.15810289727E+02  0.25684256288E+02  0.00000000000E+00 0. -1.
         -2    1    1    2    0  502 -0.19364152296E+02  0.58945199684E+01 -0.23115515501E+01  0.20372997580E+02  0.00000000000E+00 0.  1.
</event>
<event>
 4    1  0.1776638E+004  0.2384569E+02  0.7546771E-02  0.1482143E+00
         21   -1    0    0  501  502  0.00000000000E+00  0.00000000000E+00  0.17798660333E+02  0.17798660333E+02  0.00000000000E+00 0. -1.
         21   -1    0    0  502  503 -0.00000000000E+00 -0.00000000000E+00 -0.34654612479E+02  0.34654612479E+02  0.00000000000E+00 0.  1.
          2    1    1    2  501    0  0.77441387854E+01  0.22553160217E+02 -0.15758620755E+02  0.28582352062E+02  0.00000000000E+00 0.  1.
         -2    1    1    2    0  503 -0.77441387854E+01 -0.22553160217E+02 -0.10973313914E+01  0.23870920751E+02  0.00000000000E+00 0. -1.
</event>
<event>
 4    1  0.1776638E+004  0.2191483E+02  0.7546771E-02  0.1506594E+00
         21   -1    0    0  503  502  0.00000000000E+00  0.00000000000E+00  0.20096561335E+01  0.20096561335E+01  0.00000000000E+00 0.  1.
         21   -1    0    0  501  503 -0.00000000000E+00 -0.00000000000E+00 -0.23908142912E+03  0.23908142912E+03  0.00000000000E+00 0. -1.
          2    1    1    2  501    0  0.48489041834E+00 -0.21909462443E+02 -0.11600497221E+03  0.11805682209E+03  0.00000000000E+00 0. -1.
         -2    1    1    2    0  502 -0.48489041834E+00  0.21909462443E+02 -0.12106680077E+03  0.12303426316E+03  0.00000000000E+00 0.  1.
</event>
<event>
 4    1  0.1776638E+004  0.2581532E+02  0.7546771E-02  0.1459886E+00
         21   -1    0    0  503  502  0.00000000000E+00  0.00000000000E+00  0.72108913774E+02  0.72108913774E+02  0.00000000000E+00 0. -1.
         21   -1    0    0  501  503 -0.00000000000E+00 -0.00000000000E+00 -0.11842196884E+02  0.11842196884E+02  0.00000000000E+00 0.  1.
          2    1    1    2  501    0  0.15951389790E+02 -0.20297392305E+02  0.10464326869E+02  0.27855575877E+02  0.00000000000E+00 0.  1.
         -2    1    1    2    0  502 -0.15951389790E+02  0.20297392305E+02  0.49802390021E+02  0.56095534782E+02  0.00000000000E+00 0. -1.
</event>
<event>
 4    1  0.1776638E+004  0.2353901E+02  0.7546771E-02  0.1485838E+00
         21   -1    0    0  501  502  0.00000000000E+00  0.00000000000E+00  0.47365974734E+02  0.47365974734E+02  0.00000000000E+00 0.  1.
         21   -1    0    0  502  503 -0.00000000000E+00 -0.00000000000E+00 -0.20342632906E+02  0.20342632906E+02  0.00000000000E+00 0. -1.
          2    1    1    2  501    0  0.10738602264E+02 -0.20946776788E+02  0.35580775714E+02  0.42662356203E+02  0.00000000000E+00 0.  1.
         -2    1    1    2    0  503 -0.10738602264E+02  0.20946776788E+02 -0.85574338858E+01  0.25046251438E+02  0.00000000000E+00 0. -1.
</event>
<event>
 4    1  0.1776638E+004  0.2147000E+02  0.7546771E-02  0.1512659E+00
         21   -1    0    0  501  502  0.00000000000E+00  0.00000000000E+00  0.22705398383E+01  0.22705398383E+01  0.00000000000E+00 0. -1.
         21   -1    0    0  502  503 -0.00000000000E+00 -0.00000000000E+00 -0.22592756019E+03  0.22592756019E+03  0.00000000000E+00 0.  1.
          2    1    1    2  501    0 -0.19470260250E+02 -0.90481957527E+01 -0.75495278383E+02  0.78488839581E+02  0.00000000000E+00 0. -1.
         -2    1    1    2    0  503  0.19470260250E+02  0.90481957527E+01 -0.14816174197E+03  0.14970926044E+03  0.00000000000E+00 0.  1.
</event>
<event>
 4    1  0.1776638E+004  0.3009639E+02  0.7546771E-02  0.1418761E+00
         21   -1    0    0  503  502  0.00000000000E+00  0.00000000000E+00  0.17020223652E+02  0.17020223652E+02  0.00000000000E+00 0. -1.
         21   -1    0    0  501  503 -0.00000000000E+00 -0.00000000000E+00 -0.60435880928E+02  0.60435880928E+02  0.00000000000E+00 0.  1.
          2    1    1    2  501    0 -0.13742159896E+02 -0.26775846296E+02 -0.83244959380E+01  0.31226433291E+02  0.00000000000E+00 0. -1.
         -2    1    1    2    0  502  0.13742159896E+02  0.26775846296E+02 -0.35091161338E+02  0.46229671289E+02  0.00000000000E+00 0.  1.
</event>
<event>
 4    1  0.1776638E+004  0.2976489E+02  0.7546771E-02  0.1421651E+00
         21   -1    0    0  501  502  0.00000000000E+00  0.00000000000E+00  0.22682973271E+03  0.22682973271E+03  0.00000000000E+00 0. -1.
         21   -1    0    0  502  503 -0.00000000000E+00 -0.00000000000E+00 -0.41658759424E+01  0.41658759424E+01  0.00000000000E+00 0.  1.
          2    1    1    2  501    0 -0.12630044600E+02 -0.26952372030E+02  0.14019100139E+03  0.14331596302E+03  0.00000000000E+00 0. -1.
         -2    1    1    2    0  503  0.12630044600E+02  0.26952372030E+02  0.82472855372E+02  0.87679645631E+02  0.00000000000E+00 0.  1.
</event>
<event>
 4    1  0.1776638E+004  0.2549620E+02  0.7546771E-02  0.1463328E+00
         21   -1    0    0  503  502  0.00000000000E+00  0.00000000000E+00  0.18218026445E+03  0.18218026445E+03  0.00000000000E+00 0. -1.
         21   -1    0    0  501  503 -0.00000000000E+00 -0.00000000000E+00 -0.40195949837E+01  0.40195949837E+01  0.00000000000E+00 0.  1.
          2    1    1    2  501    0  0.10319320234E+02  0.23314539123E+02  0.57881721590E+02  0.63248318546E+02  0.00000000000E+00 0.  1.
         -2    1    1    2    0  502 -0.10319320234E+02 -0.23314539123E+02  0.12027894788E+03  0.12295154089E+03  0.00000000000E+00 0. -1.
</event>
<event>
 4    1  0.1776638E+004  0.3470663E+02  0.7546771E-02  0.1382637E+00
         21   -1    0    0  503  502  0.00000000000E+00  0.00000000000E+00  0.27074314743E+03  0.27074314743E+03  0.00000000000E+00 0.  1.
         21   -1    0    0  501  503 -0.00000000000E+00 -0.00000000000E+00 -0.63300498311E+01  0.63300498311E+01  0.00000000000E+00 0. -1.
          2    1    1    2  501    0 -0.52860639536E+01 -0.34301718982E+02  0.56687748901E+02  0.66468423125E+02  0.00000000000E+00 0. -1.
         -2    1    1    2    0  502  0.52860639536E+01  0.34301718982E+02  0.20772534870E+03  0.21060477414E+03  0.00000000000E+00 0.  1.
</event>
<event>
 4    1  0.1776638E+004  0.3797767E+02  0.7546771E-02  0.1360762E+00
         21   -1    0    0  501  502  0.00000000000E+00  0.00000000000E+00  0.50862498683E+02  0.50862498683E+02  0.00000000000E+00 0.  1.
         21   -1    0    0  502  503 -0.00000000000E+00 -0.00000000000E+00 -0.55054715550E+02  0.55054715550E+02  0.00000000000E+00 0. -1.
          2    1    1    2  501    0 -0.37589499703E+02  0.54160175293E+01  0.34782710624E+02  0.51498938748E+02  0.00000000000E+00 0.  1.
         -2    1    1    2    0  503  0.37589499703E+02 -0.54160175293E+01 -0.38974927491E+02  0.54418275484E+02  0.00000000000E+00 0. -1.
</event>
<event>
 4    1  0.1776638E+004  0.2148204E+02  0.7546771E-02  0.1512493E+00
         21   -1    0    0  501  502  0.00000000000E+00  0.00000000000E+00  0.12515315368E+03  0.12515315368E+03  0.00000000000E+00 0.  1.
         21   -1    0    0  502  503 -0.00000000000E+00 -0.00000000000E+00 -0.38126610452E+01  0.38126610452E+01  0.00000000000E+00 0. -1.
          2    1    1    2  501    0  0.15618454932E+02 -0.14749299682E+02  0.72362585514E+02  0.75483917213E+02  0.00000000000E+00 0.  1.
         -2    1    1    2    0  503 -0.15618454932E+02  0.14749299682E+02  0.48977907122E+02  0.53481897514E+02  0.00000000000E+00 0. -1.
</event>
<event>
 4    1  0.1776638E+004  0.2071961E+02  0.7546771E-02  0.1523306E+00
         21   -1    0    0  503  502  0.00000000000E+00  0.00000000000E+00  0.55573231116E+01  0.55573231116E+01  0.00000000000E+00 0. -1.
         21   -1    0    0  501  503 -0.00000000000E+00 -0.00000000000E+00 -0.11493350056E+03  0.11493350056E+03  0.00000000000E+00 0.  1.
          2    1    1    2  501    0 -0.53254931538E+01  0.20023516994E+02 -0.89184778310E+02  0.91559962824E+02  0.00000000000E+00 0.  1.
         -2    1    1    2    0  502  0.53254931538E+01 -0.20023516994E+02 -0.20191399135E+02  0.28930860844E+02  0.00000000000E+00 0. -1.
</event>
<event>
 4    1  0.1776638E+004  0.3197496E+02  0.7546771E-02  0.1403176E+00
         21   -1    0    0  503  502  0.00000000000E+00  0.00000000000E+00  0.29708508218E+02  0.29708508218E+02  0.00000000000E+00 0.  1.
         21   -1    0    0  501  503 -0.00000000000E+00 -0.00000000000E+00 -0.59455049278E+02  0.59455049278E+02  0.00000000000E+00 0. -1.
          2    1    1    2  501    0  0.30457250075E+02 -0.97341787722E+01 -0.43805802768E+02  0.54234183636E+02  0.00000000000E+00 0. -1.
         -2    1    1    2    0  502 -0.30457250075E+02  0.97341787722E+01  0.14059261707E+02  0.34929373860E+02  0.00000000000E+00 0.  1.
</event>
<event>
 4    1  0.1776638E+004  0.2900078E+02  0.7546771E-02  0.1428483E+00
         21   -1    0    0  503  502  0.00000000000E+00  0.00000000000E+00  0.52291555923E+02  0.52291555923E+02  0.00000000000E+00 0.  1.
         21   -1    0    0  501  503 -0.00000000000E+00 -0.00000000000E+00 -0.17174498902E+02  0.17174498902E+02  0.00000000000E+00 0. -1.
          2    1    1    2  501    0 -0.28992127540E+02 -0.70816505456E+00  0.88054557095E+01  0.30308101347E+02  0.00000000000E+00 0. -1.
         -2    1    1    2    0  502  0.28992127540E+02  0.70816505456E+00  0.26311601311E+02  0.39157953478E+02  0.00000000000E+00 0.  1.
</event>
<event>
 4    1  0.1776638E+004  0.2561545E+02  0.7546771E-02  0.1462035E+00
         21   -1    0    0  501  502  0.00000000000E+00  0.00000000000E+00  0.19096531387E+02  0.19096531387E+02  0.00000000000E+00 0. -1.
         21   -1    0    0  502  503 -0.00000000000E+00 -0.00000000000E+00 -0.67396886453E+02  0.67396886453E+02  0.00000000000E+00 0.  1.
          2    1    1    2  501    0  0.17054309148E+02  0.19112874545E+02  0.61283363106E+01  0.26338335935E+02  0.00000000000E+00 0. -1.
         -2    1    1    2    0  503 -0.17054309148E+02 -0.19112874545E+02 -0.54428691376E+02  0.60155081904E+02  0.00000000000E+00 0.  1.
</event>
<event>
 4    1  0.1776638E+004  0.6712198E+02  0.7546771E-02  0.1237383E+00
         21   -1    0    0  501  502  0.00000000000E+00  0.00000000000E+00  0.25044451998E+02  0.25044451998E+02  0.00000000000E+00 0. -1.
         21   -1    0    0  502  503 -0.00000000000E+00 -0.00000000000E+00 -0.18410484777E+03  0.18410484777E+03  0.00000000000E+00 0.  1.
          2    1    1    2  501    0 -0.41618262311E+02 -0.52661947750E+02 -0.95344500907E+02  0.11660160527E+03  0.00000000000E+00 0.  1.
         -2    1    1    2    0  503  0.41618262311E+02  0.52661947750E+02 -0.63715894867E+02  0.92547694500E+02  0.00000000000E+00 0. -1.
</event>
<event>
 4    1  0.1776638E+004  0.2221927E+02  0.7546771E-02  0.1502542E+00
         21   -1    0    0  503  502  0.00000000000E+00  0.00000000000E+00  0.27284480025E+02  0.27284480025E+02  0.00000000000E+00 0.  1.
         21   -1    0    0  501  503 -0.00000000000E+00 -0.00000000000E+00 -0.25822006838E+02  0.25822006838E+02  0.00000000000E+00 0. -1.
          2    1    1    2  501    0 -0.16599144604E+02  0.14770385209E+02 -0.13794745923E+02  0.26153219608E+02  0.00000000000E+00 0. -1.
         -2    1    1    2    0  502  0.16599144604E+02 -0.14770385209E+02  0.15257219110E+02  0.26953267256E+02  0.00000000000E+00 0.  1.
</event>
<event>
 4    1  0.1776638E+004  0.2028006E+02  0.7546771E-02  0.1529797E+00
         21   -1    0    0  503  502  0.00000000000E+00  0.00000000000E+00  0.84807101264E+02  0.84807101264E+02  0.00000000000E+00 0.  1.
         21   -1    0    0  501  503 -0.00000000000E+00 -0.00000000000E+00 -0.58563828470E+01  0.58563828470E+01  0.00000000000E+00 0. -1.
          2    1    1    2  501    0  0.16254549826E+02 -0.12127259126E+02  0.20679817102E+02  0.28964385706E+02  0.00000000000E+00 0. -1.
         -2    1    1    2    0  502 -0.16254549826E+02  0.12127259126E+02  0.58270901315E+02  0.61699098405E+02  0.00000000000E+00 0.  1.
</event>
<event>
 4    1  0.1776638E+004  0.4072222E+02  0.7546771E-02  0.1344305E+00
         21   -1    0    0  501  502  0.00000000000E+00  0.00000000000E+00  0.54548845845E+02  0.54548845845E+02  0.00000000000E+00 0.  1.
         21   -1    0    0  502  503 -0.00000000000E+00 -0.00000000000E+00 -0.49761937396E+02  0.49761937396E+02  0.00000000000E+00 0. -1.
          2    1    1    2  501    0  0.28509573418E+02 -0.29077536890E+02  0.34926303036E+02  0.53648351064E+02  0.00000000000E+00 0.  1.
         -2    1    1    2    0  503 -0.28509573418E+02  0.29077536890E+02 -0.30139394587E+02  0.50662432177E+02  0.00000000000E+00 0. -1.
</event>
<event>
 4    1  0.1776638E+004  0.2081909E+02  0.7546771E-02  0.1521864E+00
         21   -1    0    0  503  502  0.00000000000E+00  0.00000000000E+00  0.15041705729E+03  0.15041705729E+03  0.00000000000E+00 0. -1.
         21   -1    0    0  501  503 -0.00000000000E+00 -0.00000000000E+00 -0.90154713402E+01  0.90154713402E+01  0.00000000000E+00 0.  1.
          2    1    1    2  501    0  0.47277307964E+01 -0.20275183548E+02  0.49468552753E+01  0.21398735558E+02  0.00000000000E+00 0.  1.
         -2    1    1    2    0  502 -0.47277307964E+01  0.20275183548E+02  0.13645473067E+03  0.13803379307E+03  0.00000000000E+00 0. -1.
</event>
<event>
 4    1  0.1776638E+004  0.3463293E+02  0.7546771E-02  0.1383162E+00
         21   -1    0    0  501  502  0.00000000000E+00  0.00000000000E+00  0.15324079331E+02  0.15324079331E+02  0.00000000000E+00 0.  1.
         21   -1    0    0  502  503 -0.00000000000E+00 -0.00000000000E+00 -0.96592360158E+02  0.96592360158E+02  0.00000000000E+00 0. -1.
          2    1    1    2  501    0 -0.13066510001E+02 -0.32073450197E+02 -0.16263637581E+02  0.38261544643E+02  0.00000000000E+00 0.  1.
         -2    1    1    2    0  503  0.13066510001E+02  0.32073450197E+02 -0.65004643246E+02  0.73654894846E+02  0.00000000000E+00 0. -1.
</event>
<event>
 4    1  0.1776638E+004  0.2187227E+02  0.7546771E-02  0.1507166E+00
         21   -1    0    0  503  502  0.00000000000E+00  0.00000000000E+00  0.64620124794E+01  0.64620124794E+01  0.00000000000E+00 0. -1.
         21   -1    0    0  501  503 -0.00000000000E+00 -0.00000000000E+00 -0.19845882609E+03  0.19845882609E+03  0.00000000000E+00 0.  1.
          2    1    1    2  501    0 -0.98369568742E+01 -0.19535361073E+02 -0.17712772722E+03  0.17847304503E+03  0.00000000000E+00 0.  1.
         -2    1    1    2    0  502  0.98369568742E+01  0.19535361073E+02 -0.14869086386E+02  0.26447793533E+02  0.00000000000E+00 0. -1.
</event>
<event>
 4    1  0.1776638E+004  0.2216439E+02  0.7546771E-02  0.1503266E+00
         21   -1    0    0  501  502  0.00000000000E+00  0.00000000000E+00  0.32368816374E+03  0.32368816374E+03  0.00000000000E+00 0.  1.
         21   -1    0    0  502  503 -0.00000000000E+00 -0.00000000000E+00 -0.23429276279E+01  0.23429276279E+01  0.00000000000E+00 0. -1.
          2    1    1    2  501    0 -0.20083873344E+02 -0.93754112463E+01  0.25741960715E+03  0.25837204657E+03  0.00000000000E+00 0. -1.
         -2    1    1    2    0  503  0.20083873344E+02  0.93754112463E+01  0.63925628968E+02  0.67659044801E+02  0.00000000000E+00 0.  1.
</event>
<event>
 4    1  0.1776638E+004  0.2127992E+02  0.7546771E-02  0.1515306E+00
         21   -1    0    0  503  502  0.00000000000E+00  0.00000000000E+00  0.40329145149E+01  0.40329145149E+01  0.00000000000E+00 0. -1.
         21   -1    0    0  501  503 -0.00000000000E+00 -0.00000000000E+00 -0.61837845176E+03  0.61837845176E+03  0.00000000000E+00 0.  1.
          2    1    1    2  501    0 -0.17535364733E+02  0.12055960812E+02 -0.58870995646E+03  0.58909443050E+03  0.00000000000E+00 0.  1.
         -2    1    1    2    0  502  0.17535364733E+02 -0.12055960812E+02 -0.25635580783E+02  0.33316935776E+02  0.00000000000E+00 0. -1.
</event>
<event>
 4    1  0.1776638E+004  0.2198979E+02  0.7546771E-02  0.1505588E+00
         21   -1    0    0  501  502  0.00000000000E+00  0.00000000000E+00  0.20390857032E+03  0.20390857032E+03  0.00000000000E+00 0. -1.
         21   -1    0    0  502  503 -0.00000000000E+00 -0.00000000000E+00 -0.25161566626E+01  0.25161566626E+01  0.00000000000E+00 0.  1.
          2    1    1    2  501    0  0.14245391730E+02 -0.16751710650E+02  0.12545137577E+03  0.12736403997E+03  0.00000000000E+00 0. -1.
         -2    1    1    2    0  503 -0.14245391730E+02  0.16751710650E+02  0.75941037888E+02  0.79060687012E+02  0.00000000000E+00 0.  1.
</event>
<event>
 4    1  0.1776638E+004  0.2212970E+02  0.7546771E-02  0.1503726E+00
         21   -1    0    0  501  502  0.00000000000E+00  0.00000000000E+00  0.10274272333E+03  0.10274272333E+03  0.00000000000E+00 0.  1.
         21   -1    0    0  502  503 -0.00000000000E+00 -0.00000000000E+00 -0.64266011301E+02  0.64266011301E+02  0.00000000000E+00 0. -1.
          2    1    1    2  501    0  0.20299038255E+02 -0.88132087107E+01  0.99586380189E+02  0.10201554157E+03  0.00000000000E+00 0.  1.
         -2    1    1    2    0  503 -0.20299038255E+02  0.88132087107E+01 -0.61109668161E+02  0.64993193064E+02  0.00000000000E+00 0. -1.
</event>
<event>
 4    1  0.1776638E+004  0.3672112E+02  0.7546771E-02  0.1368851E+00
         21   -1    0    0  501  502  0.00000000000E+00  0.00000000000E+00  0.89109857786E+02  0.89109857786E+02  0.00000000000E+00 0. -1.
         21   -1    0    0  502  503 -0.00000000000E+00 -0.00000000000E+00 -0.10736908123E+03  0.10736908123E+03  0.00000000000E+00 0.  1.
          2    1    1    2  501    0  0.25269753745E+02 -0.26643579154E+02  0.81924248615E+02  0.89777632379E+02  0.00000000000E+00 0. -1.
         -2    1    1    2    0  503 -0.25269753745E+02  0.26643579154E+02 -0.10018347205E+03  0.10670130663E+03  0.00000000000E+00 0.  1.
</event>
<event>
 4    1  0.1776638E+004  0.3231720E+02  0.7546771E-02  0.1400473E+00
         21   -1    0    0  501  502  0.00000000000E+00  0.00000000000E+00  0.69645614054E+02  0.69645614054E+02  0.00000000000E+00 0.  1.
         21   -1    0    0  502  503 -0.00000000000E+00 -0.00000000000E+00 -0.34865198277E+02  0.34865198277E+02  0.00000000000E+00 0. -1.
          2    1    1    2  501    0  0.69939991967E+01 -0.31551310209E+02  0.56838301914E+02  0.65383436474E+02  0.00000000000E+00 0.  1.
         -2    1    1    2    0  503 -0.69939991967E+01  0.31551310209E+02 -0.22057886136E+02  0.39127375857E+02  0.00000000000E+00 0. -1.
</event>
<event>
 4    1  0.1776638E+004  0.2524378E+02  0.7546771E-02  0.1466095E+00
         21   -1    0    0  503  502  0.00000000000E+00  0.00000000000E+00  0.17524289001E+03  0.17524289001E+03  0.00000000000E+00 0. -1.
         21   -1    0    0  501  503 -0.00000000000E+00 -0.00000000000E+00 -0.54235791338E+01  0.54235791338E+01  0.00000000000E+00 0.  1.
          2    1    1    2  501    0  0.38603033284E+01  0.24946877754E+02  0.33054516960E+02  0.41591462380E+02  0.00000000000E+00 0.  1.
         -2    1    1    2    0  502 -0.38603033284E+01 -0.24946877754E+02  0.13676479392E+03  0.13907500676E+03  0.00000000000E+00 0. -1.
</event>
<event>
 4    1  0.1776638E+004  0.4953759E+02  0.7546771E-02  0.1300190E+00
         21   -1    0    0  501  502  0.00000000000E+00  0.00000000000E+00  0.78387484112E+02  0.78387484112E+02  0.00000000000E+00 0.  1.
         21   -1    0    0  502  503 -0.00000000000E+00 -0.00000000000E+00 -0.42306624515E+02  0.42306624515E+02  0.00000000000E+00 0. -1.
          2    1    1    2  501    0  0.57604219607E+01  0.49201529332E+02  0.48813229643E+02  0.69546418585E+02  0.00000000000E+00 0.  1.
         -2    1    1    2    0  503 -0.57604219607E+01 -0.49201529332E+02 -0.12732370046E+02  0.51147690043E+02  0.00000000000E+00 0. -1.
</event>
<event>
 4    1  0.1776638E+004  0.2081429E+02  0.7546771E-02  0.1521933E+00
         21   -1    0    0  501  502  0.00000000000E+00  0.00000000000E+00  0.18937403194E+03  0.18937403194E+03  0.00000000000E+00 0.  1.
         21   -1    0    0  502  503 -0.00000000000E+00 -0.00000000000E+00 -0.16050117924E+02  0.16050117924E+02  0.00000000000E+00 0. -1.
          2    1    1    2  501    0 -0.17238205108E+02 -0.11665289737E+02  0.18177267262E+03  0.18296048538E+03  0.00000000000E+00 0.  1.
         -2    1    1    2    0  503  0.17238205108E+02  0.11665289737E+02 -0.84487586039E+01  0.22463664481E+02  0.00000000000E+00 0. -1.
</event>
<event>
 4    1  0.1776638E+004  0.2341320E+02  0.7546771E-02  0.1487374E+00
         21   -1    0    0  503  502  0.00000000000E+00  0.00000000000E+00  0.75112533504E+01  0.75112533504E+01  0.00000000000E+00 0. -1.
         21   -1    0    0  501  503 -0.00000000000E+00 -0.00000000000E+00 -0.93564067613E+02  0.93564067613E+02  0.00000000000E+00 0.  1.
          2    1    1    2  501    0 -0.21912661753E+02  0.82470225178E+01 -0.66730129785E+02  0.70718373473E+02  0.00000000000E+00 0. -1.
         -2    1    1    2    0  502  0.21912661753E+02 -0.82470225178E+01 -0.19322684477E+02  0.30356947490E+02  0.00000000000E+00 0.  1.
</event>
<event>
 4    1  0.1776638E+004  0.2067298E+02  0.7546771E-02  0.1523985E+00
         21   -1    0    0  501  502  0.00000000000E+00  0.00000000000E+00  0.43503300335E+02  0.43503300335E+02  0.00000000000E+00 0. -1.
         21   -1    0    0  502  503 -0.00000000000E+00 -0.00000000000E+00 -0.19866290021E+02  0.19866290021E+02  0.00000000000E+00 0.  1.
          2    1    1    2  501    0 -0.20302971452E+02 -0.38937588325E+01  0.34345906302E+02  0.40087570235E+02  0.00000000000E+00 0. -1.
         -2    1    1    2    0  503  0.20302971452E+02  0.38937588325E+01 -0.10708895989E+02  0.23282020121E+02  0.00000000000E+00 0.  1.
</event>
<event>
 4    1  0.1776638E+004  0.2013467E+02  0.7546771E-02  0.1531987E+00
         21   -1    0    0  503  502  0.00000000000E+00  0.00000000000E+00  0.45600765082E+02  0.45600765082E+02  0.00000000000E+00 0. -1.
         21   -1    0    0  501  503 -0.00000000000E+00 -0.00000000000E+00 -0.90299590353E+01  0.90299590353E+01  0.00000000000E+00 0.  1.
          2    1    1    2  501    0 -0.14279393569E+02 -0.14195200437E+02  0.14888463050E+02  0.25041388302E+02  0.00000000000E+00 0.  1.
         -2    1    1    2    0  502  0.14279393569E+02  0.14195200437E+02  0.21682342996E+02  0.29589335814E+02  0.00000000000E+00 0. -1.
</event>
<event>
 4    1  0.1776638E+004  0.2393937E+02  0.7546771E-02  0.1481028E+00
         21   -1    0    0  501  502  0.00000000000E+00  0.00000000000E+00  0.44257782164E+01  0.44257782164E+01  0.00000000000E+00 0.  1.
         21   -1    0    0  502  503 -0.00000000000E+00 -0.00000000000E+00 -0.48610146822E+03  0.48610146822E+03  0.00000000000E+00 0. -1.
          2    1    1    2  501    0 -0.19997396791E+02  0.13160449369E+02 -0.30766205725E+02  0.38982723362E+02  0.00000000000E+00 0.  1.
         -2    1    1    2    0  503  0.19997396791E+02 -0.13160449369E+02 -0.45090948427E+03  0.45154452307E+03  0.00000000000E+00 0. -1.
</event>
<event>
 4    1  0.1776638E+004  0.4194636E+02  0.7546771E-02  0.1337443E+00
         21   -1    0    0  503  502  0.00000000000E+00  0.00000000000E+00  0.26020982805E+03  0.26020982805E+03  0.00000000000E+00 0.  1.
         21   -1    0    0  501  503 -0.00000000000E+00 -0.00000000000E+00 -0.15799943133E+02  0.15799943133E+02  0.00000000000E+00 0. -1.
          2    1    1    2  501    0  0.29555048827E+02 -0.29765686693E+02  0.17827809114E+02  0.45577711585E+02  0.00000000000E+00 0. -1.
         -2    1    1    2    0  502 -0.29555048827E+02  0.29765686693E+02  0.22658207580E+03  0.23043205960E+03  0.00000000000E+00 0.  1.
</event>
<event>
 4    1  0.1776638E+004  0.2055867E+02  0.7546771E-02  0.1525660E+00
         21   -1    0    0  503  502  0.00000000000E+00  0.00000000000E+00  0.84536219353E+01  0.84536219353E+01  0.00000000000E+00 0.  1.
         21   -1    0    0  501  503 -0.00000000000E+00 -0.00000000000E+00 -0.61857867504E+02  0.61857867504E+02  0.00000000000E+00 0. -1.
          2    1    1    2  501    0  0.18782871488E+02 -0.83583805158E+01 -0.42096086246E+02  0.46848044393E+02  0.00000000000E+00 0. -1.
         -2    1    1    2    0  502 -0.18782871488E+02  0.83583805158E+01 -0.11308159323E+02  0.23463445047E+02  0.00000000000E+00 0.  1.
</event>
<event>
 4    1  0.1776638E+004  0.2316885E+02  0.7546771E-02  0.1490389E+00
         21   -1    0    0  501  502  0.00000000000E+00  0.00000000000E+00  0.27663147053E+03  0.27663147053E+03  0.00000000000E+00 0. -1.
         21   -1    0    0  502  503 -0.00000000000E+00 -0.00000000000E+00 -0.51168449368E+01  0.51168449368E+01  0.00000000000E+00 0.  1.
          2    1    1    2  501    0  0.19465699258E+02 -0.12565123584E+02  0.24675039447E+03  0.24783573784E+03  0.00000000000E+00 0. -1.
         -2    1    1    2    0  503 -0.19465699258E+02  0.12565123584E+02  0.24764231119E+02  0.33912577625E+02  0.00000000000E+00 0.  1.
</event>
<event>
 4    1  0.1776638E+004  0.4169023E+02  0.7546771E-02  0.1338856E+00
         21   -1    0    0  501  502  0.00000000000E+00  0.00000000000E+00  0.19785197293E+02  0.19785197293E+02  0.00000000000E+00 0. -1.
         21   -1    0    0  502  503 -0.00000000000E+00 -0.00000000000E+00 -0.30843888347E+03  0.30843888347E+03  0.00000000000E+00 0.  1.
          2    1    1    2  501    0 -0.21348608921E+02  0.35809381503E+02 -0.55393230792E+01  0.42056616681E+02  0.00000000000E+00 0. -1.
         -2    1    1    2    0  503  0.21348608921E+02 -0.35809381503E+02 -0.28311436310E+03  0.28616746408E+03  0.00000000000E+00 0.  1.
</event>
<event>
 4    1  0.1776638E+004  0.2415238E+02  0.7546771E-02  0.1478513E+00
         21   -1    0    0  501  502  0.00000000000E+00  0.00000000000E+00  0.47740867097E+01  0.47740867097E+01  0.00000000000E+00 0. -1.
         21   -1    0    0  502  503 -0.00000000000E+00 -0.00000000000E+00 -0.47790743866E+03  0.47790743866E+03  0.00000000000E+00 0.  1.
          2    1    1    2  501    0 -0.19147804380E+02 -0.14720706960E+02 -0.28351495086E+02  0.37244394204E+02  0.00000000000E+00 0. -1.
         -2    1    1    2    0  503  0.19147804380E+02  0.14720706960E+02 -0.44478185687E+03  0.44543713117E+03  0.00000000000E+00 0.  1.
</event>
<event>
 4    1  0.1776638E+004  0.2206846E+02  0.7546771E-02  0.1504539E+00
         21   -1    0    0  503  502  0.00000000000E+00  0.00000000000E+00  0.39615383741E+02  0.39615383741E+02  0.00000000000E+00 0.  1.
         21   -1    0    0  501  503 -0.00000000000E+00 -0.00000000000E+00 -0.47554593072E+02  0.47554593072E+02  0.00000000000E+00 0. -1.
          2    1    1    2  501    0 -0.12335395333E+02 -0.18299045896E+02 -0.41500398935E+02  0.47003193194E+02  0.00000000000E+00 0. -1.
         -2    1    1    2    0  502  0.12335395333E+02  0.18299045896E+02  0.33561189603E+02  0.40166783619E+02  0.00000000000E+00 0.  1.
</event>
<event>
 4    1  0.1776638E+004  0.5041951E+02  0.7546771E-02  0.1296364E+00
         21   -1    0    0  501  502  0.00000000000E+00  0.00000000000E+00  0.51129391054E+02  0.51129391054E+02  0.00000000000E+00 0. -1.
         21   -1    0    0  502  503 -0.00000000000E+00 -0.00000000000E+00 -0.50769461723E+02  0.50769461723E+02  0.00000000000E+00 0.  1.
          2    1    1    2  501    0  0.39332561586E+02  0.31544828550E+02  0.75070188311E+01  0.50975307168E+02  0.00000000000E+00 0. -1.
         -2    1    1    2    0  503 -0.39332561586E+02 -0.31544828550E+02 -0.71470895001E+01  0.50923545610E+02  0.00000000000E+00 0.  1.
</event>
<event>
 4    1  0.1776638E+004  0.2104706E+02  0.7546771E-02  0.1518594E+00
         21   -1    0    0  501  502  0.00000000000E+00  0.00000000000E+00  0.98396909715E+01  0.98396909715E+01  0.00000000000E+00 0. -1.
         21   -1    0    0  502  503 -0.00000000000E+00 -0.00000000000E+00 -0.49347956635E+02  0.49347956635E+02  0.00000000000E+00 0.  1.
          2    1    1    2  501    0 -0.20921363303E+02 -0.22967993793E+01 -0.10989592455E+02  0.23743417450E+02  0.00000000000E+00 0. -1.
         -2    1    1    2    0  503  0.20921363303E+02  0.22967993793E+01 -0.28518673208E+02  0.35444230157E+02  0.00000000000E+00 0.  1.
</event>
<event>
 4    1  0.1776638E+004  0.2652720E+02  0.7546771E-02  0.1452416E+00
         21   -1    0    0  503  502  0.00000000000E+00  0.00000000000E+00  0.25866150553E+02  0.25866150553E+02  0.00000000000E+00 0.  1.
         21   -1    0    0  501  503 -0.00000000000E+00 -0.00000000000E+00 -0.28618554575E+02  0.28618554575E+02  0.00000000000E+00 0. -1.
          2    1    1    2  501    0 -0.15438746455E+02  0.21571680681E+02 -0.74303806662E+01  0.27548191526E+02  0.00000000000E+00 0.  1.
         -2    1    1    2    0  502  0.15438746455E+02 -0.21571680681E+02  0.46779766444E+01  0.26936513602E+02  0.00000000000E+00 0. -1.
</event>
<event>
 4    1  0.1776638E+004  0.2084504E+02  0.7546771E-02  0.1521489E+00
         21   -1    0    0  503  502  0.00000000000E+00  0.00000000000E+00  0.43603764724E+02  0.43603764724E+02  0.00000000000E+00 0.  1.
         21   -1    0    0  501  503 -0.00000000000E+00 -0.00000000000E+00 -0.10065430953E+02  0.10065430953E+02  0.00000000000E+00 0. -1.
          2    1    1    2  501    0 -0.12003523802E+02 -0.17042037539E+02  0.14089944776E+02  0.25160329309E+02  0.00000000000E+00 0.  1.
         -2    1    1    2    0  502  0.12003523802E+02  0.17042037539E+02  0.19448388995E+02  0.28508866369E+02  0.00000000000E+00 0. -1.
</event>
<event>
 4    1  0.1776638E+004  0.2194486E+02  0.7546771E-02  0.1506190E+00
         21   -1    0    0  501  502  0.00000000000E+00  0.00000000000E+00  0.21549873028E+02  0.21549873028E+02  0.00000000000E+00 0.  1.
         21   -1    0    0  502  503 -0.00000000000E+00 -0.00000000000E+00 -0.88112376554E+02  0.88112376554E+02  0.00000000000E+00 0. -1.
          2    1    1    2  501    0  0.10522533035E+02 -0.19257544623E+02  0.14089152426E+02  0.26078361576E+02  0.00000000000E+00 0.  1.
         -2    1    1    2    0  503 -0.10522533035E+02  0.19257544623E+02 -0.80651655952E+02  0.83583888006E+02  0.00000000000E+00 0. -1.
</event>
<event>
 4    1  0.1776638E+004  0.2064543E+02  0.7546771E-02  0.1524388E+00
         21   -1    0    0  503  502  0.00000000000E+00  0.00000000000E+00  0.30397292577E+02  0.30397292577E+02  0.00000000000E+00 0.  1.
         21   -1    0    0  501  503 -0.00000000000E+00 -0.00000000000E+00 -0.17739711593E+02  0.17739711593E+02  0.00000000000E+00 0. -1.
          2    1    1    2  501    0  0.96066807967E+01 -0.18274177818E+02 -0.46893362542E+01  0.21171295788E+02  0.00000000000E+00 0.  1.
         -2    1    1    2    0  502 -0.96066807967E+01  0.18274177818E+02  0.17346917238E+02  0.26965708382E+02  0.00000000000E+00 0. -1.
</event>
<event>
 4    1  0.1776638E+004  0.2028230E+02  0.7546771E-02  0.1529763E+00
         21   -1    0    0  501  502  0.00000000000E+00  0.00000000000E+00  0.78452359069E+01  0.78452359069E+01  0.00000000000E+00 0.  1.
         21   -1    0    0  502  503 -0.00000000000E+00 -0.00000000000E+00 -0.65317131565E+02  0.65317131565E+02  0.00000000000E+00 0. -1.
          2    1    1    2  501    0  0.19924469240E+02 -0.37930260352E+01 -0.12490789910E+02  0.23819978035E+02  0.00000000000E+00 0. -1.
         -2    1    1    2    0  503 -0.19924469240E+02  0.37930260352E+01 -0.44981105748E+02  0.49342389437E+02  0.00000000000E+00 0.  1.
</event>
<event>
 4    1  0.1776638E+004  0.5556408E+02  0.7546771E-02  0.1275698E+00
         21   -1    0    0  501  502  0.00000000000E+00  0.00000000000E+00  0.91582923619E+02  0.91582923619E+02  0.00000000000E+00 0. -1.
         21   -1    0    0  502  503 -0.00000000000E+00 -0.00000000000E+00 -0.60708505307E+02  0.60708505307E+02  0.00000000000E+00 0.  1.
          2    1    1    2  501    0 -0.39236914766E+02  0.39342491053E+02  0.66215862989E+02  0.86440196633E+02  0.00000000000E+00 0. -1.
         -2    1    1    2    0  503  0.39236914766E+02 -0.39342491053E+02 -0.35341444677E+02  0.65851232292E+02  0.00000000000E+00 0.  1.
</event>
<event>
 4    1  0.1776638E+004  0.2220502E+02  0.7546771E-02  0.1502730E+00
         21   -1    0    0  503  502  0.00000000000E+00  0.00000000000E+00  0.95833530736E+01  0.95833530736E+01  0.00000000000E+00 0.  1.
         21   -1    0    0  501  503 -0.00000000000E+00 -0.00000000000E+00 -0.50023608270E+03  0.50023608270E+03  0.00000000000E+00 0. -1.
          2    1    1    2  501    0  0.25377383818E+01 -0.22059525120E+02 -0.48677158551E+03  0.48727778446E+03  0.00000000000E+00 0. -1.
         -2    1    1    2    0  502 -0.25377383818E+01  0.22059525120E+02 -0.38811441201E+01  0.22541651321E+02  0.00000000000E+00 0.  1.
</event>
<event>
 4    1  0.1776638E+004  0.3923290E+02  0.7546771E-02  0.1353041E+00
         21   -1    0    0  503  502  0.00000000000E+00  0.00000000000E+00  0.57802638169E+03  0.57802638169E+03  0.00000000000E+00 0. -1.
         21   -1    0    0  501  503 -0.00000000000E+00 -0.00000000000E+00 -0.23016726987E+02  0.23016726987E+02  0.00000000000E+00 0.  1.
          2    1    1    2  501    0  0.28464381048E+01  0.39129504877E+02 -0.50983204151E+01  0.39562775849E+02  0.00000000000E+00 0.  1.
         -2    1    1    2    0  502 -0.28464381048E+01 -0.39129504877E+02  0.56010797512E+03  0.56148033283E+03  0.00000000000E+00 0. -1.
</event>
<event>
 4    1  0.1776638E+004  0.4634289E+02  0.7546771E-02  0.1314858E+00
         21   -1    0    0  501  502  0.00000000000E+00  0.00000000000E+00  0.76659312712E+02  0.76659312712E+02  0.00000000000E+00 0. -1.
         21   -1    0    0  502  503 -0.00000000000E+00 -0.00000000000E+00 -0.33038484216E+02  0.33038484216E+02  0.00000000000E+00 0.  1.
          2    1    1    2  501    0  0.42512595982E+02 -0.18448367810E+02  0.43196475124E+02  0.63352968006E+02  0.00000000000E+00 0. -1.
         -2    1    1    2    0  503 -0.42512595982E+02  0.18448367810E+02  0.42435337152E+00  0.46344828922E+02  0.00000000000E+00 0.  1.
</event>
<event>
 4    1  0.1776638E+004  0.3055945E+02  0.7546771E-02  0.1414796E+00
         21   -1    0    0  501  502  0.00000000000E+00  0.00000000000E+00  0.19361015634E+02  0.19361015634E+02  0.00000000000E+00 0. -1.
         21   -1    0    0  502  503 -0.00000000000E+00 -0.00000000000E+00 -0.64309174113E+02  0.64309174113E+02  0.00000000000E+00 0.  1.
          2    1    1    2  501    0 -0.14489069038E+02  0.26906262203E+02 -0.15586108503E+01  0.30599172131E+02  0.00000000000E+00 0. -1.
         -2    1    1    2    0  503  0.14489069038E+02 -0.26906262203E+02 -0.43389547629E+02  0.53071017616E+02  0.00000000000E+00 0.  1.
</event>
<event>
 4    1  0.1776638E+004  0.4564021E+02  0.7546771E-02  0.1318269E+00
         21   -1    0    0  501  502  0.00000000000E+00  0.00000000000E+00  0.22680958775E+03  0.22680958775E+03  0.00000000000E+00 0.  1.
         21   -1    0    0  502  503 -0.00000000000E+00 -0.00000000000E+00 -0.11871648471E+02  0.11871648471E+02  0.00000000000E+00 0. -1.
          2    1    1    2  501    0  0.28571445820E+02 -0.35590746712E+02  0.16425161379E+03  0.17047469431E+03  0.00000000000E+00 0.  1.
         -2    1    1    2    0  503 -0.28571445820E+02  0.35590746712E+02  0.50686325489E+02  0.68206541910E+02  0.00000000000E+00 0. -1.
</event>
<event>
 4    1  0.1776638E+004  0.3051654E+02  0.7546771E-02  0.1415160E+00
         21   -1    0    0  501  502  0.00000000000E+00  0.00000000000E+00  0.13751984403E+02  0.13751984403E+02  0.00000000000E+00 0.  1.
         21   -1    0    0  502  503 -0.00000000000E+00 -0.00000000000E+00 -0.36248472399E+03  0.36248472399E+03  0.00000000000E+00 0. -1.
          2    1    1    2  501    0  0.22087605204E+02 -0.21056987737E+02 -0.47274775221E+01  0.30880545331E+02  0.00000000000E+00 0.  1.
         -2    1    1    2    0  503 -0.22087605204E+02  0.21056987737E+02 -0.34400526207E+03  0.34535616307E+03  0.00000000000E+00 0. -1.
</event>
<event>
 4    1  0.1776638E+004  0.2099368E+02  0.7546771E-02  0.1519355E+00
         21   -1    0    0  501  502  0.00000000000E+00  0.00000000000E+00  0.69701758389E+02  0.69701758389E+02  0.00000000000E+00 0.  1.
         21   -1    0    0  502  503 -0.00000000000E+00 -0.00000000000E+00 -0.68110708634E+01  0.68110708634E+01  0.00000000000E+00 0. -1.
          2    1    1    2  501    0 -0.20481215298E+02 -0.46102423528E+01  0.41684691102E+02  0.46672775651E+02  0.00000000000E+00 0.  1.
         -2    1    1    2    0  503  0.20481215298E+02  0.46102423528E+01  0.21205996424E+02  0.29840053602E+02  0.00000000000E+00 0. -1.
</event>
<event>
 4    1  0.1776638E+004  0.2498188E+02  0.7546771E-02  0.1469006E+00
         21   -1    0    0  501  502  0.00000000000E+00  0.00000000000E+00  0.43307399877E+03  0.43307399877E+03  0.00000000000E+00 0. -1.
         21   -1    0    0  502  503 -0.00000000000E+00 -0.00000000000E+00 -0.14411901557E+01  0.14411901557E+01  0.00000000000E+00 0.  1.
          2    1    1    2  501    0 -0.29914975125E+01  0.24802118783E+02  0.21771828987E+03  0.21914686376E+03  0.00000000000E+00 0.  1.
         -2    1    1    2    0  503  0.29914975125E+01 -0.24802118783E+02  0.21391451875E+03  0.21536832516E+03  0.00000000000E+00 0. -1.
</event>
<event>
 4    1  0.1776638E+004  0.3961726E+02  0.7546771E-02  0.1350743E+00
         21   -1    0    0  503  502  0.00000000000E+00  0.00000000000E+00  0.49485298107E+02  0.49485298107E+02  0.00000000000E+00 0.  1.
         21   -1    0    0  501  503 -0.00000000000E+00 -0.00000000000E+00 -0.35369379360E+02  0.35369379360E+02  0.00000000000E+00 0. -1.
          2    1    1    2  501    0 -0.32433932153E+02  0.22750104172E+02 -0.65758624894E+01  0.40159297332E+02  0.00000000000E+00 0.  1.
         -2    1    1    2    0  502  0.32433932153E+02 -0.22750104172E+02  0.20691781236E+02  0.44695380135E+02  0.00000000000E+00 0. -1.
</event>
<event>
 4    1  0.1776638E+004  0.4305400E+02  0.7546771E-02  0.1331462E+00
         21   -1    0    0  503  502  0.00000000000E+00  0.00000000000E+00  0.46709281061E+02  0.46709281061E+02  0.00000000000E+00 0.  1.
         21   -1    0    0  501  503 -0.00000000000E+00 -0.00000000000E+00 -0.47881338406E+02  0.47881338406E+02  0.00000000000E+00 0. -1.
          2    1    1    2  501    0 -0.38039813697E+02  0.20164817262E+02 -0.20154227411E+02  0.47537776177E+02  0.00000000000E+00 0. -1.
         -2    1    1    2    0  502  0.38039813697E+02 -0.20164817262E+02  0.18982170066E+02  0.47052843290E+02  0.00000000000E+00 0.  1.
</event>
<event>
 4    1  0.1776638E+004  0.2161284E+02  0.7546771E-02  0.1510692E+00
         21   -1    0    0  501  502  0.00000000000E+00  0.00000000000E+00  0.53857903861E+03  0.53857903861E+03  0.00000000000E+00 0. -1.
         21   -1    0    0  502  503 -0.00000000000E+00 -0.00000000000E+00 -0.38049196769E+01  0.38049196769E+01  0.00000000000E+00 0.  1.
          2    1    1    2  501    0 -0.21611602028E+02 -0.23128155113E+00  0.50567450413E+03  0.50613616642E+03  0.00000000000E+00 0. -1.
         -2    1    1    2    0  503  0.21611602028E+02  0.23128155113E+00  0.29099614802E+02  0.36247791864E+02  0.00000000000E+00 0.  1.
</event>
<event>
 4    1  0.1776638E+004  0.4170545E+02  0.7546771E-02  0.1338772E+00
         21   -1    0    0  503  502  0.00000000000E+00  0.00000000000E+00  0.15551107584E+03  0.15551107584E+03  0.00000000000E+00 0. -1.
         21   -1    0    0  501  503 -0.00000000000E+00 -0.00000000000E+00 -0.22309675290E+02  0.22309675290E+02  0.00000000000E+00 0.  1.
          2    1    1    2  501    0  0.36244248694E+02 -0.20632479751E+02  0.38157809108E+01  0.41879648614E+02  0.00000000000E+00 0.  1.
         -2    1    1    2    0  502 -0.36244248694E+02  0.20632479751E+02  0.12938561964E+03  0.13594110252E+03  0.00000000000E+00 0. -1.
</event>
<event>
 4    1  0.1776638E+004  0.3014710E+02  0.7546771E-02  0.1418322E+00
         21   -1    0    0  503  502  0.00000000000E+00  0.00000000000E+00  0.15271854172E+03  0.15271854172E+03  0.00000000000E+00 0.  1.
         21   -1    0    0  501  503 -0.00000000000E+00 -0.00000000000E+00 -0.14404891723E+02  0.14404891723E+02  0.00000000000E+00 0. -1.
          2    1    1    2  501    0  0.21705294110E+02 -0.20921950384E+02  0.51424702997E+01  0.30582557137E+02  0.00000000000E+00 0. -1.
         -2    1    1    2    0  502 -0.21705294110E+02  0.20921950384E+02  0.13317117970E+03  0.13654087630E+03  0.00000000000E+00 0.  1.
</event>
<event>
 4    1  0.1776638E+004  0.2745270E+02  0.7546771E-02  0.1443113E+00
         21   -1    0    0  501  502  0.00000000000E+00  0.00000000000E+00  0.51675092619E+03  0.51675092619E+03  0.00000000000E+00 0. -1.
         21   -1    0    0  502  503 -0.00000000000E+00 -0.00000000000E+00 -0.18322949805E+01  0.18322949805E+01  0.00000000000E+00 0.  1.
          2    1    1    2  501    0  0.30294389615E+01  0.27285037845E+02  0.37458218787E+03  0.37558682919E+03  0.00000000000E+00 0. -1.
         -2    1    1    2    0  503 -0.30294389615E+01 -0.27285037845E+02  0.14033644335E+03  0.14299639199E+03  0.00000000000E+00 0.  1.
</event>
<event>
 4    1  0.1776638E+004  0.2391388E+02  0.7546771E-02  0.1481331E+00
         21   -1    0    0  503  502  0.00000000000E+00  0.00000000000E+00  0.15474262840E+02  0.15474262840E+02  0.00000000000E+00 0. -1.
         21   -1    0    0  501  503 -0.00000000000E+00 -0.00000000000E+00 -0.63083207804E+02  0.63083207804E+02  0.00000000000E+00 0.  1.
          2    1    1    2  501    0  0.18766154987E+02 -0.14822451259E+02 -0.49082516829E+02  0.54598233420E+02  0.00000000000E+00 0.  1.
         -2    1    1    2    0  502 -0.18766154987E+02  0.14822451259E+02  0.14735718657E+01  0.23959237224E+02  0.00000000000E+00 0. -1.
</event>
<event>
 4    1  0.1776638E+004  0.2049430E+02  0.7546771E-02  0.1526609E+00
         21   -1    0    0  503  502  0.00000000000E+00  0.00000000000E+00  0.67231194669E+02  0.67231194669E+02  0.00000000000E+00 0. -1.
         21   -1    0    0  501  503 -0.00000000000E+00 -0.00000000000E+00 -0.97406025371E+01  0.97406025371E+01  0.00000000000E+00 0.  1.
          2    1    1    2  501    0  0.11932821437E+02  0.16662058832E+02  0.56977837526E+01  0.21271604821E+02  0.00000000000E+00 0.  1.
         -2    1    1    2    0  502 -0.11932821437E+02 -0.16662058832E+02  0.51792808379E+02  0.55700192385E+02  0.00000000000E+00 0. -1.
</event>
<event>
 4    1  0.1776638E+004  0.2447684E+02  0.7546771E-02  0.1474742E+00
         21   -1    0    0  501  502  0.00000000000E+00  0.00000000000E+00  0.21092215438E+02  0.21092215438E+02  0.00000000000E+00 0.  1.
         21   -1    0    0  502  503 -0.00000000000E+00 -0.00000000000E+00 -0.32490564436E+02  0.32490564436E+02  0.00000000000E+00 0. -1.
          2    1    1    2  501    0  0.22319241585E+02  0.10048232521E+02  0.38017303567E+01  0.24770318436E+02  0.00000000000E+00 0.  1.
         -2    1    1    2    0  503 -0.22319241585E+02 -0.10048232521E+02 -0.15200079354E+02  0.28812461438E+02  0.00000000000E+00 0. -1.
</event>
<event>
 4    1  0.1776638E+004  0.3111192E+02  0.7546771E-02  0.1410174E+00
         21   -1    0    0  503  502  0.00000000000E+00  0.00000000000E+00  0.12014382504E+03  0.12014382504E+03  0.00000000000E+00 0.  1.
         21   -1    0    0  501  503 -0.00000000000E+00 -0.00000000000E+00 -0.84618272455E+01  0.84618272455E+01  0.00000000000E+00 0. -1.
          2    1    1    2  501    0 -0.30511902764E+02  0.60807410035E+01  0.41769402354E+02  0.52082958772E+02  0.00000000000E+00 0.  1.
         -2    1    1    2    0  502  0.30511902764E+02 -0.60807410035E+01  0.69912595445E+02  0.76522693518E+02  0.00000000000E+00 0. -1.
</event>
<event>
 4    1  0.1776638E+004  0.2230368E+02  0.7546771E-02  0.1501432E+00
         21   -1    0    0  503  502  0.00000000000E+00  0.00000000000E+00  0.42510721908E+02  0.42510721908E+02  0.00000000000E+00 0.  1.
         21   -1    0    0  501  503 -0.00000000000E+00 -0.00000000000E+00 -0.18389334759E+02  0.18389334759E+02  0.00000000000E+00 0. -1.
          2    1    1    2  501    0  0.20801108189E+02  0.80478526624E+01 -0.63019894571E+01  0.23176908886E+02  0.00000000000E+00 0. -1.
         -2    1    1    2    0  502 -0.20801108189E+02 -0.80478526624E+01  0.30423376607E+02  0.37723147781E+02  0.00000000000E+00 0.  1.
</event>
<event>
 4    1  0.1776638E+004  0.2411412E+02  0.7546771E-02  0.1478963E+00
         21   -1    0    0  501  502  0.00000000000E+00  0.00000000000E+00  0.21949151285E+01  0.21949151285E+01  0.00000000000E+00 0. -1.
         21   -1    0    0  502  503 -0.00000000000E+00 -0.00000000000E+00 -0.29980897787E+03  0.29980897787E+03  0.00000000000E+00 0.  1.
          2    1    1    2  501    0  0.17045320888E+02 -0.17057199131E+02 -0.97300252278E+02  0.10024385318E+03  0.00000000000E+00 0. -1.
         -2    1    1    2    0  503 -0.17045320888E+02  0.17057199131E+02 -0.20031381046E+03  0.20176003982E+03  0.00000000000E+00 0.  1.
</event>
<event>
 4    1  0.1776638E+004  0.2226620E+02  0.7546771E-02  0.1501924E+00
         21   -1    0    0  503  502  0.00000000000E+00  0.00000000000E+00  0.10932584703E+02  0.10932584703E+02  0.00000000000E+00 0.  1.
         21   -1    0    0  501  503 -0.00000000000E+00 -0.00000000000E+00 -0.52667328513E+02  0.52667328513E+02  0.00000000000E+00 0. -1.
          2    1    1    2  501    0  0.19591382027E+02  0.10581176529E+02 -0.32721156975E+02  0.39578499975E+02  0.00000000000E+00 0. -1.
         -2    1    1    2    0  502 -0.19591382027E+02 -0.10581176529E+02 -0.90135868342E+01  0.24021413241E+02  0.00000000000E+00 0.  1.
</event>
<event>
 4    1  0.1776638E+004  0.2878249E+02  0.7546771E-02  0.1430480E+00
         21   -1    0    0  503  502  0.00000000000E+00  0.00000000000E+00  0.25985602112E+02  0.25985602112E+02  0.00000000000E+00 0.  1.
         21   -1    0    0  501  503 -0.00000000000E+00 -0.00000000000E+00 -0.37806128727E+02  0.37806128727E+02  0.00000000000E+00 0. -1.
          2    1    1    2  501    0  0.21854679920E+02 -0.18729777008E+02 -0.18537952926E+02  0.34235760250E+02  0.00000000000E+00 0. -1.
         -2    1    1    2    0  502 -0.21854679920E+02  0.18729777008E+02  0.67174263110E+01  0.29555970589E+02  0.00000000000E+00 0.  1.
</event>
<event>
 4    1  0.1776638E+004  0.2274602E+02  0.7546771E-02  0.1495712E+00
         21   -1    0    0  501  502  0.00000000000E+00  0.00000000000E+00  0.82024977042E+01  0.82024977042E+01  0.00000000000E+00 0. -1.
         21   -1    0    0  502  503 -0.00000000000E+00 -0.00000000000E+00 -0.63638915833E+02  0.63638915833E+02  0.00000000000E+00 0.  1.
          2    1    1    2  501    0 -0.15581927898E+02  0.16570604781E+02 -0.24340101377E+02  0.33313990377E+02  0.00000000000E+00 0. -1.
         -2    1    1    2    0  503  0.15581927898E+02 -0.16570604781E+02 -0.31096316752E+02  0.38527423160E+02  0.00000000000E+00 0.  1.
</event>
<event>
 4    1  0.1776638E+004  0.2581228E+02  0.7546771E-02  0.1459918E+00
         21   -1    0    0  501  502  0.00000000000E+00  0.00000000000E+00  0.10511237477E+03  0.10511237477E+03  0.00000000000E+00 0.  1.
         21   -1    0    0  502  503 -0.00000000000E+00 -0.00000000000E+00 -0.12693154188E+02  0.12693154188E+02  0.00000000000E+00 0. -1.
          2    1    1    2  501    0 -0.41994338728E+01 -0.25468379959E+02  0.87886062131E+02  0.91598217993E+02  0.00000000000E+00 0.  1.
         -2    1    1    2    0  503  0.41994338728E+01  0.25468379959E+02  0.45331584538E+01  0.26207310968E+02  0.00000000000E+00 0. -1.
</event>
<event>
 4    1  0.1776638E+004  0.2740080E+02  0.7546771E-02  0.1443623E+00
         21   -1    0    0  503  502  0.00000000000E+00  0.00000000000E+00  0.40447778884E+01  0.40447778884E+01  0.00000000000E+00 0. -1.
         21   -1    0    0  501  503 -0.00000000000E+00 -0.00000000000E+00 -0.20716304040E+03  0.20716304040E+03  0.00000000000E+00 0.  1.
          2    1    1    2  501    0  0.15110579127E+02 -0.22857695807E+02 -0.13561147282E+03  0.13835199825E+03  0.00000000000E+00 0.  1.
         -2    1    1    2    0  502 -0.15110579127E+02  0.22857695807E+02 -0.67506789690E+02  0.72855820038E+02  0.00000000000E+00 0. -1.
</event>
<event>
 4    1  0.1776638E+004  0.3722653E+02  0.7546771E-02  0.1365552E+00
         21   -1    0    0  503  502  0.00000000000E+00  0.00000000000E+00  0.32371976528E+02  0.32371976528E+02  0.00000000000E+00 0. -1.
         21   -1    0    0  501  503 -0.00000000000E+00 -0.00000000000E+00 -0.87940354501E+02  0.87940354501E+02  0.00000000000E+00 0.  1.
          2    1    1    2  501    0  0.17665150215E+02 -0.32768229755E+02 -0.70878987686E+02  0.80060260484E+02  0.00000000000E+00 0.  1.
         -2    1    1    2    0  502 -0.17665150215E+02  0.32768229755E+02  0.15310609713E+02  0.40252070545E+02  0.00000000000E+00 0. -1.
</event>
<event>
 4    1  0.1776638E+004  0.2763129E+02  0.7546771E-02  0.1441368E+00
         21   -1    0    0  503  502  0.00000000000E+00  0.00000000000E+00  0.20828834531E+02  0.20828834531E+02  0.00000000000E+00 0. -1.
         21   -1    0    0  501  503 -0.00000000000E+00 -0.00000000000E+00 -0.59684497839E+02  0.59684497839E+02  0.00000000000E+00 0.  1.
          2    1    1    2  501    0  0.25666746503E+02  0.10232610244E+02 -0.44433932735E+02  0.52324588548E+02  0.00000000000E+00 0.  1.
         -2    1    1    2    0  502 -0.25666746503E+02 -0.10232610244E+02  0.55782694262E+01  0.28188743822E+02  0.00000000000E+00 0. -1.
</event>
<event>
 4    1  0.1776638E+004  0.2437203E+02  0.7546771E-02  0.1475953E+00
         21   -1    0    0  503  502  0.00000000000E+00  0.00000000000E+00  0.15526721520E+01  0.15526721520E+01  0.00000000000E+00 0. -1.
         21   -1    0    0  501  503 -0.00000000000E+00 -0.00000000000E+00 -0.42512031661E+03  0.42512031661E+03  0.00000000000E+00 0.  1.
          2    1    1    2  501    0 -0.19279375577E+02 -0.14909773441E+02 -0.27928228416E+03  0.28034369961E+03  0.00000000000E+00 0.  1.
         -2    1    1    2    0  502  0.19279375577E+02  0.14909773441E+02 -0.14428536031E+03  0.14632928916E+03  0.00000000000E+00 0. -1.
</event>
<event>
 4    1  0.1776638E+004  0.2507943E+02  0.7546771E-02  0.1467917E+00
         21   -1    0    0  501  502  0.00000000000E+00  0.00000000000E+00  0.47809764817E+02  0.47809764817E+02  0.00000000000E+00 0.  1.
         21   -1    0    0  502  503 -0.00000000000E+00 -0.00000000000E+00 -0.23097709853E+02  0.23097709853E+02  0.00000000000E+00 0. -1.
          2    1    1    2  501    0 -0.39601944272E+01  0.24764791344E+02  0.35616118499E+02  0.43560141495E+02  0.00000000000E+00 0.  1.
         -2    1    1    2    0  503  0.39601944272E+01 -0.24764791344E+02 -0.10904063534E+02  0.27347333174E+02  0.00000000000E+00 0. -1.
</event>
<event>
 4    1  0.1776638E+004  0.2078880E+02  0.7546771E-02  0.1522302E+00
         21   -1    0    0  503  502  0.00000000000E+00  0.00000000000E+00  0.17457431903E+01  0.17457431903E+01  0.00000000000E+00 0. -1.
         21   -1    0    0  501  503 -0.00000000000E+00 -0.00000000000E+00 -0.30198627053E+03  0.30198627053E+03  0.00000000000E+00 0.  1.
          2    1    1    2  501    0  0.17560656161E+01  0.20714497330E+02 -0.21459296613E+03  0.21559757717E+03  0.00000000000E+00 0.  1.
         -2    1    1    2    0  502 -0.17560656161E+01 -0.20714497330E+02 -0.85647561203E+02  0.88134436550E+02  0.00000000000E+00 0. -1.
</event>
<event>
 4    1  0.1776638E+004  0.2007079E+02  0.7546771E-02  0.1532956E+00
         21   -1    0    0  503  502  0.00000000000E+00  0.00000000000E+00  0.10394498736E+02  0.10394498736E+02  0.00000000000E+00 0. -1.
         21   -1    0    0  501  503 -0.00000000000E+00 -0.00000000000E+00 -0.51499078884E+02  0.51499078884E+02  0.00000000000E+00 0.  1.
          2    1    1    2  501    0 -0.12917480489E+02 -0.15361487677E+02 -0.35947076927E+02  0.41170729232E+02  0.00000000000E+00 0.  1.
         -2    1    1    2    0  502  0.12917480489E+02  0.15361487677E+02 -0.51575032202E+01  0.20722848388E+02  0.00000000000E+00 0. -1.
</event>
<event>
 4    1  0.1776638E+004  0.2049817E+02  0.7546771E-02  0.1526552E+00
         21   -1    0    0  503  502  0.00000000000E+00  0.00000000000E+00  0.76920902745E+02  0.76920902745E+02  0.00000000000E+00 0. -1.
         21   -1    0    0  501  503 -0.00000000000E+00 -0.00000000000E+00 -0.54748769229E+01  0.54748769229E+01  0.00000000000E+00 0.  1.
          2    1    1    2  501    0 -0.16944407216E+02  0.11535250866E+02  0.33758562424E+02  0.39494499432E+02  0.00000000000E+00 0.  1.
         -2    1    1    2    0  502  0.16944407216E+02 -0.11535250866E+02  0.37687463397E+02  0.42901280235E+02  0.00000000000E+00 0. -1.
</event>
<event>
 4    1  0.1776638E+004  0.2773961E+02  0.7546771E-02  0.1440317E+00
         21   -1    0    0  503  502  0.00000000000E+00  0.00000000000E+00  0.40315907462E+01  0.40315907462E+01  0.00000000000E+00 0. -1.
         21   -1    0    0  501  503 -0.00000000000E+00 -0.00000000000E+00 -0.20275375176E+03  0.20275375176E+03  0.00000000000E+00 0.  1.
          2    1    1    2  501    0 -0.27727638191E+02 -0.81474923188E+00 -0.12439857086E+03  0.12745387467E+03  0.00000000000E+00 0.  1.
         -2    1    1    2    0  502  0.27727638191E+02  0.81474923188E+00 -0.74323590154E+02  0.79331467838E+02  0.00000000000E+00 0. -1.
</event>
<event>
 4    1  0.1776638E+004  0.3238991E+02  0.7546771E-02  0.1399904E+00
         21   -1    0    0  503  502  0.00000000000E+00  0.00000000000E+00  0.45196011575E+02  0.45196011575E+02  0.00000000000E+00 0. -1.
         21   -1    0    0  501  503 -0.00000000000E+00 -0.00000000000E+00 -0.48377109920E+02  0.48377109920E+02  0.00000000000E+00 0.  1.
          2    1    1    2  501    0  0.31888815268E+02 -0.56753422986E+01 -0.35334620405E+02  0.47933719327E+02  0.00000000000E+00 0.  1.
         -2    1    1    2    0  502 -0.31888815268E+02  0.56753422986E+01  0.32153522059E+02  0.45639402168E+02  0.00000000000E+00 0. -1.
</event>
<event>
 4    1  0.1776638E+004  0.2072252E+02  0.7546771E-02  0.1523264E+00
         21   -1    0    0  501  502  0.00000000000E+00  0.00000000000E+00  0.23142876179E+03  0.23142876179E+03  0.00000000000E+00 0.  1.
         21   -1    0    0  502  503 -0.00000000000E+00 -0.00000000000E+00 -0.83439221792E+01  0.83439221792E+01  0.00000000000E+00 0. -1.
          2    1    1    2  501    0  0.12475966538E+02  0.16546094490E+02  0.21726144172E+03  0.21824746744E+03  0.00000000000E+00 0.  1.
         -2    1    1    2    0  503 -0.12475966538E+02 -0.16546094490E+02  0.58233978948E+01  0.21525216537E+02  0.00000000000E+00 0. -1.
</event>
<event>
 4    1  0.1776638E+004  0.3885451E+02  0.7546771E-02  0.1355332E+00
         21   -1    0    0  501  502  0.00000000000E+00  0.00000000000E+00  0.39217607847E+02  0.39217607847E+02  0.00000000000E+00 0. -1.
         21   -1    0    0  502  503 -0.00000000000E+00 -0.00000000000E+00 -0.55456723776E+02  0.55456723776E+02  0.00000000000E+00 0.  1.
          2    1    1    2  501    0  0.23542624020E+02 -0.30909839642E+02  0.18060036179E+02  0.42846682943E+02  0.00000000000E+00 0.  1.
         -2    1    1    2    0  503 -0.23542624020E+02  0.30909839642E+02 -0.34299152108E+02  0.51827648680E+02  0.00000000000E+00 0. -1.
</event>
<event>
 4    1  0.1776638E+004  0.3277980E+02  0.7546771E-02  0.1396882E+00
         21   -1    0    0  503  502  0.00000000000E+00  0.00000000000E+00  0.12049733317E+02  0.12049733317E+02  0.00000000000E+00 0. -1.
         21   -1    0    0  501  503 -0.00000000000E+00 -0.00000000000E+00 -0.15437647043E+03  0.15437647043E+03  0.00000000000E+00 0.  1.
          2    1    1    2  501    0  0.69519293374E-01 -0.32779727084E+02 -0.12524319354E+03  0.12946185874E+03  0.00000000000E+00 0.  1.
         -2    1    1    2    0  502 -0.69519293374E-01  0.32779727084E+02 -0.17083543571E+02  0.36964345004E+02  0.00000000000E+00 0. -1.
</event>
<event>
 4    1  0.1776638E+004  0.2056519E+02  0.7546771E-02  0.1525564E+00
         21   -1    0    0  503  502  0.00000000000E+00  0.00000000000E+00  0.21353487957E+01  0.21353487957E+01  0.00000000000E+00 0.  1.
         21   -1    0    0  501  503 -0.00000000000E+00 -0.00000000000E+00 -0.75708463763E+03  0.75708463763E+03  0.00000000000E+00 0. -1.
          2    1    1    2  501    0  0.48005719979E+01 -0.19997038797E+02 -0.70367236195E+03  0.70397281199E+03  0.00000000000E+00 0. -1.
         -2    1    1    2    0  502 -0.48005719979E+01  0.19997038797E+02 -0.51276926884E+02  0.55247174433E+02  0.00000000000E+00 0.  1.
</event>
<event>
 4    1  0.1776638E+004  0.2204881E+02  0.7546771E-02  0.1504801E+00
         21   -1    0    0  501  502  0.00000000000E+00  0.00000000000E+00  0.33891400141E+02  0.33891400141E+02  0.00000000000E+00 0. -1.
         21   -1    0    0  502  503 -0.00000000000E+00 -0.00000000000E+00 -0.15777777894E+02  0.15777777894E+02  0.00000000000E+00 0.  1.
          2    1    1    2  501    0  0.17473618911E+02  0.13447039276E+02  0.16542322222E+02  0.27564445353E+02  0.00000000000E+00 0. -1.
         -2    1    1    2    0  503 -0.17473618911E+02 -0.13447039276E+02  0.15713000260E+01  0.22104732682E+02  0.00000000000E+00 0.  1.
</event>
<event>
 4    1  0.1776638E+004  0.2731014E+02  0.7546771E-02  0.1444517E+00
         21   -1    0    0  501  502  0.00000000000E+00  0.00000000000E+00  0.20120283166E+02  0.20120283166E+02  0.00000000000E+00 0. -1.
         21   -1    0    0  502  503 -0.00000000000E+00 -0.00000000000E+00 -0.52973101762E+02  0.52973101762E+02  0.00000000000E+00 0.  1.
          2    1    1    2  501    0  0.14029477216E+02 -0.23431121651E+02  0.35985487076E+01  0.27546202017E+02  0.00000000000E+00 0. -1.
         -2    1    1    2    0  503 -0.14029477216E+02  0.23431121651E+02 -0.36451367303E+02  0.45547182910E+02  0.00000000000E+00 0.  1.
</event>
<event>
 4    1  0.1776638E+004  0.2871759E+02  0.7546771E-02  0.1431078E+00
         21   -1    0    0  503  502  0.00000000000E+00  0.00000000000E+00  0.10998038781E+02  0.10998038781E+02  0.00000000000E+00 0.  1.
         21   -1    0    0  501  503 -0.00000000000E+00 -0.00000000000E+00 -0.82828977875E+02  0.82828977875E+02  0.00000000000E+00 0. -1.
          2    1    1    2  501    0 -0.22319345533E+02  0.18070603539E+02 -0.50351401823E+02  0.57965192683E+02  0.00000000000E+00 0.  1.
         -2    1    1    2    0  502  0.22319345533E+02 -0.18070603539E+02 -0.21479537272E+02  0.35861823973E+02  0.00000000000E+00 0. -1.
</event>
<event>
 4    1  0.1776638E+004  0.3528698E+02  0.7546771E-02  0.1378557E+00
         21   -1    0    0  503  502  0.00000000000E+00  0.00000000000E+00  0.26444068655E+03  0.26444068655E+03  0.00000000000E+00 0.  1.
         21   -1    0    0  501  503 -0.00000000000E+00 -0.00000000000E+00 -0.92276463893E+01  0.92276463893E+01  0.00000000000E+00 0. -1.
          2    1    1    2  501    0 -0.72949679365E+01 -0.34524696276E+02  0.31850124109E+02  0.47535267075E+02  0.00000000000E+00 0. -1.
         -2    1    1    2    0  502  0.72949679365E+01  0.34524696276E+02  0.22336291605E+03  0.22613306587E+03  0.00000000000E+00 0.  1.
</event>
<event>
 4    1  0.1776638E+004  0.2799338E+02  0.7546771E-02  0.1437877E+00
         21   -1    0    0  501  502  0.00000000000E+00  0.00000000000E+00  0.24023562301E+01  0.24023562301E+01  0.00000000000E+00 0. -1.
         21   -1    0    0  502  503 -0.00000000000E+00 -0.00000000000E+00 -0.32973772270E+03  0.32973772270E+03  0.00000000000E+00 0.  1.
          2    1    1    2  501    0  0.27974789896E+02  0.10201242363E+01 -0.14644678534E+03  0.14909825774E+03  0.00000000000E+00 0.  1.
         -2    1    1    2    0  503 -0.27974789896E+02 -0.10201242363E+01 -0.18088858113E+03  0.18304182119E+03  0.00000000000E+00 0. -1.
</event>
<event>
 4    1  0.1776638E+004  0.2060462E+02  0.7546771E-02  0.1524985E+00
         21   -1    0    0  501  502  0.00000000000E+00  0.00000000000E+00  0.16246975876E+03  0.16246975876E+03  0.00000000000E+00 0.  1.
         21   -1    0    0  502  503 -0.00000000000E+00 -0.00000000000E+00 -0.54690582872E+01  0.54690582872E+01  0.00000000000E+00 0. -1.
          2    1    1    2  501    0  0.74098039532E+01 -0.19226157191E+02  0.13917963775E+03  0.14069655959E+03  0.00000000000E+00 0.  1.
         -2    1    1    2    0  503 -0.74098039532E+01  0.19226157191E+02  0.17821062719E+02  0.27242257457E+02  0.00000000000E+00 0. -1.
</event>
<event>
 4    1  0.1776638E+004  0.2932856E+02  0.7546771E-02  0.1425522E+00
         21   -1    0    0  501  502  0.00000000000E+00  0.00000000000E+00  0.44207385481E+01  0.44207385481E+01  0.00000000000E+00 0.  1.
         21   -1    0    0  502  503 -0.00000000000E+00 -0.00000000000E+00 -0.53011235384E+03  0.53011235384E+03  0.00000000000E+00 0. -1.
          2    1    1    2  501    0 -0.12179855744E+02  0.26679866670E+02 -0.50212533061E+02  0.58150345208E+02  0.00000000000E+00 0.  1.
         -2    1    1    2    0  503  0.12179855744E+02 -0.26679866670E+02 -0.47547908224E+03  0.47638274718E+03  0.00000000000E+00 0. -1.
</event>
<event>
 4    1  0.1776638E+004  0.2042733E+02  0.7546771E-02  0.1527600E+00
         21   -1    0    0  503  502  0.00000000000E+00  0.00000000000E+00  0.69309339662E+01  0.69309339662E+01  0.00000000000E+00 0.  1.
         21   -1    0    0  501  503 -0.00000000000E+00 -0.00000000000E+00 -0.17790718552E+03  0.17790718552E+03  0.00000000000E+00 0. -1.
          2    1    1    2  501    0 -0.20037664357E+02 -0.39708636107E+01 -0.16066034387E+03  0.16195376452E+03  0.00000000000E+00 0. -1.
         -2    1    1    2    0  502  0.20037664357E+02  0.39708636107E+01 -0.10315907682E+02  0.22884354962E+02  0.00000000000E+00 0.  1.
</event>
<event>
 4    1  0.1776638E+004  0.2330371E+02  0.7546771E-02  0.1488719E+00
         21   -1    0    0  503  502  0.00000000000E+00  0.00000000000E+00  0.31443756138E+03  0.31443756138E+03  0.00000000000E+00 0. -1.
         21   -1    0    0  501  503 -0.00000000000E+00 -0.00000000000E+00 -0.35767178837E+01  0.35767178837E+01  0.00000000000E+00 0.  1.
          2    1    1    2  501    0 -0.21814973976E+02  0.81957118708E+01  0.41085690043E+02  0.47234486436E+02  0.00000000000E+00 0.  1.
         -2    1    1    2    0  502  0.21814973976E+02 -0.81957118708E+01  0.26977515346E+03  0.27077979283E+03  0.00000000000E+00 0. -1.
</event>
<event>
 4    1  0.1776638E+004  0.2092217E+02  0.7546771E-02  0.1520379E+00
         21   -1    0    0  503  502  0.00000000000E+00  0.00000000000E+00  0.18261128715E+03  0.18261128715E+03  0.00000000000E+00 0. -1.
         21   -1    0    0  501  503 -0.00000000000E+00 -0.00000000000E+00 -0.10840067346E+02  0.10840067346E+02  0.00000000000E+00 0.  1.
          2    1    1    2  501    0 -0.12502324713E+02  0.16775847580E+02  0.52187852566E+00  0.20928677513E+02  0.00000000000E+00 0.  1.
         -2    1    1    2    0  502  0.12502324713E+02 -0.16775847580E+02  0.17124934128E+03  0.17252267699E+03  0.00000000000E+00 0. -1.
</event>
<event>
 4    1  0.1776638E+004  0.2856938E+02  0.7546771E-02  0.1432450E+00
         21   -1    0    0  501  502  0.00000000000E+00  0.00000000000E+00  0.21393791419E+03  0.21393791419E+03  0.00000000000E+00 0.  1.
         21   -1    0    0  502  503 -0.00000000000E+00 -0.00000000000E+00 -0.41669740871E+01  0.41669740871E+01  0.00000000000E+00 0. -1.
          2    1    1    2  501    0  0.25872311823E+02 -0.12117460852E+02  0.73198855933E+02  0.78576598848E+02  0.00000000000E+00 0. -1.
         -2    1    1    2    0  503 -0.25872311823E+02  0.12117460852E+02  0.13657208417E+03  0.13952828943E+03  0.00000000000E+00 0.  1.
</event>
<event>
 4    1  0.1776638E+004  0.2125146E+02  0.7546771E-02  0.1515705E+00
         21   -1    0    0  501  502  0.00000000000E+00  0.00000000000E+00  0.14058403124E+03  0.14058403124E+03  0.00000000000E+00 0.  1.
         21   -1    0    0  502  503 -0.00000000000E+00 -0.00000000000E+00 -0.33665217670E+01  0.33665217670E+01  0.00000000000E+00 0. -1.
          2    1    1    2  501    0  0.19560772520E+02  0.83066705363E+01  0.84004466020E+02  0.86650879444E+02  0.00000000000E+00 0.  1.
         -2    1    1    2    0  503 -0.19560772520E+02 -0.83066705363E+01  0.53213043453E+02  0.57299673564E+02  0.00000000000E+00 0. -1.
</event>
<event>
 4    1  0.1776638E+004  0.2586488E+02  0.7546771E-02  0.1459356E+00
         21   -1    0    0  501  502  0.00000000000E+00  0.00000000000E+00  0.25502437586E+01  0.25502437586E+01  0.00000000000E+00 0. -1.
         21   -1    0    0  502  503 -0.00000000000E+00 -0.00000000000E+00 -0.43805523823E+03  0.43805523823E+03  0.00000000000E+00 0.  1.
          2    1    1    2  501    0 -0.11041101427E+02  0.23389870501E+02 -0.78218811902E+02  0.82384309781E+02  0.00000000000E+00 0.  1.
         -2    1    1    2    0  503  0.11041101427E+02 -0.23389870501E+02 -0.35728618257E+03  0.35822117221E+03  0.00000000000E+00 0. -1.
</event>
<event>
 4    1  0.1776638E+004  0.2143819E+02  0.7546771E-02  0.1513100E+00
         21   -1    0    0  503  502  0.00000000000E+00  0.00000000000E+00  0.17483058402E+02  0.17483058402E+02  0.00000000000E+00 0. -1.
         21   -1    0    0  501  503 -0.00000000000E+00 -0.00000000000E+00 -0.44248607227E+02  0.44248607227E+02  0.00000000000E+00 0.  1.
          2    1    1    2  501    0  0.20603415112E+02 -0.59241336976E+01  0.62819431052E+01  0.22339625859E+02  0.00000000000E+00 0. -1.
         -2    1    1    2    0  502 -0.20603415112E+02  0.59241336976E+01 -0.33047491931E+02  0.39392039770E+02  0.00000000000E+00 0.  1.
</event>
<event>
 4    1  0.1776638E+004  0.5957939E+02  0.7546771E-02  0.1261268E+00
         21   -1    0    0  501  502  0.00000000000E+00  0.00000000000E+00  0.25307008927E+03  0.25307008927E+03  0.00000000000E+00 0.  1.
         21   -1    0    0  502  503 -0.00000000000E+00 -0.00000000000E+00 -0.24118768875E+02  0.24118768875E+02  0.00000000000E+00 0. -1.
          2    1    1    2  501    0 -0.44583338640E+02  0.39522519752E+02  0.20412792143E+03  0.21264503746E+03  0.00000000000E+00 0.  1.
         -2    1    1    2    0  503  0.44583338640E+02 -0.39522519752E+02  0.24823398968E+02  0.64543820681E+02  0.00000000000E+00 0. -1.
</event>
<event>
 4    1  0.1776638E+004  0.3403106E+02  0.7546771E-02  0.1387506E+00
         21   -1    0    0  501  502  0.00000000000E+00  0.00000000000E+00  0.52456800792E+02  0.52456800792E+02  0.00000000000E+00 0. -1.
         21   -1    0    0  502  503 -0.00000000000E+00 -0.00000000000E+00 -0.48749771596E+02  0.48749771596E+02  0.00000000000E+00 0.  1.
          2    1    1    2  501    0 -0.75128669674E+00  0.34022764162E+02  0.39283767172E+02  0.51974294379E+02  0.00000000000E+00 0. -1.
         -2    1    1    2    0  503  0.75128669674E+00 -0.34022764162E+02 -0.35576737977E+02  0.49232278009E+02  0.00000000000E+00 0.  1.
</event>
<event>
 4    1  0.1776638E+004  0.5929501E+02  0.7546771E-02  0.1262247E+00
         21   -1    0    0  503  502  0.00000000000E+00  0.00000000000E+00  0.10660620985E+03  0.10660620985E+03  0.00000000000E+00 0. -1.
         21   -1    0    0  501  503 -0.00000000000E+00 -0.00000000000E+00 -0.10414397155E+03  0.10414397155E+03  0.00000000000E+00 0.  1.
          2    1    1    2  501    0  0.34196239293E+02  0.48440840653E+02 -0.85875321135E+02  0.10435740800E+03  0.00000000000E+00 0.  1.
         -2    1    1    2    0  502 -0.34196239293E+02 -0.48440840653E+02  0.88337559438E+02  0.10639277340E+03  0.00000000000E+00 0. -1.
</event>
<event>
 4    1  0.1776638E+004  0.2914029E+02  0.7546771E-02  0.1427217E+00
         21   -1    0    0  503  502  0.00000000000E+00  0.00000000000E+00  0.20627890529E+03  0.20627890529E+03  0.00000000000E+00 0. -1.
         21   -1    0    0  501  503 -0.00000000000E+00 -0.00000000000E+00 -0.17492636122E+02  0.17492636122E+02  0.00000000000E+00 0.  1.
          2    1    1    2  501    0 -0.29048585650E+02  0.23099811741E+01 -0.34458282838E+01  0.29343313955E+02  0.00000000000E+00 0.  1.
         -2    1    1    2    0  502  0.29048585650E+02 -0.23099811741E+01  0.19223209745E+03  0.19442822746E+03  0.00000000000E+00 0. -1.
</event>
<event>
 4    1  0.1776638E+004  0.2180192E+02  0.7546771E-02  0.1508117E+00
         21   -1    0    0  501  502  0.00000000000E+00  0.00000000000E+00  0.33870655359E+02  0.33870655359E+02  0.00000000000E+00 0.  1.
         21   -1    0    0  502  503 -0.00000000000E+00 -0.00000000000E+00 -0.15072726412E+02  0.15072726412E+02  0.00000000000E+00 0. -1.
          2    1    1    2  501    0 -0.18323985966E+01 -0.21724774992E+02  0.15824732801E+02  0.26939667803E+02  0.00000000000E+00 0. -1.
         -2    1    1    2    0  503  0.18323985966E+01  0.21724774992E+02  0.29731961453E+01  0.22003713969E+02  0.00000000000E+00 0.  1.
</event>
<event>
 4    1  0.1776638E+004  0.2236405E+02  0.7546771E-02  0.1500642E+00
         21   -1    0    0  503  502  0.00000000000E+00  0.00000000000E+00  0.40065287007E+01  0.40065287007E+01  0.00000000000E+00 0.  1.
         21   -1    0    0  501  503 -0.00000000000E+00 -0.00000000000E+00 -0.16469100272E+03  0.16469100272E+03  0.00000000000E+00 0. -1.
          2    1    1    2  501    0  0.39655715055E+00 -0.22360536021E+02 -0.12183729264E+03  0.12387282473E+03  0.00000000000E+00 0. -1.
         -2    1    1    2    0  502 -0.39655715055E+00  0.22360536021E+02 -0.38847181372E+02  0.44824706683E+02  0.00000000000E+00 0.  1.
</event>
<event>
 4    1  0.1776638E+004  0.2009444E+02  0.7546771E-02  0.1532597E+00
         21   -1    0    0  503  502  0.00000000000E+00  0.00000000000E+00  0.85867536248E+01  0.85867536248E+01  0.00000000000E+00 0.  1.
         21   -1    0    0  501  503 -0.00000000000E+00 -0.00000000000E+00 -0.57497293092E+02  0.57497293092E+02  0.00000000000E+00 0. -1.
          2    1    1    2  501    0  0.18902508649E+02 -0.68177513841E+01 -0.38557154543E+02  0.43479198862E+02  0.00000000000E+00 0. -1.
         -2    1    1    2    0  502 -0.18902508649E+02  0.68177513841E+01 -0.10353384924E+02  0.22604847855E+02  0.00000000000E+00 0.  1.
</event>
<event>
 4    1  0.1776638E+004  0.2307459E+02  0.7546771E-02  0.1491564E+00
         21   -1    0    0  503  502  0.00000000000E+00  0.00000000000E+00  0.18206296841E+03  0.18206296841E+03  0.00000000000E+00 0. -1.
         21   -1    0    0  501  503 -0.00000000000E+00 -0.00000000000E+00 -0.42692455821E+02  0.42692455821E+02  0.00000000000E+00 0.  1.
          2    1    1    2  501    0 -0.24168462281E+01 -0.22947669892E+02 -0.38775204348E+02  0.45121537777E+02  0.00000000000E+00 0.  1.
         -2    1    1    2    0  502  0.24168462281E+01  0.22947669892E+02  0.17814571694E+03  0.17963388645E+03  0.00000000000E+00 0. -1.
</event>
<event>
 4    1  0.1776638E+004  0.5009467E+02  0.7546771E-02  0.1297763E+00
         21   -1    0    0  501  502  0.00000000000E+00  0.00000000000E+00  0.10273898945E+02  0.10273898945E+02  0.00000000000E+00 0.  1.
         21   -1    0    0  502  503 -0.00000000000E+00 -0.00000000000E+00 -0.27441534035E+03  0.27441534035E+03  0.00000000000E+00 0. -1.
          2    1    1    2  501    0 -0.10150633168E+02 -0.49055481818E+02 -0.17925940171E+03  0.18612739925E+03  0.00000000000E+00 0. -1.
         -2    1    1    2    0  503  0.10150633168E+02  0.49055481818E+02 -0.84882039694E+02  0.98561840044E+02  0.00000000000E+00 0.  1.
</event>
<event>
 4    1  0.1776638E+004  0.3379997E+02  0.7546771E-02  0.1389202E+00
         21   -1    0    0  501  502  0.00000000000E+00  0.00000000000E+00  0.14800225411E+02  0.14800225411E+02  0.00000000000E+00 0.  1.
         21   -1    0    0  502  503 -0.00000000000E+00 -0.00000000000E+00 -0.51685857148E+03  0.51685857148E+03  0.00000000000E+00 0. -1.
          2    1    1    2  501    0  0.33059783349E+02 -0.70348092542E+01 -0.58522573458E+01  0.34302867699E+02  0.00000000000E+00 0.  1.
         -2    1    1    2    0  503 -0.33059783349E+02  0.70348092542E+01 -0.49620608872E+03  0.49735592919E+03  0.00000000000E+00 0. -1.
</event>
<event>
 4    1  0.1776638E+004  0.2010125E+02  0.7546771E-02  0.1532494E+00
         21   -1    0    0  503  502  0.00000000000E+00  0.00000000000E+00  0.50343597653E+01  0.50343597653E+01  0.00000000000E+00 0.  1.
         21   -1    0    0  501  503 -0.00000000000E+00 -0.00000000000E+00 -0.80863772840E+02  0.80863772840E+02  0.00000000000E+00 0. -1.
          2    1    1    2  501    0  0.87104428361E+00  0.20082364799E+02 -0.34204966547E+02  0.39674170824E+02  0.00000000000E+00 0. -1.
         -2    1    1    2    0  502 -0.87104428361E+00 -0.20082364799E+02 -0.41624446527E+02  0.46223961781E+02  0.00000000000E+00 0.  1.
</event>
<event>
 4    1  0.1776638E+004  0.2238947E+02  0.7546771E-02  0.1500310E+00
         21   -1    0    0  503  502  0.00000000000E+00  0.00000000000E+00  0.15125347754E+02  0.15125347754E+02  0.00000000000E+00 0. -1.
         21   -1    0    0  501  503 -0.00000000000E+00 -0.00000000000E+00 -0.48705030979E+02  0.48705030979E+02  0.00000000000E+00 0.  1.
          2    1    1    2  501    0 -0.87174497028E+01 -0.20622664557E+02 -0.34830565642E+02  0.41405996253E+02  0.00000000000E+00 0.  1.
         -2    1    1    2    0  502  0.87174497028E+01  0.20622664557E+02  0.12508824168E+01  0.22424382479E+02  0.00000000000E+00 0. -1.
</event>
<event>
 4    1  0.1776638E+004  0.2153121E+02  0.7546771E-02  0.1511814E+00
         21   -1    0    0  501  502  0.00000000000E+00  0.00000000000E+00  0.39672686830E+02  0.39672686830E+02  0.00000000000E+00 0.  1.
         21   -1    0    0  502  503 -0.00000000000E+00 -0.00000000000E+00 -0.18444496045E+02  0.18444496045E+02  0.00000000000E+00 0. -1.
          2    1    1    2  501    0  0.17205876231E+02 -0.12944142324E+02  0.28204832059E+02  0.35483877309E+02  0.00000000000E+00 0. -1.
         -2    1    1    2    0  503 -0.17205876231E+02  0.12944142324E+02 -0.69766412735E+01  0.22633305566E+02  0.00000000000E+00 0.  1.
</event>
<event>
 4    1  0.1776638E+004  0.3463275E+02  0.7546771E-02  0.1383164E+00
         21   -1    0    0  501  502  0.00000000000E+00  0.00000000000E+00  0.47116405717E+02  0.47116405717E+02  0.00000000000E+00 0.  1.
         21   -1    0    0  502  503 -0.00000000000E+00 -0.00000000000E+00 -0.25670315871E+02  0.25670315871E+02  0.00000000000E+00 0. -1.
          2    1    1    2  501    0  0.24815364412E+02 -0.24158330979E+02  0.74030029940E+01  0.35415134052E+02  0.00000000000E+00 0. -1.
         -2    1    1    2    0  503 -0.24815364412E+02  0.24158330979E+02  0.14043086852E+02  0.37371587535E+02  0.00000000000E+00 0.  1.
</event>
<event>
 4    1  0.1776638E+004  0.2506360E+02  0.7546771E-02  0.1468093E+00
         21   -1    0    0  501  502  0.00000000000E+00  0.00000000000E+00  0.10396382609E+02  0.10396382609E+02  0.00000000000E+00 0.  1.
         21   -1    0    0  502  503 -0.00000000000E+00 -0.00000000000E+00 -0.12586772722E+03  0.12586772722E+03  0.00000000000E+00 0. -1.
          2    1    1    2  501    0  0.88465423229E+01  0.23450432308E+02 -0.86075099849E+01  0.26500439895E+02  0.00000000000E+00 0. -1.
         -2    1    1    2    0  503 -0.88465423229E+01 -0.23450432308E+02 -0.10686383463E+03  0.10976366994E+03  0.00000000000E+00 0.  1.
</event>
<event>
 4    1  0.1776638E+004  0.2361371E+02  0.7546771E-02  0.1484932E+00
         21   -1    0    0  501  502  0.00000000000E+00  0.00000000000E+00  0.48479557661E+02  0.48479557661E+02  0.00000000000E+00 0. -1.
         21   -1    0    0  502  503 -0.00000000000E+00 -0.00000000000E+00 -0.29305340965E+02  0.29305340965E+02  0.00000000000E+00 0.  1.
          2    1    1    2  501    0  0.54528858803E+01 -0.22975495068E+02  0.39901147031E+02  0.46364953062E+02  0.00000000000E+00 0. -1.
         -2    1    1    2    0  503 -0.54528858803E+01  0.22975495068E+02 -0.20726930335E+02  0.31419945563E+02  0.00000000000E+00 0.  1.
</event>
<event>
 4    1  0.1776638E+004  0.5723300E+02  0.7546771E-02  0.1269535E+00
         21   -1    0    0  503  502  0.00000000000E+00  0.00000000000E+00  0.17298490886E+02  0.17298490886E+02  0.00000000000E+00 0. -1.
         21   -1    0    0  501  503 -0.00000000000E+00 -0.00000000000E+00 -0.21797835451E+03  0.21797835451E+03  0.00000000000E+00 0.  1.
          2    1    1    2  501    0  0.22018212586E+02  0.52828160535E+02 -0.14296609498E+03  0.15399649524E+03  0.00000000000E+00 0.  1.
         -2    1    1    2    0  502 -0.22018212586E+02 -0.52828160535E+02 -0.57713768638E+02  0.81280350155E+02  0.00000000000E+00 0. -1.
</event>
<event>
 4    1  0.1776638E+004  0.2094168E+02  0.7546771E-02  0.1520099E+00
         21   -1    0    0  503  502  0.00000000000E+00  0.00000000000E+00  0.52402344656E+00  0.52402344656E+00  0.00000000000E+00 0. -1.
         21   -1    0    0  501  503 -0.00000000000E+00 -0.00000000000E+00 -0.11503353997E+04  0.11503353997E+04  0.00000000000E+00 0.  1.
          2    1    1    2  501    0  0.20941673888E+02 -0.17375803393E-01 -0.87527507559E+03  0.87552556328E+03  0.00000000000E+00 0.  1.
         -2    1    1    2    0  502 -0.20941673888E+02  0.17375803393E-01 -0.27453630063E+03  0.27533385983E+03  0.00000000000E+00 0. -1.
</event>
<event>
 4    1  0.1776638E+004  0.2151522E+02  0.7546771E-02  0.1512034E+00
         21   -1    0    0  503  502  0.00000000000E+00  0.00000000000E+00  0.10024835620E+02  0.10024835620E+02  0.00000000000E+00 0.  1.
         21   -1    0    0  501  503 -0.00000000000E+00 -0.00000000000E+00 -0.24648857148E+03  0.24648857148E+03  0.00000000000E+00 0. -1.
          2    1    1    2  501    0 -0.44363629704E+01  0.21052872145E+02 -0.23385267757E+03  0.23484032777E+03  0.00000000000E+00 0. -1.
         -2    1    1    2    0  502  0.44363629704E+01 -0.21052872145E+02 -0.26110582853E+01  0.21673079322E+02  0.00000000000E+00 0.  1.
</event>
<event>
 4    1  0.1776638E+004  0.2561927E+02  0.7546771E-02  0.1461993E+00
         21   -1    0    0  503  502  0.00000000000E+00  0.00000000000E+00  0.25458558221E+02  0.25458558221E+02  0.00000000000E+00 0. -1.
         21   -1    0    0  501  503 -0.00000000000E+00 -0.00000000000E+00 -0.28987856776E+03  0.28987856776E+03  0.00000000000E+00 0.  1.
          2    1    1    2  501    0  0.11064796131E+02  0.23106651595E+02 -0.28270402978E+03  0.28386249402E+03  0.00000000000E+00 0.  1.
         -2    1    1    2    0  502 -0.11064796131E+02 -0.23106651595E+02  0.18284020232E+02  0.31474631963E+02  0.00000000000E+00 0. -1.
</event>
<event>
 4    1  0.1776638E+004  0.2087356E+02  0.7546771E-02  0.1521078E+00
         21   -1    0    0  501  502  0.00000000000E+00  0.00000000000E+00  0.63768615513E+02  0.63768615513E+02  0.00000000000E+00 0.  1.
         21   -1    0    0  502  503 -0.00000000000E+00 -0.00000000000E+00 -0.32226535424E+02  0.32226535424E+02  0.00000000000E+00 0. -1.
          2    1    1    2  501    0 -0.11941847623E+02  0.17120097359E+02  0.58377700410E+02  0.61997268999E+02  0.00000000000E+00 0.  1.
         -2    1    1    2    0  503  0.11941847623E+02 -0.17120097359E+02 -0.26835620321E+02  0.33997881937E+02  0.00000000000E+00 0. -1.
</event>
<event>
 4    1  0.1776638E+004  0.3366868E+02  0.7546771E-02  0.1390172E+00
         21   -1    0    0  501  502  0.00000000000E+00  0.00000000000E+00  0.15708739118E+03  0.15708739118E+03  0.00000000000E+00 0. -1.
         21   -1    0    0  502  503 -0.00000000000E+00 -0.00000000000E+00 -0.25233035552E+02  0.25233035552E+02  0.00000000000E+00 0.  1.
          2    1    1    2  501    0 -0.78478071269E+01  0.32741283597E+02  0.14295709012E+03  0.14686834017E+03  0.00000000000E+00 0. -1.
         -2    1    1    2    0  503  0.78478071269E+01 -0.32741283597E+02 -0.11102734495E+02  0.35452086561E+02  0.00000000000E+00 0.  1.
</event>
<event>
 4    1  0.1776638E+004  0.2442029E+02  0.7546771E-02  0.1475394E+00
         21   -1    0    0  501  502  0.00000000000E+00  0.00000000000E+00  0.26089458175E+02  0.26089458175E+02  0.00000000000E+00 0. -1.
         21   -1    0    0  502  503 -0.00000000000E+00 -0.00000000000E+00 -0.87332346235E+02  0.87332346235E+02  0.00000000000E+00 0.  1.
          2    1    1    2  501    0  0.13131427264E+02  0.20589222354E+02  0.18105903673E+02  0.30400233666E+02  0.00000000000E+00 0. -1.
         -2    1    1    2    0  503 -0.13131427264E+02 -0.20589222354E+02 -0.79348791733E+02  0.83021570743E+02  0.00000000000E+00 0.  1.
</event>
<event>
 4    1  0.1776638E+004  0.3274912E+02  0.7546771E-02  0.1397118E+00
         21   -1    0    0  503  502  0.00000000000E+00  0.00000000000E+00  0.16366434187E+03  0.16366434187E+03  0.00000000000E+00 0.  1.
         21   -1    0    0  501  503 -0.00000000000E+00 -0.00000000000E+00 -0.14310450038E+02  0.14310450038E+02  0.00000000000E+00 0. -1.
          2    1    1    2  501    0 -0.86596091355E+01  0.31583476147E+02  0.91591571868E+01  0.34005807685E+02  0.00000000000E+00 0. -1.
         -2    1    1    2    0  502  0.86596091355E+01 -0.31583476147E+02  0.14019473465E+03  0.14396898423E+03  0.00000000000E+00 0.  1.
</event>
<event>
 4    1  0.1776638E+004  0.2159899E+02  0.7546771E-02  0.1510882E+00
         21   -1    0    0  503  502  0.00000000000E+00  0.00000000000E+00  0.10568545392E+03  0.10568545392E+03  0.00000000000E+00 0. -1.
         21   -1    0    0  501  503 -0.00000000000E+00 -0.00000000000E+00 -0.66447589182E+01  0.66447589182E+01  0.00000000000E+00 0.  1.
          2    1    1    2  501    0  0.18529722712E+02  0.11098007095E+02  0.16979104381E+02  0.27473739659E+02  0.00000000000E+00 0.  1.
         -2    1    1    2    0  502 -0.18529722712E+02 -0.11098007095E+02  0.82061590624E+02  0.84856473182E+02  0.00000000000E+00 0. -1.
</event>
<event>
 4    1  0.1776638E+004  0.2077296E+02  0.7546771E-02  0.1522531E+00
         21   -1    0    0  503  502  0.00000000000E+00  0.00000000000E+00  0.30339307362E+02  0.30339307362E+02  0.00000000000E+00 0. -1.
         21   -1    0    0  501  503 -0.00000000000E+00 -0.00000000000E+00 -0.14517517363E+02  0.14517517363E+02  0.00000000000E+00 0.  1.
          2    1    1    2  501    0 -0.19994712988E+02  0.56327114635E+01  0.47163619446E+01  0.21301644442E+02  0.00000000000E+00 0.  1.
         -2    1    1    2    0  502  0.19994712988E+02 -0.56327114635E+01  0.11105428054E+02  0.23555180283E+02  0.00000000000E+00 0. -1.
</event>
<event>
 4    1  0.1776638E+004  0.2132584E+02  0.7546771E-02  0.1514663E+00
         21   -1    0    0  503  502  0.00000000000E+00  0.00000000000E+00  0.13641724240E+03  0.13641724240E+03  0.00000000000E+00 0.  1.
         21   -1    0    0  501  503 -0.00000000000E+00 -0.00000000000E+00 -0.63013965981E+01  0.63013965981E+01  0.00000000000E+00 0. -1.
          2    1    1    2  501    0  0.75864066391E+01 -0.19930830190E+02  0.16087628957E+02  0.26713355521E+02  0.00000000000E+00 0. -1.
         -2    1    1    2    0  502 -0.75864066391E+01  0.19930830190E+02  0.11402821684E+03  0.11600528347E+03  0.00000000000E+00 0.  1.
</event>
<event>
 4    1  0.1776638E+004  0.2568575E+02  0.7546771E-02  0.1461276E+00
         21   -1    0    0  501  502  0.00000000000E+00  0.00000000000E+00  0.50670752429E+01  0.50670752429E+01  0.00000000000E+00 0.  1.
         21   -1    0    0  502  503 -0.00000000000E+00 -0.00000000000E+00 -0.13342651858E+03  0.13342651858E+03  0.00000000000E+00 0. -1.
          2    1    1    2  501    0 -0.25123315540E+02  0.53457237380E+01 -0.74939897986E+02  0.79219606514E+02  0.00000000000E+00 0. -1.
         -2    1    1    2    0  503  0.25123315540E+02 -0.53457237380E+01 -0.53419545350E+02  0.59273987308E+02  0.00000000000E+00 0.  1.
</event>
<event>
 4    1  0.1776638E+004  0.2312417E+02  0.7546771E-02  0.1490945E+00
         21   -1    0    0  503  502  0.00000000000E+00  0.00000000000E+00  0.18525337791E+01  0.18525337791E+01  0.00000000000E+00 0.  1.
         21   -1    0    0  501  503 -0.00000000000E+00 -0.00000000000E+00 -0.31611741616E+03  0.31611741616E+03  0.00000000000E+00 0. -1.
          2    1    1    2  501    0  0.52062481509E+01 -0.22530478031E+02 -0.11026533379E+03  0.11266397515E+03  0.00000000000E+00 0.  1.
         -2    1    1    2    0  502 -0.52062481509E+01  0.22530478031E+02 -0.20399954859E+03  0.20530597480E+03  0.00000000000E+00 0. -1.
</event>
<event>
 4    1  0.1776638E+004  0.2849729E+02  0.7546771E-02  0.1433121E+00
         21   -1    0    0  501  502  0.00000000000E+00  0.00000000000E+00  0.16491716571E+01  0.16491716571E+01  0.00000000000E+00 0.  1.
         21   -1    0    0  502  503 -0.00000000000E+00 -0.00000000000E+00 -0.94369293533E+03  0.94369293533E+03  0.00000000000E+00 0. -1.
          2    1    1    2  501    0 -0.22506143283E+02 -0.17480540974E+02 -0.14416308369E+03  0.14695268115E+03  0.00000000000E+00 0.  1.
         -2    1    1    2    0  503  0.22506143283E+02  0.17480540974E+02 -0.79788067998E+03  0.79838942584E+03  0.00000000000E+00 0. -1.
</event>
<event>
 4    1  0.1776638E+004  0.2668968E+02  0.7546771E-02  0.1450750E+00
         21   -1    0    0  503  502  0.00000000000E+00  0.00000000000E+00  0.12854250900E+04  0.12854250900E+04  0.00000000000E+00 0.  1.
         21   -1    0    0  501  503 -0.00000000000E+00 -0.00000000000E+00 -0.63768569869E+00  0.63768569869E+00  0.00000000000E+00 0. -1.
          2    1    1    2  501    0  0.21912157597E+02 -0.15237994046E+02  0.40967953522E+03  0.41054800047E+03  0.00000000000E+00 0. -1.
         -2    1    1    2    0  502 -0.21912157597E+02  0.15237994046E+02  0.87510786911E+03  0.87551477525E+03  0.00000000000E+00 0.  1.
</event>
<event>
 4    1  0.1776638E+004  0.2641781E+02  0.7546771E-02  0.1453546E+00
         21   -1    0    0  503  502  0.00000000000E+00  0.00000000000E+00  0.27816288594E+02  0.27816288594E+02  0.00000000000E+00 0. -1.
         21   -1    0    0  501  503 -0.00000000000E+00 -0.00000000000E+00 -0.27930557181E+02  0.27930557181E+02  0.00000000000E+00 0.  1.
          2    1    1    2  501    0 -0.25287845040E+02  0.76436709782E+01 -0.89466763718E+01  0.27891644464E+02  0.00000000000E+00 0.  1.
         -2    1    1    2    0  502  0.25287845040E+02 -0.76436709782E+01  0.88324077852E+01  0.27855201311E+02  0.00000000000E+00 0. -1.
</event>
<event>
 4    1  0.1776638E+004  0.2707414E+02  0.7546771E-02  0.1446865E+00
         21   -1    0    0  501  502  0.00000000000E+00  0.00000000000E+00  0.58503374760E+02  0.58503374760E+02  0.00000000000E+00 0. -1.
         21   -1    0    0  502  503 -0.00000000000E+00 -0.00000000000E+00 -0.73236503490E+02  0.73236503490E+02  0.00000000000E+00 0.  1.
          2    1    1    2  501    0 -0.53245998070E+01  0.26545385621E+02  0.52604729723E+02  0.59163049703E+02  0.00000000000E+00 0. -1.
         -2    1    1    2    0  503  0.53245998070E+01 -0.26545385621E+02 -0.67337858453E+02  0.72576828547E+02  0.00000000000E+00 0.  1.
</event>
<event>
 4    1  0.1776638E+004  0.3249966E+02  0.7546771E-02  0.1399048E+00
         21   -1    0    0  503  502  0.00000000000E+00  0.00000000000E+00  0.70551602128E+02  0.70551602128E+02  0.00000000000E+00 0.  1.
         21   -1    0    0  501  503 -0.00000000000E+00 -0.00000000000E+00 -0.13574547156E+03  0.13574547156E+03  0.00000000000E+00 0. -1.
          2    1    1    2  501    0 -0.21582677465E+02  0.24298477679E+02 -0.12989136311E+03  0.13389545995E+03  0.00000000000E+00 0. -1.
         -2    1    1    2    0  502  0.21582677465E+02 -0.24298477679E+02  0.64697493678E+02  0.72401613741E+02  0.00000000000E+00 0.  1.
</event>
<event>
 4    1  0.1776638E+004  0.3208665E+02  0.7546771E-02  0.1402290E+00
         21   -1    0    0  503  502  0.00000000000E+00  0.00000000000E+00  0.22220382652E+01  0.22220382652E+01  0.00000000000E+00 0. -1.
         21   -1    0    0  501  503 -0.00000000000E+00 -0.00000000000E+00 -0.58050816710E+03  0.58050816710E+03  0.00000000000E+00 0.  1.
          2    1    1    2  501    0 -0.21683065198E+02 -0.23651596987E+02 -0.42004409547E+03  0.42126784294E+03  0.00000000000E+00 0.  1.
         -2    1    1    2    0  502  0.21683065198E+02  0.23651596987E+02 -0.15824203337E+03  0.16146236243E+03  0.00000000000E+00 0. -1.
</event>
<event>
 4    1  0.1776638E+004  0.2598348E+02  0.7546771E-02  0.1458095E+00
         21   -1    0    0  503  502  0.00000000000E+00  0.00000000000E+00  0.48949092574E+01  0.48949092574E+01  0.00000000000E+00 0.  1.
         21   -1    0    0  501  503 -0.00000000000E+00 -0.00000000000E+00 -0.18513075112E+03  0.18513075112E+03  0.00000000000E+00 0. -1.
          2    1    1    2  501    0  0.24305906385E+02  0.91849835973E+01 -0.13809462632E+03  0.14051785235E+03  0.00000000000E+00 0. -1.
         -2    1    1    2    0  502 -0.24305906385E+02 -0.91849835973E+01 -0.42141215543E+02  0.49507808034E+02  0.00000000000E+00 0.  1.
</event>
<event>
 4    1  0.1776638E+004  0.2597374E+02  0.7546771E-02  0.1458199E+00
         21   -1    0    0  503  502  0.00000000000E+00  0.00000000000E+00  0.37948307709E+02  0.37948307709E+02  0.00000000000E+00 0.  1.
         21   -1    0    0  501  503 -0.00000000000E+00 -0.00000000000E+00 -0.35748293260E+02  0.35748293260E+02  0.00000000000E+00 0. -1.
          2    1    1    2  501    0  0.23404195122E+02 -0.11264055647E+02 -0.25025845963E+02  0.36068383178E+02  0.00000000000E+00 0. -1.
         -2    1    1    2    0  502 -0.23404195122E+02  0.11264055647E+02  0.27225860412E+02  0.37628217791E+02  0.00000000000E+00 0.  1.
</event>
<event>
 4    1  0.1776638E+004  0.3126672E+02  0.7546771E-02  0.1408899E+00
         21   -1    0    0  503  502  0.00000000000E+00  0.00000000000E+00  0.65864843179E+02  0.65864843179E+02  0.00000000000E+00 0. -1.
         21   -1    0    0  501  503 -0.00000000000E+00 -0.00000000000E+00 -0.31541937816E+02  0.31541937816E+02  0.00000000000E+00 0.  1.
          2    1    1    2  501    0  0.11178992141E+02  0.29199969504E+02 -0.18276133247E+02  0.36216365511E+02  0.00000000000E+00 0.  1.
         -2    1    1    2    0  502 -0.11178992141E+02 -0.29199969504E+02  0.52599038611E+02  0.61190415484E+02  0.00000000000E+00 0. -1.
</event>
<event>
 4    1  0.1776638E+004  0.3296277E+02  0.7546771E-02  0.1395480E+00
         21   -1    0    0  501  502  0.00000000000E+00  0.00000000000E+00  0.18137487220E+03  0.18137487220E+03  0.00000000000E+00 0. -1.
         21   -1    0    0  502  503 -0.00000000000E+00 -0.00000000000E+00 -0.68254267854E+01  0.68254267854E+01  0.00000000000E+00 0.  1.
          2    1    1    2  501    0  0.36974441066E+01 -0.32754742304E+02  0.12018440574E+03  0.12462277328E+03  0.00000000000E+00 0. -1.
         -2    1    1    2    0  503 -0.36974441066E+01  0.32754742304E+02  0.54365039678E+02  0.63577525711E+02  0.00000000000E+00 0.  1.
</event>
<event>
 4    1  0.1776638E+004  0.2347585E+02  0.7546771E-02  0.1486608E+00
         21   -1    0    0  503  502  0.00000000000E+00  0.00000000000E+00  0.53824466969E+00  0.53824466969E+00  0.00000000000E+00 0. -1.
         21   -1    0    0  501  503 -0.00000000000E+00 -0.00000000000E+00 -0.16630642295E+04  0.16630642295E+04  0.00000000000E+00 0.  1.
          2    1    1    2  501    0 -0.10004582280E+02 -0.21237318229E+02 -0.31559865923E+03  0.31647058167E+03  0.00000000000E+00 0. -1.
         -2    1    1    2    0  502  0.10004582280E+02  0.21237318229E+02 -0.13469273255E+04  0.13471318925E+04  0.00000000000E+00 0.  1.
</event>
<event>
 4    1  0.1776638E+004  0.3695647E+02  0.7546771E-02  0.1367307E+00
         21   -1    0    0  503  502  0.00000000000E+00  0.00000000000E+00  0.10939043562E+03  0.10939043562E+03  0.00000000000E+00 0. -1.
         21   -1    0    0  501  503 -0.00000000000E+00 -0.00000000000E+00 -0.21065713939E+02  0.21065713939E+02  0.00000000000E+00 0.  1.
          2    1    1    2  501    0  0.33045855946E+01  0.36808426569E+02  0.25330995542E+01  0.37043179477E+02  0.00000000000E+00 0.  1.
         -2    1    1    2    0  502 -0.33045855946E+01 -0.36808426569E+02  0.85791622122E+02  0.93412970078E+02  0.00000000000E+00 0. -1.
</event>
<event>
 4    1  0.1776638E+004  0.2001301E+02  0.7546771E-02  0.1533837E+00
         21   -1    0    0  503  502  0.00000000000E+00  0.00000000000E+00  0.16230004314E+02  0.16230004314E+02  0.00000000000E+00 0.  1.
         21   -1    0    0  501  503 -0.00000000000E+00 -0.00000000000E+00 -0.25420302323E+02  0.25420302323E+02  0.00000000000E+00 0. -1.
          2    1    1    2  501    0 -0.10279307924E+02 -0.17171378679E+02 -0.81543594483E+01  0.21610506592E+02  0.00000000000E+00 0. -1.
         -2    1    1    2    0  502  0.10279307924E+02  0.17171378679E+02 -0.10359385608E+01  0.20039800045E+02  0.00000000000E+00 0.  1.
</event>
<event>
 4    1  0.1776638E+004  0.2001540E+02  0.7546771E-02  0.1533800E+00
         21   -1    0    0  501  502  0.00000000000E+00  0.00000000000E+00  0.11058750641E+03  0.11058750641E+03  0.00000000000E+00 0. -1.
         21   -1    0    0  502  503 -0.00000000000E+00 -0.00000000000E+00 -0.37284200386E+01  0.37284200386E+01  0.00000000000E+00 0.  1.
          2    1    1    2  501    0 -0.19990118523E+02 -0.10056295486E+01  0.63058169919E+02  0.66158513609E+02  0.00000000000E+00 0. -1.
         -2    1    1    2    0  503  0.19990118523E+02  0.10056295486E+01  0.43800916452E+02  0.48157412839E+02  0.00000000000E+00 0.  1.
</event>
<event>
 4    1  0.1776638E+004  0.2666983E+02  0.7546771E-02  0.1450953E+00
         21   -1    0    0  501  502  0.00000000000E+00  0.00000000000E+00  0.14369689329E+02  0.14369689329E+02  0.00000000000E+00 0. -1.
         21   -1    0    0  502  503 -0.00000000000E+00 -0.00000000000E+00 -0.55598604578E+02  0.55598604578E+02  0.00000000000E+00 0.  1.
          2    1    1    2  501    0  0.59148739282E+01 -0.26005659879E+02 -0.90266040581E+01  0.28155987998E+02  0.00000000000E+00 0.  1.
         -2    1    1    2    0  503 -0.59148739282E+01  0.26005659879E+02 -0.32202311191E+02  0.41812305908E+02  0.00000000000E+00 0. -1.
</event>
<event>
 4    1  0.1776638E+004  0.2273074E+02  0.7546771E-02  0.1495907E+00
         21   -1    0    0  501  502  0.00000000000E+00  0.00000000000E+00  0.14910214359E+01  0.14910214359E+01  0.00000000000E+00 0.  1.
         21   -1    0    0  502  503 -0.00000000000E+00 -0.00000000000E+00 -0.34656281969E+03  0.34656281969E+03  0.00000000000E+00 0. -1.
          2    1    1    2  501    0  0.98680198037E+01 -0.20477025297E+02 -0.17418165883E+03  0.17565857978E+03  0.00000000000E+00 0.  1.
         -2    1    1    2    0  503 -0.98680198037E+01  0.20477025297E+02 -0.17089013943E+03  0.17239526134E+03  0.00000000000E+00 0. -1.
</event>
<event>
 4    1  0.1776638E+004  0.2133916E+02  0.7546771E-02  0.1514477E+00
         21   -1    0    0  503  502  0.00000000000E+00  0.00000000000E+00  0.81540946101E+02  0.81540946101E+02  0.00000000000E+00 0.  1.
         21   -1    0    0  501  503 -0.00000000000E+00 -0.00000000000E+00 -0.98055394426E+01  0.98055394426E+01  0.00000000000E+00 0. -1.
          2    1    1    2  501    0 -0.21329365626E+02 -0.64640217442E+00  0.59009682711E+01  0.22140033882E+02  0.00000000000E+00 0. -1.
         -2    1    1    2    0  502  0.21329365626E+02  0.64640217442E+00  0.65834438388E+02  0.69206451662E+02  0.00000000000E+00 0.  1.
</event>
<event>
 4    1  0.1776638E+004  0.2378952E+02  0.7546771E-02  0.1482815E+00
         21   -1    0    0  501  502  0.00000000000E+00  0.00000000000E+00  0.76402127706E+01  0.76402127706E+01  0.00000000000E+00 0. -1.
         21   -1    0    0  502  503 -0.00000000000E+00 -0.00000000000E+00 -0.12455417476E+03  0.12455417476E+03  0.00000000000E+00 0.  1.
          2    1    1    2  501    0 -0.50620264745E+01 -0.23244719670E+02 -0.16378087504E+02  0.28882223856E+02  0.00000000000E+00 0. -1.
         -2    1    1    2    0  503  0.50620264745E+01  0.23244719670E+02 -0.10053587449E+03  0.10331216368E+03  0.00000000000E+00 0.  1.
</event>
<event>
 4    1  0.1776638E+004  0.2118253E+02  0.7546771E-02  0.1516675E+00
         21   -1    0    0  501  502  0.00000000000E+00  0.00000000000E+00  0.73903410499E+01  0.73903410499E+01  0.00000000000E+00 0. -1.
         21   -1    0    0  502  503 -0.00000000000E+00 -0.00000000000E+00 -0.17997468736E+03  0.17997468736E+03  0.00000000000E+00 0.  1.
          2    1    1    2  501    0 -0.90900975314E+01 -0.19132945401E+02 -0.10031451705E+02  0.23437779250E+02  0.00000000000E+00 0. -1.
         -2    1    1    2    0  503  0.90900975314E+01  0.19132945401E+02 -0.16255289460E+03  0.16392724916E+03  0.00000000000E+00 0.  1.
</event>
<event>
 4    1  0.1776638E+004  0.5432050E+02  0.7546771E-02  0.1280454E+00
         21   -1    0    0  503  502  0.00000000000E+00  0.00000000000E+00  0.33522797154E+02  0.33522797154E+02  0.00000000000E+00 0.  1.
         21   -1    0    0  501  503 -0.00000000000E+00 -0.00000000000E+00 -0.16067221359E+03  0.16067221359E+03  0.00000000000E+00 0. -1.
          2    1    1    2  501    0  0.96973618526E+01 -0.53447903723E+02 -0.12886648487E+03  0.13984737452E+03  0.00000000000E+00 0. -1.
         -2    1    1    2    0  502 -0.96973618526E+01  0.53447903723E+02  0.17170684254E+01  0.54347636225E+02  0.00000000000E+00 0.  1.
</event>
<event>
 4    1  0.1776638E+004  0.2447706E+02  0.7546771E-02  0.1474739E+00
         21   -1    0    0  501  502  0.00000000000E+00  0.00000000000E+00  0.22608746851E+03  0.22608746851E+03  0.00000000000E+00 0.  1.
         21   -1    0    0  502  503 -0.00000000000E+00 -0.00000000000E+00 -0.37951939738E+01  0.37951939738E+01  0.00000000000E+00 0. -1.
          2    1    1    2  501    0 -0.14837532454E+02  0.19467250930E+02  0.17428596998E+03  0.17599637939E+03  0.00000000000E+00 0.  1.
         -2    1    1    2    0  503  0.14837532454E+02 -0.19467250930E+02  0.48006304557E+02  0.53886283091E+02  0.00000000000E+00 0. -1.
</event>
<event>
 4    1  0.1776638E+004  0.2258599E+02  0.7546771E-02  0.1497763E+00
         21   -1    0    0  501  502  0.00000000000E+00  0.00000000000E+00  0.44163781968E+02  0.44163781968E+02  0.00000000000E+00 0.  1.
         21   -1    0    0  502  503 -0.00000000000E+00 -0.00000000000E+00 -0.33249890533E+02  0.33249890533E+02  0.00000000000E+00 0. -1.
          2    1    1    2  501    0 -0.13736243403E+02  0.17928821856E+02  0.36725897723E+02  0.43115178297E+02  0.00000000000E+00 0.  1.
         -2    1    1    2    0  503  0.13736243403E+02 -0.17928821856E+02 -0.25812006289E+02  0.34298494204E+02  0.00000000000E+00 0. -1.
</event>
<event>
 4    1  0.1776638E+004  0.2169401E+02  0.7546771E-02  0.1509583E+00
         21   -1    0    0  503  502  0.00000000000E+00  0.00000000000E+00  0.13695225812E+02  0.13695225812E+02  0.00000000000E+00 0. -1.
         21   -1    0    0  501  503 -0.00000000000E+00 -0.00000000000E+00 -0.38904481135E+02  0.38904481135E+02  0.00000000000E+00 0.  1.
          2    1    1    2  501    0 -0.15423415928E+02  0.15256090971E+02 -0.21588816082E+02  0.30605670234E+02  0.00000000000E+00 0.  1.
         -2    1    1    2    0  502  0.15423415928E+02 -0.15256090971E+02 -0.36204392407E+01  0.21994036713E+02  0.00000000000E+00 0. -1.
</event>
<event>
 4    1  0.1776638E+004  0.2042088E+02  0.7546771E-02  0.1527696E+00
         21   -1    0    0  501  502  0.00000000000E+00  0.00000000000E+00  0.18275451489E+03  0.18275451489E+03  0.00000000000E+00 0.  1.
         21   -1    0    0  502  503 -0.00000000000E+00 -0.00000000000E+00 -0.95529679752E+01  0.95529679752E+01  0.00000000000E+00 0. -1.
          2    1    1    2  501    0  0.50268843443E+01 -0.19792491580E+02  0.17048853760E+03  0.17170717441E+03  0.00000000000E+00 0.  1.
         -2    1    1    2    0  503 -0.50268843443E+01  0.19792491580E+02  0.27130093156E+01  0.20600308461E+02  0.00000000000E+00 0. -1.
</event>
<event>
 4    1  0.1776638E+004  0.2583982E+02  0.7546771E-02  0.1459624E+00
         21   -1    0    0  503  502  0.00000000000E+00  0.00000000000E+00  0.26806033013E+03  0.26806033013E+03  0.00000000000E+00 0. -1.
         21   -1    0    0  501  503 -0.00000000000E+00 -0.00000000000E+00 -0.27952478603E+01  0.27952478603E+01  0.00000000000E+00 0.  1.
          2    1    1    2  501    0  0.22295971970E+02  0.13060854162E+02  0.87941219001E+02  0.91658901788E+02  0.00000000000E+00 0.  1.
         -2    1    1    2    0  502 -0.22295971970E+02 -0.13060854162E+02  0.17732386327E+03  0.17919667620E+03  0.00000000000E+00 0. -1.
</event>
<event>
 4    1  0.1776638E+004  0.3346807E+02  0.7546771E-02  0.1391665E+00
         21   -1    0    0  501  502  0.00000000000E+00  0.00000000000E+00  0.55452612307E+02  0.55452612307E+02  0.00000000000E+00 0. -1.
         21   -1    0    0  502  503 -0.00000000000E+00 -0.00000000000E+00 -0.20393925571E+02  0.20393925571E+02  0.00000000000E+00 0.  1.
          2    1    1    2  501    0  0.31468938735E+02 -0.11393760413E+02  0.13825985387E+02  0.36211458869E+02  0.00000000000E+00 0.  1.
         -2    1    1    2    0  503 -0.31468938735E+02  0.11393760413E+02  0.21232701349E+02  0.39635079009E+02  0.00000000000E+00 0. -1.
</event>
<event>
 4    1  0.1776638E+004  0.2424404E+02  0.7546771E-02  0.1477441E+00
         21   -1    0    0  501  502  0.00000000000E+00  0.00000000000E+00  0.45342795516E+02  0.45342795516E+02  0.00000000000E+00 0. -1.
         21   -1    0    0  502  503 -0.00000000000E+00 -0.00000000000E+00 -0.13237398293E+02  0.13237398293E+02  0.00000000000E+00 0.  1.
          2    1    1    2  501    0 -0.52889284511E+01 -0.23660103751E+02  0.20270675046E+02  0.31601796476E+02  0.00000000000E+00 0. -1.
         -2    1    1    2    0  503  0.52889284511E+01  0.23660103751E+02  0.11834722176E+02  0.26978397333E+02  0.00000000000E+00 0.  1.
</event>
<event>
 4    1  0.1776638E+004  0.2326271E+02  0.7546771E-02  0.1489225E+00
         21   -1    0    0  501  502  0.00000000000E+00  0.00000000000E+00  0.41679723428E+02  0.41679723428E+02  0.00000000000E+00 0.  1.
         21   -1    0    0  502  503 -0.00000000000E+00 -0.00000000000E+00 -0.24281545198E+02  0.24281545198E+02  0.00000000000E+00 0. -1.
          2    1    1    2  501    0 -0.71324366141E+01  0.22142308101E+02  0.31195865824E+02  0.38914463952E+02  0.00000000000E+00 0.  1.
         -2    1    1    2    0  503  0.71324366141E+01 -0.22142308101E+02 -0.13797687595E+02  0.27046804674E+02  0.00000000000E+00 0. -1.
</event>
<event>
 4    1  0.1776638E+004  0.2477242E+02  0.7546771E-02  0.1471366E+00
         21   -1    0    0  501  502  0.00000000000E+00  0.00000000000E+00  0.23349635111E+02  0.23349635111E+02  0.00000000000E+00 0. -1.
         21   -1    0    0  502  503 -0.00000000000E+00 -0.00000000000E+00 -0.43596834967E+02  0.43596834967E+02  0.00000000000E+00 0.  1.
          2    1    1    2  501    0  0.21365930198E+02  0.12536733400E+02  0.10971456998E+02  0.27093274557E+02  0.00000000000E+00 0. -1.
         -2    1    1    2    0  503 -0.21365930198E+02 -0.12536733400E+02 -0.31218656853E+02  0.39853195522E+02  0.00000000000E+00 0.  1.
</event>
<event>
 4    1  0.1776638E+004  0.2731351E+02  0.7546771E-02  0.1444484E+00
         21   -1    0    0  503  502  0.00000000000E+00  0.00000000000E+00  0.51695328776E+03  0.51695328776E+03  0.00000000000E+00 0.  1.
         21   -1    0    0  501  503 -0.00000000000E+00 -0.00000000000E+00 -0.14435513849E+01  0.14435513849E+01  0.00000000000E+00 0. -1.
          2    1    1    2  501    0 -0.10935754608E+02  0.25028720969E+02  0.26221572641E+03  0.26363443398E+03  0.00000000000E+00 0.  1.
         -2    1    1    2    0  502  0.10935754608E+02 -0.25028720969E+02  0.25329400997E+03  0.25476240517E+03  0.00000000000E+00 0. -1.
</event>
<event>
 4    1  0.1776638E+004  0.3625224E+02  0.7546771E-02  0.1371967E+00
         21   -1    0    0  501  502  0.00000000000E+00  0.00000000000E+00  0.21126431235E+02  0.21126431235E+02  0.00000000000E+00 0. -1.
         21   -1    0    0  502  503 -0.00000000000E+00 -0.00000000000E+00 -0.87283719109E+02  0.87283719109E+02  0.00000000000E+00 0.  1.
          2    1    1    2  501    0  0.11854405511E+02  0.34259276151E+02 -0.40248167771E+01  0.36474978855E+02  0.00000000000E+00 0. -1.
         -2    1    1    2    0  503 -0.11854405511E+02 -0.34259276151E+02 -0.62132471098E+02  0.71935171489E+02  0.00000000000E+00 0.  1.
</event>
<event>
 4    1  0.1776638E+004  0.2481524E+02  0.7546771E-02  0.1470881E+00
         21   -1    0    0  503  502  0.00000000000E+00  0.00000000000E+00  0.10904124622E+02  0.10904124622E+02  0.00000000000E+00 0. -1.
         21   -1    0    0  501  503 -0.00000000000E+00 -0.00000000000E+00 -0.12104963201E+03  0.12104963201E+03  0.00000000000E+00 0.  1.
          2    1    1    2  501    0 -0.21493154072E+02  0.12403242081E+02 -0.10326147721E+03  0.10620135951E+03  0.00000000000E+00 0.  1.
         -2    1    1    2    0  502  0.21493154072E+02 -0.12403242081E+02 -0.68840301778E+01  0.25752397123E+02  0.00000000000E+00 0. -1.
</event>
<event>
 4    1  0.1776638E+004  0.2429776E+02  0.7546771E-02  0.1476815E+00
         21   -1    0    0  501  502  0.00000000000E+00  0.00000000000E+00  0.56387243895E+03  0.56387243895E+03  0.00000000000E+00 0. -1.
         21   -1    0    0  502  503 -0.00000000000E+00 -0.00000000000E+00 -0.13600720479E+01  0.13600720479E+01  0.00000000000E+00 0.  1.
          2    1    1    2  501    0  0.13920931247E+02 -0.19914542584E+02  0.41684686779E+03  0.41755441863E+03  0.00000000000E+00 0. -1.
         -2    1    1    2    0  503 -0.13920931247E+02  0.19914542584E+02  0.14566549912E+03  0.14767809237E+03  0.00000000000E+00 0.  1.
</event>
<event>
 4    1  0.1776638E+004  0.2274955E+02  0.7546771E-02  0.1495667E+00
         21   -1    0    0  501  502  0.00000000000E+00  0.00000000000E+00  0.20369567780E+03  0.20369567780E+03  0.00000000000E+00 0.  1.
         21   -1    0    0  502  503 -0.00000000000E+00 -0.00000000000E+00 -0.26906613325E+01  0.26906613325E+01  0.00000000000E+00 0. -1.
          2    1    1    2  501    0 -0.19090962109E+02  0.12372434336E+02  0.76145540677E+02  0.79471286202E+02  0.00000000000E+00 0. -1.
         -2    1    1    2    0  503  0.19090962109E+02 -0.12372434336E+02  0.12485947579E+03  0.12691505293E+03  0.00000000000E+00 0.  1.
</event>
<event>
 4    1  0.1776638E+004  0.2235819E+02  0.7546771E-02  0.1500719E+00
         21   -1    0    0  501  502  0.00000000000E+00  0.00000000000E+00  0.12152309535E+04  0.12152309535E+04  0.00000000000E+00 0. -1.
         21   -1    0    0  502  503 -0.00000000000E+00 -0.00000000000E+00 -0.95412304499E+00  0.95412304499E+00  0.00000000000E+00 0.  1.
          2    1    1    2  501    0 -0.19031712364E+02 -0.11733827230E+02  0.10657821415E+04  0.10660166330E+04  0.00000000000E+00 0. -1.
         -2    1    1    2    0  503  0.19031712364E+02  0.11733827230E+02  0.14849468895E+03  0.15016844350E+03  0.00000000000E+00 0.  1.
</event>
<event>
 4    1  0.1776638E+004  0.2098526E+02  0.7546771E-02  0.1519475E+00
         21   -1    0    0  501  502  0.00000000000E+00  0.00000000000E+00  0.12581405251E+02  0.12581405251E+02  0.00000000000E+00 0. -1.
         21   -1    0    0  502  503 -0.00000000000E+00 -0.00000000000E+00 -0.35561149431E+02  0.35561149431E+02  0.00000000000E+00 0.  1.
          2    1    1    2  501    0  0.17500966759E+02  0.11580036116E+02 -0.84729268197E+01  0.22631207719E+02  0.00000000000E+00 0. -1.
         -2    1    1    2    0  503 -0.17500966759E+02 -0.11580036116E+02 -0.14506817360E+02  0.25511346963E+02  0.00000000000E+00 0.  1.
</event>
<event>
 4    1  0.1776638E+004  0.2185121E+02  0.7546771E-02  0.1507450E+00
         21   -1    0    0  501  502  0.00000000000E+00  0.00000000000E+00  0.30292500944E+03  0.30292500944E+03  0.00000000000E+00 0. -1.
         21   -1    0    0  502  503 -0.00000000000E+00 -0.00000000000E+00 -0.15789420397E+01  0.15789420397E+01  0.00000000000E+00 0.  1.
          2    1    1    2  501    0  0.21832455144E+02 -0.90506865486E+00  0.14434679058E+03  0.14599133947E+03  0.00000000000E+00 0.  1.
         -2    1    1    2    0  503 -0.21832455144E+02  0.90506865486E+00  0.15699927682E+03  0.15851261202E+03  0.00000000000E+00 0. -1.
</event>
<event>
 4    1  0.1776638E+004  0.2055459E+02  0.7546771E-02  0.1525720E+00
         21   -1    0    0  501  502  0.00000000000E+00  0.00000000000E+00  0.17157251555E+03  0.17157251555E+03  0.00000000000E+00 0. -1.
         21   -1    0    0  502  503 -0.00000000000E+00 -0.00000000000E+00 -0.60836036661E+01  0.60836036661E+01  0.00000000000E+00 0.  1.
          2    1    1    2  501    0  0.81848185052E+01 -0.18854708870E+02  0.15127628164E+03  0.15266631811E+03  0.00000000000E+00 0. -1.
         -2    1    1    2    0  503 -0.81848185052E+01  0.18854708870E+02  0.14212630245E+02  0.24989801100E+02  0.00000000000E+00 0.  1.
</event>
<event>
 4    1  0.1776638E+004  0.2122556E+02  0.7546771E-02  0.1516069E+00
         21   -1    0    0  503  502  0.00000000000E+00  0.00000000000E+00  0.90937551343E+01  0.90937551343E+01  0.00000000000E+00 0.  1.
         21   -1    0    0  501  503 -0.00000000000E+00 -0.00000000000E+00 -0.70729040901E+02  0.70729040901E+02  0.00000000000E+00 0. -1.
          2    1    1    2  501    0  0.20666497982E+02 -0.48394672277E+01 -0.52661595171E+02  0.56778236921E+02  0.00000000000E+00 0.  1.
         -2    1    1    2    0  502 -0.20666497982E+02  0.48394672277E+01 -0.89736905953E+01  0.23044559114E+02  0.00000000000E+00 0. -1.
</event>
<event>
 4    1  0.1776638E+004  0.4941040E+02  0.7546771E-02  0.1300749E+00
         21   -1    0    0  501  502  0.00000000000E+00  0.00000000000E+00  0.51193761168E+03  0.51193761168E+03  0.00000000000E+00 0.  1.
         21   -1    0    0  502  503 -0.00000000000E+00 -0.00000000000E+00 -0.15247831143E+02  0.15247831143E+02  0.00000000000E+00 0. -1.
          2    1    1    2  501    0 -0.38732627963E+02 -0.30678517752E+02  0.46686304295E+03  0.46947043441E+03  0.00000000000E+00 0.  1.
         -2    1    1    2    0  503  0.38732627963E+02  0.30678517752E+02  0.29826737592E+02  0.57715008410E+02  0.00000000000E+00 0. -1.
</event>
<event>
 4    1  0.1776638E+004  0.2466630E+02  0.7546771E-02  0.1472571E+00
         21   -1    0    0  503  502  0.00000000000E+00  0.00000000000E+00  0.45622306775E+01  0.45622306775E+01  0.00000000000E+00 0.  1.
         21   -1    0    0  501  503 -0.00000000000E+00 -0.00000000000E+00 -0.22866051744E+03  0.22866051744E+03  0.00000000000E+00 0. -1.
          2    1    1    2  501    0 -0.39985683156E+00  0.24663055445E+02 -0.18733084066E+03  0.18894779716E+03  0.00000000000E+00 0. -1.
         -2    1    1    2    0  502  0.39985683156E+00 -0.24663055445E+02 -0.36767446102E+02  0.44274950956E+02  0.00000000000E+00 0.  1.
</event>
<event>
 4    1  0.1776638E+004  0.3493249E+02  0.7546771E-02  0.1381038E+00
         21   -1    0    0  503  502  0.00000000000E+00  0.00000000000E+00  0.14922010340E+03  0.14922010340E+03  0.00000000000E+00 0. -1.
         21   -1    0    0  501  503 -0.00000000000E+00 -0.00000000000E+00 -0.14449381730E+02  0.14449381730E+02  0.00000000000E+00 0.  1.
          2    1    1    2  501    0  0.15610189737E+02 -0.31250616350E+02  0.13470973469E+02  0.37439900803E+02  0.00000000000E+00 0.  1.
         -2    1    1    2    0  502 -0.15610189737E+02  0.31250616350E+02  0.12129974821E+03  0.12622958433E+03  0.00000000000E+00 0. -1.
</event>
<event>
 4    1  0.1776638E+004  0.2024123E+02  0.7546771E-02  0.1530380E+00
         21   -1    0    0  501  502  0.00000000000E+00  0.00000000000E+00  0.47606914682E+01  0.47606914682E+01  0.00000000000E+00 0. -1.
         21   -1    0    0  502  503 -0.00000000000E+00 -0.00000000000E+00 -0.10673555676E+03  0.10673555676E+03  0.00000000000E+00 0.  1.
          2    1    1    2  501    0  0.15731170720E+02  0.12737247176E+02 -0.26451662531E+02  0.33307621478E+02  0.00000000000E+00 0. -1.
         -2    1    1    2    0  503 -0.15731170720E+02 -0.12737247176E+02 -0.75523202757E+02  0.78188626746E+02  0.00000000000E+00 0.  1.
</event>
<event>
 4    1  0.1776638E+004  0.3668258E+02  0.7546771E-02  0.1369105E+00
         21   -1    0    0  503  502  0.00000000000E+00  0.00000000000E+00  0.11776249631E+02  0.11776249631E+02  0.00000000000E+00 0. -1.
         21   -1    0    0  501  503 -0.00000000000E+00 -0.00000000000E+00 -0.25753604014E+03  0.25753604014E+03  0.00000000000E+00 0.  1.
          2    1    1    2  501    0  0.63802423293E+01 -0.36123453581E+02 -0.22331524704E+03  0.22630800019E+03  0.00000000000E+00 0.  1.
         -2    1    1    2    0  502 -0.63802423293E+01  0.36123453581E+02 -0.22444543476E+02  0.43004289584E+02  0.00000000000E+00 0. -1.
</event>
<event>
 4    1  0.1776638E+004  0.2019419E+02  0.7546771E-02  0.1531088E+00
         21   -1    0    0  503  502  0.00000000000E+00  0.00000000000E+00  0.53282098273E+02  0.53282098273E+02  0.00000000000E+00 0. -1.
         21   -1    0    0  501  503 -0.00000000000E+00 -0.00000000000E+00 -0.83196048856E+01  0.83196048856E+01  0.00000000000E+00 0.  1.
          2    1    1    2  501    0 -0.18168844425E+02  0.88146691853E+01  0.13767261229E+02  0.24440597012E+02  0.00000000000E+00 0.  1.
         -2    1    1    2    0  502  0.18168844425E+02 -0.88146691853E+01  0.31195232159E+02  0.37161106146E+02  0.00000000000E+00 0. -1.
</event>
<event>
 4    1  0.1776638E+004  0.3059625E+02  0.7546771E-02  0.1414484E+00
         21   -1    0    0  503  502  0.00000000000E+00  0.00000000000E+00  0.51329174939E+01  0.51329174939E+01  0.00000000000E+00 0. -1.
         21   -1    0    0  501  503 -0.00000000000E+00 -0.00000000000E+00 -0.18994944012E+03  0.18994944012E+03  0.00000000000E+00 0.  1.
          2    1    1    2  501    0 -0.18096798216E+01  0.30542687802E+02 -0.72933996450E+02  0.79091709789E+02  0.00000000000E+00 0. -1.
         -2    1    1    2    0  502  0.18096798216E+01 -0.30542687802E+02 -0.11188252618E+03  0.11599064783E+03  0.00000000000E+00 0.  1.
</event>
<event>
 4    1  0.1776638E+004  0.5246134E+02  0.7546771E-02  0.1287840E+00
         21   -1    0    0  501  502  0.00000000000E+00  0.00000000000E+00  0.15167777055E+04  0.15167777055E+04  0.00000000000E+00 0. -1.
         21   -1    0    0  502  503 -0.00000000000E+00 -0.00000000000E+00 -0.39128251362E+01  0.39128251362E+01  0.00000000000E+00 0.  1.
          2    1    1    2  501    0  0.77853760694E+01  0.51880440629E+02  0.13132361013E+04  0.13142835501E+04  0.00000000000E+00 0. -1.
         -2    1    1    2    0  503 -0.77853760694E+01 -0.51880440629E+02  0.19962877908E+03  0.20640698059E+03  0.00000000000E+00 0.  1.
</event>
<event>
 4    1  0.1776638E+004  0.2327779E+02  0.7546771E-02  0.1489039E+00
         21   -1    0    0  503  502  0.00000000000E+00  0.00000000000E+00  0.39342899253E+00  0.39342899253E+00  0.00000000000E+00 0.  1.
         21   -1    0    0  501  503 -0.00000000000E+00 -0.00000000000E+00 -0.13847325269E+04  0.13847325269E+04  0.00000000000E+00 0. -1.
          2    1    1    2  501    0  0.23275460506E+02  0.32956618155E+00 -0.74303083285E+03  0.74339536873E+03  0.00000000000E+00 0. -1.
         -2    1    1    2    0  502 -0.23275460506E+02 -0.32956618155E+00 -0.64130826502E+03  0.64173058713E+03  0.00000000000E+00 0.  1.
</event>
<event>
 4    1  0.1776638E+004  0.2629261E+02  0.7546771E-02  0.1454846E+00
         21   -1    0    0  503  502  0.00000000000E+00  0.00000000000E+00  0.20584357635E+03  0.20584357635E+03  0.00000000000E+00 0. -1.
         21   -1    0    0  501  503 -0.00000000000E+00 -0.00000000000E+00 -0.39384937856E+01  0.39384937856E+01  0.00000000000E+00 0.  1.
          2    1    1    2  501    0  0.21395265837E+02  0.15282139227E+02  0.60696648366E+02  0.66146687767E+02  0.00000000000E+00 0.  1.
         -2    1    1    2    0  502 -0.21395265837E+02 -0.15282139227E+02  0.14120843420E+03  0.14363538237E+03  0.00000000000E+00 0. -1.
</event>
<event>
 4    1  0.1776638E+004  0.2896883E+02  0.7546771E-02  0.1428774E+00
         21   -1    0    0  501  502  0.00000000000E+00  0.00000000000E+00  0.28801669586E+01  0.28801669586E+01  0.00000000000E+00 0. -1.
         21   -1    0    0  502  503 -0.00000000000E+00 -0.00000000000E+00 -0.29427918959E+03  0.29427918959E+03  0.00000000000E+00 0.  1.
          2    1    1    2  501    0 -0.15177331688E+02 -0.24674716022E+02 -0.16047349967E+03  0.16306727784E+03  0.00000000000E+00 0. -1.
         -2    1    1    2    0  503  0.15177331688E+02  0.24674716022E+02 -0.13092552297E+03  0.13409207871E+03  0.00000000000E+00 0.  1.
</event>
<event>
 4    1  0.1776638E+004  0.2559962E+02  0.7546771E-02  0.1462206E+00
         21   -1    0    0  501  502  0.00000000000E+00  0.00000000000E+00  0.72261955748E+01  0.72261955748E+01  0.00000000000E+00 0.  1.
         21   -1    0    0  502  503 -0.00000000000E+00 -0.00000000000E+00 -0.90706226837E+02  0.90706226837E+02  0.00000000000E+00 0. -1.
          2    1    1    2  501    0 -0.23030489268E+02 -0.11177516930E+02 -0.42404251844E+02  0.49532422666E+02  0.00000000000E+00 0. -1.
         -2    1    1    2    0  503  0.23030489268E+02  0.11177516930E+02 -0.41075779418E+02  0.48399999746E+02  0.00000000000E+00 0.  1.
</event>
<event>
 4    1  0.1776638E+004  0.3317141E+02  0.7546771E-02  0.1393895E+00
         21   -1    0    0  501  502  0.00000000000E+00  0.00000000000E+00  0.36855238789E+02  0.36855238789E+02  0.00000000000E+00 0.  1.
         21   -1    0    0  502  503 -0.00000000000E+00 -0.00000000000E+00 -0.60744007939E+02  0.60744007939E+02  0.00000000000E+00 0. -1.
          2    1    1    2  501    0 -0.31442082538E+02 -0.10570612236E+02  0.22854165621E+02  0.40282195615E+02  0.00000000000E+00 0.  1.
         -2    1    1    2    0  503  0.31442082538E+02  0.10570612236E+02 -0.46742934771E+02  0.57317051114E+02  0.00000000000E+00 0. -1.
</event>
<event>
 4    1  0.1776638E+004  0.2069497E+02  0.7546771E-02  0.1523665E+00
         21   -1    0    0  503  502  0.00000000000E+00  0.00000000000E+00  0.88523933960E+02  0.88523933960E+02  0.00000000000E+00 0. -1.
         21   -1    0    0  501  503 -0.00000000000E+00 -0.00000000000E+00 -0.17527493216E+02  0.17527493216E+02  0.00000000000E+00 0.  1.
          2    1    1    2  501    0 -0.12144042307E+02  0.16757213768E+02 -0.96196031588E+01  0.22821453541E+02  0.00000000000E+00 0.  1.
         -2    1    1    2    0  502  0.12144042307E+02 -0.16757213768E+02  0.80616043902E+02  0.83229973635E+02  0.00000000000E+00 0. -1.
</event>
<event>
 4    1  0.1776638E+004  0.3426657E+02  0.7546771E-02  0.1385794E+00
         21   -1    0    0  501  502  0.00000000000E+00  0.00000000000E+00  0.10287629328E+02  0.10287629328E+02  0.00000000000E+00 0. -1.
         21   -1    0    0  502  503 -0.00000000000E+00 -0.00000000000E+00 -0.12411898000E+03  0.12411898000E+03  0.00000000000E+00 0.  1.
          2    1    1    2  501    0  0.21139435999E+02 -0.26968910128E+02 -0.37857444335E+02  0.51062549480E+02  0.00000000000E+00 0. -1.
         -2    1    1    2    0  503 -0.21139435999E+02  0.26968910128E+02 -0.75973906340E+02  0.83344059851E+02  0.00000000000E+00 0.  1.
</event>
<event>
 4    1  0.1776638E+004  0.2100533E+02  0.7546771E-02  0.1519189E+00
         21   -1    0    0  501  502  0.00000000000E+00  0.00000000000E+00  0.12904243417E+02  0.12904243417E+02  0.00000000000E+00 0.  1.
         21   -1    0    0  502  503 -0.00000000000E+00 -0.00000000000E+00 -0.89063164401E+02  0.89063164401E+02  0.00000000000E+00 0. -1.
          2    1    1    2  501    0  0.18453637740E+01 -0.20924108602E+02  0.19383994117E+01  0.21094574670E+02  0.00000000000E+00 0.  1.
         -2    1    1    2    0  503 -0.18453637740E+01  0.20924108602E+02 -0.78097320395E+02  0.80872833147E+02  0.00000000000E+00 0. -1.
</event>
<event>
 4    1  0.1776638E+004  0.2863219E+02  0.7546771E-02  0.1431867E+00
         21   -1    0    0  501  502  0.00000000000E+00  0.00000000000E+00  0.84240079691E+01  0.84240079691E+01  0.00000000000E+00 0.  1.
         21   -1    0    0  502  503 -0.00000000000E+00 -0.00000000000E+00 -0.97434023152E+02  0.97434023152E+02  0.00000000000E+00 0. -1.
          2    1    1    2  501    0 -0.14316028705E+01 -0.28596377375E+02 -0.42673579075E+02  0.51389071181E+02  0.00000000000E+00 0.  1.
         -2    1    1    2    0  503  0.14316028705E+01  0.28596377375E+02 -0.46336436108E+02  0.54468959940E+02  0.00000000000E+00 0. -1.
</event>
<event>
 4    1  0.1776638E+004  0.2184779E+02  0.7546771E-02  0.1507496E+00
         21   -1    0    0  501  502  0.00000000000E+00  0.00000000000E+00  0.64204684301E+03  0.64204684301E+03  0.00000000000E+00 0. -1.
         21   -1    0    0  502  503 -0.00000000000E+00 -0.00000000000E+00 -0.13705784726E+01  0.13705784726E+01  0.00000000000E+00 0.  1.
          2    1    1    2  501    0 -0.21339953084E+02  0.46831907306E+01  0.53795432312E+03  0.53839778941E+03  0.00000000000E+00 0. -1.
         -2    1    1    2    0  503  0.21339953084E+02 -0.46831907306E+01  0.10272194141E+03  0.10501963207E+03  0.00000000000E+00 0.  1.
</event>
<event>
 4    1  0.1776638E+004  0.2075112E+02  0.7546771E-02  0.1522848E+00
         21   -1    0    0  503  502  0.00000000000E+00  0.00000000000E+00  0.12088542480E+04  0.12088542480E+04  0.00000000000E+00 0. -1.
         21   -1    0    0  501  503 -0.00000000000E+00 -0.00000000000E+00 -0.40157630605E+00  0.40157630605E+00  0.00000000000E+00 0.  1.
          2    1    1    2  501    0  0.68403618885E+01  0.19591283269E+02  0.40100975336E+03  0.40154630022E+03  0.00000000000E+00 0.  1.
         -2    1    1    2    0  502 -0.68403618885E+01 -0.19591283269E+02  0.80744291834E+03  0.80770952409E+03  0.00000000000E+00 0. -1.
</event>
<event>
 4    1  0.1776638E+004  0.4016344E+02  0.7546771E-02  0.1347531E+00
         21   -1    0    0  501  502  0.00000000000E+00  0.00000000000E+00  0.15129128766E+03  0.15129128766E+03  0.00000000000E+00 0.  1.
         21   -1    0    0  502  503 -0.00000000000E+00 -0.00000000000E+00 -0.10694950875E+02  0.10694950875E+02  0.00000000000E+00 0. -1.
          2    1    1    2  501    0 -0.39779916829E+02  0.55371438577E+01  0.65817894549E+02  0.77104455046E+02  0.00000000000E+00 0.  1.
         -2    1    1    2    0  503  0.39779916829E+02 -0.55371438577E+01  0.74778442239E+02  0.84881783492E+02  0.00000000000E+00 0. -1.
</event>
<event>
 4    1  0.1776638E+004  0.2272941E+02  0.7546771E-02  0.1495924E+00
         21   -1    0    0  503  502  0.00000000000E+00  0.00000000000E+00  0.50043661261E+02  0.50043661261E+02  0.00000000000E+00 0.  1.
         21   -1    0    0  501  503 -0.00000000000E+00 -0.00000000000E+00 -0.11576934300E+02  0.11576934300E+02  0.00000000000E+00 0. -1.
          2    1    1    2  501    0 -0.12656252074E+02 -0.18879762811E+02  0.90954534320E+01  0.24481695887E+02  0.00000000000E+00 0. -1.
         -2    1    1    2    0  502  0.12656252074E+02  0.18879762811E+02  0.29371273528E+02  0.37138899674E+02  0.00000000000E+00 0.  1.
</event>
<event>
 4    1  0.1776638E+004  0.2175390E+02  0.7546771E-02  0.1508768E+00
         21   -1    0    0  501  502  0.00000000000E+00  0.00000000000E+00  0.29626767614E+03  0.29626767614E+03  0.00000000000E+00 0.  1.
         21   -1    0    0  502  503 -0.00000000000E+00 -0.00000000000E+00 -0.17422949772E+01  0.17422949772E+01  0.00000000000E+00 0. -1.
          2    1    1    2  501    0  0.22847152892E+01  0.21633590498E+02  0.10427964216E+03  0.10652453206E+03  0.00000000000E+00 0. -1.
         -2    1    1    2    0  503 -0.22847152892E+01 -0.21633590498E+02  0.19024573900E+03  0.19148543906E+03  0.00000000000E+00 0.  1.
</event>
<event>
 4    1  0.1776638E+004  0.2454175E+02  0.7546771E-02  0.1473996E+00
         21   -1    0    0  501  502  0.00000000000E+00  0.00000000000E+00  0.26886194972E+03  0.26886194972E+03  0.00000000000E+00 0. -1.
         21   -1    0    0  502  503 -0.00000000000E+00 -0.00000000000E+00 -0.52778637662E+01  0.52778637662E+01  0.00000000000E+00 0.  1.
          2    1    1    2  501    0 -0.87399308150E+00 -0.24526178016E+02  0.23578042288E+03  0.23705422394E+03  0.00000000000E+00 0. -1.
         -2    1    1    2    0  503  0.87399308150E+00  0.24526178016E+02  0.27803663072E+02  0.37085589550E+02  0.00000000000E+00 0.  1.
</event>
<event>
 4    1  0.1776638E+004  0.2342710E+02  0.7546771E-02  0.1487204E+00
         21   -1    0    0  503  502  0.00000000000E+00  0.00000000000E+00  0.83663188205E+01  0.83663188205E+01  0.00000000000E+00 0. -1.
         21   -1    0    0  501  503 -0.00000000000E+00 -0.00000000000E+00 -0.82028565092E+02  0.82028565092E+02  0.00000000000E+00 0.  1.
          2    1    1    2  501    0  0.87916218584E+01  0.21714892679E+02 -0.57058204665E+02  0.61680368826E+02  0.00000000000E+00 0.  1.
         -2    1    1    2    0  502 -0.87916218584E+01 -0.21714892679E+02 -0.16604041607E+02  0.28714515086E+02  0.00000000000E+00 0. -1.
</event>
<event>
 4    1  0.1776638E+004  0.2658378E+02  0.7546771E-02  0.1451834E+00
         21   -1    0    0  503  502  0.00000000000E+00  0.00000000000E+00  0.39099709074E+02  0.39099709074E+02  0.00000000000E+00 0.  1.
         21   -1    0    0  501  503 -0.00000000000E+00 -0.00000000000E+00 -0.22141939317E+02  0.22141939317E+02  0.00000000000E+00 0. -1.
          2    1    1    2  501    0 -0.24831711943E+02  0.94912394828E+01 -0.46456355435E+01  0.26986653638E+02  0.00000000000E+00 0. -1.
         -2    1    1    2    0  502  0.24831711943E+02 -0.94912394828E+01  0.21603405300E+02  0.34254994753E+02  0.00000000000E+00 0.  1.
</event>
<event>
 4    1  0.1776638E+004  0.2054337E+02  0.7546771E-02  0.1525885E+00
         21   -1    0    0  501  502  0.00000000000E+00  0.00000000000E+00  0.13071311089E+02  0.13071311089E+02  0.00000000000E+00 0. -1.
         21   -1    0    0  502  503 -0.00000000000E+00 -0.00000000000E+00 -0.38295023146E+02  0.38295023146E+02  0.00000000000E+00 0.  1.
          2    1    1    2  501    0  0.14824968432E+02 -0.14221474836E+02 -0.24387734641E+01  0.20687620732E+02  0.00000000000E+00 0. -1.
         -2    1    1    2    0  503 -0.14824968432E+02  0.14221474836E+02 -0.22784938593E+02  0.30678713503E+02  0.00000000000E+00 0.  1.
</event>
<event>
 4    1  0.1776638E+004  0.2941921E+02  0.7546771E-02  0.1424712E+00
         21   -1    0    0  503  502  0.00000000000E+00  0.00000000000E+00  0.60579738452E+02  0.60579738452E+02  0.00000000000E+00 0.  1.
         21   -1    0    0  501  503 -0.00000000000E+00 -0.00000000000E+00 -0.22069437882E+02  0.22069437882E+02  0.00000000000E+00 0. -1.
          2    1    1    2  501    0 -0.23749274815E+02  0.17362663998E+02 -0.52849604635E+01  0.29890148251E+02  0.00000000000E+00 0.  1.
         -2    1    1    2    0  502  0.23749274815E+02 -0.17362663998E+02  0.43795261033E+02  0.52759028083E+02  0.00000000000E+00 0. -1.
</event>
<event>
 4    1  0.1776638E+004  0.2654433E+02  0.7546771E-02  0.1452240E+00
         21   -1    0    0  503  502  0.00000000000E+00  0.00000000000E+00  0.42377097876E+01  0.42377097876E+01  0.00000000000E+00 0.  1.
         21   -1    0    0  501  503 -0.00000000000E+00 -0.00000000000E+00 -0.17226947617E+03  0.17226947617E+03  0.00000000000E+00 0. -1.
          2    1    1    2  501    0  0.23733050530E+02  0.11888815172E+02 -0.10048632810E+03  0.10393316962E+03  0.00000000000E+00 0. -1.
         -2    1    1    2    0  502 -0.23733050530E+02 -0.11888815172E+02 -0.67545438285E+02  0.72574016334E+02  0.00000000000E+00 0.  1.
</event>
<event>
 4    1  0.1776638E+004  0.2947670E+02  0.7546771E-02  0.1424199E+00
         21   -1    0    0  503  502  0.00000000000E+00  0.00000000000E+00  0.10464655240E+03  0.10464655240E+03  0.00000000000E+00 0. -1.
         21   -1    0    0  501  503 -0.00000000000E+00 -0.00000000000E+00 -0.87828559681E+01  0.87828559681E+01  0.00000000000E+00 0.  1.
          2    1    1    2  501    0 -0.39133958463E+00 -0.29474103986E+02  0.34674637874E+02  0.45510509381E+02  0.00000000000E+00 0.  1.
         -2    1    1    2    0  502  0.39133958463E+00  0.29474103986E+02  0.61189058557E+02  0.67918898986E+02  0.00000000000E+00 0. -1.
</event>
<event>
 4    1  0.1776638E+004  0.2412677E+02  0.7546771E-02  0.1478814E+00
         21   -1    0    0  503  502  0.00000000000E+00  0.00000000000E+00  0.10345030376E+04  0.10345030376E+04  0.00000000000E+00 0.  1.
         21   -1    0    0  501  503 -0.00000000000E+00 -0.00000000000E+00 -0.19778779209E+01  0.19778779209E+01  0.00000000000E+00 0. -1.
          2    1    1    2  501    0 -0.14755781476E+02 -0.19088421394E+02  0.77894257890E+02  0.81545179689E+02  0.00000000000E+00 0. -1.
         -2    1    1    2    0  502  0.14755781476E+02  0.19088421394E+02  0.95463090180E+03  0.95493573584E+03  0.00000000000E+00 0.  1.
</event>
<event>
 4    1  0.1776638E+004  0.3038740E+02  0.7546771E-02  0.1416259E+00
         21   -1    0    0  503  502  0.00000000000E+00  0.00000000000E+00  0.14885580340E+03  0.14885580340E+03  0.00000000000E+00 0. -1.
         21   -1    0    0  501  503 -0.00000000000E+00 -0.00000000000E+00 -0.64378400987E+01  0.64378400987E+01  0.00000000000E+00 0.  1.
          2    1    1    2  501    0  0.30387283576E+02  0.84325057724E-01  0.86030113449E+02  0.91239106385E+02  0.00000000000E+00 0.  1.
         -2    1    1    2    0  502 -0.30387283576E+02 -0.84325057724E-01  0.56387849850E+02  0.64054537111E+02  0.00000000000E+00 0. -1.
</event>
<event>
 4    1  0.1776638E+004  0.3351787E+02  0.7546771E-02  0.1391293E+00
         21   -1    0    0  501  502  0.00000000000E+00  0.00000000000E+00  0.38372604185E+02  0.38372604185E+02  0.00000000000E+00 0.  1.
         21   -1    0    0  502  503 -0.00000000000E+00 -0.00000000000E+00 -0.13757424162E+03  0.13757424162E+03  0.00000000000E+00 0. -1.
          2    1    1    2  501    0  0.29498643939E+02  0.15914704399E+02  0.28452422194E+02  0.43965760986E+02  0.00000000000E+00 0.  1.
         -2    1    1    2    0  503 -0.29498643939E+02 -0.15914704399E+02 -0.12765405963E+03  0.13198108482E+03  0.00000000000E+00 0. -1.
</event>
<event>
 4    1  0.1776638E+004  0.2054703E+02  0.7546771E-02  0.1525831E+00
         21   -1    0    0  503  502  0.00000000000E+00  0.00000000000E+00  0.33390181896E+02  0.33390181896E+02  0.00000000000E+00 0.  1.
         21   -1    0    0  501  503 -0.00000000000E+00 -0.00000000000E+00 -0.19622911317E+02  0.19622911317E+02  0.00000000000E+00 0. -1.
          2    1    1    2  501    0  0.13275871800E+02 -0.15682208419E+02 -0.89241108609E+01  0.22401343433E+02  0.00000000000E+00 0. -1.
         -2    1    1    2    0  502 -0.13275871800E+02  0.15682208419E+02  0.22691381440E+02  0.30611749780E+02  0.00000000000E+00 0.  1.
</event>
<event>
 4    1  0.1776638E+004  0.3492348E+02  0.7546771E-02  0.1381102E+00
         21   -1    0    0  503  502  0.00000000000E+00  0.00000000000E+00  0.11422212544E+03  0.11422212544E+03  0.00000000000E+00 0. -1.
         21   -1    0    0  501  503 -0.00000000000E+00 -0.00000000000E+00 -0.57456037232E+02  0.57456037232E+02  0.00000000000E+00 0.  1.
          2    1    1    2  501    0 -0.13735568384E+02 -0.32108932522E+02 -0.49070057213E+02  0.60228895901E+02  0.00000000000E+00 0.  1.
         -2    1    1    2    0  502  0.13735568384E+02  0.32108932522E+02  0.10583614542E+03  0.11144926677E+03  0.00000000000E+00 0. -1.
</event>
<event>
 4    1  0.1776638E+004  0.2046759E+02  0.7546771E-02  0.1527004E+00
         21   -1    0    0  503  502  0.00000000000E+00  0.00000000000E+00  0.32752203509E+01  0.32752203509E+01  0.00000000000E+00 0.  1.
         21   -1    0    0  501  503 -0.00000000000E+00 -0.00000000000E+00 -0.34532364560E+03  0.34532364560E+03  0.00000000000E+00 0. -1.
          2    1    1    2  501    0 -0.18382015285E+02 -0.90013291201E+01 -0.30932656797E+03  0.31000298073E+03  0.00000000000E+00 0. -1.
         -2    1    1    2    0  502  0.18382015285E+02  0.90013291201E+01 -0.32721857278E+02  0.38595885215E+02  0.00000000000E+00 0.  1.
</event>
<event>
 4    1  0.1776638E+004  0.2052931E+02  0.7546771E-02  0.1526092E+00
         21   -1    0    0  503  502  0.00000000000E+00  0.00000000000E+00  0.52230315760E+02  0.52230315760E+02  0.00000000000E+00 0.  1.
         21   -1    0    0  501  503 -0.00000000000E+00 -0.00000000000E+00 -0.10252385098E+02  0.10252385098E+02  0.00000000000E+00 0. -1.
          2    1    1    2  501    0 -0.11057175645E+02 -0.17297155520E+02  0.65721110472E+01  0.21555634204E+02  0.00000000000E+00 0. -1.
         -2    1    1    2    0  502  0.11057175645E+02  0.17297155520E+02  0.35405819615E+02  0.40927066654E+02  0.00000000000E+00 0.  1.
</event>
<event>
 4    1  0.1776638E+004  0.2572034E+02  0.7546771E-02  0.1460904E+00
         21   -1    0    0  503  502  0.00000000000E+00  0.00000000000E+00  0.13328791920E+02  0.13328791920E+02  0.00000000000E+00 0. -1.
         21   -1    0    0  501  503 -0.00000000000E+00 -0.00000000000E+00 -0.18665671034E+03  0.18665671034E+03  0.00000000000E+00 0.  1.
          2    1    1    2  501    0 -0.25049751400E+02  0.58348698575E+01 -0.17233736329E+03  0.17424609763E+03  0.00000000000E+00 0.  1.
         -2    1    1    2    0  502  0.25049751400E+02 -0.58348698575E+01 -0.99055512867E+00  0.25739404634E+02  0.00000000000E+00 0. -1.
</event>
<event>
 4    1  0.1776638E+004  0.4006532E+02  0.7546771E-02  0.1348103E+00
         21   -1    0    0  501  502  0.00000000000E+00  0.00000000000E+00  0.73998184532E+01  0.73998184532E+01  0.00000000000E+00 0. -1.
         21   -1    0    0  502  503 -0.00000000000E+00 -0.00000000000E+00 -0.22743136142E+03  0.22743136142E+03  0.00000000000E+00 0.  1.
          2    1    1    2  501    0  0.79785477713E+01  0.39262860953E+02 -0.84783281275E+02  0.93773313146E+02  0.00000000000E+00 0. -1.
         -2    1    1    2    0  503 -0.79785477713E+01 -0.39262860953E+02 -0.13524826169E+03  0.14105786672E+03  0.00000000000E+00 0.  1.
</event>
<event>
 4    1  0.1776638E+004  0.3009752E+02  0.7546771E-02  0.1418751E+00
         21   -1    0    0  501  502  0.00000000000E+00  0.00000000000E+00  0.27309754055E+03  0.27309754055E+03  0.00000000000E+00 0.  1.
         21   -1    0    0  502  503 -0.00000000000E+00 -0.00000000000E+00 -0.34555026542E+01  0.34555026542E+01  0.00000000000E+00 0. -1.
          2    1    1    2  501    0  0.28827043102E+02  0.86523119812E+01  0.16250590182E+03  0.16526956479E+03  0.00000000000E+00 0.  1.
         -2    1    1    2    0  503 -0.28827043102E+02 -0.86523119812E+01  0.10713613607E+03  0.11128347842E+03  0.00000000000E+00 0. -1.
</event>
<event>
 4    1  0.1776638E+004  0.2145997E+02  0.7546771E-02  0.1512798E+00
         21   -1    0    0  501  502  0.00000000000E+00  0.00000000000E+00  0.41214599491E+02  0.41214599491E+02  0.00000000000E+00 0.  1.
         21   -1    0    0  502  503 -0.00000000000E+00 -0.00000000000E+00 -0.12614395846E+02  0.12614395846E+02  0.00000000000E+00 0. -1.
          2    1    1    2  501    0 -0.60801381403E+01 -0.20580630853E+02  0.52051704580E+01  0.22082215596E+02  0.00000000000E+00 0. -1.
         -2    1    1    2    0  503  0.60801381403E+01  0.20580630853E+02  0.23395033187E+02  0.31746779741E+02  0.00000000000E+00 0.  1.
</event>
<event>
 4    1  0.1776638E+004  0.2677658E+02  0.7546771E-02  0.1449865E+00
         21   -1    0    0  503  502  0.00000000000E+00  0.00000000000E+00  0.64645700758E+02  0.64645700758E+02  0.00000000000E+00 0. -1.
         21   -1    0    0  501  503 -0.00000000000E+00 -0.00000000000E+00 -0.59535188650E+02  0.59535188650E+02  0.00000000000E+00 0.  1.
          2    1    1    2  501    0 -0.17806662497E+02  0.19997696497E+02 -0.53453866947E+02  0.59785457982E+02  0.00000000000E+00 0.  1.
         -2    1    1    2    0  502  0.17806662497E+02 -0.19997696497E+02  0.58564379055E+02  0.64395431426E+02  0.00000000000E+00 0. -1.
</event>
<event>
 4    1  0.1776638E+004  0.3669855E+02  0.7546771E-02  0.1369000E+00
         21   -1    0    0  503  502  0.00000000000E+00  0.00000000000E+00  0.12093900779E+03  0.12093900779E+03  0.00000000000E+00 0.  1.
         21   -1    0    0  501  503 -0.00000000000E+00 -0.00000000000E+00 -0.11139280080E+02  0.11139280080E+02  0.00000000000E+00 0. -1.
          2    1    1    2  501    0  0.36157193806E+02  0.62801715574E+01  0.53775860448E+02  0.65104733972E+02  0.00000000000E+00 0. -1.
         -2    1    1    2    0  502 -0.36157193806E+02 -0.62801715574E+01  0.56023867262E+02  0.66973553898E+02  0.00000000000E+00 0.  1.
</event>
<event>
 4    1  0.1776638E+004  0.2309699E+02  0.7546771E-02  0.1491284E+00
         21   -1    0    0  503  502  0.00000000000E+00  0.00000000000E+00  0.16696887519E+02  0.16696887519E+02  0.00000000000E+00 0.  1.
         21   -1    0    0  501  503 -0.00000000000E+00 -0.00000000000E+00 -0.92657164065E+02  0.92657164065E+02  0.00000000000E+00 0. -1.
          2    1    1    2  501    0  0.22568601274E+02 -0.49121525933E+01 -0.82237363922E+02  0.85419289574E+02  0.00000000000E+00 0. -1.
         -2    1    1    2    0  502 -0.22568601274E+02  0.49121525933E+01  0.62770873755E+01  0.23934762011E+02  0.00000000000E+00 0.  1.
</event>
<event>
 4    1  0.1776638E+004  0.3472812E+02  0.7546771E-02  0.1382485E+00
         21   -1    0    0  503  502  0.00000000000E+00  0.00000000000E+00  0.59956483831E+02  0.59956483831E+02  0.00000000000E+00 0.  1.
         21   -1    0    0  501  503 -0.00000000000E+00 -0.00000000000E+00 -0.20201221752E+02  0.20201221752E+02  0.00000000000E+00 0. -1.
          2    1    1    2  501    0  0.34683460088E+02  0.17606974076E+01  0.22491515955E+02  0.41375243190E+02  0.00000000000E+00 0. -1.
         -2    1    1    2    0  502 -0.34683460088E+02 -0.17606974076E+01  0.17263746124E+02  0.38782462393E+02  0.00000000000E+00 0.  1.
</event>
<event>
 4    1  0.1776638E+004  0.2235893E+02  0.7546771E-02  0.1500709E+00
         21   -1    0    0  501  502  0.00000000000E+00  0.00000000000E+00  0.94356500463E+03  0.94356500463E+03  0.00000000000E+00 0.  1.
         21   -1    0    0  502  503 -0.00000000000E+00 -0.00000000000E+00 -0.65695831404E+00  0.65695831404E+00  0.00000000000E+00 0. -1.
          2    1    1    2  501    0  0.21390659044E+02  0.65085752847E+01  0.67914105167E+03  0.67950900649E+03  0.00000000000E+00 0.  1.
         -2    1    1    2    0  503 -0.21390659044E+02 -0.65085752847E+01  0.26376699465E+03  0.26471295645E+03  0.00000000000E+00 0. -1.
</event>
<event>
 4    1  0.1776638E+004  0.2049181E+02  0.7546771E-02  0.1526646E+00
         21   -1    0    0  503  502  0.00000000000E+00  0.00000000000E+00  0.73772615010E+01  0.73772615010E+01  0.00000000000E+00 0.  1.
         21   -1    0    0  501  503 -0.00000000000E+00 -0.00000000000E+00 -0.57085821922E+02  0.57085821922E+02  0.00000000000E+00 0. -1.
          2    1    1    2  501    0  0.54921879626E+01  0.19742094817E+02 -0.26590927182E+02  0.33570699200E+02  0.00000000000E+00 0.  1.
         -2    1    1    2    0  502 -0.54921879626E+01 -0.19742094817E+02 -0.23117633239E+02  0.30892384223E+02  0.00000000000E+00 0. -1.
</event>
<event>
 4    1  0.1776638E+004  0.4611734E+02  0.7546771E-02  0.1315945E+00
         21   -1    0    0  501  502  0.00000000000E+00  0.00000000000E+00  0.19266876702E+02  0.19266876702E+02  0.00000000000E+00 0. -1.
         21   -1    0    0  502  503 -0.00000000000E+00 -0.00000000000E+00 -0.12696441553E+03  0.12696441553E+03  0.00000000000E+00 0.  1.
          2    1    1    2  501    0 -0.25664097325E+02 -0.38316616238E+02 -0.27428923976E+02  0.53657756587E+02  0.00000000000E+00 0. -1.
         -2    1    1    2    0  503  0.25664097325E+02  0.38316616238E+02 -0.80268614851E+02  0.92573535643E+02  0.00000000000E+00 0.  1.
</event>
<event>
 4    1  0.1776638E+004  0.2240919E+02  0.7546771E-02  0.1500053E+00
         21   -1    0    0  503  502  0.00000000000E+00  0.00000000000E+00  0.10570799343E+02  0.10570799343E+02  0.00000000000E+00 0. -1.
         21   -1    0    0  501  503 -0.00000000000E+00 -0.00000000000E+00 -0.47833544692E+02  0.47833544692E+02  0.00000000000E+00 0.  1.
          2    1    1    2  501    0 -0.13570891702E+02  0.17832624322E+02 -0.21049533026E+02  0.30744990362E+02  0.00000000000E+00 0.  1.
         -2    1    1    2    0  502  0.13570891702E+02 -0.17832624322E+02 -0.16213212323E+02  0.27659353673E+02  0.00000000000E+00 0. -1.
</event>
<event>
 4    1  0.1776638E+004  0.4553329E+02  0.7546771E-02  0.1318794E+00
         21   -1    0    0  501  502  0.00000000000E+00  0.00000000000E+00  0.53488661241E+03  0.53488661241E+03  0.00000000000E+00 0.  1.
         21   -1    0    0  502  503 -0.00000000000E+00 -0.00000000000E+00 -0.87289453472E+01  0.87289453472E+01  0.00000000000E+00 0. -1.
          2    1    1    2  501    0  0.45532148251E+02  0.32201980382E+00  0.46574380856E+03  0.46796428863E+03  0.00000000000E+00 0.  1.
         -2    1    1    2    0  503 -0.45532148251E+02 -0.32201980382E+00  0.60413858496E+02  0.75651269120E+02  0.00000000000E+00 0. -1.
</event>
<event>
 4    1  0.1776638E+004  0.4176354E+02  0.7546771E-02  0.1338450E+00
         21   -1    0    0  503  502  0.00000000000E+00  0.00000000000E+00  0.10593842132E+04  0.10593842132E+04  0.00000000000E+00 0.  1.
         21   -1    0    0  501  503 -0.00000000000E+00 -0.00000000000E+00 -0.30597554585E+01  0.30597554585E+01  0.00000000000E+00 0. -1.
          2    1    1    2  501    0 -0.41493956684E+02  0.47376356852E+01  0.16712251370E+03  0.17226180139E+03  0.00000000000E+00 0. -1.
         -2    1    1    2    0  502  0.41493956684E+02 -0.47376356852E+01  0.88920194409E+03  0.89018216732E+03  0.00000000000E+00 0.  1.
</event>
<event>
 4    1  0.1776638E+004  0.3021375E+02  0.7546771E-02  0.1417748E+00
         21   -1    0    0  501  502  0.00000000000E+00  0.00000000000E+00  0.50784913837E+01  0.50784913837E+01  0.00000000000E+00 0.  1.
         21   -1    0    0  502  503 -0.00000000000E+00 -0.00000000000E+00 -0.18325154032E+03  0.18325154032E+03  0.00000000000E+00 0. -1.
          2    1    1    2  501    0  0.22861459884E+02 -0.19754092914E+02 -0.76074277184E+02  0.81854542842E+02  0.00000000000E+00 0.  1.
         -2    1    1    2    0  503 -0.22861459884E+02  0.19754092914E+02 -0.10209877176E+03  0.10647548886E+03  0.00000000000E+00 0. -1.
</event>
<event>
 4    1  0.1776638E+004  0.2080322E+02  0.7546771E-02  0.1522093E+00
         21   -1    0    0  501  502  0.00000000000E+00  0.00000000000E+00  0.11000699678E+03  0.11000699678E+03  0.00000000000E+00 0. -1.
         21   -1    0    0  502  503 -0.00000000000E+00 -0.00000000000E+00 -0.41937142764E+01  0.41937142764E+01  0.00000000000E+00 0.  1.
          2    1    1    2  501    0  0.66412104520E+01  0.19714666682E+02  0.67114869453E+02  0.70265065718E+02  0.00000000000E+00 0. -1.
         -2    1    1    2    0  503 -0.66412104520E+01 -0.19714666682E+02  0.38698413046E+02  0.43935645334E+02  0.00000000000E+00 0.  1.
</event>
<event>
 4    1  0.1776638E+004  0.2495158E+02  0.7546771E-02  0.1469346E+00
         21   -1    0    0  501  502  0.00000000000E+00  0.00000000000E+00  0.15222471729E+01  0.15222471729E+01  0.00000000000E+00 0.  1.
         21   -1    0    0  502  503 -0.00000000000E+00 -0.00000000000E+00 -0.12834428451E+04  0.12834428451E+04  0.00000000000E+00 0. -1.
          2    1    1    2  501    0  0.11661260810E+02  0.22058934168E+02 -0.11063586310E+03  0.11341461891E+03  0.00000000000E+00 0.  1.
         -2    1    1    2    0  503 -0.11661260810E+02 -0.22058934168E+02 -0.11712847348E+04  0.11715504733E+04  0.00000000000E+00 0. -1.
</event>
<event>
 4    1  0.1776638E+004  0.2243150E+02  0.7546771E-02  0.1499763E+00
         21   -1    0    0  503  502  0.00000000000E+00  0.00000000000E+00  0.52023092332E+03  0.52023092332E+03  0.00000000000E+00 0. -1.
         21   -1    0    0  501  503 -0.00000000000E+00 -0.00000000000E+00 -0.10034738437E+01  0.10034738437E+01  0.00000000000E+00 0.  1.
          2    1    1    2  501    0  0.16569973587E+02  0.15119787925E+02  0.21006948437E+03  0.21126372210E+03  0.00000000000E+00 0.  1.
         -2    1    1    2    0  502 -0.16569973587E+02 -0.15119787925E+02  0.30915796510E+03  0.30997067506E+03  0.00000000000E+00 0. -1.
</event>
<event>
 4    1  0.1776638E+004  0.2596010E+02  0.7546771E-02  0.1458343E+00
         21   -1    0    0  503  502  0.00000000000E+00  0.00000000000E+00  0.55630920616E+01  0.55630920616E+01  0.00000000000E+00 0. -1.
         21   -1    0    0  501  503 -0.00000000000E+00 -0.00000000000E+00 -0.12984600039E+03  0.12984600039E+03  0.00000000000E+00 0.  1.
          2    1    1    2  501    0 -0.23471477506E+02  0.11091270705E+02 -0.79670248079E+02  0.83793048465E+02  0.00000000000E+00 0.  1.
         -2    1    1    2    0  502  0.23471477506E+02 -0.11091270705E+02 -0.44612660245E+02  0.51616043982E+02  0.00000000000E+00 0. -1.
</event>
<event>
 4    1  0.1776638E+004  0.3472522E+02  0.7546771E-02  0.1382505E+00
         21   -1    0    0  501  502  0.00000000000E+00  0.00000000000E+00  0.41816303470E+01  0.41816303470E+01  0.00000000000E+00 0.  1.
         21   -1    0    0  502  503 -0.00000000000E+00 -0.00000000000E+00 -0.50350433358E+03  0.50350433358E+03  0.00000000000E+00 0. -1.
          2    1    1    2  501    0  0.13745487797E+02 -0.31888911684E+02 -0.83732392977E+02  0.90647420023E+02  0.00000000000E+00 0.  1.
         -2    1    1    2    0  503 -0.13745487797E+02  0.31888911684E+02 -0.41559031026E+03  0.41703854391E+03  0.00000000000E+00 0. -1.
</event>
<event>
 4    1  0.1776638E+004  0.2153193E+02  0.7546771E-02  0.1511804E+00
         21   -1    0    0  503  502  0.00000000000E+00  0.00000000000E+00  0.27255205321E+01  0.27255205321E+01  0.00000000000E+00 0.  1.
         21   -1    0    0  501  503 -0.00000000000E+00 -0.00000000000E+00 -0.22283860324E+03  0.22283860324E+03  0.00000000000E+00 0. -1.
          2    1    1    2  501    0  0.19495178780E+02  0.91412242439E+01 -0.16492080922E+03  0.16632046564E+03  0.00000000000E+00 0.  1.
         -2    1    1    2    0  502 -0.19495178780E+02 -0.91412242439E+01 -0.55192273491E+02  0.59243658137E+02  0.00000000000E+00 0. -1.
</event>
<event>
 4    1  0.1776638E+004  0.3511913E+02  0.7546771E-02  0.1379728E+00
         21   -1    0    0  503  502  0.00000000000E+00  0.00000000000E+00  0.50521619779E+02  0.50521619779E+02  0.00000000000E+00 0.  1.
         21   -1    0    0  501  503 -0.00000000000E+00 -0.00000000000E+00 -0.28510732928E+03  0.28510732928E+03  0.00000000000E+00 0. -1.
          2    1    1    2  501    0 -0.31629207786E+02 -0.15262579537E+02 -0.27776199756E+03  0.27997335661E+03  0.00000000000E+00 0. -1.
         -2    1    1    2    0  502  0.31629207786E+02  0.15262579537E+02  0.43176288068E+02  0.55655592447E+02  0.00000000000E+00 0.  1.
</event>
<event>
 4    1  0.1776638E+004  0.3019580E+02  0.7546771E-02  0.1417902E+00
         21   -1    0    0  501  502  0.00000000000E+00  0.00000000000E+00  0.17112585434E+03  0.17112585434E+03  0.00000000000E+00 0.  1.
         21   -1    0    0  502  503 -0.00000000000E+00 -0.00000000000E+00 -0.53289431851E+01  0.53289431851E+01  0.00000000000E+00 0. -1.
          2    1    1    2  501    0  0.19055548588E+02 -0.23423757673E+02  0.83966348977E+02  0.89230791300E+02  0.00000000000E+00 0.  1.
         -2    1    1    2    0  503 -0.19055548588E+02  0.23423757673E+02  0.81830562176E+02  0.87224006223E+02  0.00000000000E+00 0. -1.
</event>
<event>
 4    1  0.1776638E+004  0.4077473E+02  0.7546771E-02  0.1344005E+00
         21   -1    0    0  503  502  0.00000000000E+00  0.00000000000E+00  0.19718513323E+02  0.19718513323E+02  0.00000000000E+00 0.  1.
         21   -1    0    0  501  503 -0.00000000000E+00 -0.00000000000E+00 -0.84384136159E+02  0.84384136159E+02  0.00000000000E+00 0. -1.
          2    1    1    2  501    0 -0.14672933244E+02  0.38043183878E+02 -0.33815931988E+02  0.52972597310E+02  0.00000000000E+00 0. -1.
         -2    1    1    2    0  502  0.14672933244E+02 -0.38043183878E+02 -0.30849690849E+02  0.51130052172E+02  0.00000000000E+00 0.  1.
</event>
<event>
 4    1  0.1776638E+004  0.3672371E+02  0.7546771E-02  0.1368834E+00
         21   -1    0    0  503  502  0.00000000000E+00  0.00000000000E+00  0.77652736694E+02  0.77652736694E+02  0.00000000000E+00 0. -1.
         21   -1    0    0  501  503 -0.00000000000E+00 -0.00000000000E+00 -0.37417802375E+02  0.37417802375E+02  0.00000000000E+00 0.  1.
          2    1    1    2  501    0  0.96452552230E+01 -0.35434444161E+02 -0.21999385784E+02  0.42808921456E+02  0.00000000000E+00 0.  1.
         -2    1    1    2    0  502 -0.96452552230E+01  0.35434444161E+02  0.62234320103E+02  0.72261617613E+02  0.00000000000E+00 0. -1.
</event>
<event>
 4    1  0.1776638E+004  0.2473087E+02  0.7546771E-02  0.1471837E+00
         21   -1    0    0  501  502  0.00000000000E+00  0.00000000000E+00  0.12424284167E+02  0.12424284167E+02  0.00000000000E+00 0.  1.
         21   -1    0    0  502  503 -0.00000000000E+00 -0.00000000000E+00 -0.56279506753E+02  0.56279506753E+02  0.00000000000E+00 0. -1.
          2    1    1    2  501    0  0.16086179950E+02 -0.18784316602E+02 -0.97676080263E+01  0.26589883455E+02  0.00000000000E+00 0.  1.
         -2    1    1    2    0  503 -0.16086179950E+02  0.18784316602E+02 -0.34087614560E+02  0.42113907465E+02  0.00000000000E+00 0. -1.
</event>
<event>
 4    1  0.1776638E+004  0.2668783E+02  0.7546771E-02  0.1450769E+00
         21   -1    0    0  501  502  0.00000000000E+00  0.00000000000E+00  0.24091877849E+01  0.24091877849E+01  0.00000000000E+00 0. -1.
         21   -1    0    0  502  503 -0.00000000000E+00 -0.00000000000E+00 -0.49525676753E+03  0.49525676753E+03  0.00000000000E+00 0.  1.
          2    1    1    2  501    0 -0.24658416169E+02 -0.10207989224E+02 -0.88445815991E+02  0.92384538199E+02  0.00000000000E+00 0. -1.
         -2    1    1    2    0  503  0.24658416169E+02  0.10207989224E+02 -0.40440176376E+03  0.40528141712E+03  0.00000000000E+00 0.  1.
</event>
<event>
 4    1  0.1776638E+004  0.2404761E+02  0.7546771E-02  0.1479746E+00
         21   -1    0    0  503  502  0.00000000000E+00  0.00000000000E+00  0.25169647569E+03  0.25169647569E+03  0.00000000000E+00 0. -1.
         21   -1    0    0  501  503 -0.00000000000E+00 -0.00000000000E+00 -0.31777056536E+01  0.31777056536E+01  0.00000000000E+00 0.  1.
          2    1    1    2  501    0 -0.14210203012E+02  0.19399938619E+02  0.57191200494E+02  0.62041283852E+02  0.00000000000E+00 0.  1.
         -2    1    1    2    0  502  0.14210203012E+02 -0.19399938619E+02  0.19132756955E+03  0.19283289750E+03  0.00000000000E+00 0. -1.
</event>
<event>
 4    1  0.1776638E+004  0.5324285E+02  0.7546771E-02  0.1284693E+00
         21   -1    0    0  501  502  0.00000000000E+00  0.00000000000E+00  0.51582480082E+03  0.51582480082E+03  0.00000000000E+00 0. -1.
         21   -1    0    0  502  503 -0.00000000000E+00 -0.00000000000E+00 -0.80989987080E+01  0.80989987080E+01  0.00000000000E+00 0.  1.
          2    1    1    2  501    0  0.17380896074E+02 -0.50325991932E+02  0.40238369862E+03  0.40589092368E+03  0.00000000000E+00 0. -1.
         -2    1    1    2    0  503 -0.17380896074E+02  0.50325991932E+02  0.10534210349E+03  0.11803287584E+03  0.00000000000E+00 0.  1.
</event>
<event>
 4    1  0.1776638E+004  0.2059995E+02  0.7546771E-02  0.1525054E+00
         21   -1    0    0  501  502  0.00000000000E+00  0.00000000000E+00  0.82360270643E+02  0.82360270643E+02  0.00000000000E+00 0. -1.
         21   -1    0    0  502  503 -0.00000000000E+00 -0.00000000000E+00 -0.64310687580E+01  0.64310687580E+01  0.00000000000E+00 0.  1.
          2    1    1    2  501    0  0.14140582340E+02  0.14980047471E+02  0.57760174851E+02  0.61323695991E+02  0.00000000000E+00 0. -1.
         -2    1    1    2    0  503 -0.14140582340E+02 -0.14980047471E+02  0.18169027034E+02  0.27467643411E+02  0.00000000000E+00 0.  1.
</event>
<event>
 4    1  0.1776638E+004  0.2412306E+02  0.7546771E-02  0.1478858E+00
         21   -1    0    0  501  502  0.00000000000E+00  0.00000000000E+00  0.82656473222E+01  0.82656473222E+01  0.00000000000E+00 0. -1.
         21   -1    0    0  502  503 -0.00000000000E+00 -0.00000000000E+00 -0.88785018754E+02  0.88785018754E+02  0.00000000000E+00 0.  1.
          2    1    1    2  501    0 -0.13649162466E+02  0.19890255252E+02 -0.18179552867E+02  0.30206258167E+02  0.00000000000E+00 0. -1.
         -2    1    1    2    0  503  0.13649162466E+02 -0.19890255252E+02 -0.62339818565E+02  0.66844407909E+02  0.00000000000E+00 0.  1.
</event>
<event>
 4    1  0.1776638E+004  0.2074965E+02  0.7546771E-02  0.1522869E+00
         21   -1    0    0  501  502  0.00000000000E+00  0.00000000000E+00  0.33762818514E+02  0.33762818514E+02  0.00000000000E+00 0. -1.
         21   -1    0    0  502  503 -0.00000000000E+00 -0.00000000000E+00 -0.24263716444E+02  0.24263716444E+02  0.00000000000E+00 0.  1.
          2    1    1    2  501    0 -0.16364393124E+02  0.12757527329E+02  0.24733695569E+02  0.32284726456E+02  0.00000000000E+00 0. -1.
         -2    1    1    2    0  503  0.16364393124E+02 -0.12757527329E+02 -0.15234593499E+02  0.25741808502E+02  0.00000000000E+00 0.  1.
</event>
<event>
 4    1  0.1776638E+004  0.2021551E+02  0.7546771E-02  0.1530766E+00
         21   -1    0    0  501  502  0.00000000000E+00  0.00000000000E+00  0.76235761847E+01  0.76235761847E+01  0.00000000000E+00 0. -1.
         21   -1    0    0  502  503 -0.00000000000E+00 -0.00000000000E+00 -0.13433392390E+03  0.13433392390E+03  0.00000000000E+00 0.  1.
          2    1    1    2  501    0  0.17886332053E+02 -0.94205088788E+01 -0.83316636128E+01  0.21865120178E+02  0.00000000000E+00 0. -1.
         -2    1    1    2    0  503 -0.17886332053E+02  0.94205088788E+01 -0.11837868411E+03  0.12009237991E+03  0.00000000000E+00 0.  1.
</event>
<event>
 4    1  0.1776638E+004  0.2426344E+02  0.7546771E-02  0.1477215E+00
         21   -1    0    0  501  502  0.00000000000E+00  0.00000000000E+00  0.75414971587E+02  0.75414971587E+02  0.00000000000E+00 0. -1.
         21   -1    0    0  502  503 -0.00000000000E+00 -0.00000000000E+00 -0.89953662140E+01  0.89953662140E+01  0.00000000000E+00 0.  1.
          2    1    1    2  501    0 -0.21865013694E+02 -0.10518351597E+02  0.48554305362E+02  0.54279232800E+02  0.00000000000E+00 0. -1.
         -2    1    1    2    0  503  0.21865013694E+02  0.10518351597E+02  0.17865300011E+02  0.30131105002E+02  0.00000000000E+00 0.  1.
</event>
<event>
 4    1  0.1776638E+004  0.2148962E+02  0.7546771E-02  0.1512388E+00
         21   -1    0    0  501  502  0.00000000000E+00  0.00000000000E+00  0.80189897599E+02  0.80189897599E+02  0.00000000000E+00 0.  1.
         21   -1    0    0  502  503 -0.00000000000E+00 -0.00000000000E+00 -0.70110880662E+01  0.70110880662E+01  0.00000000000E+00 0. -1.
          2    1    1    2  501    0  0.23470690285E+01 -0.21361067724E+02  0.18163151165E+02  0.28137235251E+02  0.00000000000E+00 0. -1.
         -2    1    1    2    0  503 -0.23470690285E+01  0.21361067724E+02  0.55015658368E+02  0.59063750414E+02  0.00000000000E+00 0.  1.
</event>
<event>
 4    1  0.1776638E+004  0.2978437E+02  0.7546771E-02  0.1421480E+00
         21   -1    0    0  501  502  0.00000000000E+00  0.00000000000E+00  0.11762046577E+02  0.11762046577E+02  0.00000000000E+00 0.  1.
         21   -1    0    0  502  503 -0.00000000000E+00 -0.00000000000E+00 -0.95147580371E+02  0.95147580371E+02  0.00000000000E+00 0. -1.
          2    1    1    2  501    0 -0.10478487777E+02  0.27880275572E+02 -0.17353309483E+02  0.34470941706E+02  0.00000000000E+00 0. -1.
         -2    1    1    2    0  503  0.10478487777E+02 -0.27880275572E+02 -0.66032224311E+02  0.72438685242E+02  0.00000000000E+00 0.  1.
</event>
<event>
 4    1  0.1776638E+004  0.2115051E+02  0.7546771E-02  0.1517127E+00
         21   -1    0    0  501  502  0.00000000000E+00  0.00000000000E+00  0.85984381101E+01  0.85984381101E+01  0.00000000000E+00 0.  1.
         21   -1    0    0  502  503 -0.00000000000E+00 -0.00000000000E+00 -0.17602058386E+03  0.17602058386E+03  0.00000000000E+00 0. -1.
          2    1    1    2  501    0 -0.98913065569E+01  0.18695086138E+02 -0.62353383104E+01  0.22050479245E+02  0.00000000000E+00 0.  1.
         -2    1    1    2    0  503  0.98913065569E+01 -0.18695086138E+02 -0.16118680744E+03  0.16256854273E+03  0.00000000000E+00 0. -1.
</event>
<event>
 4    1  0.1776638E+004  0.2030716E+02  0.7546771E-02  0.1529391E+00
         21   -1    0    0  503  502  0.00000000000E+00  0.00000000000E+00  0.10894186514E+01  0.10894186514E+01  0.00000000000E+00 0. -1.
         21   -1    0    0  501  503 -0.00000000000E+00 -0.00000000000E+00 -0.12815602578E+04  0.12815602578E+04  0.00000000000E+00 0.  1.
          2    1    1    2  501    0 -0.12753237665E+02  0.15803023693E+02 -0.11785783778E+04  0.11787533131E+04  0.00000000000E+00 0.  1.
         -2    1    1    2    0  502  0.12753237665E+02 -0.15803023693E+02 -0.10189246130E+03  0.10389636326E+03  0.00000000000E+00 0. -1.
</event>
<event>
 4    1  0.1776638E+004  0.2094136E+02  0.7546771E-02  0.1520104E+00
         21   -1    0    0  501  502  0.00000000000E+00  0.00000000000E+00  0.19571654103E+02  0.19571654103E+02  0.00000000000E+00 0.  1.
         21   -1    0    0  502  503 -0.00000000000E+00 -0.00000000000E+00 -0.22576218244E+02  0.22576218244E+02  0.00000000000E+00 0. -1.
          2    1    1    2  501    0  0.20476917972E+02  0.43859400378E+01  0.32260643576E+00  0.20943846699E+02  0.00000000000E+00 0. -1.
         -2    1    1    2    0  503 -0.20476917972E+02 -0.43859400378E+01 -0.33271705769E+01  0.21204025648E+02  0.00000000000E+00 0.  1.
</event>
<event>
 4    1  0.1776638E+004  0.2429718E+02  0.7546771E-02  0.1476822E+00
         21   -1    0    0  501  502  0.00000000000E+00  0.00000000000E+00  0.42893792107E+01  0.42893792107E+01  0.00000000000E+00 0. -1.
         21   -1    0    0  502  503 -0.00000000000E+00 -0.00000000000E+00 -0.44086332861E+03  0.44086332861E+03  0.00000000000E+00 0.  1.
          2    1    1    2  501    0  0.24170367726E+02 -0.24791603421E+01 -0.33694258927E+02  0.41541015836E+02  0.00000000000E+00 0. -1.
         -2    1    1    2    0  503 -0.24170367726E+02  0.24791603421E+01 -0.40287969047E+03  0.40361169198E+03  0.00000000000E+00 0.  1.
</event>
<event>
 4    1  0.1776638E+004  0.2524580E+02  0.7546771E-02  0.1466072E+00
         21   -1    0    0  503  502  0.00000000000E+00  0.00000000000E+00  0.53925779895E+02  0.53925779895E+02  0.00000000000E+00 0. -1.
         21   -1    0    0  501  503 -0.00000000000E+00 -0.00000000000E+00 -0.12006799447E+02  0.12006799447E+02  0.00000000000E+00 0.  1.
          2    1    1    2  501    0  0.16283235669E+02 -0.19292657258E+02  0.16836907434E+02  0.30345211153E+02  0.00000000000E+00 0.  1.
         -2    1    1    2    0  502 -0.16283235669E+02  0.19292657258E+02  0.25082073014E+02  0.35587368189E+02  0.00000000000E+00 0. -1.
</event>
<event>
 4    1  0.1776638E+004  0.2154847E+02  0.7546771E-02  0.1511576E+00
         21   -1    0    0  501  502  0.00000000000E+00  0.00000000000E+00  0.32072870608E+02  0.32072870608E+02  0.00000000000E+00 0.  1.
         21   -1    0    0  502  503 -0.00000000000E+00 -0.00000000000E+00 -0.14758357692E+02  0.14758357692E+02  0.00000000000E+00 0. -1.
          2    1    1    2  501    0  0.17612426638E+02  0.12415273010E+02  0.11887173171E+02  0.24609783867E+02  0.00000000000E+00 0. -1.
         -2    1    1    2    0  503 -0.17612426638E+02 -0.12415273010E+02  0.54273397451E+01  0.22221444433E+02  0.00000000000E+00 0.  1.
</event>
<event>
 4    1  0.1776638E+004  0.2389591E+02  0.7546771E-02  0.1481544E+00
         21   -1    0    0  501  502  0.00000000000E+00  0.00000000000E+00  0.10869634484E+03  0.10869634484E+03  0.00000000000E+00 0.  1.
         21   -1    0    0  502  503 -0.00000000000E+00 -0.00000000000E+00 -0.67364736869E+01  0.67364736869E+01  0.00000000000E+00 0. -1.
          2    1    1    2  501    0 -0.22101335631E+02  0.90854531290E+01  0.78061828658E+02  0.81637390874E+02  0.00000000000E+00 0.  1.
         -2    1    1    2    0  503  0.22101335631E+02 -0.90854531290E+01  0.23898042497E+02  0.33795427655E+02  0.00000000000E+00 0. -1.
</event>
<event>
 4    1  0.1776638E+004  0.2479884E+02  0.7546771E-02  0.1471066E+00
         21   -1    0    0  501  502  0.00000000000E+00  0.00000000000E+00  0.12863289747E+02  0.12863289747E+02  0.00000000000E+00 0. -1.
         21   -1    0    0  502  503 -0.00000000000E+00 -0.00000000000E+00 -0.14245043553E+03  0.14245043553E+03  0.00000000000E+00 0.  1.
          2    1    1    2  501    0  0.20321438809E+02 -0.14213429623E+02 -0.14958111362E+01  0.24843910881E+02  0.00000000000E+00 0. -1.
         -2    1    1    2    0  503 -0.20321438809E+02  0.14213429623E+02 -0.12809133465E+03  0.13046981440E+03  0.00000000000E+00 0.  1.
</event>
<event>
 4    1  0.1776638E+004  0.2248715E+02  0.7546771E-02  0.1499040E+00
         21   -1    0    0  501  502  0.00000000000E+00  0.00000000000E+00  0.90602017546E+02  0.90602017546E+02  0.00000000000E+00 0.  1.
         21   -1    0    0  502  503 -0.00000000000E+00 -0.00000000000E+00 -0.82826496784E+01  0.82826496784E+01  0.00000000000E+00 0. -1.
          2    1    1    2  501    0  0.22350628201E+02  0.24741143208E+01  0.69396085288E+02  0.72948533063E+02  0.00000000000E+00 0.  1.
         -2    1    1    2    0  503 -0.22350628201E+02 -0.24741143208E+01  0.12923282579E+02  0.25936134162E+02  0.00000000000E+00 0. -1.
</event>
<event>
 4    1  0.1776638E+004  0.2243928E+02  0.7546771E-02  0.1499662E+00
         21   -1    0    0  501  502  0.00000000000E+00  0.00000000000E+00  0.49802661499E+02  0.49802661499E+02  0.00000000000E+00 0.  1.
         21   -1    0    0  502  503 -0.00000000000E+00 -0.00000000000E+00 -0.10207194359E+02  0.10207194359E+02  0.00000000000E+00 0. -1.
          2    1    1    2  501    0  0.50398840027E+01  0.21865969910E+02  0.22720766001E+02  0.31933591695E+02  0.00000000000E+00 0. -1.
         -2    1    1    2    0  503 -0.50398840027E+01 -0.21865969910E+02  0.16874701138E+02  0.28076264164E+02  0.00000000000E+00 0.  1.
</event>
<event>
 4    1  0.1776638E+004  0.3647646E+02  0.7546771E-02  0.1370470E+00
         21   -1    0    0  501  502  0.00000000000E+00  0.00000000000E+00  0.51477603370E+03  0.51477603370E+03  0.00000000000E+00 0. -1.
         21   -1    0    0  502  503 -0.00000000000E+00 -0.00000000000E+00 -0.38475166706E+01  0.38475166706E+01  0.00000000000E+00 0.  1.
          2    1    1    2  501    0 -0.35838617448E+02 -0.67915904362E+01  0.40402541812E+03  0.40566867107E+03  0.00000000000E+00 0. -1.
         -2    1    1    2    0  503  0.35838617448E+02  0.67915904362E+01  0.10690309891E+03  0.11295487930E+03  0.00000000000E+00 0.  1.
</event>
<event>
 4    1  0.1776638E+004  0.2487894E+02  0.7546771E-02  0.1470162E+00
         21   -1    0    0  503  502  0.00000000000E+00  0.00000000000E+00  0.35634817676E+03  0.35634817676E+03  0.00000000000E+00 0. -1.
         21   -1    0    0  501  503 -0.00000000000E+00 -0.00000000000E+00 -0.43879290008E+01  0.43879290008E+01  0.00000000000E+00 0.  1.
          2    1    1    2  501    0  0.17566022904E+02  0.17618071056E+02  0.35785176494E+02  0.43583717661E+02  0.00000000000E+00 0.  1.
         -2    1    1    2    0  502 -0.17566022904E+02 -0.17618071056E+02  0.31617507126E+03  0.31715238810E+03  0.00000000000E+00 0. -1.
</event>
<event>
 4    1  0.1776638E+004  0.2118226E+02  0.7546771E-02  0.1516678E+00
         21   -1    0    0  501  502  0.00000000000E+00  0.00000000000E+00  0.24500173816E+03  0.24500173816E+03  0.00000000000E+00 0. -1.
         21   -1    0    0  502  503 -0.00000000000E+00 -0.00000000000E+00 -0.33623344103E+01  0.33623344103E+01  0.00000000000E+00 0.  1.
          2    1    1    2  501    0  0.12953393256E+02  0.16760008798E+02  0.20461529614E+03  0.20570879346E+03  0.00000000000E+00 0. -1.
         -2    1    1    2    0  503 -0.12953393256E+02 -0.16760008798E+02  0.37024107608E+02  0.42655279110E+02  0.00000000000E+00 0.  1.
</event>
<event>
 4    1  0.1776638E+004  0.2638630E+02  0.7546771E-02  0.1453872E+00
         21   -1    0    0  501  502  0.00000000000E+00  0.00000000000E+00  0.38722370184E+03  0.38722370184E+03  0.00000000000E+00 0.  1.
         21   -1    0    0  502  503 -0.00000000000E+00 -0.00000000000E+00 -0.18125097967E+01  0.18125097967E+01  0.00000000000E+00 0. -1.
          2    1    1    2  501    0 -0.17688817176E+02 -0.19579132510E+02  0.21009653505E+03  0.21174699696E+03  0.00000000000E+00 0. -1.
         -2    1    1    2    0  503  0.17688817176E+02  0.19579132510E+02  0.17531465700E+03  0.17728921468E+03  0.00000000000E+00 0.  1.
</event>
<event>
 4    1  0.1776638E+004  0.2500516E+02  0.7546771E-02  0.1468746E+00
         21   -1    0    0  501  502  0.00000000000E+00  0.00000000000E+00  0.25294400667E+01  0.25294400667E+01  0.00000000000E+00 0.  1.
         21   -1    0    0  502  503 -0.00000000000E+00 -0.00000000000E+00 -0.41651933120E+03  0.41651933120E+03  0.00000000000E+00 0. -1.
          2    1    1    2  501    0 -0.21529496812E+02  0.12717649568E+02 -0.73402999709E+02  0.77545201075E+02  0.00000000000E+00 0.  1.
         -2    1    1    2    0  503  0.21529496812E+02 -0.12717649568E+02 -0.34058689142E+03  0.34150357019E+03  0.00000000000E+00 0. -1.
</event>
<event>
 4    1  0.1776638E+004  0.2997304E+02  0.7546771E-02  0.1419831E+00
         21   -1    0    0  503  502  0.00000000000E+00  0.00000000000E+00  0.12362818408E+02  0.12362818408E+02  0.00000000000E+00 0.  1.
         21   -1    0    0  501  503 -0.00000000000E+00 -0.00000000000E+00 -0.17367708017E+03  0.17367708017E+03  0.00000000000E+00 0. -1.
          2    1    1    2  501    0 -0.26151194510E+02 -0.14645747064E+02 -0.15159608396E+03  0.15453075925E+03  0.00000000000E+00 0. -1.
         -2    1    1    2    0  502  0.26151194510E+02  0.14645747064E+02 -0.97181777975E+01  0.31509139326E+02  0.00000000000E+00 0.  1.
</event>
<event>
 4    1  0.1776638E+004  0.3867351E+02  0.7546771E-02  0.1356439E+00
         21   -1    0    0  501  502  0.00000000000E+00  0.00000000000E+00  0.31478333275E+01  0.31478333275E+01  0.00000000000E+00 0. -1.
         21   -1    0    0  502  503 -0.00000000000E+00 -0.00000000000E+00 -0.48307035806E+03  0.48307035806E+03  0.00000000000E+00 0.  1.
          2    1    1    2  501    0 -0.37834996160E+02 -0.80096035104E+01 -0.20879938223E+03  0.21235070685E+03  0.00000000000E+00 0. -1.
         -2    1    1    2    0  503  0.37834996160E+02  0.80096035104E+01 -0.27112314251E+03  0.27386748454E+03  0.00000000000E+00 0.  1.
</event>
<event>
 4    1  0.1776638E+004  0.2068610E+02  0.7546771E-02  0.1523794E+00
         21   -1    0    0  501  502  0.00000000000E+00  0.00000000000E+00  0.43949191405E+03  0.43949191405E+03  0.00000000000E+00 0. -1.
         21   -1    0    0  502  503 -0.00000000000E+00 -0.00000000000E+00 -0.16705458943E+01  0.16705458943E+01  0.00000000000E+00 0.  1.
          2    1    1    2  501    0  0.47645525281E+01  0.20129926971E+02  0.36137980213E+03  0.36197137498E+03  0.00000000000E+00 0.  1.
         -2    1    1    2    0  503 -0.47645525281E+01 -0.20129926971E+02  0.76441566029E+02  0.79191084963E+02  0.00000000000E+00 0. -1.
</event>
<event>
 4    1  0.1776638E+004  0.3068346E+02  0.7546771E-02  0.1413748E+00
         21   -1    0    0  503  502  0.00000000000E+00  0.00000000000E+00  0.99690091019E+02  0.99690091019E+02  0.00000000000E+00 0.  1.
         21   -1    0    0  501  503 -0.00000000000E+00 -0.00000000000E+00 -0.24248948035E+02  0.24248948035E+02  0.00000000000E+00 0. -1.
          2    1    1    2  501    0  0.26329490654E+02 -0.15755393097E+02 -0.10700560067E+02  0.32495791658E+02  0.00000000000E+00 0. -1.
         -2    1    1    2    0  502 -0.26329490654E+02  0.15755393097E+02  0.86141703051E+02  0.91443247396E+02  0.00000000000E+00 0.  1.
</event>
<event>
 4    1  0.1776638E+004  0.2738923E+02  0.7546771E-02  0.1443737E+00
         21   -1    0    0  503  502  0.00000000000E+00  0.00000000000E+00  0.30451457279E+02  0.30451457279E+02  0.00000000000E+00 0.  1.
         21   -1    0    0  501  503 -0.00000000000E+00 -0.00000000000E+00 -0.28378324320E+02  0.28378324320E+02  0.00000000000E+00 0. -1.
          2    1    1    2  501    0 -0.26946505831E+02  0.49046653491E+01 -0.96467450501E+01  0.29038416085E+02  0.00000000000E+00 0.  1.
         -2    1    1    2    0  502  0.26946505831E+02 -0.49046653491E+01  0.11719878009E+02  0.29791365515E+02  0.00000000000E+00 0. -1.
</event>
<event>
 4    1  0.1776638E+004  0.2360306E+02  0.7546771E-02  0.1485061E+00
         21   -1    0    0  503  502  0.00000000000E+00  0.00000000000E+00  0.59139749329E+01  0.59139749329E+01  0.00000000000E+00 0.  1.
         21   -1    0    0  501  503 -0.00000000000E+00 -0.00000000000E+00 -0.97446342164E+02  0.97446342164E+02  0.00000000000E+00 0. -1.
          2    1    1    2  501    0 -0.23587829020E+02 -0.84774177305E+00 -0.36335378259E+02  0.43328559371E+02  0.00000000000E+00 0.  1.
         -2    1    1    2    0  502  0.23587829020E+02  0.84774177305E+00 -0.55196988973E+02  0.60031757726E+02  0.00000000000E+00 0. -1.
</event>
<event>
 4    1  0.1776638E+004  0.2204981E+02  0.7546771E-02  0.1504787E+00
         21   -1    0    0  501  502  0.00000000000E+00  0.00000000000E+00  0.97199966426E+00  0.97199966426E+00  0.00000000000E+00 0. -1.
         21   -1    0    0  502  503 -0.00000000000E+00 -0.00000000000E+00 -0.53605443603E+03  0.53605443603E+03  0.00000000000E+00 0.  1.
          2    1    1    2  501    0 -0.35104677437E+01 -0.21768568804E+02 -0.19809728780E+03  0.19932066979E+03  0.00000000000E+00 0. -1.
         -2    1    1    2    0  503  0.35104677437E+01  0.21768568804E+02 -0.33698514857E+03  0.33770576590E+03  0.00000000000E+00 0.  1.
</event>
<event>
 4    1  0.1776638E+004  0.2701334E+02  0.7546771E-02  0.1447474E+00
         21   -1    0    0  503  502  0.00000000000E+00  0.00000000000E+00  0.36712242268E+03  0.36712242268E+03  0.00000000000E+00 0. -1.
         21   -1    0    0  501  503 -0.00000000000E+00 -0.00000000000E+00 -0.21346967851E+01  0.21346967851E+01  0.00000000000E+00 0.  1.
          2    1    1    2  501    0 -0.26905596787E+02  0.24102359066E+01  0.13404089708E+03  0.13673581267E+03  0.00000000000E+00 0.  1.
         -2    1    1    2    0  502  0.26905596787E+02 -0.24102359066E+01  0.23094682881E+03  0.23252130680E+03  0.00000000000E+00 0. -1.
</event>
<event>
 4    1  0.1776638E+004  0.4220512E+02  0.7546771E-02  0.1336027E+00
         21   -1    0    0  503  502  0.00000000000E+00  0.00000000000E+00  0.80081118237E+01  0.80081118237E+01  0.00000000000E+00 0. -1.
         21   -1    0    0  501  503 -0.00000000000E+00 -0.00000000000E+00 -0.25879312091E+03  0.25879312091E+03  0.00000000000E+00 0.  1.
          2    1    1    2  501    0 -0.42201008582E+02 -0.58886245362E+00 -0.17539497781E+03  0.18040141387E+03  0.00000000000E+00 0.  1.
         -2    1    1    2    0  502  0.42201008582E+02  0.58886245362E+00 -0.75390031279E+02  0.86399818869E+02  0.00000000000E+00 0. -1.
</event>
<event>
 4    1  0.1776638E+004  0.2007713E+02  0.7546771E-02  0.1532860E+00
         21   -1    0    0  501  502  0.00000000000E+00  0.00000000000E+00  0.39970659218E+02  0.39970659218E+02  0.00000000000E+00 0. -1.
         21   -1    0    0  502  503 -0.00000000000E+00 -0.00000000000E+00 -0.10088390714E+02  0.10088390714E+02  0.00000000000E+00 0.  1.
          2    1    1    2  501    0  0.13865370143E+02 -0.14520419849E+02  0.15421531790E+02  0.25316293657E+02  0.00000000000E+00 0.  1.
         -2    1    1    2    0  503 -0.13865370143E+02  0.14520419849E+02  0.14460736714E+02  0.24742756275E+02  0.00000000000E+00 0. -1.
</event>
<event>
 4    1  0.1776638E+004  0.5548641E+02  0.7546771E-02  0.1275991E+00
         21   -1    0    0  501  502  0.00000000000E+00  0.00000000000E+00  0.59151259184E+02  0.59151259184E+02  0.00000000000E+00 0.  1.
         21   -1    0    0  502  503 -0.00000000000E+00 -0.00000000000E+00 -0.88573882859E+02  0.88573882859E+02  0.00000000000E+00 0. -1.
          2    1    1    2  501    0  0.86379746461E+01  0.54809917205E+02  0.32720338082E+02  0.64415542800E+02  0.00000000000E+00 0.  1.
         -2    1    1    2    0  503 -0.86379746461E+01 -0.54809917205E+02 -0.62142961757E+02  0.83309599243E+02  0.00000000000E+00 0. -1.
</event>
<event>
 4    1  0.1776638E+004  0.2516683E+02  0.7546771E-02  0.1466946E+00
         21   -1    0    0  501  502  0.00000000000E+00  0.00000000000E+00  0.61123238738E+02  0.61123238738E+02  0.00000000000E+00 0.  1.
         21   -1    0    0  502  503 -0.00000000000E+00 -0.00000000000E+00 -0.10381388069E+02  0.10381388069E+02  0.00000000000E+00 0. -1.
          2    1    1    2  501    0  0.24600593900E+02  0.53085151702E+01  0.26909084269E+02  0.36843837609E+02  0.00000000000E+00 0. -1.
         -2    1    1    2    0  503 -0.24600593900E+02 -0.53085151702E+01  0.23832766400E+02  0.34660789198E+02  0.00000000000E+00 0.  1.
</event>
<event>
 4    1  0.1776638E+004  0.2685971E+02  0.7546771E-02  0.1449023E+00
         21   -1    0    0  501  502  0.00000000000E+00  0.00000000000E+00  0.31446347494E+02  0.31446347494E+02  0.00000000000E+00 0.  1.
         21   -1    0    0  502  503 -0.00000000000E+00 -0.00000000000E+00 -0.47771775587E+02  0.47771775587E+02  0.00000000000E+00 0. -1.
          2    1    1    2  501    0 -0.21721716494E+02 -0.15799077114E+02  0.20393115779E+02  0.33724219432E+02  0.00000000000E+00 0.  1.
         -2    1    1    2    0  503  0.21721716494E+02  0.15799077114E+02 -0.36718543873E+02  0.45493903649E+02  0.00000000000E+00 0. -1.
</event>
<event>
 4    1  0.1776638E+004  0.2015568E+02  0.7546771E-02  0.1531669E+00
         21   -1    0    0  501  502  0.00000000000E+00  0.00000000000E+00  0.50232623777E+02  0.50232623777E+02  0.00000000000E+00 0.  1.
         21   -1    0    0  502  503 -0.00000000000E+00 -0.00000000000E+00 -0.25379115653E+02  0.25379115653E+02  0.00000000000E+00 0. -1.
          2    1    1    2  501    0 -0.13097863878E+02  0.15319832799E+02  0.43632892816E+02  0.48063298375E+02  0.00000000000E+00 0.  1.
         -2    1    1    2    0  503  0.13097863878E+02 -0.15319832799E+02 -0.18779384692E+02  0.27548441055E+02  0.00000000000E+00 0. -1.
</event>
<event>
 4    1  0.1776638E+004  0.2438925E+02  0.7546771E-02  0.1475753E+00
         21   -1    0    0  501  502  0.00000000000E+00  0.00000000000E+00  0.33518141506E+02  0.33518141506E+02  0.00000000000E+00 0.  1.
         21   -1    0    0  502  503 -0.00000000000E+00 -0.00000000000E+00 -0.36757793529E+02  0.36757793529E+02  0.00000000000E+00 0. -1.
          2    1    1    2  501    0 -0.34129463129E+01 -0.24149275589E+02  0.23650200856E+02  0.33973043940E+02  0.00000000000E+00 0.  1.
         -2    1    1    2    0  503  0.34129463129E+01  0.24149275589E+02 -0.26889852879E+02  0.36302891095E+02  0.00000000000E+00 0. -1.
</event>
<event>
 4    1  0.1776638E+004  0.2320802E+02  0.7546771E-02  0.1489902E+00
         21   -1    0    0  503  502  0.00000000000E+00  0.00000000000E+00  0.58091312321E+02  0.58091312321E+02  0.00000000000E+00 0.  1.
         21   -1    0    0  501  503 -0.00000000000E+00 -0.00000000000E+00 -0.98557630229E+01  0.98557630229E+01  0.00000000000E+00 0. -1.
          2    1    1    2  501    0 -0.22978324375E+02 -0.32571255274E+01  0.15848251677E+02  0.28103012988E+02  0.00000000000E+00 0. -1.
         -2    1    1    2    0  502  0.22978324375E+02  0.32571255274E+01  0.32387297621E+02  0.39844062355E+02  0.00000000000E+00 0.  1.
</event>
<event>
 4    1  0.1776638E+004  0.2370223E+02  0.7546771E-02  0.1483864E+00
         21   -1    0    0  503  502  0.00000000000E+00  0.00000000000E+00  0.98708033127E+01  0.98708033127E+01  0.00000000000E+00 0.  1.
         21   -1    0    0  501  503 -0.00000000000E+00 -0.00000000000E+00 -0.96560934752E+02  0.96560934752E+02  0.00000000000E+00 0. -1.
          2    1    1    2  501    0  0.13750440839E+02 -0.19305987593E+02 -0.77443960952E+02  0.80989893618E+02  0.00000000000E+00 0. -1.
         -2    1    1    2    0  502 -0.13750440839E+02  0.19305987593E+02 -0.92461704873E+01  0.25441844447E+02  0.00000000000E+00 0.  1.
</event>
<event>
 4    1  0.1776638E+004  0.3720322E+02  0.7546771E-02  0.1365703E+00
         21   -1    0    0  501  502  0.00000000000E+00  0.00000000000E+00  0.52438552896E+02  0.52438552896E+02  0.00000000000E+00 0. -1.
         21   -1    0    0  502  503 -0.00000000000E+00 -0.00000000000E+00 -0.33046319403E+02  0.33046319403E+02  0.00000000000E+00 0.  1.
          2    1    1    2  501    0 -0.32270474989E+02 -0.18512048510E+02  0.28872826897E+02  0.47092670651E+02  0.00000000000E+00 0. -1.
         -2    1    1    2    0  503  0.32270474989E+02  0.18512048510E+02 -0.94805934039E+01  0.38392201647E+02  0.00000000000E+00 0.  1.
</event>
<event>
 4    1  0.1776638E+004  0.2117471E+02  0.7546771E-02  0.1516785E+00
         21   -1    0    0  501  502  0.00000000000E+00  0.00000000000E+00  0.14746600835E+01  0.14746600835E+01  0.00000000000E+00 0. -1.
         21   -1    0    0  502  503 -0.00000000000E+00 -0.00000000000E+00 -0.95690203197E+03  0.95690203197E+03  0.00000000000E+00 0.  1.
          2    1    1    2  501    0  0.71756959888E+01  0.19921785524E+02 -0.81909488190E+02  0.84602200958E+02  0.00000000000E+00 0. -1.
         -2    1    1    2    0  503 -0.71756959888E+01 -0.19921785524E+02 -0.87351788370E+03  0.87377449110E+03  0.00000000000E+00 0.  1.
</event>
<event>
 4    1  0.1776638E+004  0.2065859E+02  0.7546771E-02  0.1524196E+00
         21   -1    0    0  501  502  0.00000000000E+00  0.00000000000E+00  0.13468905265E+01  0.13468905265E+01  0.00000000000E+00 0.  1.
         21   -1    0    0  502  503 -0.00000000000E+00 -0.00000000000E+00 -0.77982764197E+03  0.77982764197E+03  0.00000000000E+00 0. -1.
          2    1    1    2  501    0 -0.17848708604E+02  0.10401970672E+02 -0.88290957089E+02  0.90675633421E+02  0.00000000000E+00 0.  1.
         -2    1    1    2    0  503  0.17848708604E+02 -0.10401970672E+02 -0.69018979436E+03  0.69049889908E+03  0.00000000000E+00 0. -1.
</event>
<event>
 4    1  0.1776638E+004  0.2868585E+02  0.7546771E-02  0.1431371E+00
         21   -1    0    0  501  502  0.00000000000E+00  0.00000000000E+00  0.57966787171E+02  0.57966787171E+02  0.00000000000E+00 0. -1.
         21   -1    0    0  502  503 -0.00000000000E+00 -0.00000000000E+00 -0.16923522323E+02  0.16923522323E+02  0.00000000000E+00 0.  1.
          2    1    1    2  501    0  0.26466199823E+02  0.11064289097E+02  0.54881526328E+01  0.29206130275E+02  0.00000000000E+00 0.  1.
         -2    1    1    2    0  503 -0.26466199823E+02 -0.11064289097E+02  0.35555112215E+02  0.45684179219E+02  0.00000000000E+00 0. -1.
</event>
<event>
 4    1  0.1776638E+004  0.2286210E+02  0.7546771E-02  0.1494237E+00
         21   -1    0    0  503  502  0.00000000000E+00  0.00000000000E+00  0.18913163686E+01  0.18913163686E+01  0.00000000000E+00 0.  1.
         21   -1    0    0  501  503 -0.00000000000E+00 -0.00000000000E+00 -0.37155873714E+03  0.37155873714E+03  0.00000000000E+00 0. -1.
          2    1    1    2  501    0  0.22845760374E+02  0.86417041176E+00 -0.90315650703E+02  0.93164329652E+02  0.00000000000E+00 0.  1.
         -2    1    1    2    0  502 -0.22845760374E+02 -0.86417041176E+00 -0.27935177007E+03  0.28028572386E+03  0.00000000000E+00 0. -1.
</event>
<event>
 4    1  0.1776638E+004  0.2546364E+02  0.7546771E-02  0.1463683E+00
         21   -1    0    0  501  502  0.00000000000E+00  0.00000000000E+00  0.73088723138E+02  0.73088723138E+02  0.00000000000E+00 0. -1.
         21   -1    0    0  502  503 -0.00000000000E+00 -0.00000000000E+00 -0.90229465452E+01  0.90229465452E+01  0.00000000000E+00 0.  1.
          2    1    1    2  501    0 -0.24230954251E+02 -0.78267294422E+01  0.37354239867E+02  0.45207699275E+02  0.00000000000E+00 0. -1.
         -2    1    1    2    0  503  0.24230954251E+02  0.78267294422E+01  0.26711536725E+02  0.36903970408E+02  0.00000000000E+00 0.  1.
</event>
<event>
 4    1  0.1776638E+004  0.2123257E+02  0.7546771E-02  0.1515970E+00
         21   -1    0    0  501  502  0.00000000000E+00  0.00000000000E+00  0.27970224384E+02  0.27970224384E+02  0.00000000000E+00 0.  1.
         21   -1    0    0  502  503 -0.00000000000E+00 -0.00000000000E+00 -0.18185029763E+02  0.18185029763E+02  0.00000000000E+00 0. -1.
          2    1    1    2  501    0  0.12698167166E+02 -0.17017003018E+02  0.12673247748E+02  0.24727172292E+02  0.00000000000E+00 0. -1.
         -2    1    1    2    0  503 -0.12698167166E+02  0.17017003018E+02 -0.28880531278E+01  0.21428081854E+02  0.00000000000E+00 0.  1.
</event>
<event>
 4    1  0.1776638E+004  0.2214155E+02  0.7546771E-02  0.1503569E+00
         21   -1    0    0  503  502  0.00000000000E+00  0.00000000000E+00  0.84633875020E+00  0.84633875020E+00  0.00000000000E+00 0.  1.
         21   -1    0    0  501  503 -0.00000000000E+00 -0.00000000000E+00 -0.59748345292E+03  0.59748345292E+03  0.00000000000E+00 0. -1.
          2    1    1    2  501    0  0.16747968629E+02 -0.14482877485E+02 -0.24606798438E+03  0.24706214022E+03  0.00000000000E+00 0.  1.
         -2    1    1    2    0  502 -0.16747968629E+02  0.14482877485E+02 -0.35056912979E+03  0.35126765145E+03  0.00000000000E+00 0. -1.
</event>
<event>
 4    1  0.1776638E+004  0.2628912E+02  0.7546771E-02  0.1454883E+00
         21   -1    0    0  503  502  0.00000000000E+00  0.00000000000E+00  0.56941830827E+01  0.56941830827E+01  0.00000000000E+00 0.  1.
         21   -1    0    0  501  503 -0.00000000000E+00 -0.00000000000E+00 -0.16414522042E+03  0.16414522042E+03  0.00000000000E+00 0. -1.
          2    1    1    2  501    0  0.85786885893E+01  0.24850029172E+02 -0.12257433375E+03  0.12536181692E+03  0.00000000000E+00 0. -1.
         -2    1    1    2    0  502 -0.85786885893E+01 -0.24850029172E+02 -0.35876703589E+02  0.44477586582E+02  0.00000000000E+00 0.  1.
</event>
<event>
 4    1  0.1776638E+004  0.2530184E+02  0.7546771E-02  0.1465455E+00
         21   -1    0    0  501  502  0.00000000000E+00  0.00000000000E+00  0.25606707669E+03  0.25606707669E+03  0.00000000000E+00 0. -1.
         21   -1    0    0  502  503 -0.00000000000E+00 -0.00000000000E+00 -0.53395835801E+01  0.53395835801E+01  0.00000000000E+00 0.  1.
          2    1    1    2  501    0 -0.18631000865E+02  0.17119255732E+02  0.22067752407E+03  0.22212328276E+03  0.00000000000E+00 0. -1.
         -2    1    1    2    0  503  0.18631000865E+02 -0.17119255732E+02  0.30049969037E+02  0.39283377517E+02  0.00000000000E+00 0.  1.
</event>
<event>
 4    1  0.1776638E+004  0.3811519E+02  0.7546771E-02  0.1359899E+00
         21   -1    0    0  501  502  0.00000000000E+00  0.00000000000E+00  0.39809664059E+02  0.39809664059E+02  0.00000000000E+00 0.  1.
         21   -1    0    0  502  503 -0.00000000000E+00 -0.00000000000E+00 -0.37086695973E+02  0.37086695973E+02  0.00000000000E+00 0. -1.
          2    1    1    2  501    0 -0.35915685084E+02  0.12760536733E+02  0.62267544996E+01  0.38620463544E+02  0.00000000000E+00 0.  1.
         -2    1    1    2    0  503  0.35915685084E+02 -0.12760536733E+02 -0.35037864137E+01  0.38275896488E+02  0.00000000000E+00 0. -1.
</event>
<event>
 4    1  0.1776638E+004  0.2713014E+02  0.7546771E-02  0.1446305E+00
         21   -1    0    0  503  502  0.00000000000E+00  0.00000000000E+00  0.83277381179E+02  0.83277381179E+02  0.00000000000E+00 0. -1.
         21   -1    0    0  501  503 -0.00000000000E+00 -0.00000000000E+00 -0.18876047466E+02  0.18876047466E+02  0.00000000000E+00 0.  1.
          2    1    1    2  501    0 -0.11860519874E+02  0.24400262041E+02 -0.50455231844E+01  0.27595326118E+02  0.00000000000E+00 0.  1.
         -2    1    1    2    0  502  0.11860519874E+02 -0.24400262041E+02  0.69446856898E+02  0.74558102526E+02  0.00000000000E+00 0. -1.
</event>
<event>
 4    1  0.1776638E+004  0.2450395E+02  0.7546771E-02  0.1474430E+00
         21   -1    0    0  503  502  0.00000000000E+00  0.00000000000E+00  0.97292002377E+01  0.97292002377E+01  0.00000000000E+00 0.  1.
         21   -1    0    0  501  503 -0.00000000000E+00 -0.00000000000E+00 -0.68102206235E+02  0.68102206235E+02  0.00000000000E+00 0. -1.
          2    1    1    2  501    0 -0.10170185788E+01 -0.24482834554E+02 -0.41103835801E+02  0.47853618799E+02  0.00000000000E+00 0. -1.
         -2    1    1    2    0  502  0.10170185788E+01  0.24482834554E+02 -0.17269170196E+02  0.29977787674E+02  0.00000000000E+00 0.  1.
</event>
<event>
 4    1  0.1776638E+004  0.3985065E+02  0.7546771E-02  0.1349363E+00
         21   -1    0    0  503  502  0.00000000000E+00  0.00000000000E+00  0.98986003843E+02  0.98986003843E+02  0.00000000000E+00 0.  1.
         21   -1    0    0  501  503 -0.00000000000E+00 -0.00000000000E+00 -0.16735039747E+02  0.16735039747E+02  0.00000000000E+00 0. -1.
          2    1    1    2  501    0 -0.33892916746E+02  0.20960547471E+02  0.29362927715E+02  0.49500059392E+02  0.00000000000E+00 0. -1.
         -2    1    1    2    0  502  0.33892916746E+02 -0.20960547471E+02  0.52888036381E+02  0.66220984198E+02  0.00000000000E+00 0.  1.
</event>
<event>
 4    1  0.1776638E+004  0.3383279E+02  0.7546771E-02  0.1388960E+00
         21   -1    0    0  503  502  0.00000000000E+00  0.00000000000E+00  0.36470720818E+02  0.36470720818E+02  0.00000000000E+00 0.  1.
         21   -1    0    0  501  503 -0.00000000000E+00 -0.00000000000E+00 -0.42254134423E+02  0.42254134423E+02  0.00000000000E+00 0. -1.
          2    1    1    2  501    0 -0.23449866438E+01  0.33751429762E+02 -0.22854963144E+02  0.40829000890E+02  0.00000000000E+00 0. -1.
         -2    1    1    2    0  502  0.23449866438E+01 -0.33751429762E+02  0.17071549539E+02  0.37895854351E+02  0.00000000000E+00 0.  1.
</event>
<event>
 4    1  0.1776638E+004  0.2831133E+02  0.7546771E-02  0.1434862E+00
         21   -1    0    0  503  502  0.00000000000E+00  0.00000000000E+00  0.11650097101E+02  0.11650097101E+02  0.00000000000E+00 0. -1.
         21   -1    0    0  501  503 -0.00000000000E+00 -0.00000000000E+00 -0.80789862053E+02  0.80789862053E+02  0.00000000000E+00 0.  1.
          2    1    1    2  501    0  0.20945136174E+02 -0.19048161609E+02 -0.52375268705E+02  0.59537382895E+02  0.00000000000E+00 0.  1.
         -2    1    1    2    0  502 -0.20945136174E+02  0.19048161609E+02 -0.16764496247E+02  0.32902576259E+02  0.00000000000E+00 0. -1.
</event>
<event>
 4    1  0.1776638E+004  0.2445775E+02  0.7546771E-02  0.1474962E+00
         21   -1    0    0  503  502  0.00000000000E+00  0.00000000000E+00  0.70611506983E+03  0.70611506983E+03  0.00000000000E+00 0. -1.
         21   -1    0    0  501  503 -0.00000000000E+00 -0.00000000000E+00 -0.17338338367E+01  0.17338338367E+01  0.00000000000E+00 0.  1.
          2    1    1    2  501    0  0.20493069913E+01  0.24371743030E+02  0.99090372155E+02  0.10206411402E+03  0.00000000000E+00 0.  1.
         -2    1    1    2    0  502 -0.20493069913E+01 -0.24371743030E+02  0.60529086384E+03  0.60578478964E+03  0.00000000000E+00 0. -1.
</event>
<event>
 4    1  0.1776638E+004  0.2359560E+02  0.7546771E-02  0.1485152E+00
         21   -1    0    0  503  502  0.00000000000E+00  0.00000000000E+00  0.12101284669E+02  0.12101284669E+02  0.00000000000E+00 0.  1.
         21   -1    0    0  501  503 -0.00000000000E+00 -0.00000000000E+00 -0.13228934993E+03  0.13228934993E+03  0.00000000000E+00 0. -1.
          2    1    1    2  501    0 -0.11687576489E+02  0.20497635338E+02 -0.11839902763E+03  0.12072730529E+03  0.00000000000E+00 0. -1.
         -2    1    1    2    0  502  0.11687576489E+02 -0.20497635338E+02 -0.17890376364E+01  0.23663329315E+02  0.00000000000E+00 0.  1.
</event>
<event>
 4    1  0.1776638E+004  0.2533130E+02  0.7546771E-02  0.1465131E+00
         21   -1    0    0  501  502  0.00000000000E+00  0.00000000000E+00  0.16001251449E+02  0.16001251449E+02  0.00000000000E+00 0.  1.
         21   -1    0    0  502  503 -0.00000000000E+00 -0.00000000000E+00 -0.40108523378E+02  0.40108523378E+02  0.00000000000E+00 0. -1.
          2    1    1    2  501    0  0.23383500448E+02  0.97409703838E+01 -0.11683070327E+02  0.27895675821E+02  0.00000000000E+00 0. -1.
         -2    1    1    2    0  503 -0.23383500448E+02 -0.97409703838E+01 -0.12424201602E+02  0.28214099006E+02  0.00000000000E+00 0.  1.
</event>
<event>
 4    1  0.1776638E+004  0.2267567E+02  0.7546771E-02  0.1496611E+00
         21   -1    0    0  501  502  0.00000000000E+00  0.00000000000E+00  0.39439045574E+01  0.39439045574E+01  0.00000000000E+00 0. -1.
         21   -1    0    0  502  503 -0.00000000000E+00 -0.00000000000E+00 -0.22433777731E+03  0.22433777731E+03  0.00000000000E+00 0.  1.
          2    1    1    2  501    0 -0.19140931243E+02  0.12157754120E+02 -0.36326957801E+02  0.42823289192E+02  0.00000000000E+00 0. -1.
         -2    1    1    2    0  503  0.19140931243E+02 -0.12157754120E+02 -0.18406691495E+03  0.18545839267E+03  0.00000000000E+00 0.  1.
</event>
<event>
 4    1  0.1776638E+004  0.2590998E+02  0.7546771E-02  0.1458876E+00
         21   -1    0    0  503  502  0.00000000000E+00  0.00000000000E+00  0.57605092149E+01  0.57605092149E+01  0.00000000000E+00 0.  1.
         21   -1    0    0  501  503 -0.00000000000E+00 -0.00000000000E+00 -0.95765801946E+03  0.95765801946E+03  0.00000000000E+00 0. -1.
          2    1    1    2  501    0  0.20104500624E+01  0.25831862426E+02 -0.92739741096E+03  0.92775928176E+03  0.00000000000E+00 0. -1.
         -2    1    1    2    0  502 -0.20104500624E+01 -0.25831862426E+02 -0.24500099278E+02  0.35659246914E+02  0.00000000000E+00 0.  1.
</event>
<event>
 4    1  0.1776638E+004  0.3740763E+02  0.7546771E-02  0.1364385E+00
         21   -1    0    0  501  502  0.00000000000E+00  0.00000000000E+00  0.16882794706E+03  0.16882794706E+03  0.00000000000E+00 0.  1.
         21   -1    0    0  502  503 -0.00000000000E+00 -0.00000000000E+00 -0.12740238054E+02  0.12740238054E+02  0.00000000000E+00 0. -1.
          2    1    1    2  501    0 -0.22166645967E+02 -0.30132545198E+02  0.13170819253E+03  0.13691741471E+03  0.00000000000E+00 0.  1.
         -2    1    1    2    0  503  0.22166645967E+02  0.30132545198E+02  0.24379516479E+02  0.44650770400E+02  0.00000000000E+00 0. -1.
</event>
<event>
 4    1  0.1776638E+004  0.2698102E+02  0.7546771E-02  0.1447799E+00
         21   -1    0    0  501  502  0.00000000000E+00  0.00000000000E+00  0.22255017057E+01  0.22255017057E+01  0.00000000000E+00 0.  1.
         21   -1    0    0  502  503 -0.00000000000E+00 -0.00000000000E+00 -0.32815806031E+03  0.32815806031E+03  0.00000000000E+00 0. -1.
          2    1    1    2  501    0  0.42060303560E+01 -0.26651165702E+02 -0.15361365507E+03  0.15596515748E+03  0.00000000000E+00 0. -1.
         -2    1    1    2    0  503 -0.42060303560E+01  0.26651165702E+02 -0.17231890354E+03  0.17441840454E+03  0.00000000000E+00 0.  1.
</event>
<event>
 4    1  0.1776638E+004  0.2366259E+02  0.7546771E-02  0.1484341E+00
         21   -1    0    0  503  502  0.00000000000E+00  0.00000000000E+00  0.53446060605E+02  0.53446060605E+02  0.00000000000E+00 0.  1.
         21   -1    0    0  501  503 -0.00000000000E+00 -0.00000000000E+00 -0.10827131078E+02  0.10827131078E+02  0.00000000000E+00 0. -1.
          2    1    1    2  501    0 -0.56646049900E+01 -0.22974561271E+02  0.15524806340E+02  0.28300844991E+02  0.00000000000E+00 0. -1.
         -2    1    1    2    0  502  0.56646049900E+01  0.22974561271E+02  0.27094123187E+02  0.35972346692E+02  0.00000000000E+00 0.  1.
</event>
<event>
 4    1  0.1776638E+004  0.2243679E+02  0.7546771E-02  0.1499694E+00
         21   -1    0    0  503  502  0.00000000000E+00  0.00000000000E+00  0.17500812784E+02  0.17500812784E+02  0.00000000000E+00 0.  1.
         21   -1    0    0  501  503 -0.00000000000E+00 -0.00000000000E+00 -0.35302292189E+02  0.35302292189E+02  0.00000000000E+00 0. -1.
          2    1    1    2  501    0 -0.21770622427E+02  0.54267388996E+01 -0.20262080506E+02  0.30231794561E+02  0.00000000000E+00 0. -1.
         -2    1    1    2    0  502  0.21770622427E+02 -0.54267388996E+01  0.24606011010E+01  0.22571310412E+02  0.00000000000E+00 0.  1.
</event>
<event>
 4    1  0.1776638E+004  0.3321392E+02  0.7546771E-02  0.1393574E+00
         21   -1    0    0  501  502  0.00000000000E+00  0.00000000000E+00  0.14330053787E+03  0.14330053787E+03  0.00000000000E+00 0. -1.
         21   -1    0    0  502  503 -0.00000000000E+00 -0.00000000000E+00 -0.10373057318E+02  0.10373057318E+02  0.00000000000E+00 0.  1.
          2    1    1    2  501    0  0.33161230411E+02  0.18701119649E+01  0.10548142220E+03  0.11058704694E+03  0.00000000000E+00 0. -1.
         -2    1    1    2    0  503 -0.33161230411E+02 -0.18701119649E+01  0.27446058354E+02  0.43086548253E+02  0.00000000000E+00 0.  1.
</event>
<event>
 4    1  0.1776638E+004  0.2587505E+02  0.7546771E-02  0.1459248E+00
         21   -1    0    0  501  502  0.00000000000E+00  0.00000000000E+00  0.32111527138E+01  0.32111527138E+01  0.00000000000E+00 0. -1.
         21   -1    0    0  502  503 -0.00000000000E+00 -0.00000000000E+00 -0.33128574600E+03  0.33128574600E+03  0.00000000000E+00 0.  1.
          2    1    1    2  501    0 -0.16941026741E+02  0.19558110799E+02 -0.62215982622E+02  0.67382093903E+02  0.00000000000E+00 0. -1.
         -2    1    1    2    0  503  0.16941026741E+02 -0.19558110799E+02 -0.26585861067E+03  0.26711480482E+03  0.00000000000E+00 0.  1.
</event>
<event>
 4    1  0.1776638E+004  0.2499841E+02  0.7546771E-02  0.1468821E+00
         21   -1    0    0  503  502  0.00000000000E+00  0.00000000000E+00  0.10392394313E+03  0.10392394313E+03  0.00000000000E+00 0. -1.
         21   -1    0    0  501  503 -0.00000000000E+00 -0.00000000000E+00 -0.14285723851E+02  0.14285723851E+02  0.00000000000E+00 0.  1.
          2    1    1    2  501    0 -0.10836494899E+02  0.22527562088E+02 -0.15779548417E+00  0.24998911471E+02  0.00000000000E+00 0.  1.
         -2    1    1    2    0  502  0.10836494899E+02 -0.22527562088E+02  0.89796014764E+02  0.93210755510E+02  0.00000000000E+00 0. -1.
</event>
<event>
 4    1  0.1776638E+004  0.2070203E+02  0.7546771E-02  0.1523562E+00
         21   -1    0    0  501  502  0.00000000000E+00  0.00000000000E+00  0.19136837043E+03  0.19136837043E+03  0.00000000000E+00 0. -1.
         21   -1    0    0  502  503 -0.00000000000E+00 -0.00000000000E+00 -0.34578182314E+01  0.34578182314E+01  0.00000000000E+00 0.  1.
          2    1    1    2  501    0 -0.10601021008E+02  0.17781798462E+02  0.15177718227E+03  0.15318252858E+03  0.00000000000E+00 0. -1.
         -2    1    1    2    0  503  0.10601021008E+02 -0.17781798462E+02  0.36133369930E+02  0.41643660087E+02  0.00000000000E+00 0.  1.
</event>
<event>
 4    1  0.1776638E+004  0.2382778E+02  0.7546771E-02  0.1482357E+00
         21   -1    0    0  503  502  0.00000000000E+00  0.00000000000E+00  0.25154162432E+02  0.25154162432E+02  0.00000000000E+00 0.  1.
         21   -1    0    0  501  503 -0.00000000000E+00 -0.00000000000E+00 -0.34120762838E+02  0.34120762838E+02  0.00000000000E+00 0. -1.
          2    1    1    2  501    0 -0.22330375292E+02 -0.83136873146E+01 -0.21726261976E+02  0.32245829450E+02  0.00000000000E+00 0. -1.
         -2    1    1    2    0  502  0.22330375292E+02  0.83136873146E+01  0.12759661570E+02  0.27029095820E+02  0.00000000000E+00 0.  1.
</event>
<event>
 4    1  0.1776638E+004  0.2177603E+02  0.7546771E-02  0.1508467E+00
         21   -1    0    0  503  502  0.00000000000E+00  0.00000000000E+00  0.15612559072E+03  0.15612559072E+03  0.00000000000E+00 0. -1.
         21   -1    0    0  501  503 -0.00000000000E+00 -0.00000000000E+00 -0.91272227062E+01  0.91272227062E+01  0.00000000000E+00 0.  1.
          2    1    1    2  501    0 -0.20922494026E+02 -0.60369413198E+01  0.60065250119E+01  0.22589239905E+02  0.00000000000E+00 0.  1.
         -2    1    1    2    0  502  0.20922494026E+02  0.60369413198E+01  0.14099184300E+03  0.14266357352E+03  0.00000000000E+00 0. -1.
</event>
<event>
 4    1  0.1776638E+004  0.2217857E+02  0.7546771E-02  0.1503079E+00
         21   -1    0    0  503  502  0.00000000000E+00  0.00000000000E+00  0.74776572460E+02  0.74776572460E+02  0.00000000000E+00 0. -1.
         21   -1    0    0  501  503 -0.00000000000E+00 -0.00000000000E+00 -0.11049865922E+02  0.11049865922E+02  0.00000000000E+00 0.  1.
          2    1    1    2  501    0 -0.21629112660E+02 -0.49061586341E+01  0.45640612484E+01  0.22643311641E+02  0.00000000000E+00 0.  1.
         -2    1    1    2    0  502  0.21629112660E+02  0.49061586341E+01  0.59162645290E+02  0.63183126740E+02  0.00000000000E+00 0. -1.
</event>
<event>
 4    1  0.1776638E+004  0.2190670E+02  0.7546771E-02  0.1506703E+00
         21   -1    0    0  501  502  0.00000000000E+00  0.00000000000E+00  0.78737323907E+01  0.78737323907E+01  0.00000000000E+00 0. -1.
         21   -1    0    0  502  503 -0.00000000000E+00 -0.00000000000E+00 -0.75956883058E+02  0.75956883058E+02  0.00000000000E+00 0.  1.
          2    1    1    2  501    0  0.19459559689E+02 -0.10061264564E+02 -0.15410615689E+02  0.26784147995E+02  0.00000000000E+00 0. -1.
         -2    1    1    2    0  503 -0.19459559689E+02  0.10061264564E+02 -0.52672534978E+02  0.57046467454E+02  0.00000000000E+00 0.  1.
</event>
<event>
 4    1  0.1776638E+004  0.2209339E+02  0.7546771E-02  0.1504207E+00
         21   -1    0    0  501  502  0.00000000000E+00  0.00000000000E+00  0.13749548040E+02  0.13749548040E+02  0.00000000000E+00 0.  1.
         21   -1    0    0  502  503 -0.00000000000E+00 -0.00000000000E+00 -0.48402744941E+02  0.48402744941E+02  0.00000000000E+00 0. -1.
          2    1    1    2  501    0 -0.17409514628E+02  0.13602453793E+02 -0.12822453137E+01  0.22130569397E+02  0.00000000000E+00 0.  1.
         -2    1    1    2    0  503  0.17409514628E+02 -0.13602453793E+02 -0.33370951588E+02  0.40021723584E+02  0.00000000000E+00 0. -1.
</event>
<event>
 4    1  0.1776638E+004  0.2232106E+02  0.7546771E-02  0.1501204E+00
         21   -1    0    0  503  502  0.00000000000E+00  0.00000000000E+00  0.13329905358E+02  0.13329905358E+02  0.00000000000E+00 0.  1.
         21   -1    0    0  501  503 -0.00000000000E+00 -0.00000000000E+00 -0.37391947682E+02  0.37391947682E+02  0.00000000000E+00 0. -1.
          2    1    1    2  501    0 -0.21314081181E+02  0.66286910283E+01 -0.11521075112E+02  0.25119012183E+02  0.00000000000E+00 0.  1.
         -2    1    1    2    0  502  0.21314081181E+02 -0.66286910283E+01 -0.12540967212E+02  0.25602840857E+02  0.00000000000E+00 0. -1.
</event>
<event>
 4    1  0.1776638E+004  0.2416285E+02  0.7546771E-02  0.1478391E+00
         21   -1    0    0  501  502  0.00000000000E+00  0.00000000000E+00  0.93143158122E+01  0.93143158122E+01  0.00000000000E+00 0.  1.
         21   -1    0    0  502  503 -0.00000000000E+00 -0.00000000000E+00 -0.63073371855E+02  0.63073371855E+02  0.00000000000E+00 0. -1.
          2    1    1    2  501    0 -0.10170834194E+02 -0.21917969690E+02 -0.24029765730E+02  0.34077454491E+02  0.00000000000E+00 0. -1.
         -2    1    1    2    0  503  0.10170834194E+02  0.21917969690E+02 -0.29729290313E+02  0.38310233176E+02  0.00000000000E+00 0.  1.
</event>
<event>
 4    1  0.1776638E+004  0.2326497E+02  0.7546771E-02  0.1489197E+00
         21   -1    0    0  501  502  0.00000000000E+00  0.00000000000E+00  0.82443079370E+02  0.82443079370E+02  0.00000000000E+00 0. -1.
         21   -1    0    0  502  503 -0.00000000000E+00 -0.00000000000E+00 -0.10275984171E+02  0.10275984171E+02  0.00000000000E+00 0.  1.
          2    1    1    2  501    0  0.66630600810E+01 -0.22290413747E+02  0.63942040171E+02  0.68042952728E+02  0.00000000000E+00 0. -1.
         -2    1    1    2    0  503 -0.66630600810E+01  0.22290413747E+02  0.82250550270E+01  0.24676110813E+02  0.00000000000E+00 0.  1.
</event>
<event>
 4    1  0.1776638E+004  0.2650176E+02  0.7546771E-02  0.1452678E+00
         21   -1    0    0  503  502  0.00000000000E+00  0.00000000000E+00  0.78677594466E+02  0.78677594466E+02  0.00000000000E+00 0. -1.
         21   -1    0    0  501  503 -0.00000000000E+00 -0.00000000000E+00 -0.90459462746E+01  0.90459462746E+01  0.00000000000E+00 0.  1.
          2    1    1    2  501    0  0.26316168196E+02 -0.31309254583E+01  0.29783126209E+02  0.39867004020E+02  0.00000000000E+00 0.  1.
         -2    1    1    2    0  502 -0.26316168196E+02  0.31309254583E+01  0.39848521983E+02  0.47856536721E+02  0.00000000000E+00 0. -1.
</event>
<event>
 4    1  0.1776638E+004  0.2730344E+02  0.7546771E-02  0.1444584E+00
         21   -1    0    0  503  502  0.00000000000E+00  0.00000000000E+00  0.86079128213E+00  0.86079128213E+00  0.00000000000E+00 0.  1.
         21   -1    0    0  501  503 -0.00000000000E+00 -0.00000000000E+00 -0.86604033698E+03  0.86604033698E+03  0.00000000000E+00 0. -1.
          2    1    1    2  501    0 -0.26360353988E+02 -0.71140324939E+01 -0.43334302577E+03  0.43420232117E+03  0.00000000000E+00 0. -1.
         -2    1    1    2    0  502  0.26360353988E+02  0.71140324939E+01 -0.43183651992E+03  0.43269880709E+03  0.00000000000E+00 0.  1.
</event>
<event>
 4    1  0.1776638E+004  0.2267506E+02  0.7546771E-02  0.1496619E+00
         21   -1    0    0  501  502  0.00000000000E+00  0.00000000000E+00  0.19161424398E+03  0.19161424398E+03  0.00000000000E+00 0.  1.
         21   -1    0    0  502  503 -0.00000000000E+00 -0.00000000000E+00 -0.30059561950E+01  0.30059561950E+01  0.00000000000E+00 0. -1.
          2    1    1    2  501    0 -0.19463813750E+02  0.11632637683E+02  0.62422751036E+02  0.66413538922E+02  0.00000000000E+00 0. -1.
         -2    1    1    2    0  503  0.19463813750E+02 -0.11632637683E+02  0.12618553675E+03  0.12820666125E+03  0.00000000000E+00 0.  1.
</event>
<event>
 4    1  0.1776638E+004  0.2044871E+02  0.7546771E-02  0.1527283E+00
         21   -1    0    0  501  502  0.00000000000E+00  0.00000000000E+00  0.27528377701E+03  0.27528377701E+03  0.00000000000E+00 0.  1.
         21   -1    0    0  502  503 -0.00000000000E+00 -0.00000000000E+00 -0.27587802592E+01  0.27587802592E+01  0.00000000000E+00 0. -1.
          2    1    1    2  501    0  0.33744001825E+01  0.20168370868E+02  0.22945888808E+03  0.23036825103E+03  0.00000000000E+00 0.  1.
         -2    1    1    2    0  503 -0.33744001825E+01 -0.20168370868E+02  0.43066108668E+02  0.47674306244E+02  0.00000000000E+00 0. -1.
</event>
<event>
 4    1  0.1776638E+004  0.3257451E+02  0.7546771E-02  0.1398467E+00
         21   -1    0    0  501  502  0.00000000000E+00  0.00000000000E+00  0.29811545791E+02  0.29811545791E+02  0.00000000000E+00 0. -1.
         21   -1    0    0  502  503 -0.00000000000E+00 -0.00000000000E+00 -0.36909241650E+02  0.36909241650E+02  0.00000000000E+00 0.  1.
          2    1    1    2  501    0  0.10891550352E+02 -0.30699723936E+02  0.27496893957E+01  0.32690361127E+02  0.00000000000E+00 0. -1.
         -2    1    1    2    0  503 -0.10891550352E+02  0.30699723936E+02 -0.98473852542E+01  0.34030426315E+02  0.00000000000E+00 0.  1.
</event>
<event>
 4    1  0.1776638E+004  0.2196150E+02  0.7546771E-02  0.1505967E+00
         21   -1    0    0  503  502  0.00000000000E+00  0.00000000000E+00  0.10755383119E+03  0.10755383119E+03  0.00000000000E+00 0. -1.
         21   -1    0    0  501  503 -0.00000000000E+00 -0.00000000000E+00 -0.17646081974E+02  0.17646081974E+02  0.00000000000E+00 0.  1.
          2    1    1    2  501    0  0.21060729172E+02 -0.62252019338E+01 -0.91099353706E+01  0.23776004181E+02  0.00000000000E+00 0.  1.
         -2    1    1    2    0  502 -0.21060729172E+02  0.62252019338E+01  0.99017684585E+02  0.10142390898E+03  0.00000000000E+00 0. -1.
</event>
<event>
 4    1  0.1776638E+004  0.2010071E+02  0.7546771E-02  0.1532502E+00
         21   -1    0    0  501  502  0.00000000000E+00  0.00000000000E+00  0.14343040512E+03  0.14343040512E+03  0.00000000000E+00 0.  1.
         21   -1    0    0  502  503 -0.00000000000E+00 -0.00000000000E+00 -0.45892789541E+01  0.45892789541E+01  0.00000000000E+00 0. -1.
          2    1    1    2  501    0  0.19038107259E+02  0.64489696109E+01  0.11541309476E+03  0.11715042116E+03  0.00000000000E+00 0.  1.
         -2    1    1    2    0  503 -0.19038107259E+02 -0.64489696109E+01  0.23428031408E+02  0.30869262912E+02  0.00000000000E+00 0. -1.
</event>
<event>
 4    1  0.1776638E+004  0.3058283E+02  0.7546771E-02  0.1414598E+00
         21   -1    0    0  503  502  0.00000000000E+00  0.00000000000E+00  0.31266596800E+03  0.31266596800E+03  0.00000000000E+00 0. -1.
         21   -1    0    0  501  503 -0.00000000000E+00 -0.00000000000E+00 -0.47998290140E+01  0.47998290140E+01  0.00000000000E+00 0.  1.
          2    1    1    2  501    0  0.75575769016E+01 -0.29634316248E+02  0.56500415882E+02  0.64246452532E+02  0.00000000000E+00 0. -1.
         -2    1    1    2    0  502 -0.75575769016E+01  0.29634316248E+02  0.25136572310E+03  0.25321934448E+03  0.00000000000E+00 0.  1.
</event>
<event>
 4    1  0.1776638E+004  0.2045141E+02  0.7546771E-02  0.1527243E+00
         21   -1    0    0  503  502  0.00000000000E+00  0.00000000000E+00  0.45382083359E+01  0.45382083359E+01  0.00000000000E+00 0. -1.
         21   -1    0    0  501  503 -0.00000000000E+00 -0.00000000000E+00 -0.97171719082E+02  0.97171719082E+02  0.00000000000E+00 0.  1.
          2    1    1    2  501    0  0.18368753027E+02  0.89916021654E+01 -0.57861331551E+02  0.61369322027E+02  0.00000000000E+00 0.  1.
         -2    1    1    2    0  502 -0.18368753027E+02 -0.89916021654E+01 -0.34772179196E+02  0.40340605391E+02  0.00000000000E+00 0. -1.
</event>
<event>
 4    1  0.1776638E+004  0.2062981E+02  0.7546771E-02  0.1524616E+00
         21   -1    0    0  503  502  0.00000000000E+00  0.00000000000E+00  0.35597525605E+03  0.35597525605E+03  0.00000000000E+00 0.  1.
         21   -1    0    0  501  503 -0.00000000000E+00 -0.00000000000E+00 -0.13826657913E+01  0.13826657913E+01  0.00000000000E+00 0. -1.
          2    1    1    2  501    0 -0.14484097757E+02  0.14690128139E+02  0.11156667651E+03  0.11345797575E+03  0.00000000000E+00 0. -1.
         -2    1    1    2    0  502  0.14484097757E+02 -0.14690128139E+02  0.24302591374E+03  0.24389994609E+03  0.00000000000E+00 0.  1.
</event>
<event>
 4    1  0.1776638E+004  0.2633137E+02  0.7546771E-02  0.1454443E+00
         21   -1    0    0  501  502  0.00000000000E+00  0.00000000000E+00  0.47854436602E+01  0.47854436602E+01  0.00000000000E+00 0.  1.
         21   -1    0    0  502  503 -0.00000000000E+00 -0.00000000000E+00 -0.39969268985E+03  0.39969268985E+03  0.00000000000E+00 0. -1.
          2    1    1    2  501    0 -0.26015848141E+02  0.40640660699E+01 -0.35977668000E+02  0.44584005902E+02  0.00000000000E+00 0.  1.
         -2    1    1    2    0  503  0.26015848141E+02 -0.40640660699E+01 -0.35892957819E+03  0.35989412761E+03  0.00000000000E+00 0. -1.
</event>
<event>
 4    1  0.1776638E+004  0.2139499E+02  0.7546771E-02  0.1513700E+00
         21   -1    0    0  501  502  0.00000000000E+00  0.00000000000E+00  0.49435368664E+01  0.49435368664E+01  0.00000000000E+00 0. -1.
         21   -1    0    0  502  503 -0.00000000000E+00 -0.00000000000E+00 -0.98423020115E+02  0.98423020115E+02  0.00000000000E+00 0.  1.
          2    1    1    2  501    0  0.11093738745E+02 -0.18294108854E+02 -0.34162879009E+02  0.40309400396E+02  0.00000000000E+00 0. -1.
         -2    1    1    2    0  503 -0.11093738745E+02  0.18294108854E+02 -0.59316604240E+02  0.63057156585E+02  0.00000000000E+00 0.  1.
</event>
<event>
 4    1  0.1776638E+004  0.2139286E+02  0.7546771E-02  0.1513729E+00
         21   -1    0    0  501  502  0.00000000000E+00  0.00000000000E+00  0.45590487031E+01  0.45590487031E+01  0.00000000000E+00 0. -1.
         21   -1    0    0  502  503 -0.00000000000E+00 -0.00000000000E+00 -0.12718986472E+03  0.12718986472E+03  0.00000000000E+00 0.  1.
          2    1    1    2  501    0  0.18342292603E+02 -0.11009756167E+02 -0.31073604458E+02  0.37725632172E+02  0.00000000000E+00 0.  1.
         -2    1    1    2    0  503 -0.18342292603E+02  0.11009756167E+02 -0.91557211558E+02  0.94023281251E+02  0.00000000000E+00 0. -1.
</event>
<event>
 4    1  0.1776638E+004  0.4245322E+02  0.7546771E-02  0.1334680E+00
         21   -1    0    0  501  502  0.00000000000E+00  0.00000000000E+00  0.22704198100E+02  0.22704198100E+02  0.00000000000E+00 0. -1.
         21   -1    0    0  502  503 -0.00000000000E+00 -0.00000000000E+00 -0.11045405569E+03  0.11045405569E+03  0.00000000000E+00 0.  1.
          2    1    1    2  501    0 -0.10938688040E+02  0.41019761700E+02 -0.85613971172E+01  0.43307889195E+02  0.00000000000E+00 0. -1.
         -2    1    1    2    0  503  0.10938688040E+02 -0.41019761700E+02 -0.79188460476E+02  0.89850364599E+02  0.00000000000E+00 0.  1.
</event>
<event>
 4    1  0.1776638E+004  0.3356626E+02  0.7546771E-02  0.1390933E+00
         21   -1    0    0  503  502  0.00000000000E+00  0.00000000000E+00  0.15411720526E+03  0.15411720526E+03  0.00000000000E+00 0. -1.
         21   -1    0    0  501  503 -0.00000000000E+00 -0.00000000000E+00 -0.79976730402E+01  0.79976730402E+01  0.00000000000E+00 0.  1.
          2    1    1    2  501    0  0.14722635825E+02 -0.30165172601E+02  0.49302116060E+02  0.59643878912E+02  0.00000000000E+00 0. -1.
         -2    1    1    2    0  502 -0.14722635825E+02  0.30165172601E+02  0.96817416161E+02  0.10247099939E+03  0.00000000000E+00 0.  1.
</event>
<event>
 4    1  0.1776638E+004  0.2019137E+02  0.7546771E-02  0.1531130E+00
         21   -1    0    0  503  502  0.00000000000E+00  0.00000000000E+00  0.51496261702E+00  0.51496261702E+00  0.00000000000E+00 0.  1.
         21   -1    0    0  501  503 -0.00000000000E+00 -0.00000000000E+00 -0.10708559743E+04  0.10708559743E+04  0.00000000000E+00 0. -1.
          2    1    1    2  501    0 -0.68986218834E+01 -0.18976315316E+02 -0.80868126082E+03  0.80893329337E+03  0.00000000000E+00 0. -1.
         -2    1    1    2    0  502  0.68986218834E+01  0.18976315316E+02 -0.26165975083E+03  0.26243764351E+03  0.00000000000E+00 0.  1.
</event>
<event>
 4    1  0.1776638E+004  0.3416094E+02  0.7546771E-02  0.1386560E+00
         21   -1    0    0  501  502  0.00000000000E+00  0.00000000000E+00  0.25331507433E+03  0.25331507433E+03  0.00000000000E+00 0.  1.
         21   -1    0    0  502  503 -0.00000000000E+00 -0.00000000000E+00 -0.44328294283E+02  0.44328294283E+02  0.00000000000E+00 0. -1.
          2    1    1    2  501    0 -0.15643935766E+02 -0.30368351249E+02  0.24536988765E+03  0.24773645523E+03  0.00000000000E+00 0.  1.
         -2    1    1    2    0  503  0.15643935766E+02  0.30368351249E+02 -0.36383107608E+02  0.49906913380E+02  0.00000000000E+00 0. -1.
</event>
<event>
 4    1  0.1776638E+004  0.2584304E+02  0.7546771E-02  0.1459589E+00
         21   -1    0    0  501  502  0.00000000000E+00  0.00000000000E+00  0.28203752988E+02  0.28203752988E+02  0.00000000000E+00 0.  1.
         21   -1    0    0  502  503 -0.00000000000E+00 -0.00000000000E+00 -0.85364975997E+02  0.85364975997E+02  0.00000000000E+00 0. -1.
          2    1    1    2  501    0 -0.25149199235E+02  0.59481412028E+01  0.19689565477E+02  0.32489099628E+02  0.00000000000E+00 0.  1.
         -2    1    1    2    0  503  0.25149199235E+02 -0.59481412028E+01 -0.76850788486E+02  0.81079629358E+02  0.00000000000E+00 0. -1.
</event>
<event>
 4    1  0.1776638E+004  0.2895656E+02  0.7546771E-02  0.1428886E+00
         21   -1    0    0  503  502  0.00000000000E+00  0.00000000000E+00  0.13673869244E+02  0.13673869244E+02  0.00000000000E+00 0.  1.
         21   -1    0    0  501  503 -0.00000000000E+00 -0.00000000000E+00 -0.12092344627E+03  0.12092344627E+03  0.00000000000E+00 0. -1.
          2    1    1    2  501    0 -0.27207432783E+02  0.99115193893E+01 -0.10087313084E+03  0.10494699206E+03  0.00000000000E+00 0. -1.
         -2    1    1    2    0  502  0.27207432783E+02 -0.99115193893E+01 -0.63764461820E+01  0.29650323458E+02  0.00000000000E+00 0.  1.
</event>
<event>
 4    1  0.1776638E+004  0.4856584E+02  0.7546771E-02  0.1304513E+00
         21   -1    0    0  501  502  0.00000000000E+00  0.00000000000E+00  0.51908484575E+03  0.51908484575E+03  0.00000000000E+00 0.  1.
         21   -1    0    0  502  503 -0.00000000000E+00 -0.00000000000E+00 -0.34627328110E+03  0.34627328110E+03  0.00000000000E+00 0. -1.
          2    1    1    2  501    0 -0.41699579336E+02  0.24895506259E+02  0.51623663445E+03  0.51851605944E+03  0.00000000000E+00 0.  1.
         -2    1    1    2    0  503  0.41699579336E+02 -0.24895506259E+02 -0.34342506981E+03  0.34684206740E+03  0.00000000000E+00 0. -1.
</event>
<event>
 4    1  0.1776638E+004  0.2188742E+02  0.7546771E-02  0.1506962E+00
         21   -1    0    0  503  502  0.00000000000E+00  0.00000000000E+00  0.59861153576E+02  0.59861153576E+02  0.00000000000E+00 0.  1.
         21   -1    0    0  501  503 -0.00000000000E+00 -0.00000000000E+00 -0.88894820274E+01  0.88894820274E+01  0.00000000000E+00 0. -1.
          2    1    1    2  501    0 -0.12609169523E+01 -0.21851064631E+02  0.36342186531E+02  0.42424208407E+02  0.00000000000E+00 0.  1.
         -2    1    1    2    0  502  0.12609169523E+01  0.21851064631E+02  0.14629485018E+02  0.26326427197E+02  0.00000000000E+00 0. -1.
</event>
<event>
 4    1  0.1776638E+004  0.2649417E+02  0.7546771E-02  0.1452756E+00
         21   -1    0    0  503  502  0.00000000000E+00  0.00000000000E+00  0.29414894255E+03  0.29414894255E+03  0.00000000000E+00 0.  1.
         21   -1    0    0  501  503 -0.00000000000E+00 -0.00000000000E+00 -0.73820373774E+01  0.73820373774E+01  0.00000000000E+00 0. -1.
          2    1    1    2  501    0 -0.24663172237E+02 -0.96782823819E+01  0.19357773189E+02  0.32812567676E+02  0.00000000000E+00 0.  1.
         -2    1    1    2    0  502  0.24663172237E+02  0.96782823819E+01  0.26740913198E+03  0.26871841225E+03  0.00000000000E+00 0. -1.
</event>
<event>
 4    1  0.1776638E+004  0.2239218E+02  0.7546771E-02  0.1500275E+00
         21   -1    0    0  503  502  0.00000000000E+00  0.00000000000E+00  0.41556426092E+01  0.41556426092E+01  0.00000000000E+00 0. -1.
         21   -1    0    0  501  503 -0.00000000000E+00 -0.00000000000E+00 -0.47356940481E+03  0.47356940481E+03  0.00000000000E+00 0.  1.
          2    1    1    2  501    0  0.22369098039E+02 -0.10164765045E+01 -0.44090718671E+03  0.44147543200E+03  0.00000000000E+00 0.  1.
         -2    1    1    2    0  502 -0.22369098039E+02  0.10164765045E+01 -0.28506575497E+02  0.36249615420E+02  0.00000000000E+00 0. -1.
</event>
<event>
 4    1  0.1776638E+004  0.2138623E+02  0.7546771E-02  0.1513821E+00
         21   -1    0    0  501  502  0.00000000000E+00  0.00000000000E+00  0.13579276679E+02  0.13579276679E+02  0.00000000000E+00 0.  1.
         21   -1    0    0  502  503 -0.00000000000E+00 -0.00000000000E+00 -0.32693461450E+03  0.32693461450E+03  0.00000000000E+00 0. -1.
          2    1    1    2  501    0 -0.20412984650E+02  0.63781698038E+01  0.45708262997E+01  0.21869235136E+02  0.00000000000E+00 0.  1.
         -2    1    1    2    0  503  0.20412984650E+02 -0.63781698038E+01 -0.31792616412E+03  0.31864465604E+03  0.00000000000E+00 0. -1.
</event>
<event>
 4    1  0.1776638E+004  0.2019043E+02  0.7546771E-02  0.1531144E+00
         21   -1    0    0  501  502  0.00000000000E+00  0.00000000000E+00  0.15268738296E+03  0.15268738296E+03  0.00000000000E+00 0.  1.
         21   -1    0    0  502  503 -0.00000000000E+00 -0.00000000000E+00 -0.10160820885E+02  0.10160820885E+02  0.00000000000E+00 0. -1.
          2    1    1    2  501    0 -0.10510993907E+01  0.20163048487E+02  0.14117620377E+03  0.14261267070E+03  0.00000000000E+00 0.  1.
         -2    1    1    2    0  503  0.10510993907E+01 -0.20163048487E+02  0.13503583101E+01  0.20235533148E+02  0.00000000000E+00 0. -1.
</event>
<event>
 4    1  0.1776638E+004  0.2082250E+02  0.7546771E-02  0.1521814E+00
         21   -1    0    0  503  502  0.00000000000E+00  0.00000000000E+00  0.18483509429E+02  0.18483509429E+02  0.00000000000E+00 0.  1.
         21   -1    0    0  501  503 -0.00000000000E+00 -0.00000000000E+00 -0.23459689929E+02  0.23459689929E+02  0.00000000000E+00 0. -1.
          2    1    1    2  501    0 -0.78853586562E+01  0.19271675912E+02 -0.26920807387E+01  0.20995801302E+02  0.00000000000E+00 0. -1.
         -2    1    1    2    0  502  0.78853586562E+01 -0.19271675912E+02 -0.22840997610E+01  0.20947398056E+02  0.00000000000E+00 0.  1.
</event>
<event>
 4    1  0.1776638E+004  0.2240783E+02  0.7546771E-02  0.1500071E+00
         21   -1    0    0  501  502  0.00000000000E+00  0.00000000000E+00  0.60474425977E+02  0.60474425977E+02  0.00000000000E+00 0.  1.
         21   -1    0    0  502  503 -0.00000000000E+00 -0.00000000000E+00 -0.55021835200E+02  0.55021835200E+02  0.00000000000E+00 0. -1.
          2    1    1    2  501    0  0.22076535538E+02  0.38389441905E+01  0.55939208022E+02  0.60260317855E+02  0.00000000000E+00 0.  1.
         -2    1    1    2    0  503 -0.22076535538E+02 -0.38389441905E+01 -0.50486617245E+02  0.55235943322E+02  0.00000000000E+00 0. -1.
</event>
<event>
 4    1  0.1776638E+004  0.2355337E+02  0.7546771E-02  0.1485664E+00
         21   -1    0    0  501  502  0.00000000000E+00  0.00000000000E+00  0.34599396056E+03  0.34599396056E+03  0.00000000000E+00 0. -1.
         21   -1    0    0  502  503 -0.00000000000E+00 -0.00000000000E+00 -0.17399928969E+01  0.17399928969E+01  0.00000000000E+00 0.  1.
          2    1    1    2  501    0 -0.23087212174E+02 -0.46628221161E+01  0.22084419488E+03  0.22209664493E+03  0.00000000000E+00 0. -1.
         -2    1    1    2    0  503  0.23087212174E+02  0.46628221161E+01  0.12340977279E+03  0.12563730853E+03  0.00000000000E+00 0.  1.
</event>
<event>
 4    1  0.1776638E+004  0.2421669E+02  0.7546771E-02  0.1477760E+00
         21   -1    0    0  501  502  0.00000000000E+00  0.00000000000E+00  0.55298125877E+01  0.55298125877E+01  0.00000000000E+00 0.  1.
         21   -1    0    0  502  503 -0.00000000000E+00 -0.00000000000E+00 -0.11069477139E+03  0.11069477139E+03  0.00000000000E+00 0. -1.
          2    1    1    2  501    0  0.23856621646E+02  0.41605174096E+01 -0.40681358079E+02  0.47343650014E+02  0.00000000000E+00 0.  1.
         -2    1    1    2    0  503 -0.23856621646E+02 -0.41605174096E+01 -0.64483600723E+02  0.68880933964E+02  0.00000000000E+00 0. -1.
</event>
<event>
 4    1  0.1776638E+004  0.3968930E+02  0.7546771E-02  0.1350316E+00
         21   -1    0    0  503  502  0.00000000000E+00  0.00000000000E+00  0.34222769132E+02  0.34222769132E+02  0.00000000000E+00 0.  1.
         21   -1    0    0  501  503 -0.00000000000E+00 -0.00000000000E+00 -0.72190079310E+02  0.72190079310E+02  0.00000000000E+00 0. -1.
          2    1    1    2  501    0 -0.21101831875E+02 -0.33614774738E+02 -0.51013365266E+02  0.64634385778E+02  0.00000000000E+00 0. -1.
         -2    1    1    2    0  502  0.21101831875E+02  0.33614774738E+02  0.13046055087E+02  0.41778462663E+02  0.00000000000E+00 0.  1.
</event>
<event>
 4    1  0.1776638E+004  0.2155684E+02  0.7546771E-02  0.1511461E+00
         21   -1    0    0  503  502  0.00000000000E+00  0.00000000000E+00  0.30501243301E+02  0.30501243301E+02  0.00000000000E+00 0. -1.
         21   -1    0    0  501  503 -0.00000000000E+00 -0.00000000000E+00 -0.17128024323E+02  0.17128024323E+02  0.00000000000E+00 0.  1.
          2    1    1    2  501    0  0.19977754300E+02  0.80985628325E+01 -0.12297809053E+01  0.21591890790E+02  0.00000000000E+00 0.  1.
         -2    1    1    2    0  502 -0.19977754300E+02 -0.80985628325E+01  0.14602999883E+02  0.26037376834E+02  0.00000000000E+00 0. -1.
</event>
<event>
 4    1  0.1776638E+004  0.2261405E+02  0.7546771E-02  0.1497402E+00
         21   -1    0    0  503  502  0.00000000000E+00  0.00000000000E+00  0.11342773484E+03  0.11342773484E+03  0.00000000000E+00 0.  1.
         21   -1    0    0  501  503 -0.00000000000E+00 -0.00000000000E+00 -0.73740956463E+01  0.73740956463E+01  0.00000000000E+00 0. -1.
          2    1    1    2  501    0 -0.21902424105E+02  0.56284277946E+01  0.15374452074E+02  0.27345368121E+02  0.00000000000E+00 0. -1.
         -2    1    1    2    0  502  0.21902424105E+02 -0.56284277946E+01  0.90679187122E+02  0.93456462367E+02  0.00000000000E+00 0.  1.
</event>
<event>
 4    1  0.1776638E+004  0.2152022E+02  0.7546771E-02  0.1511965E+00
         21   -1    0    0  503  502  0.00000000000E+00  0.00000000000E+00  0.71955908059E+01  0.71955908059E+01  0.00000000000E+00 0.  1.
         21   -1    0    0  501  503 -0.00000000000E+00 -0.00000000000E+00 -0.64435464559E+02  0.64435464559E+02  0.00000000000E+00 0. -1.
          2    1    1    2  501    0  0.91160672592E+01  0.19494029093E+02 -0.27407442333E+02  0.34846631800E+02  0.00000000000E+00 0.  1.
         -2    1    1    2    0  502 -0.91160672592E+01 -0.19494029093E+02 -0.29832431420E+02  0.36784423565E+02  0.00000000000E+00 0. -1.
</event>
<event>
 4    1  0.1776638E+004  0.2329589E+02  0.7546771E-02  0.1488816E+00
         21   -1    0    0  503  502  0.00000000000E+00  0.00000000000E+00  0.62323533549E+02  0.62323533549E+02  0.00000000000E+00 0.  1.
         21   -1    0    0  501  503 -0.00000000000E+00 -0.00000000000E+00 -0.87251581150E+01  0.87251581150E+01  0.00000000000E+00 0. -1.
          2    1    1    2  501    0 -0.18237898996E+02  0.14494050764E+02  0.25212938064E+02  0.34327696007E+02  0.00000000000E+00 0. -1.
         -2    1    1    2    0  502  0.18237898996E+02 -0.14494050764E+02  0.28385437370E+02  0.36720995657E+02  0.00000000000E+00 0.  1.
</event>
<event>
 4    1  0.1776638E+004  0.2366438E+02  0.7546771E-02  0.1484320E+00
         21   -1    0    0  501  502  0.00000000000E+00  0.00000000000E+00  0.71932578398E+02  0.71932578398E+02  0.00000000000E+00 0. -1.
         21   -1    0    0  502  503 -0.00000000000E+00 -0.00000000000E+00 -0.19679613814E+02  0.19679613814E+02  0.00000000000E+00 0.  1.
          2    1    1    2  501    0  0.21122982007E+02 -0.10668756427E+02  0.61737815738E+02  0.66117778431E+02  0.00000000000E+00 0. -1.
         -2    1    1    2    0  503 -0.21122982007E+02  0.10668756427E+02 -0.94848511545E+01  0.25494413780E+02  0.00000000000E+00 0.  1.
</event>
<event>
 4    1  0.1776638E+004  0.4978254E+02  0.7546771E-02  0.1299118E+00
         21   -1    0    0  503  502  0.00000000000E+00  0.00000000000E+00  0.15947023112E+02  0.15947023112E+02  0.00000000000E+00 0.  1.
         21   -1    0    0  501  503 -0.00000000000E+00 -0.00000000000E+00 -0.29986530038E+03  0.29986530038E+03  0.00000000000E+00 0. -1.
          2    1    1    2  501    0  0.45216888155E+02 -0.20826279156E+02 -0.25155777753E+03  0.25643637869E+03  0.00000000000E+00 0. -1.
         -2    1    1    2    0  502 -0.45216888155E+02  0.20826279156E+02 -0.32360499733E+02  0.59375944800E+02  0.00000000000E+00 0.  1.
</event>
<event>
 4    1  0.1776638E+004  0.2292524E+02  0.7546771E-02  0.1493439E+00
         21   -1    0    0  503  502  0.00000000000E+00  0.00000000000E+00  0.25537537926E+02  0.25537537926E+02  0.00000000000E+00 0.  1.
         21   -1    0    0  501  503 -0.00000000000E+00 -0.00000000000E+00 -0.31432783248E+02  0.31432783248E+02  0.00000000000E+00 0. -1.
          2    1    1    2  501    0 -0.21739677350E+02  0.72768903360E+01  0.13790029873E+02  0.26753161087E+02  0.00000000000E+00 0.  1.
         -2    1    1    2    0  502  0.21739677350E+02 -0.72768903360E+01 -0.19685275195E+02  0.30217160087E+02  0.00000000000E+00 0. -1.
</event>
<event>
 4    1  0.1776638E+004  0.3449400E+02  0.7546771E-02  0.1384156E+00
         21   -1    0    0  503  502  0.00000000000E+00  0.00000000000E+00  0.75138539398E+02  0.75138539398E+02  0.00000000000E+00 0. -1.
         21   -1    0    0  501  503 -0.00000000000E+00 -0.00000000000E+00 -0.18464265921E+02  0.18464265921E+02  0.00000000000E+00 0.  1.
          2    1    1    2  501    0 -0.20668505446E+02 -0.27616095593E+02  0.10677111248E+02  0.36108677043E+02  0.00000000000E+00 0.  1.
         -2    1    1    2    0  502  0.20668505446E+02  0.27616095593E+02  0.45997162229E+02  0.57494128277E+02  0.00000000000E+00 0. -1.
</event>
<event>
 4    1  0.1776638E+004  0.2349722E+02  0.7546771E-02  0.1486347E+00
         21   -1    0    0  503  502  0.00000000000E+00  0.00000000000E+00  0.37334726519E+03  0.37334726519E+03  0.00000000000E+00 0.  1.
         21   -1    0    0  501  503 -0.00000000000E+00 -0.00000000000E+00 -0.31985761734E+01  0.31985761734E+01  0.00000000000E+00 0. -1.
          2    1    1    2  501    0 -0.35069373802E+01 -0.23234046191E+02  0.47022922877E+02  0.52566860169E+02  0.00000000000E+00 0. -1.
         -2    1    1    2    0  502  0.35069373802E+01  0.23234046191E+02  0.32312576614E+03  0.32397898120E+03  0.00000000000E+00 0.  1.
</event>
<event>
 4    1  0.1776638E+004  0.2099746E+02  0.7546771E-02  0.1519301E+00
         21   -1    0    0  503  502  0.00000000000E+00  0.00000000000E+00  0.31063362093E+02  0.31063362093E+02  0.00000000000E+00 0. -1.
         21   -1    0    0  501  503 -0.00000000000E+00 -0.00000000000E+00 -0.21238304870E+02  0.21238304870E+02  0.00000000000E+00 0.  1.
          2    1    1    2  501    0 -0.98847134327E+01 -0.18525269417E+02  0.19973907064E+02  0.28980167875E+02  0.00000000000E+00 0. -1.
         -2    1    1    2    0  502  0.98847134327E+01  0.18525269417E+02 -0.10148849841E+02  0.23321499088E+02  0.00000000000E+00 0.  1.
</event>
<event>
 4    1  0.1776638E+004  0.2986698E+02  0.7546771E-02  0.1420756E+00
         21   -1    0    0  503  502  0.00000000000E+00  0.00000000000E+00  0.35907997510E+02  0.35907997510E+02  0.00000000000E+00 0.  1.
         21   -1    0    0  501  503 -0.00000000000E+00 -0.00000000000E+00 -0.32938318789E+02  0.32938318789E+02  0.00000000000E+00 0. -1.
          2    1    1    2  501    0 -0.99345422232E+01  0.28166315548E+02 -0.15581341294E+02  0.33687010215E+02  0.00000000000E+00 0. -1.
         -2    1    1    2    0  502  0.99345422232E+01 -0.28166315548E+02  0.18551020015E+02  0.35159306084E+02  0.00000000000E+00 0.  1.
</event>
<event>
 4    1  0.1776638E+004  0.2125420E+02  0.7546771E-02  0.1515666E+00
         21   -1    0    0  501  502  0.00000000000E+00  0.00000000000E+00  0.50847607857E+03  0.50847607857E+03  0.00000000000E+00 0.  1.
         21   -1    0    0  502  503 -0.00000000000E+00 -0.00000000000E+00 -0.25649995009E+01  0.25649995009E+01  0.00000000000E+00 0. -1.
          2    1    1    2  501    0 -0.44300386649E+00 -0.21249579623E+02  0.45953831290E+03  0.46002956634E+03  0.00000000000E+00 0.  1.
         -2    1    1    2    0  503  0.44300386649E+00  0.21249579623E+02  0.46372766164E+02  0.51011511723E+02  0.00000000000E+00 0. -1.
</event>
<event>
 4    1  0.1776638E+004  0.3571279E+02  0.7546771E-02  0.1375620E+00
         21   -1    0    0  501  502  0.00000000000E+00  0.00000000000E+00  0.57900096443E+01  0.57900096443E+01  0.00000000000E+00 0.  1.
         21   -1    0    0  502  503 -0.00000000000E+00 -0.00000000000E+00 -0.26096897336E+03  0.26096897336E+03  0.00000000000E+00 0. -1.
          2    1    1    2  501    0 -0.17934022600E+02 -0.30883230447E+02 -0.74920898757E+02  0.82997253931E+02  0.00000000000E+00 0.  1.
         -2    1    1    2    0  503  0.17934022600E+02  0.30883230447E+02 -0.18025806496E+03  0.18376172907E+03  0.00000000000E+00 0. -1.
</event>
<event>
 4    1  0.1776638E+004  0.2366425E+02  0.7546771E-02  0.1484321E+00
         21   -1    0    0  503  502  0.00000000000E+00  0.00000000000E+00  0.75286581162E+02  0.75286581162E+02  0.00000000000E+00 0.  1.
         21   -1    0    0  501  503 -0.00000000000E+00 -0.00000000000E+00 -0.99723188465E+01  0.99723188465E+01  0.00000000000E+00 0. -1.
          2    1    1    2  501    0  0.10433724732E+02 -0.21239921594E+02  0.11167702168E+02  0.26167048989E+02  0.00000000000E+00 0.  1.
         -2    1    1    2    0  502 -0.10433724732E+02  0.21239921594E+02  0.54146560148E+02  0.59091851020E+02  0.00000000000E+00 0. -1.
</event>
<event>
 4    1  0.1776638E+004  0.2324726E+02  0.7546771E-02  0.1489416E+00
         21   -1    0    0  503  502  0.00000000000E+00  0.00000000000E+00  0.82987588996E+00  0.82987588996E+00  0.00000000000E+00 0.  1.
         21   -1    0    0  501  503 -0.00000000000E+00 -0.00000000000E+00 -0.90986861361E+03  0.90986861361E+03  0.00000000000E+00 0. -1.
          2    1    1    2  501    0 -0.72173145769E+01  0.22098542058E+02 -0.69729601215E+03  0.69768342660E+03  0.00000000000E+00 0. -1.
         -2    1    1    2    0  502  0.72173145769E+01 -0.22098542058E+02 -0.21174272557E+03  0.21301506290E+03  0.00000000000E+00 0.  1.
</event>
<event>
 4    1  0.1776638E+004  0.4715064E+02  0.7546771E-02  0.1311023E+00
         21   -1    0    0  501  502  0.00000000000E+00  0.00000000000E+00  0.68315460139E+02  0.68315460139E+02  0.00000000000E+00 0.  1.
         21   -1    0    0  502  503 -0.00000000000E+00 -0.00000000000E+00 -0.42234869144E+02  0.42234869144E+02  0.00000000000E+00 0. -1.
          2    1    1    2  501    0  0.12062171387E+02  0.45581645977E+02  0.39519243621E+02  0.61521972050E+02  0.00000000000E+00 0.  1.
         -2    1    1    2    0  503 -0.12062171387E+02 -0.45581645977E+02 -0.13438652627E+02  0.49028357233E+02  0.00000000000E+00 0. -1.
</event>
<event>
 4    1  0.1776638E+004  0.2494453E+02  0.7546771E-02  0.1469425E+00
         21   -1    0    0  501  502  0.00000000000E+00  0.00000000000E+00  0.27344053709E+02  0.27344053709E+02  0.00000000000E+00 0. -1.
         21   -1    0    0  502  503 -0.00000000000E+00 -0.00000000000E+00 -0.11647162840E+03  0.11647162840E+03  0.00000000000E+00 0.  1.
          2    1    1    2  501    0  0.24493549727E+02 -0.47218007723E+01  0.19938214856E+02  0.31933709343E+02  0.00000000000E+00 0. -1.
         -2    1    1    2    0  503 -0.24493549727E+02  0.47218007723E+01 -0.10906578955E+03  0.11188197277E+03  0.00000000000E+00 0.  1.
</event>
<event>
 4    1  0.1776638E+004  0.3115737E+02  0.7546771E-02  0.1409799E+00
         21   -1    0    0  503  502  0.00000000000E+00  0.00000000000E+00  0.36686559726E+02  0.36686559726E+02  0.00000000000E+00 0.  1.
         21   -1    0    0  501  503 -0.00000000000E+00 -0.00000000000E+00 -0.26771472681E+02  0.26771472681E+02  0.00000000000E+00 0. -1.
          2    1    1    2  501    0  0.30552856869E+02 -0.61077413915E+01  0.15434219204E+01  0.31195572106E+02  0.00000000000E+00 0. -1.
         -2    1    1    2    0  502 -0.30552856869E+02  0.61077413915E+01  0.83716651245E+01  0.32262460302E+02  0.00000000000E+00 0.  1.
</event>
<event>
 4    1  0.1776638E+004  0.2086124E+02  0.7546771E-02  0.1521255E+00
         21   -1    0    0  501  502  0.00000000000E+00  0.00000000000E+00  0.15714665025E+04  0.15714665025E+04  0.00000000000E+00 0.  1.
         21   -1    0    0  502  503 -0.00000000000E+00 -0.00000000000E+00 -0.58189035136E+00  0.58189035136E+00  0.00000000000E+00 0. -1.
          2    1    1    2  501    0 -0.20861157268E+02  0.59118107644E-01  0.13544716848E+04  0.13546323251E+04  0.00000000000E+00 0.  1.
         -2    1    1    2    0  503  0.20861157268E+02 -0.59118107644E-01  0.21641292744E+03  0.21741606781E+03  0.00000000000E+00 0. -1.
</event>
<event>
 4    1  0.1776638E+004  0.2249490E+02  0.7546771E-02  0.1498940E+00
         21   -1    0    0  503  502  0.00000000000E+00  0.00000000000E+00  0.56923616955E+00  0.56923616955E+00  0.00000000000E+00 0.  1.
         21   -1    0    0  501  503 -0.00000000000E+00 -0.00000000000E+00 -0.10391299213E+04  0.10391299213E+04  0.00000000000E+00 0. -1.
          2    1    1    2  501    0  0.35477140705E+00 -0.22492100376E+02 -0.71691081862E+03  0.71726364908E+03  0.00000000000E+00 0. -1.
         -2    1    1    2    0  502 -0.35477140705E+00  0.22492100376E+02 -0.32164986656E+03  0.32243550843E+03  0.00000000000E+00 0.  1.
</event>
<event>
 4    1  0.1776638E+004  0.2050352E+02  0.7546771E-02  0.1526473E+00
         21   -1    0    0  501  502  0.00000000000E+00  0.00000000000E+00  0.14474294034E+02  0.14474294034E+02  0.00000000000E+00 0. -1.
         21   -1    0    0  502  503 -0.00000000000E+00 -0.00000000000E+00 -0.15958933179E+03  0.15958933179E+03  0.00000000000E+00 0.  1.
          2    1    1    2  501    0  0.20406668024E+02  0.19905716260E+01  0.61572856523E+01  0.21408097576E+02  0.00000000000E+00 0. -1.
         -2    1    1    2    0  503 -0.20406668024E+02 -0.19905716260E+01 -0.15127232340E+03  0.15265552824E+03  0.00000000000E+00 0.  1.
</event>
<event>
 4    1  0.1776638E+004  0.3619500E+02  0.7546771E-02  0.1372351E+00
         21   -1    0    0  501  502  0.00000000000E+00  0.00000000000E+00  0.31822998363E+02  0.31822998363E+02  0.00000000000E+00 0.  1.
         21   -1    0    0  502  503 -0.00000000000E+00 -0.00000000000E+00 -0.13199671486E+03  0.13199671486E+03  0.00000000000E+00 0. -1.
          2    1    1    2  501    0 -0.36144784382E+02 -0.19058747001E+01  0.17859634689E+02  0.40361421527E+02  0.00000000000E+00 0.  1.
         -2    1    1    2    0  503  0.36144784382E+02  0.19058747001E+01 -0.11803335118E+03  0.12345829170E+03  0.00000000000E+00 0. -1.
</event>
<event>
 4    1  0.1776638E+004  0.2214477E+02  0.7546771E-02  0.1503526E+00
         21   -1    0    0  503  502  0.00000000000E+00  0.00000000000E+00  0.74458319424E+01  0.74458319424E+01  0.00000000000E+00 0.  1.
         21   -1    0    0  501  503 -0.00000000000E+00 -0.00000000000E+00 -0.18824980289E+03  0.18824980289E+03  0.00000000000E+00 0. -1.
          2    1    1    2  501    0 -0.10003932474E+02  0.19756318239E+02 -0.16929790124E+03  0.17074006601E+03  0.00000000000E+00 0. -1.
         -2    1    1    2    0  502  0.10003932474E+02 -0.19756318239E+02 -0.11506069706E+02  0.24955568825E+02  0.00000000000E+00 0.  1.
</event>
<event>
 4    1  0.1776638E+004  0.2109631E+02  0.7546771E-02  0.1517894E+00
         21   -1    0    0  501  502  0.00000000000E+00  0.00000000000E+00  0.11662906217E+03  0.11662906217E+03  0.00000000000E+00 0. -1.
         21   -1    0    0  502  503 -0.00000000000E+00 -0.00000000000E+00 -0.11474974089E+02  0.11474974089E+02  0.00000000000E+00 0.  1.
          2    1    1    2  501    0 -0.45058880490E+01 -0.20609497617E+02  0.10490608403E+03  0.10700626563E+03  0.00000000000E+00 0. -1.
         -2    1    1    2    0  503  0.45058880490E+01  0.20609497617E+02  0.24800404933E+00  0.21097770620E+02  0.00000000000E+00 0.  1.
</event>
<event>
 4    1  0.1776638E+004  0.4100356E+02  0.7546771E-02  0.1342703E+00
         21   -1    0    0  501  502  0.00000000000E+00  0.00000000000E+00  0.29578924595E+02  0.29578924595E+02  0.00000000000E+00 0.  1.
         21   -1    0    0  502  503 -0.00000000000E+00 -0.00000000000E+00 -0.59900887208E+02  0.59900887208E+02  0.00000000000E+00 0. -1.
          2    1    1    2  501    0 -0.37493947438E+02 -0.16598065556E+02 -0.25273054685E+02  0.48166577289E+02  0.00000000000E+00 0.  1.
         -2    1    1    2    0  503  0.37493947438E+02  0.16598065556E+02 -0.50489079278E+01  0.41313234513E+02  0.00000000000E+00 0. -1.
</event>
<event>
 4    1  0.1776638E+004  0.2463871E+02  0.7546771E-02  0.1472886E+00
         21   -1    0    0  503  502  0.00000000000E+00  0.00000000000E+00  0.64899979106E+01  0.64899979106E+01  0.00000000000E+00 0. -1.
         21   -1    0    0  501  503 -0.00000000000E+00 -0.00000000000E+00 -0.10261140499E+03  0.10261140499E+03  0.00000000000E+00 0.  1.
          2    1    1    2  501    0 -0.20805326999E+02 -0.13198651433E+02 -0.64281444260E+02  0.68841630626E+02  0.00000000000E+00 0.  1.
         -2    1    1    2    0  502  0.20805326999E+02  0.13198651433E+02 -0.31839962818E+02  0.40259772273E+02  0.00000000000E+00 0. -1.
</event>
<event>
 4    1  0.1776638E+004  0.2579761E+02  0.7546771E-02  0.1460075E+00
         21   -1    0    0  501  502  0.00000000000E+00  0.00000000000E+00  0.23555372618E+01  0.23555372618E+01  0.00000000000E+00 0.  1.
         21   -1    0    0  502  503 -0.00000000000E+00 -0.00000000000E+00 -0.41656794070E+03  0.41656794070E+03  0.00000000000E+00 0. -1.
          2    1    1    2  501    0 -0.64222339808E+01  0.24985422488E+02 -0.88291222239E+02  0.91982913362E+02  0.00000000000E+00 0.  1.
         -2    1    1    2    0  503  0.64222339808E+01 -0.24985422488E+02 -0.32592118120E+03  0.32694056460E+03  0.00000000000E+00 0. -1.
</event>
<event>
 4    1  0.1776638E+004  0.2384381E+02  0.7546771E-02  0.1482166E+00
         21   -1    0    0  501  502  0.00000000000E+00  0.00000000000E+00  0.81083079459E+01  0.81083079459E+01  0.00000000000E+00 0. -1.
         21   -1    0    0  502  503 -0.00000000000E+00 -0.00000000000E+00 -0.14064572099E+03  0.14064572099E+03  0.00000000000E+00 0.  1.
          2    1    1    2  501    0 -0.23839731077E+02  0.44098318831E+00 -0.13599155417E+02  0.27449303672E+02  0.00000000000E+00 0. -1.
         -2    1    1    2    0  503  0.23839731077E+02 -0.44098318831E+00 -0.11893825763E+03  0.12130472527E+03  0.00000000000E+00 0.  1.
</event>
<event>
 4    1  0.1776638E+004  0.4842841E+02  0.7546771E-02  0.1305134E+00
         21   -1    0    0  503  502  0.00000000000E+00  0.00000000000E+00  0.83093847824E+01  0.83093847824E+01  0.00000000000E+00 0.  1.
         21   -1    0    0  501  503 -0.00000000000E+00 -0.00000000000E+00 -0.36969304813E+03  0.36969304813E+03  0.00000000000E+00 0. -1.
          2    1    1    2  501    0  0.37372210802E+02 -0.30799823822E+02 -0.27261190395E+03  0.27688004887E+03  0.00000000000E+00 0. -1.
         -2    1    1    2    0  502 -0.37372210802E+02  0.30799823822E+02 -0.88771759399E+02  0.10112238404E+03  0.00000000000E+00 0.  1.
</event>
<event>
 4    1  0.1776638E+004  0.2182866E+02  0.7546771E-02  0.1507755E+00
         21   -1    0    0  501  502  0.00000000000E+00  0.00000000000E+00  0.52687252690E+02  0.52687252690E+02  0.00000000000E+00 0.  1.
         21   -1    0    0  502  503 -0.00000000000E+00 -0.00000000000E+00 -0.23383099361E+02  0.23383099361E+02  0.00000000000E+00 0. -1.
          2    1    1    2  501    0  0.13942984959E+02  0.16795341935E+02  0.44437180350E+02  0.49509123783E+02  0.00000000000E+00 0.  1.
         -2    1    1    2    0  503 -0.13942984959E+02 -0.16795341935E+02 -0.15133027021E+02  0.26561228268E+02  0.00000000000E+00 0. -1.
</event>
<event>
 4    1  0.1776638E+004  0.2018527E+02  0.7546771E-02  0.1531222E+00
         21   -1    0    0  503  502  0.00000000000E+00  0.00000000000E+00  0.62306399911E+01  0.62306399911E+01  0.00000000000E+00 0. -1.
         21   -1    0    0  501  503 -0.00000000000E+00 -0.00000000000E+00 -0.10736718695E+03  0.10736718695E+03  0.00000000000E+00 0.  1.
          2    1    1    2  501    0  0.16668579129E+02  0.11384361216E+02 -0.86081592328E+02  0.88416546801E+02  0.00000000000E+00 0.  1.
         -2    1    1    2    0  502 -0.16668579129E+02 -0.11384361216E+02 -0.15054954627E+02  0.25181280136E+02  0.00000000000E+00 0. -1.
</event>
<event>
 4    1  0.1776638E+004  0.4340727E+02  0.7546771E-02  0.1329598E+00
         21   -1    0    0  503  502  0.00000000000E+00  0.00000000000E+00  0.48295611217E+02  0.48295611217E+02  0.00000000000E+00 0. -1.
         21   -1    0    0  501  503 -0.00000000000E+00 -0.00000000000E+00 -0.44725854091E+02  0.44725854091E+02  0.00000000000E+00 0.  1.
          2    1    1    2  501    0  0.20786768783E+02  0.38106452381E+02 -0.14836729733E+02  0.45872868001E+02  0.00000000000E+00 0.  1.
         -2    1    1    2    0  502 -0.20786768783E+02 -0.38106452381E+02  0.18406486859E+02  0.47148597307E+02  0.00000000000E+00 0. -1.
</event>
<event>
 4    1  0.1776638E+004  0.2173158E+02  0.7546771E-02  0.1509071E+00
         21   -1    0    0  503  502  0.00000000000E+00  0.00000000000E+00  0.41176246191E+02  0.41176246191E+02  0.00000000000E+00 0. -1.
         21   -1    0    0  501  503 -0.00000000000E+00 -0.00000000000E+00 -0.29894447748E+02  0.29894447748E+02  0.00000000000E+00 0.  1.
          2    1    1    2  501    0  0.19633405876E+02 -0.93161549667E+01 -0.22256978665E+02  0.31106823511E+02  0.00000000000E+00 0.  1.
         -2    1    1    2    0  502 -0.19633405876E+02  0.93161549667E+01  0.33538777108E+02  0.39963870427E+02  0.00000000000E+00 0. -1.
</event>
<event>
 4    1  0.1776638E+004  0.2890427E+02  0.7546771E-02  0.1429363E+00
         21   -1    0    0  501  502  0.00000000000E+00  0.00000000000E+00  0.25310634936E+02  0.25310634936E+02  0.00000000000E+00 0. -1.
         21   -1    0    0  502  503 -0.00000000000E+00 -0.00000000000E+00 -0.40146982173E+02  0.40146982173E+02  0.00000000000E+00 0.  1.
          2    1    1    2  501    0 -0.95842957879E+01  0.27268994829E+02 -0.21219405281E+02  0.35856937476E+02  0.00000000000E+00 0.  1.
         -2    1    1    2    0  503  0.95842957879E+01 -0.27268994829E+02  0.63830580435E+01  0.29600679632E+02  0.00000000000E+00 0. -1.
</event>
<event>
 4    1  0.1776638E+004  0.4239369E+02  0.7546771E-02  0.1335002E+00
         21   -1    0    0  503  502  0.00000000000E+00  0.00000000000E+00  0.63849441840E+03  0.63849441840E+03  0.00000000000E+00 0. -1.
         21   -1    0    0  501  503 -0.00000000000E+00 -0.00000000000E+00 -0.37516215341E+01  0.37516215341E+01  0.00000000000E+00 0.  1.
          2    1    1    2  501    0  0.31685427178E+02  0.28164845353E+02  0.47784135338E+03  0.47971823377E+03  0.00000000000E+00 0. -1.
         -2    1    1    2    0  502 -0.31685427178E+02 -0.28164845353E+02  0.15690144348E+03  0.16252780616E+03  0.00000000000E+00 0.  1.
</event>
<event>
 4    1  0.1776638E+004  0.3769615E+02  0.7546771E-02  0.1362542E+00
         21   -1    0    0  503  502  0.00000000000E+00  0.00000000000E+00  0.70307267967E+02  0.70307267967E+02  0.00000000000E+00 0. -1.
         21   -1    0    0  501  503 -0.00000000000E+00 -0.00000000000E+00 -0.33097703095E+02  0.33097703095E+02  0.00000000000E+00 0.  1.
          2    1    1    2  501    0  0.36503659176E+02 -0.94065313313E+01 -0.13656280053E+02  0.40093564943E+02  0.00000000000E+00 0.  1.
         -2    1    1    2    0  502 -0.36503659176E+02  0.94065313313E+01  0.50865844924E+02  0.63311406119E+02  0.00000000000E+00 0. -1.
</event>
<event>
 4    1  0.1776638E+004  0.2138350E+02  0.7546771E-02  0.1513859E+00
         21   -1    0    0  503  502  0.00000000000E+00  0.00000000000E+00  0.10758323455E+02  0.10758323455E+02  0.00000000000E+00 0. -1.
         21   -1    0    0  501  503 -0.00000000000E+00 -0.00000000000E+00 -0.42513949641E+02  0.42513949641E+02  0.00000000000E+00 0.  1.
          2    1    1    2  501    0  0.15173205245E+02 -0.15067447085E+02 -0.15437997304E+02  0.26373962156E+02  0.00000000000E+00 0. -1.
         -2    1    1    2    0  502 -0.15173205245E+02  0.15067447085E+02 -0.16317628882E+02  0.26898310939E+02  0.00000000000E+00 0.  1.
</event>
<event>
 4    1  0.1776638E+004  0.2169248E+02  0.7546771E-02  0.1509603E+00
         21   -1    0    0  503  502  0.00000000000E+00  0.00000000000E+00  0.40643620574E+02  0.40643620574E+02  0.00000000000E+00 0. -1.
         21   -1    0    0  501  503 -0.00000000000E+00 -0.00000000000E+00 -0.35244427617E+02  0.35244427617E+02  0.00000000000E+00 0.  1.
          2    1    1    2  501    0  0.13109456951E+02  0.17283112570E+02 -0.28393667612E+02  0.35731837374E+02  0.00000000000E+00 0.  1.
         -2    1    1    2    0  502 -0.13109456951E+02 -0.17283112570E+02  0.33792860570E+02  0.40156210816E+02  0.00000000000E+00 0. -1.
</event>
<event>
 4    1  0.1776638E+004  0.2126866E+02  0.7546771E-02  0.1515463E+00
         21   -1    0    0  503  502  0.00000000000E+00  0.00000000000E+00  0.14808620034E+03  0.14808620034E+03  0.00000000000E+00 0.  1.
         21   -1    0    0  501  503 -0.00000000000E+00 -0.00000000000E+00 -0.30557984750E+01  0.30557984750E+01  0.00000000000E+00 0. -1.
          2    1    1    2  501    0 -0.11595810961E+02 -0.17829555474E+02  0.71069084502E+02  0.74183358324E+02  0.00000000000E+00 0.  1.
         -2    1    1    2    0  502  0.11595810961E+02  0.17829555474E+02  0.73961317365E+02  0.76958640493E+02  0.00000000000E+00 0. -1.
</event>
<event>
 4    1  0.1776638E+004  0.3232538E+02  0.7546771E-02  0.1400409E+00
         21   -1    0    0  501  502  0.00000000000E+00  0.00000000000E+00  0.83645039034E+01  0.83645039034E+01  0.00000000000E+00 0. -1.
         21   -1    0    0  502  503 -0.00000000000E+00 -0.00000000000E+00 -0.20703152105E+03  0.20703152105E+03  0.00000000000E+00 0.  1.
          2    1    1    2  501    0 -0.26540772773E+02  0.18453126677E+02 -0.31510054276E+02  0.45142153515E+02  0.00000000000E+00 0. -1.
         -2    1    1    2    0  503  0.26540772773E+02 -0.18453126677E+02 -0.16715696287E+03  0.17025387144E+03  0.00000000000E+00 0.  1.
</event>
<event>
 4    1  0.1776638E+004  0.2705583E+02  0.7546771E-02  0.1447048E+00
         21   -1    0    0  501  502  0.00000000000E+00  0.00000000000E+00  0.36351515009E+03  0.36351515009E+03  0.00000000000E+00 0.  1.
         21   -1    0    0  502  503 -0.00000000000E+00 -0.00000000000E+00 -0.66881598455E+01  0.66881598455E+01  0.00000000000E+00 0. -1.
          2    1    1    2  501    0 -0.22044092864E+02  0.15686802011E+02  0.33316032459E+03  0.33425711611E+03  0.00000000000E+00 0.  1.
         -2    1    1    2    0  503  0.22044092864E+02 -0.15686802011E+02  0.23666665655E+02  0.35946193829E+02  0.00000000000E+00 0. -1.
</event>
<event>
 4    1  0.1776638E+004  0.6758597E+02  0.7546771E-02  0.1236030E+00
         21   -1    0    0  503  502  0.00000000000E+00  0.00000000000E+00  0.33963557289E+03  0.33963557289E+03  0.00000000000E+00 0.  1.
         21   -1    0    0  501  503 -0.00000000000E+00 -0.00000000000E+00 -0.13494681780E+02  0.13494681780E+02  0.00000000000E+00 0. -1.
          2    1    1    2  501    0  0.42311741062E+02 -0.52702745496E+02  0.15283198350E+03  0.16710917987E+03  0.00000000000E+00 0. -1.
         -2    1    1    2    0  502 -0.42311741062E+02  0.52702745496E+02  0.17330890760E+03  0.18602107480E+03  0.00000000000E+00 0.  1.
</event>
<event>
 4    1  0.1776638E+004  0.2900822E+02  0.7546771E-02  0.1428415E+00
         21   -1    0    0  503  502  0.00000000000E+00  0.00000000000E+00  0.31868453419E+03  0.31868453419E+03  0.00000000000E+00 0.  1.
         21   -1    0    0  501  503 -0.00000000000E+00 -0.00000000000E+00 -0.87730845567E+01  0.87730845567E+01  0.00000000000E+00 0. -1.
          2    1    1    2  501    0 -0.28946338051E+02  0.18938271843E+01  0.18065710802E+02  0.34173776126E+02  0.00000000000E+00 0. -1.
         -2    1    1    2    0  502  0.28946338051E+02 -0.18938271843E+01  0.29184573884E+03  0.29328384263E+03  0.00000000000E+00 0.  1.
</event>
<event>
 4    1  0.1776638E+004  0.2610535E+02  0.7546771E-02  0.1456808E+00
         21   -1    0    0  501  502  0.00000000000E+00  0.00000000000E+00  0.10420921027E+03  0.10420921027E+03  0.00000000000E+00 0. -1.
         21   -1    0    0  502  503 -0.00000000000E+00 -0.00000000000E+00 -0.12227205524E+02  0.12227205524E+02  0.00000000000E+00 0.  1.
          2    1    1    2  501    0 -0.25504730886E+02  0.55675837306E+01  0.85697260202E+02  0.89585209115E+02  0.00000000000E+00 0. -1.
         -2    1    1    2    0  503  0.25504730886E+02 -0.55675837306E+01  0.62847445455E+01  0.26851206680E+02  0.00000000000E+00 0.  1.
</event>
<event>
 4    1  0.1776638E+004  0.2535684E+02  0.7546771E-02  0.1464851E+00
         21   -1    0    0  501  502  0.00000000000E+00  0.00000000000E+00  0.20684977744E+02  0.20684977744E+02  0.00000000000E+00 0. -1.
         21   -1    0    0  502  503 -0.00000000000E+00 -0.00000000000E+00 -0.68328185589E+02  0.68328185589E+02  0.00000000000E+00 0.  1.
          2    1    1    2  501    0  0.22996634605E+02 -0.10682893650E+02  0.90373868769E+01  0.26919208411E+02  0.00000000000E+00 0. -1.
         -2    1    1    2    0  503 -0.22996634605E+02  0.10682893650E+02 -0.56680594722E+02  0.62093954922E+02  0.00000000000E+00 0.  1.
</event>
<event>
 4    1  0.1776638E+004  0.4088327E+02  0.7546771E-02  0.1343386E+00
         21   -1    0    0  503  502  0.00000000000E+00  0.00000000000E+00  0.26365123114E+03  0.26365123114E+03  0.00000000000E+00 0. -1.
         21   -1    0    0  501  503 -0.00000000000E+00 -0.00000000000E+00 -0.63728774782E+01  0.63728774782E+01  0.00000000000E+00 0.  1.
          2    1    1    2  501    0 -0.38991288960E+01 -0.40696915027E+02  0.11888230046E+03  0.12571572479E+03  0.00000000000E+00 0. -1.
         -2    1    1    2    0  502  0.38991288960E+01  0.40696915027E+02  0.13839605320E+03  0.14430838382E+03  0.00000000000E+00 0.  1.
</event>
<event>
 4    1  0.1776638E+004  0.2071735E+02  0.7546771E-02  0.1523339E+00
         21   -1    0    0  501  502  0.00000000000E+00  0.00000000000E+00  0.69505434676E+01  0.69505434676E+01  0.00000000000E+00 0. -1.
         21   -1    0    0  502  503 -0.00000000000E+00 -0.00000000000E+00 -0.61779272782E+02  0.61779272782E+02  0.00000000000E+00 0.  1.
          2    1    1    2  501    0 -0.14142938893E+02 -0.15138879928E+02 -0.26689375268E+02  0.33786552920E+02  0.00000000000E+00 0. -1.
         -2    1    1    2    0  503  0.14142938893E+02  0.15138879928E+02 -0.28139354046E+02  0.34943263329E+02  0.00000000000E+00 0.  1.
</event>
<event>
 4    1  0.1776638E+004  0.2113599E+02  0.7546771E-02  0.1517332E+00
         21   -1    0    0  503  502  0.00000000000E+00  0.00000000000E+00  0.11707126142E+03  0.11707126142E+03  0.00000000000E+00 0. -1.
         21   -1    0    0  501  503 -0.00000000000E+00 -0.00000000000E+00 -0.45690340307E+01  0.45690340307E+01  0.00000000000E+00 0.  1.
          2    1    1    2  501    0  0.16376453253E+02 -0.13361962047E+02  0.31557976147E+02  0.37982049831E+02  0.00000000000E+00 0. -1.
         -2    1    1    2    0  502 -0.16376453253E+02  0.13361962047E+02  0.80944251245E+02  0.83658245622E+02  0.00000000000E+00 0.  1.
</event>
<event>
 4    1  0.1776638E+004  0.3028543E+02  0.7546771E-02  0.1417132E+00
         21   -1    0    0  501  502  0.00000000000E+00  0.00000000000E+00  0.78972270067E+01  0.78972270067E+01  0.00000000000E+00 0. -1.
         21   -1    0    0  502  503 -0.00000000000E+00 -0.00000000000E+00 -0.21038458521E+03  0.21038458521E+03  0.00000000000E+00 0.  1.
          2    1    1    2  501    0  0.25549249778E+02 -0.16261708508E+02 -0.28196747402E+02  0.41379510532E+02  0.00000000000E+00 0. -1.
         -2    1    1    2    0  503 -0.25549249778E+02  0.16261708508E+02 -0.17429061080E+03  0.17690230168E+03  0.00000000000E+00 0.  1.
</event>
<event>
 4    1  0.1776638E+004  0.3257953E+02  0.7546771E-02  0.1398428E+00
         21   -1    0    0  503  502  0.00000000000E+00  0.00000000000E+00  0.71851827749E+02  0.71851827749E+02  0.00000000000E+00 0. -1.
         21   -1    0    0  501  503 -0.00000000000E+00 -0.00000000000E+00 -0.17817472908E+02  0.17817472908E+02  0.00000000000E+00 0.  1.
          2    1    1    2  501    0 -0.14684347666E+02  0.29082562106E+02  0.84823712818E+01  0.33665651747E+02  0.00000000000E+00 0.  1.
         -2    1    1    2    0  502  0.14684347666E+02 -0.29082562106E+02  0.45551983559E+02  0.56003648909E+02  0.00000000000E+00 0. -1.
</event>
<event>
 4    1  0.1776638E+004  0.2263397E+02  0.7546771E-02  0.1497146E+00
         21   -1    0    0  501  502  0.00000000000E+00  0.00000000000E+00  0.77385189398E+02  0.77385189398E+02  0.00000000000E+00 0. -1.
         21   -1    0    0  502  503 -0.00000000000E+00 -0.00000000000E+00 -0.17265997352E+02  0.17265997352E+02  0.00000000000E+00 0.  1.
          2    1    1    2  501    0  0.12932732530E+02  0.18575277572E+02  0.67220963112E+02  0.70929220983E+02  0.00000000000E+00 0. -1.
         -2    1    1    2    0  503 -0.12932732530E+02 -0.18575277572E+02 -0.71017710664E+01  0.23721965767E+02  0.00000000000E+00 0.  1.
</event>
<event>
 4    1  0.1776638E+004  0.4374934E+02  0.7546771E-02  0.1327813E+00
         21   -1    0    0  503  502  0.00000000000E+00  0.00000000000E+00  0.41061058883E+02  0.41061058883E+02  0.00000000000E+00 0. -1.
         21   -1    0    0  501  503 -0.00000000000E+00 -0.00000000000E+00 -0.50845181525E+02  0.50845181525E+02  0.00000000000E+00 0.  1.
          2    1    1    2  501    0 -0.15219318312E+02 -0.41016792923E+02 -0.18148900538E+02  0.47364412192E+02  0.00000000000E+00 0.  1.
         -2    1    1    2    0  502  0.15219318312E+02  0.41016792923E+02  0.83647778963E+01  0.44541828216E+02  0.00000000000E+00 0. -1.
</event>
<event>
 4    1  0.1776638E+004  0.2170725E+02  0.7546771E-02  0.1509402E+00
         21   -1    0    0  503  502  0.00000000000E+00  0.00000000000E+00  0.28876733939E+02  0.28876733939E+02  0.00000000000E+00 0.  1.
         21   -1    0    0  501  503 -0.00000000000E+00 -0.00000000000E+00 -0.18265057529E+02  0.18265057529E+02  0.00000000000E+00 0. -1.
          2    1    1    2  501    0 -0.14713249174E+02  0.15960105922E+02  0.13002060363E+02  0.25303324998E+02  0.00000000000E+00 0.  1.
         -2    1    1    2    0  502  0.14713249174E+02 -0.15960105922E+02 -0.23903839534E+01  0.21838466469E+02  0.00000000000E+00 0. -1.
</event>
<event>
 4    1  0.1776638E+004  0.2494722E+02  0.7546771E-02  0.1469395E+00
         21   -1    0    0  501  502  0.00000000000E+00  0.00000000000E+00  0.33139428602E+02  0.33139428602E+02  0.00000000000E+00 0. -1.
         21   -1    0    0  502  503 -0.00000000000E+00 -0.00000000000E+00 -0.86255981853E+02  0.86255981853E+02  0.00000000000E+00 0.  1.
          2    1    1    2  501    0 -0.24876484727E+02 -0.18773520949E+01  0.26242109737E+02  0.36207903374E+02  0.00000000000E+00 0. -1.
         -2    1    1    2    0  503  0.24876484727E+02  0.18773520949E+01 -0.79358662988E+02  0.83187507082E+02  0.00000000000E+00 0.  1.
</event>
<event>
 4    1  0.1776638E+004  0.3390279E+02  0.7546771E-02  0.1388445E+00
         21   -1    0    0  501  502  0.00000000000E+00  0.00000000000E+00  0.40557380678E+02  0.40557380678E+02  0.00000000000E+00 0.  1.
         21   -1    0    0  502  503 -0.00000000000E+00 -0.00000000000E+00 -0.23593876865E+03  0.23593876865E+03  0.00000000000E+00 0. -1.
          2    1    1    2  501    0 -0.22535923429E+02  0.25328467903E+02  0.31988931520E+02  0.46612132229E+02  0.00000000000E+00 0.  1.
         -2    1    1    2    0  503  0.22535923429E+02 -0.25328467903E+02 -0.22737031950E+03  0.22988401710E+03  0.00000000000E+00 0. -1.
</event>
<event>
 4    1  0.1776638E+004  0.2025012E+02  0.7546771E-02  0.1530246E+00
         21   -1    0    0  503  502  0.00000000000E+00  0.00000000000E+00  0.61248811915E+00  0.61248811915E+00  0.00000000000E+00 0.  1.
         21   -1    0    0  501  503 -0.00000000000E+00 -0.00000000000E+00 -0.71890634342E+03  0.71890634342E+03  0.00000000000E+00 0. -1.
          2    1    1    2  501    0 -0.11788952722E+02  0.16464753392E+02 -0.45344855303E+03  0.45390049323E+03  0.00000000000E+00 0. -1.
         -2    1    1    2    0  502  0.11788952722E+02 -0.16464753392E+02 -0.26484530227E+03  0.26561833831E+03  0.00000000000E+00 0.  1.
</event>
<event>
 4    1  0.1776638E+004  0.2323202E+02  0.7546771E-02  0.1489605E+00
         21   -1    0    0  503  502  0.00000000000E+00  0.00000000000E+00  0.31339692764E+02  0.31339692764E+02  0.00000000000E+00 0.  1.
         21   -1    0    0  501  503 -0.00000000000E+00 -0.00000000000E+00 -0.10424197183E+03  0.10424197183E+03  0.00000000000E+00 0. -1.
          2    1    1    2  501    0 -0.23153187104E+02 -0.19121855662E+01 -0.98389481722E+02  0.10109508712E+03  0.00000000000E+00 0. -1.
         -2    1    1    2    0  502  0.23153187104E+02  0.19121855662E+01  0.25487202655E+02  0.34486577474E+02  0.00000000000E+00 0.  1.
</event>
<event>
 4    1  0.1776638E+004  0.3623302E+02  0.7546771E-02  0.1372096E+00
         21   -1    0    0  503  502  0.00000000000E+00  0.00000000000E+00  0.28355967717E+02  0.28355967717E+02  0.00000000000E+00 0.  1.
         21   -1    0    0  501  503 -0.00000000000E+00 -0.00000000000E+00 -0.19240718252E+03  0.19240718252E+03  0.00000000000E+00 0. -1.
          2    1    1    2  501    0  0.15931723948E+02 -0.32542465658E+02 -0.17821436593E+03  0.18186036435E+03  0.00000000000E+00 0. -1.
         -2    1    1    2    0  502 -0.15931723948E+02  0.32542465658E+02  0.14163151132E+02  0.38902785878E+02  0.00000000000E+00 0.  1.
</event>
<event>
 4    1  0.1776638E+004  0.2153912E+02  0.7546771E-02  0.1511705E+00
         21   -1    0    0  501  502  0.00000000000E+00  0.00000000000E+00  0.50454924328E+01  0.50454924328E+01  0.00000000000E+00 0. -1.
         21   -1    0    0  502  503 -0.00000000000E+00 -0.00000000000E+00 -0.96452493201E+02  0.96452493201E+02  0.00000000000E+00 0.  1.
          2    1    1    2  501    0  0.16890564721E+02  0.13365728243E+02 -0.56668009994E+02  0.60623404926E+02  0.00000000000E+00 0. -1.
         -2    1    1    2    0  503 -0.16890564721E+02 -0.13365728243E+02 -0.34738990774E+02  0.40874580708E+02  0.00000000000E+00 0.  1.
</event>
<event>
 4    1  0.1776638E+004  0.2012479E+02  0.7546771E-02  0.1532137E+00
         21   -1    0    0  503  502  0.00000000000E+00  0.00000000000E+00  0.41806033647E+03  0.41806033647E+03  0.00000000000E+00 0. -1.
         21   -1    0    0  501  503 -0.00000000000E+00 -0.00000000000E+00 -0.37094374092E+01  0.37094374092E+01  0.00000000000E+00 0.  1.
          2    1    1    2  501    0  0.15605787196E+02  0.12706942447E+02  0.25908304166E+02  0.32806206807E+02  0.00000000000E+00 0.  1.
         -2    1    1    2    0  502 -0.15605787196E+02 -0.12706942447E+02  0.38844259490E+03  0.38896356708E+03  0.00000000000E+00 0. -1.
</event>
<event>
 4    1  0.1776638E+004  0.2371773E+02  0.7546771E-02  0.1483677E+00
         21   -1    0    0  503  502  0.00000000000E+00  0.00000000000E+00  0.20779311894E+03  0.20779311894E+03  0.00000000000E+00 0. -1.
         21   -1    0    0  501  503 -0.00000000000E+00 -0.00000000000E+00 -0.60177337749E+01  0.60177337749E+01  0.00000000000E+00 0.  1.
          2    1    1    2  501    0  0.22065137706E+02 -0.86982888554E+01  0.21594758946E+02  0.32075912223E+02  0.00000000000E+00 0.  1.
         -2    1    1    2    0  502 -0.22065137706E+02  0.86982888554E+01  0.18018062622E+03  0.18173494049E+03  0.00000000000E+00 0. -1.
</event>
<event>
 4    1  0.1776638E+004  0.2223026E+02  0.7546771E-02  0.1502397E+00
         21   -1    0    0  503  502  0.00000000000E+00  0.00000000000E+00  0.56025475309E+02  0.56025475309E+02  0.00000000000E+00 0. -1.
         21   -1    0    0  501  503 -0.00000000000E+00 -0.00000000000E+00 -0.12632758587E+02  0.12632758587E+02  0.00000000000E+00 0.  1.
          2    1    1    2  501    0  0.35771822698E+01  0.21940564861E+02  0.40554226549E+02  0.46247485450E+02  0.00000000000E+00 0. -1.
         -2    1    1    2    0  502 -0.35771822698E+01 -0.21940564861E+02  0.28384901725E+01  0.22410748445E+02  0.00000000000E+00 0.  1.
</event>
<event>
 4    1  0.1776638E+004  0.2230806E+02  0.7546771E-02  0.1501375E+00
         21   -1    0    0  503  502  0.00000000000E+00  0.00000000000E+00  0.69758748409E+01  0.69758748409E+01  0.00000000000E+00 0. -1.
         21   -1    0    0  501  503 -0.00000000000E+00 -0.00000000000E+00 -0.73880681679E+02  0.73880681679E+02  0.00000000000E+00 0.  1.
          2    1    1    2  501    0  0.22302468917E+02  0.49953651372E+00 -0.40951488568E+02  0.46633400825E+02  0.00000000000E+00 0. -1.
         -2    1    1    2    0  502 -0.22302468917E+02 -0.49953651372E+00 -0.25953318270E+02  0.34223155695E+02  0.00000000000E+00 0.  1.
</event>
<event>
 4    1  0.1776638E+004  0.2232682E+02  0.7546771E-02  0.1501129E+00
         21   -1    0    0  501  502  0.00000000000E+00  0.00000000000E+00  0.10389166328E+04  0.10389166328E+04  0.00000000000E+00 0.  1.
         21   -1    0    0  502  503 -0.00000000000E+00 -0.00000000000E+00 -0.94038961602E+00  0.94038961602E+00  0.00000000000E+00 0. -1.
          2    1    1    2  501    0  0.21266366855E+02  0.67991565999E+01  0.88285299022E+03  0.88313526101E+03  0.00000000000E+00 0.  1.
         -2    1    1    2    0  503 -0.21266366855E+02 -0.67991565999E+01  0.15512325295E+03  0.15672176140E+03  0.00000000000E+00 0. -1.
</event>
<event>
 4    1  0.1776638E+004  0.3613891E+02  0.7546771E-02  0.1372728E+00
         21   -1    0    0  503  502  0.00000000000E+00  0.00000000000E+00  0.10778099609E+03  0.10778099609E+03  0.00000000000E+00 0.  1.
         21   -1    0    0  501  503 -0.00000000000E+00 -0.00000000000E+00 -0.14410614978E+02  0.14410614978E+02  0.00000000000E+00 0. -1.
          2    1    1    2  501    0  0.10159481270E+02 -0.34681492904E+02  0.22312896090E+02  0.42472183151E+02  0.00000000000E+00 0. -1.
         -2    1    1    2    0  502 -0.10159481270E+02  0.34681492904E+02  0.71057485023E+02  0.79719427917E+02  0.00000000000E+00 0.  1.
</event>
<event>
 4    1  0.1776638E+004  0.2911782E+02  0.7546771E-02  0.1427421E+00
         21   -1    0    0  503  502  0.00000000000E+00  0.00000000000E+00  0.88249023143E+02  0.88249023143E+02  0.00000000000E+00 0. -1.
         21   -1    0    0  501  503 -0.00000000000E+00 -0.00000000000E+00 -0.98291556746E+01  0.98291556746E+01  0.00000000000E+00 0.  1.
          2    1    1    2  501    0 -0.19408616231E+02  0.21706062512E+02  0.46575035101E+02  0.54927965814E+02  0.00000000000E+00 0. -1.
         -2    1    1    2    0  502  0.19408616231E+02 -0.21706062512E+02  0.31844832368E+02  0.43150213004E+02  0.00000000000E+00 0.  1.
</event>
<event>
 4    1  0.1776638E+004  0.2960182E+02  0.7546771E-02  0.1423089E+00
         21   -1    0    0  503  502  0.00000000000E+00  0.00000000000E+00  0.11265119484E+03  0.11265119484E+03  0.00000000000E+00 0. -1.
         21   -1    0    0  501  503 -0.00000000000E+00 -0.00000000000E+00 -0.15526730624E+02  0.15526730624E+02  0.00000000000E+00 0.  1.
          2    1    1    2  501    0  0.21510263459E+02  0.20336577112E+02  0.32889588866E+01  0.29783973094E+02  0.00000000000E+00 0.  1.
         -2    1    1    2    0  502 -0.21510263459E+02 -0.20336577112E+02  0.93835505331E+02  0.98393952373E+02  0.00000000000E+00 0. -1.
</event>
<event>
 4    1  0.1776638E+004  0.2084906E+02  0.7546771E-02  0.1521431E+00
         21   -1    0    0  501  502  0.00000000000E+00  0.00000000000E+00  0.47189505659E+03  0.47189505659E+03  0.00000000000E+00 0. -1.
         21   -1    0    0  502  503 -0.00000000000E+00 -0.00000000000E+00 -0.11495917361E+01  0.11495917361E+01  0.00000000000E+00 0.  1.
          2    1    1    2  501    0 -0.74034734579E+01  0.19490297759E+02  0.12993547491E+03  0.13159753329E+03  0.00000000000E+00 0.  1.
         -2    1    1    2    0  503  0.74034734579E+01 -0.19490297759E+02  0.34080998994E+03  0.34144711504E+03  0.00000000000E+00 0. -1.
</event>
<event>
 4    1  0.1776638E+004  0.2088742E+02  0.7546771E-02  0.1520878E+00
         21   -1    0    0  503  502  0.00000000000E+00  0.00000000000E+00  0.15064356203E+03  0.15064356203E+03  0.00000000000E+00 0. -1.
         21   -1    0    0  501  503 -0.00000000000E+00 -0.00000000000E+00 -0.39610453718E+01  0.39610453718E+01  0.00000000000E+00 0.  1.
          2    1    1    2  501    0  0.43409316558E+01  0.20431366532E+02  0.33259791644E+02  0.39274650428E+02  0.00000000000E+00 0.  1.
         -2    1    1    2    0  502 -0.43409316558E+01 -0.20431366532E+02  0.11342272501E+03  0.11532995697E+03  0.00000000000E+00 0. -1.
</event>
<event>
 4    1  0.1776638E+004  0.2066655E+02  0.7546771E-02  0.1524079E+00
         21   -1    0    0  503  502  0.00000000000E+00  0.00000000000E+00  0.22846802716E+01  0.22846802716E+01  0.00000000000E+00 0. -1.
         21   -1    0    0  501  503 -0.00000000000E+00 -0.00000000000E+00 -0.32341209239E+03  0.32341209239E+03  0.00000000000E+00 0.  1.
          2    1    1    2  501    0  0.69251566088E+01  0.19471736302E+02 -0.26634809006E+03  0.26714866908E+03  0.00000000000E+00 0.  1.
         -2    1    1    2    0  502 -0.69251566088E+01 -0.19471736302E+02 -0.54779322055E+02  0.58548103585E+02  0.00000000000E+00 0. -1.
</event>
<event>
 4    1  0.1776638E+004  0.3564682E+02  0.7546771E-02  0.1376072E+00
         21   -1    0    0  501  502  0.00000000000E+00  0.00000000000E+00  0.80782774057E+03  0.80782774057E+03  0.00000000000E+00 0.  1.
         21   -1    0    0  502  503 -0.00000000000E+00 -0.00000000000E+00 -0.15917049385E+01  0.15917049385E+01  0.00000000000E+00 0. -1.
          2    1    1    2  501    0 -0.31621292730E+02 -0.16455679044E+02  0.35922029684E+03  0.36098464952E+03  0.00000000000E+00 0. -1.
         -2    1    1    2    0  503  0.31621292730E+02  0.16455679044E+02  0.44701573879E+03  0.44843479599E+03  0.00000000000E+00 0.  1.
</event>
<event>
 4    1  0.1776638E+004  0.3553731E+02  0.7546771E-02  0.1376825E+00
         21   -1    0    0  503  502  0.00000000000E+00  0.00000000000E+00  0.38178468221E+01  0.38178468221E+01  0.00000000000E+00 0.  1.
         21   -1    0    0  501  503 -0.00000000000E+00 -0.00000000000E+00 -0.52270279512E+03  0.52270279512E+03  0.00000000000E+00 0. -1.
          2    1    1    2  501    0  0.26399627488E+02  0.23789920828E+02 -0.41896110322E+03  0.42046558323E+03  0.00000000000E+00 0. -1.
         -2    1    1    2    0  502 -0.26399627488E+02 -0.23789920828E+02 -0.99923845074E+02  0.10605505871E+03  0.00000000000E+00 0.  1.
</event>
<event>
 4    1  0.1776638E+004  0.2364665E+02  0.7546771E-02  0.1484534E+00
         21   -1    0    0  501  502  0.00000000000E+00  0.00000000000E+00  0.88468561344E+02  0.88468561344E+02  0.00000000000E+00 0.  1.
         21   -1    0    0  502  503 -0.00000000000E+00 -0.00000000000E+00 -0.81494689327E+01  0.81494689327E+01  0.00000000000E+00 0. -1.
          2    1    1    2  501    0  0.35277661884E+01  0.23382019114E+02  0.63045490016E+02  0.67334224310E+02  0.00000000000E+00 0.  1.
         -2    1    1    2    0  503 -0.35277661884E+01 -0.23382019114E+02  0.17273602395E+02  0.29283805966E+02  0.00000000000E+00 0. -1.
</event>
<event>
 4    1  0.1776638E+004  0.2000259E+02  0.7546771E-02  0.1533996E+00
         21   -1    0    0  501  502  0.00000000000E+00  0.00000000000E+00  0.21636892583E+01  0.21636892583E+01  0.00000000000E+00 0. -1.
         21   -1    0    0  502  503 -0.00000000000E+00 -0.00000000000E+00 -0.18731818087E+03  0.18731818087E+03  0.00000000000E+00 0.  1.
          2    1    1    2  501    0 -0.14955342936E+02  0.13283122478E+02 -0.10330307657E+03  0.10522180979E+03  0.00000000000E+00 0.  1.
         -2    1    1    2    0  503  0.14955342936E+02 -0.13283122478E+02 -0.81851415035E+02  0.84260060339E+02  0.00000000000E+00 0. -1.
</event>
<event>
 4    1  0.1776638E+004  0.2270166E+02  0.7546771E-02  0.1496279E+00
         21   -1    0    0  503  502  0.00000000000E+00  0.00000000000E+00  0.11139613676E+02  0.11139613676E+02  0.00000000000E+00 0.  1.
         21   -1    0    0  501  503 -0.00000000000E+00 -0.00000000000E+00 -0.12116333038E+03  0.12116333038E+03  0.00000000000E+00 0. -1.
          2    1    1    2  501    0 -0.14250103060E+02 -0.17672011138E+02 -0.10702250739E+03  0.10940375909E+03  0.00000000000E+00 0. -1.
         -2    1    1    2    0  502  0.14250103060E+02  0.17672011138E+02 -0.30012093164E+01  0.22899184969E+02  0.00000000000E+00 0.  1.
</event>
<event>
 4    1  0.1776638E+004  0.3368226E+02  0.7546771E-02  0.1390072E+00
         21   -1    0    0  501  502  0.00000000000E+00  0.00000000000E+00  0.22770049540E+02  0.22770049540E+02  0.00000000000E+00 0.  1.
         21   -1    0    0  502  503 -0.00000000000E+00 -0.00000000000E+00 -0.75793934835E+02  0.75793934835E+02  0.00000000000E+00 0. -1.
          2    1    1    2  501    0  0.21719401975E+02  0.25744173089E+02  0.23354447727E+01  0.33763133334E+02  0.00000000000E+00 0.  1.
         -2    1    1    2    0  503 -0.21719401975E+02 -0.25744173089E+02 -0.55359330067E+02  0.64800851042E+02  0.00000000000E+00 0. -1.
</event>
<event>
 4    1  0.1776638E+004  0.2485827E+02  0.7546771E-02  0.1470395E+00
         21   -1    0    0  501  502  0.00000000000E+00  0.00000000000E+00  0.99767959152E+01  0.99767959152E+01  0.00000000000E+00 0.  1.
         21   -1    0    0  502  503 -0.00000000000E+00 -0.00000000000E+00 -0.76286577084E+02  0.76286577084E+02  0.00000000000E+00 0. -1.
          2    1    1    2  501    0  0.22494092381E+02 -0.10580620521E+02 -0.14448476665E+02  0.28752255574E+02  0.00000000000E+00 0.  1.
         -2    1    1    2    0  503 -0.22494092381E+02  0.10580620521E+02 -0.51861304504E+02  0.57511117425E+02  0.00000000000E+00 0. -1.
</event>
<event>
 4    1  0.1776638E+004  0.2019848E+02  0.7546771E-02  0.1531023E+00
         21   -1    0    0  501  502  0.00000000000E+00  0.00000000000E+00  0.12929126025E+04  0.12929126025E+04  0.00000000000E+00 0.  1.
         21   -1    0    0  502  503 -0.00000000000E+00 -0.00000000000E+00 -0.11224702318E+01  0.11224702318E+01  0.00000000000E+00 0. -1.
          2    1    1    2  501    0  0.11293880487E+02  0.16745946482E+02  0.11944801073E+04  0.11946508717E+04  0.00000000000E+00 0.  1.
         -2    1    1    2    0  503 -0.11293880487E+02 -0.16745946482E+02  0.97310024917E+02  0.99384201005E+02  0.00000000000E+00 0. -1.
</event>
<event>
 4    1  0.1776638E+004  0.5277192E+02  0.7546771E-02  0.1286582E+00
         21   -1    0    0  503  502  0.00000000000E+00  0.00000000000E+00  0.21351634272E+02  0.21351634272E+02  0.00000000000E+00 0. -1.
         21   -1    0    0  501  503 -0.00000000000E+00 -0.00000000000E+00 -0.15979721446E+03  0.15979721446E+03  0.00000000000E+00 0.  1.
          2    1    1    2  501    0 -0.33648323596E+02  0.40652997586E+02 -0.10805199606E+03  0.12025019645E+03  0.00000000000E+00 0.  1.
         -2    1    1    2    0  502  0.33648323596E+02 -0.40652997586E+02 -0.30393584124E+02  0.60898652279E+02  0.00000000000E+00 0. -1.
</event>
<event>
 4    1  0.1776638E+004  0.3661237E+02  0.7546771E-02  0.1369569E+00
         21   -1    0    0  501  502  0.00000000000E+00  0.00000000000E+00  0.77291220645E+02  0.77291220645E+02  0.00000000000E+00 0. -1.
         21   -1    0    0  502  503 -0.00000000000E+00 -0.00000000000E+00 -0.17609257048E+02  0.17609257048E+02  0.00000000000E+00 0.  1.
          2    1    1    2  501    0 -0.15609324662E+02  0.33118191854E+02  0.35675112334E+02  0.51119265333E+02  0.00000000000E+00 0. -1.
         -2    1    1    2    0  503  0.15609324662E+02 -0.33118191854E+02  0.24006851264E+02  0.43781212360E+02  0.00000000000E+00 0.  1.
</event>
<event>
 4    1  0.1776638E+004  0.2528127E+02  0.7546771E-02  0.1465681E+00
         21   -1    0    0  501  502  0.00000000000E+00  0.00000000000E+00  0.63029520251E+01  0.63029520251E+01  0.00000000000E+00 0.  1.
         21   -1    0    0  502  503 -0.00000000000E+00 -0.00000000000E+00 -0.22413045753E+03  0.22413045753E+03  0.00000000000E+00 0. -1.
          2    1    1    2  501    0  0.56667847046E+01  0.24637978063E+02 -0.23655837297E+02  0.34622840007E+02  0.00000000000E+00 0.  1.
         -2    1    1    2    0  503 -0.56667847046E+01 -0.24637978063E+02 -0.19417166820E+03  0.19581056954E+03  0.00000000000E+00 0. -1.
</event>
<event>
 4    1  0.1776638E+004  0.2291759E+02  0.7546771E-02  0.1493536E+00
         21   -1    0    0  503  502  0.00000000000E+00  0.00000000000E+00  0.37495322122E+01  0.37495322122E+01  0.00000000000E+00 0. -1.
         21   -1    0    0  501  503 -0.00000000000E+00 -0.00000000000E+00 -0.14291192229E+03  0.14291192229E+03  0.00000000000E+00 0.  1.
          2    1    1    2  501    0  0.89274780334E+01 -0.21107256922E+02 -0.79912772068E+02  0.83134032131E+02  0.00000000000E+00 0.  1.
         -2    1    1    2    0  502 -0.89274780334E+01  0.21107256922E+02 -0.59249618012E+02  0.63527422373E+02  0.00000000000E+00 0. -1.
</event>
<event>
 4    1  0.1776638E+004  0.2788662E+02  0.7546771E-02  0.1438900E+00
         21   -1    0    0  503  502  0.00000000000E+00  0.00000000000E+00  0.12901561672E+02  0.12901561672E+02  0.00000000000E+00 0.  1.
         21   -1    0    0  501  503 -0.00000000000E+00 -0.00000000000E+00 -0.39893250485E+03  0.39893250485E+03  0.00000000000E+00 0. -1.
          2    1    1    2  501    0  0.26434875917E+02  0.88803718635E+01 -0.38273927280E+03  0.38375384638E+03  0.00000000000E+00 0. -1.
         -2    1    1    2    0  502 -0.26434875917E+02 -0.88803718635E+01 -0.32916703769E+01  0.28080220139E+02  0.00000000000E+00 0.  1.
</event>
<event>
 4    1  0.1776638E+004  0.3767573E+02  0.7546771E-02  0.1362672E+00
         21   -1    0    0  503  502  0.00000000000E+00  0.00000000000E+00  0.29284366331E+02  0.29284366331E+02  0.00000000000E+00 0. -1.
         21   -1    0    0  501  503 -0.00000000000E+00 -0.00000000000E+00 -0.79713369580E+02  0.79713369580E+02  0.00000000000E+00 0.  1.
          2    1    1    2  501    0 -0.33431913006E+02 -0.17371463095E+02 -0.59332976060E+02  0.70284156005E+02  0.00000000000E+00 0.  1.
         -2    1    1    2    0  502  0.33431913006E+02  0.17371463095E+02  0.89039728110E+01  0.38713579906E+02  0.00000000000E+00 0. -1.
</event>
<event>
 4    1  0.1776638E+004  0.2121626E+02  0.7546771E-02  0.1516200E+00
         21   -1    0    0  503  502  0.00000000000E+00  0.00000000000E+00  0.28361907883E+01  0.28361907883E+01  0.00000000000E+00 0.  1.
         21   -1    0    0  501  503 -0.00000000000E+00 -0.00000000000E+00 -0.20667733122E+03  0.20667733122E+03  0.00000000000E+00 0. -1.
          2    1    1    2  501    0 -0.55630130015E+00 -0.21208960924E+02 -0.15238811314E+03  0.15385794266E+03  0.00000000000E+00 0.  1.
         -2    1    1    2    0  502  0.55630130015E+00  0.21208960924E+02 -0.51453027294E+02  0.55655579346E+02  0.00000000000E+00 0. -1.
</event>
<event>
 4    1  0.1776638E+004  0.4023306E+02  0.7546771E-02  0.1347125E+00
         21   -1    0    0  503  502  0.00000000000E+00  0.00000000000E+00  0.22773762812E+02  0.22773762812E+02  0.00000000000E+00 0.  1.
         21   -1    0    0  501  503 -0.00000000000E+00 -0.00000000000E+00 -0.73971383151E+02  0.73971383151E+02  0.00000000000E+00 0. -1.
          2    1    1    2  501    0 -0.27904428208E+02  0.28983472184E+02 -0.35166759381E+02  0.53435940516E+02  0.00000000000E+00 0. -1.
         -2    1    1    2    0  502  0.27904428208E+02 -0.28983472184E+02 -0.16030860958E+02  0.43309205448E+02  0.00000000000E+00 0.  1.
</event>
<event>
 4    1  0.1776638E+004  0.2026522E+02  0.7546771E-02  0.1530019E+00
         21   -1    0    0  503  502  0.00000000000E+00  0.00000000000E+00  0.39525511417E+01  0.39525511417E+01  0.00000000000E+00 0.  1.
         21   -1    0    0  501  503 -0.00000000000E+00 -0.00000000000E+00 -0.22202216508E+03  0.22202216508E+03  0.00000000000E+00 0. -1.
          2    1    1    2  501    0 -0.14680836260E+02  0.13969685947E+02 -0.19144732687E+03  0.19251690327E+03  0.00000000000E+00 0. -1.
         -2    1    1    2    0  502  0.14680836260E+02 -0.13969685947E+02 -0.26622287064E+02  0.33457812948E+02  0.00000000000E+00 0.  1.
</event>
<event>
 4    1  0.1776638E+004  0.2570001E+02  0.7546771E-02  0.1461123E+00
         21   -1    0    0  501  502  0.00000000000E+00  0.00000000000E+00  0.10169158354E+02  0.10169158354E+02  0.00000000000E+00 0.  1.
         21   -1    0    0  502  503 -0.00000000000E+00 -0.00000000000E+00 -0.10723355299E+03  0.10723355299E+03  0.00000000000E+00 0. -1.
          2    1    1    2  501    0  0.15289271615E+02  0.20657406876E+02 -0.11671225810E+02  0.28226012776E+02  0.00000000000E+00 0.  1.
         -2    1    1    2    0  503 -0.15289271615E+02 -0.20657406876E+02 -0.85393168824E+02  0.89176698566E+02  0.00000000000E+00 0. -1.
</event>
<event>
 4    1  0.1776638E+004  0.3639559E+02  0.7546771E-02  0.1371009E+00
         21   -1    0    0  501  502  0.00000000000E+00  0.00000000000E+00  0.13802399539E+04  0.13802399539E+04  0.00000000000E+00 0.  1.
         21   -1    0    0  502  503 -0.00000000000E+00 -0.00000000000E+00 -0.17729193459E+01  0.17729193459E+01  0.00000000000E+00 0. -1.
          2    1    1    2  501    0 -0.23630680779E+02  0.27680853460E+02  0.11572240990E+04  0.11577962921E+04  0.00000000000E+00 0.  1.
         -2    1    1    2    0  503  0.23630680779E+02 -0.27680853460E+02  0.22124293549E+03  0.22421658107E+03  0.00000000000E+00 0. -1.
</event>
<event>
 4    1  0.1776638E+004  0.8475676E+02  0.7546771E-02  0.1193215E+00
         21   -1    0    0  503  502  0.00000000000E+00  0.00000000000E+00  0.34009852174E+03  0.34009852174E+03  0.00000000000E+00 0. -1.
         21   -1    0    0  501  503 -0.00000000000E+00 -0.00000000000E+00 -0.36332242755E+02  0.36332242755E+02  0.00000000000E+00 0.  1.
          2    1    1    2  501    0  0.14008496444E+02 -0.83591092802E+02  0.30104566927E+02  0.89944392367E+02  0.00000000000E+00 0.  1.
         -2    1    1    2    0  502 -0.14008496444E+02  0.83591092802E+02  0.27366171206E+03  0.28648637213E+03  0.00000000000E+00 0. -1.
</event>
<event>
 4    1  0.1776638E+004  0.2070643E+02  0.7546771E-02  0.1523498E+00
         21   -1    0    0  501  502  0.00000000000E+00  0.00000000000E+00  0.53040956750E+01  0.53040956750E+01  0.00000000000E+00 0. -1.
         21   -1    0    0  502  503 -0.00000000000E+00 -0.00000000000E+00 -0.18902748387E+03  0.18902748387E+03  0.00000000000E+00 0.  1.
          2    1    1    2  501    0  0.10855287045E+01  0.20677958292E+02 -0.18351165516E+02  0.27668061145E+02  0.00000000000E+00 0. -1.
         -2    1    1    2    0  503 -0.10855287045E+01 -0.20677958292E+02 -0.16537222268E+03  0.16666351840E+03  0.00000000000E+00 0.  1.
</event>
<event>
 4    1  0.1776638E+004  0.2947769E+02  0.7546771E-02  0.1424190E+00
         21   -1    0    0  501  502  0.00000000000E+00  0.00000000000E+00  0.11731898102E+01  0.11731898102E+01  0.00000000000E+00 0. -1.
         21   -1    0    0  502  503 -0.00000000000E+00 -0.00000000000E+00 -0.74112740522E+03  0.74112740522E+03  0.00000000000E+00 0.  1.
          2    1    1    2  501    0  0.25562471846E+02  0.14679722253E+02 -0.36065167837E+03  0.36185434545E+03  0.00000000000E+00 0.  1.
         -2    1    1    2    0  503 -0.25562471846E+02 -0.14679722253E+02 -0.37930253704E+03  0.38044624958E+03  0.00000000000E+00 0. -1.
</event>
<event>
 4    1  0.1776638E+004  0.2628200E+02  0.7546771E-02  0.1454957E+00
         21   -1    0    0  501  502  0.00000000000E+00  0.00000000000E+00  0.11304073584E+03  0.11304073584E+03  0.00000000000E+00 0. -1.
         21   -1    0    0  502  503 -0.00000000000E+00 -0.00000000000E+00 -0.65111424411E+01  0.65111424411E+01  0.00000000000E+00 0.  1.
          2    1    1    2  501    0  0.46431806900E+00 -0.26277900502E+02  0.68091234629E+02  0.72987395346E+02  0.00000000000E+00 0. -1.
         -2    1    1    2    0  503 -0.46431806900E+00  0.26277900502E+02  0.38438358768E+02  0.46564482934E+02  0.00000000000E+00 0.  1.
</event>
<event>
 4    1  0.1776638E+004  0.2684185E+02  0.7546771E-02  0.1449203E+00
         21   -1    0    0  501  502  0.00000000000E+00  0.00000000000E+00  0.59544602491E+01  0.59544602491E+01  0.00000000000E+00 0. -1.
         21   -1    0    0  502  503 -0.00000000000E+00 -0.00000000000E+00 -0.48691879809E+03  0.48691879809E+03  0.00000000000E+00 0.  1.
          2    1    1    2  501    0 -0.17269700894E+02  0.20548534417E+02 -0.26848433986E+02  0.37964763178E+02  0.00000000000E+00 0. -1.
         -2    1    1    2    0  503  0.17269700894E+02 -0.20548534417E+02 -0.45411590385E+03  0.45490849516E+03  0.00000000000E+00 0.  1.
</event>
<event>
 4    1  0.1776638E+004  0.2216463E+02  0.7546771E-02  0.1503263E+00
         21   -1    0    0  501  502  0.00000000000E+00  0.00000000000E+00  0.14357379312E+03  0.14357379312E+03  0.00000000000E+00 0.  1.
         21   -1    0    0  502  503 -0.00000000000E+00 -0.00000000000E+00 -0.86280847925E+01  0.86280847925E+01  0.00000000000E+00 0. -1.
          2    1    1    2  501    0  0.16032822284E+02  0.15304234181E+02  0.12658811762E+03  0.12851390002E+03  0.00000000000E+00 0.  1.
         -2    1    1    2    0  503 -0.16032822284E+02 -0.15304234181E+02  0.83575907003E+01  0.23687977891E+02  0.00000000000E+00 0. -1.
</event>
<event>
 4    1  0.1776638E+004  0.2744922E+02  0.7546771E-02  0.1443147E+00
         21   -1    0    0  501  502  0.00000000000E+00  0.00000000000E+00  0.16133868294E+02  0.16133868294E+02  0.00000000000E+00 0.  1.
         21   -1    0    0  502  503 -0.00000000000E+00 -0.00000000000E+00 -0.46706040403E+02  0.46706040403E+02  0.00000000000E+00 0. -1.
          2    1    1    2  501    0 -0.25490026323E+02  0.10184214372E+02 -0.14943779034E+02  0.31253418951E+02  0.00000000000E+00 0. -1.
         -2    1    1    2    0  503  0.25490026323E+02 -0.10184214372E+02 -0.15628393075E+02  0.31586489745E+02  0.00000000000E+00 0.  1.
</event>
<event>
 4    1  0.1776638E+004  0.2004447E+02  0.7546771E-02  0.1533357E+00
         21   -1    0    0  503  502  0.00000000000E+00  0.00000000000E+00  0.80702442779E+02  0.80702442779E+02  0.00000000000E+00 0. -1.
         21   -1    0    0  501  503 -0.00000000000E+00 -0.00000000000E+00 -0.18765007957E+02  0.18765007957E+02  0.00000000000E+00 0.  1.
          2    1    1    2  501    0 -0.12553066747E+02  0.15626945117E+02 -0.11660073434E+02  0.23189183059E+02  0.00000000000E+00 0.  1.
         -2    1    1    2    0  502  0.12553066747E+02 -0.15626945117E+02  0.73597508256E+02  0.76278267678E+02  0.00000000000E+00 0. -1.
</event>
<event>
 4    1  0.1776638E+004  0.2151930E+02  0.7546771E-02  0.1511978E+00
         21   -1    0    0  501  502  0.00000000000E+00  0.00000000000E+00  0.31279060830E+01  0.31279060830E+01  0.00000000000E+00 0.  1.
         21   -1    0    0  502  503 -0.00000000000E+00 -0.00000000000E+00 -0.20490260851E+03  0.20490260851E+03  0.00000000000E+00 0. -1.
          2    1    1    2  501    0  0.14730372587E+01  0.21468820908E+02 -0.46096720553E+02  0.50872269024E+02  0.00000000000E+00 0.  1.
         -2    1    1    2    0  503 -0.14730372587E+01 -0.21468820908E+02 -0.15567798188E+03  0.15715824557E+03  0.00000000000E+00 0. -1.
</event>
<event>
 4    1  0.1776638E+004  0.2162297E+02  0.7546771E-02  0.1510553E+00
         21   -1    0    0  501  502  0.00000000000E+00  0.00000000000E+00  0.70055472343E+03  0.70055472343E+03  0.00000000000E+00 0.  1.
         21   -1    0    0  502  503 -0.00000000000E+00 -0.00000000000E+00 -0.66750008013E+00  0.66750008013E+00  0.00000000000E+00 0. -1.
          2    1    1    2  501    0  0.19282848592E+02 -0.97839044635E+01  0.35414970545E+03  0.35480919789E+03  0.00000000000E+00 0. -1.
         -2    1    1    2    0  503 -0.19282848592E+02  0.97839044635E+01  0.34573751790E+03  0.34641302562E+03  0.00000000000E+00 0.  1.
</event>
<event>
 4    1  0.1776638E+004  0.3519577E+02  0.7546771E-02  0.1379192E+00
         21   -1    0    0  503  502  0.00000000000E+00  0.00000000000E+00  0.36515312527E+03  0.36515312527E+03  0.00000000000E+00 0. -1.
         21   -1    0    0  501  503 -0.00000000000E+00 -0.00000000000E+00 -0.60894644409E+01  0.60894644409E+01  0.00000000000E+00 0.  1.
          2    1    1    2  501    0  0.35096954287E+02 -0.26355600490E+01  0.55998374747E+02  0.66140459262E+02  0.00000000000E+00 0.  1.
         -2    1    1    2    0  502 -0.35096954287E+02  0.26355600490E+01  0.30306528608E+03  0.30510213045E+03  0.00000000000E+00 0. -1.
</event>
<event>
 4    1  0.1776638E+004  0.2443480E+02  0.7546771E-02  0.1475227E+00
         21   -1    0    0  503  502  0.00000000000E+00  0.00000000000E+00  0.10642326269E+03  0.10642326269E+03  0.00000000000E+00 0. -1.
         21   -1    0    0  501  503 -0.00000000000E+00 -0.00000000000E+00 -0.20496701970E+02  0.20496701970E+02  0.00000000000E+00 0.  1.
          2    1    1    2  501    0 -0.24200259054E+02 -0.33774451647E+01 -0.11118845022E+02  0.26845640032E+02  0.00000000000E+00 0.  1.
         -2    1    1    2    0  502  0.24200259054E+02  0.33774451647E+01  0.97045405742E+02  0.10007432463E+03  0.00000000000E+00 0. -1.
</event>
<event>
 4    1  0.1776638E+004  0.3384431E+02  0.7546771E-02  0.1388875E+00
         21   -1    0    0  501  502  0.00000000000E+00  0.00000000000E+00  0.45682291229E+02  0.45682291229E+02  0.00000000000E+00 0. -1.
         21   -1    0    0  502  503 -0.00000000000E+00 -0.00000000000E+00 -0.19428744137E+03  0.19428744137E+03  0.00000000000E+00 0.  1.
          2    1    1    2  501    0 -0.16823192910E+02 -0.29366941620E+02  0.37672549902E+02  0.50642453494E+02  0.00000000000E+00 0. -1.
         -2    1    1    2    0  503  0.16823192910E+02  0.29366941620E+02 -0.18627770004E+03  0.18932727910E+03  0.00000000000E+00 0.  1.
</event>
<event>
 4    1  0.1776638E+004  0.3302683E+02  0.7546771E-02  0.1394992E+00
         21   -1    0    0  503  502  0.00000000000E+00  0.00000000000E+00  0.44522779042E+02  0.44522779042E+02  0.00000000000E+00 0.  1.
         21   -1    0    0  501  503 -0.00000000000E+00 -0.00000000000E+00 -0.28374631304E+02  0.28374631304E+02  0.00000000000E+00 0. -1.
          2    1    1    2  501    0  0.32849391139E+01 -0.32863057083E+02 -0.53962620265E+01  0.33464772368E+02  0.00000000000E+00 0.  1.
         -2    1    1    2    0  502 -0.32849391139E+01  0.32863057083E+02  0.21544409764E+02  0.39432637978E+02  0.00000000000E+00 0. -1.
</event>
<event>
 4    1  0.1776638E+004  0.3127306E+02  0.7546771E-02  0.1408847E+00
         21   -1    0    0  503  502  0.00000000000E+00  0.00000000000E+00  0.34739656923E+03  0.34739656923E+03  0.00000000000E+00 0.  1.
         21   -1    0    0  501  503 -0.00000000000E+00 -0.00000000000E+00 -0.71740324307E+01  0.71740324307E+01  0.00000000000E+00 0. -1.
          2    1    1    2  501    0 -0.27178905138E+02  0.15469696897E+02  0.31922037590E+02  0.44688039681E+02  0.00000000000E+00 0. -1.
         -2    1    1    2    0  502  0.27178905138E+02 -0.15469696897E+02  0.30830049921E+03  0.30988256198E+03  0.00000000000E+00 0.  1.
</event>
<event>
 4    1  0.1776638E+004  0.2469743E+02  0.7546771E-02  0.1472217E+00
         21   -1    0    0  501  502  0.00000000000E+00  0.00000000000E+00  0.86355535172E+03  0.86355535172E+03  0.00000000000E+00 0. -1.
         21   -1    0    0  502  503 -0.00000000000E+00 -0.00000000000E+00 -0.10228592487E+01  0.10228592487E+01  0.00000000000E+00 0.  1.
          2    1    1    2  501    0  0.17864670762E+02  0.17053346443E+02  0.67173956261E+03  0.67219342682E+03  0.00000000000E+00 0. -1.
         -2    1    1    2    0  503 -0.17864670762E+02 -0.17053346443E+02  0.19079292987E+03  0.19238478415E+03  0.00000000000E+00 0.  1.
</event>
<event>
 4    1  0.1776638E+004  0.3077390E+02  0.7546771E-02  0.1412988E+00
         21   -1    0    0  501  502  0.00000000000E+00  0.00000000000E+00  0.12699199209E+03  0.12699199209E+03  0.00000000000E+00 0. -1.
         21   -1    0    0  502  503 -0.00000000000E+00 -0.00000000000E+00 -0.27317320852E+02  0.27317320852E+02  0.00000000000E+00 0.  1.
          2    1    1    2  501    0 -0.11984614396E+02 -0.28344344618E+02  0.11562305196E+03  0.11964833053E+03  0.00000000000E+00 0. -1.
         -2    1    1    2    0  503  0.11984614396E+02  0.28344344618E+02 -0.15948380723E+02  0.34660982411E+02  0.00000000000E+00 0.  1.
</event>
<event>
 4    1  0.1776638E+004  0.7917692E+02  0.7546771E-02  0.1205771E+00
         21   -1    0    0  503  502  0.00000000000E+00  0.00000000000E+00  0.12758452959E+04  0.12758452959E+04  0.00000000000E+00 0. -1.
         21   -1    0    0  501  503 -0.00000000000E+00 -0.00000000000E+00 -0.75793463014E+01  0.75793463014E+01  0.00000000000E+00 0.  1.
          2    1    1    2  501    0 -0.78717003066E+02 -0.85216609041E+01  0.25356307842E+03  0.26563738444E+03  0.00000000000E+00 0.  1.
         -2    1    1    2    0  502  0.78717003066E+02  0.85216609041E+01  0.10147028712E+04  0.10177872578E+04  0.00000000000E+00 0. -1.
</event>
<event>
 4    1  0.1776638E+004  0.3110309E+02  0.7546771E-02  0.1410247E+00
         21   -1    0    0  501  502  0.00000000000E+00  0.00000000000E+00  0.79447049060E+01  0.79447049060E+01  0.00000000000E+00 0. -1.
         21   -1    0    0  502  503 -0.00000000000E+00 -0.00000000000E+00 -0.19008692778E+03  0.19008692778E+03  0.00000000000E+00 0.  1.
          2    1    1    2  501    0  0.23869629267E+02  0.19940995580E+02 -0.31709962734E+02  0.44417611852E+02  0.00000000000E+00 0. -1.
         -2    1    1    2    0  503 -0.23869629267E+02 -0.19940995580E+02 -0.15043226015E+03  0.15361402084E+03  0.00000000000E+00 0.  1.
</event>
<event>
 4    1  0.1776638E+004  0.3163990E+02  0.7546771E-02  0.1405862E+00
         21   -1    0    0  501  502  0.00000000000E+00  0.00000000000E+00  0.31079230825E+01  0.31079230825E+01  0.00000000000E+00 0.  1.
         21   -1    0    0  502  503 -0.00000000000E+00 -0.00000000000E+00 -0.85451312959E+03  0.85451312959E+03  0.00000000000E+00 0. -1.
          2    1    1    2  501    0  0.85447582211E+01  0.30464247071E+02 -0.87226773359E+02  0.92787893787E+02  0.00000000000E+00 0.  1.
         -2    1    1    2    0  503 -0.85447582211E+01 -0.30464247071E+02 -0.76417843315E+03  0.76483315889E+03  0.00000000000E+00 0. -1.
</event>
<event>
 4    1  0.1776638E+004  0.2266103E+02  0.7546771E-02  0.1496799E+00
         21   -1    0    0  501  502  0.00000000000E+00  0.00000000000E+00  0.29935761561E+02  0.29935761561E+02  0.00000000000E+00 0.  1.
         21   -1    0    0  502  503 -0.00000000000E+00 -0.00000000000E+00 -0.54712579027E+02  0.54712579027E+02  0.00000000000E+00 0. -1.
          2    1    1    2  501    0 -0.14928997644E+02 -0.17048387485E+02  0.22678588581E+02  0.32059957369E+02  0.00000000000E+00 0.  1.
         -2    1    1    2    0  503  0.14928997644E+02  0.17048387485E+02 -0.47455406047E+02  0.52588383219E+02  0.00000000000E+00 0. -1.
</event>
<event>
 4    1  0.1776638E+004  0.3342431E+02  0.7546771E-02  0.1391992E+00
         21   -1    0    0  503  502  0.00000000000E+00  0.00000000000E+00  0.27959049438E+03  0.27959049438E+03  0.00000000000E+00 0.  1.
         21   -1    0    0  501  503 -0.00000000000E+00 -0.00000000000E+00 -0.89619397856E+01  0.89619397856E+01  0.00000000000E+00 0. -1.
          2    1    1    2  501    0  0.33363826785E+02 -0.20098208464E+01  0.27914412588E+02  0.43547660646E+02  0.00000000000E+00 0. -1.
         -2    1    1    2    0  502 -0.33363826785E+02  0.20098208464E+01  0.24271414200E+03  0.24500477352E+03  0.00000000000E+00 0.  1.
</event>
<event>
 4    1  0.1776638E+004  0.2613194E+02  0.7546771E-02  0.1456528E+00
         21   -1    0    0  501  502  0.00000000000E+00  0.00000000000E+00  0.88120887761E+01  0.88120887761E+01  0.00000000000E+00 0. -1.
         21   -1    0    0  502  503 -0.00000000000E+00 -0.00000000000E+00 -0.15117630474E+03  0.15117630474E+03  0.00000000000E+00 0.  1.
          2    1    1    2  501    0 -0.11950812366E+02 -0.23239112020E+02 -0.15335069509E+02  0.30299217820E+02  0.00000000000E+00 0. -1.
         -2    1    1    2    0  503  0.11950812366E+02  0.23239112020E+02 -0.12702914646E+03  0.12968917570E+03  0.00000000000E+00 0.  1.
</event>
<event>
 4    1  0.1776638E+004  0.2389543E+02  0.7546771E-02  0.1481550E+00
         21   -1    0    0  503  502  0.00000000000E+00  0.00000000000E+00  0.18606397481E+04  0.18606397481E+04  0.00000000000E+00 0.  1.
         21   -1    0    0  501  503 -0.00000000000E+00 -0.00000000000E+00 -0.83039782997E+00  0.83039782997E+00  0.00000000000E+00 0. -1.
          2    1    1    2  501    0 -0.22182567096E+02  0.88839798199E+01  0.19089673464E+03  0.19238647218E+03  0.00000000000E+00 0. -1.
         -2    1    1    2    0  502  0.22182567096E+02 -0.88839798199E+01  0.16689126156E+04  0.16690836737E+04  0.00000000000E+00 0.  1.
</event>
<event>
 4    1  0.1776638E+004  0.2505003E+02  0.7546771E-02  0.1468245E+00
         21   -1    0    0  503  502  0.00000000000E+00  0.00000000000E+00  0.10949094322E+03  0.10949094322E+03  0.00000000000E+00 0.  1.
         21   -1    0    0  501  503 -0.00000000000E+00 -0.00000000000E+00 -0.69500570355E+01  0.69500570355E+01  0.00000000000E+00 0. -1.
          2    1    1    2  501    0 -0.12368851994E+02  0.21783371717E+02  0.26888093215E+02  0.36748786915E+02  0.00000000000E+00 0. -1.
         -2    1    1    2    0  502  0.12368851994E+02 -0.21783371717E+02  0.75652792971E+02  0.79692213342E+02  0.00000000000E+00 0.  1.
</event>
<event>
 4    1  0.1776638E+004  0.2801237E+02  0.7546771E-02  0.1437695E+00
         21   -1    0    0  503  502  0.00000000000E+00  0.00000000000E+00  0.62500871955E+02  0.62500871955E+02  0.00000000000E+00 0. -1.
         21   -1    0    0  501  503 -0.00000000000E+00 -0.00000000000E+00 -0.17618267437E+02  0.17618267437E+02  0.00000000000E+00 0.  1.
          2    1    1    2  501    0  0.76726735939E+01  0.26941099844E+02  0.96576672371E+00  0.28029011511E+02  0.00000000000E+00 0.  1.
         -2    1    1    2    0  502 -0.76726735939E+01 -0.26941099844E+02  0.43916837794E+02  0.52090127882E+02  0.00000000000E+00 0. -1.
</event>
<event>
 4    1  0.1776638E+004  0.4588284E+02  0.7546771E-02  0.1317083E+00
         21   -1    0    0  501  502  0.00000000000E+00  0.00000000000E+00  0.62382776674E+01  0.62382776674E+01  0.00000000000E+00 0. -1.
         21   -1    0    0  502  503 -0.00000000000E+00 -0.00000000000E+00 -0.58330799472E+03  0.58330799472E+03  0.00000000000E+00 0.  1.
          2    1    1    2  501    0 -0.45850167727E+02  0.17311128905E+01 -0.97169640022E+02  0.10745777577E+03  0.00000000000E+00 0. -1.
         -2    1    1    2    0  503  0.45850167727E+02 -0.17311128905E+01 -0.47990007703E+03  0.48208849661E+03  0.00000000000E+00 0.  1.
</event>
<event>
 4    1  0.1776638E+004  0.2981395E+02  0.7546771E-02  0.1421220E+00
         21   -1    0    0  501  502  0.00000000000E+00  0.00000000000E+00  0.45212919786E+02  0.45212919786E+02  0.00000000000E+00 0. -1.
         21   -1    0    0  502  503 -0.00000000000E+00 -0.00000000000E+00 -0.22566240266E+02  0.22566240266E+02  0.00000000000E+00 0.  1.
          2    1    1    2  501    0 -0.29787135271E+02 -0.12643017521E+01 -0.83923906572E+00  0.29825764178E+02  0.00000000000E+00 0.  1.
         -2    1    1    2    0  503  0.29787135271E+02  0.12643017521E+01  0.23485918586E+02  0.37953395874E+02  0.00000000000E+00 0. -1.
</event>
<event>
 4    1  0.1776638E+004  0.2580931E+02  0.7546771E-02  0.1459950E+00
         21   -1    0    0  501  502  0.00000000000E+00  0.00000000000E+00  0.50126913689E+01  0.50126913689E+01  0.00000000000E+00 0. -1.
         21   -1    0    0  502  503 -0.00000000000E+00 -0.00000000000E+00 -0.13432454531E+03  0.13432454531E+03  0.00000000000E+00 0.  1.
          2    1    1    2  501    0 -0.23589452270E+02  0.10471774497E+02 -0.57448066183E+02  0.62979366682E+02  0.00000000000E+00 0. -1.
         -2    1    1    2    0  503  0.23589452270E+02 -0.10471774497E+02 -0.71863787763E+02  0.76357870002E+02  0.00000000000E+00 0.  1.
</event>
<event>
 4    1  0.1776638E+004  0.2584604E+02  0.7546771E-02  0.1459557E+00
         21   -1    0    0  503  502  0.00000000000E+00  0.00000000000E+00  0.82504901556E+02  0.82504901556E+02  0.00000000000E+00 0.  1.
         21   -1    0    0  501  503 -0.00000000000E+00 -0.00000000000E+00 -0.22687963534E+02  0.22687963534E+02  0.00000000000E+00 0. -1.
          2    1    1    2  501    0 -0.21403373336E+02  0.14488385373E+02 -0.12271371525E+02  0.28611261070E+02  0.00000000000E+00 0. -1.
         -2    1    1    2    0  502  0.21403373336E+02 -0.14488385373E+02  0.72088309548E+02  0.76581604020E+02  0.00000000000E+00 0.  1.
</event>
<event>
 4    1  0.1776638E+004  0.2781774E+02  0.7546771E-02  0.1439562E+00
         21   -1    0    0  501  502  0.00000000000E+00  0.00000000000E+00  0.65085990752E+02  0.65085990752E+02  0.00000000000E+00 0.  1.
         21   -1    0    0  502  503 -0.00000000000E+00 -0.00000000000E+00 -0.69866040102E+02  0.69866040102E+02  0.00000000000E+00 0. -1.
          2    1    1    2  501    0 -0.59992493065E+01  0.27163127081E+02  0.59077154609E+02  0.65298825884E+02  0.00000000000E+00 0.  1.
         -2    1    1    2    0  503  0.59992493065E+01 -0.27163127081E+02 -0.63857203959E+02  0.69653204970E+02  0.00000000000E+00 0. -1.
</event>
<event>
 4    1  0.1776638E+004  0.3759159E+02  0.7546771E-02  0.1363208E+00
         21   -1    0    0  501  502  0.00000000000E+00  0.00000000000E+00  0.42504976886E+01  0.42504976886E+01  0.00000000000E+00 0. -1.
         21   -1    0    0  502  503 -0.00000000000E+00 -0.00000000000E+00 -0.63502237527E+03  0.63502237527E+03  0.00000000000E+00 0.  1.
          2    1    1    2  501    0 -0.26948884348E+02 -0.26208494432E+02 -0.94754178446E+02  0.10193861820E+03  0.00000000000E+00 0. -1.
         -2    1    1    2    0  503  0.26948884348E+02  0.26208494432E+02 -0.53601769913E+03  0.53733425475E+03  0.00000000000E+00 0.  1.
</event>
<event>
 4    1  0.1776638E+004  0.2409742E+02  0.7546771E-02  0.1479159E+00
         21   -1    0    0  501  502  0.00000000000E+00  0.00000000000E+00  0.47805735252E+01  0.47805735252E+01  0.00000000000E+00 0. -1.
         21   -1    0    0  502  503 -0.00000000000E+00 -0.00000000000E+00 -0.18066619262E+03  0.18066619262E+03  0.00000000000E+00 0.  1.
          2    1    1    2  501    0  0.15577633400E+02  0.18385399661E+02 -0.34865865844E+02  0.42382946855E+02  0.00000000000E+00 0. -1.
         -2    1    1    2    0  503 -0.15577633400E+02 -0.18385399661E+02 -0.14101975325E+03  0.14306381929E+03  0.00000000000E+00 0.  1.
</event>
<event>
 4    1  0.1776638E+004  0.2031175E+02  0.7546771E-02  0.1529322E+00
         21   -1    0    0  501  502  0.00000000000E+00  0.00000000000E+00  0.13845087142E+02  0.13845087142E+02  0.00000000000E+00 0. -1.
         21   -1    0    0  502  503 -0.00000000000E+00 -0.00000000000E+00 -0.66127502501E+02  0.66127502501E+02  0.00000000000E+00 0.  1.
          2    1    1    2  501    0  0.26350202091E+00 -0.20310040257E+02  0.34965243313E+01  0.20610503413E+02  0.00000000000E+00 0. -1.
         -2    1    1    2    0  503 -0.26350202091E+00  0.20310040257E+02 -0.55778939690E+02  0.59362086229E+02  0.00000000000E+00 0.  1.
</event>
<event>
 4    1  0.1776638E+004  0.2250326E+02  0.7546771E-02  0.1498832E+00
         21   -1    0    0  501  502  0.00000000000E+00  0.00000000000E+00  0.22971379529E+02  0.22971379529E+02  0.00000000000E+00 0.  1.
         21   -1    0    0  502  503 -0.00000000000E+00 -0.00000000000E+00 -0.29681513280E+02  0.29681513280E+02  0.00000000000E+00 0. -1.
          2    1    1    2  501    0 -0.32687198385E+01 -0.22264599485E+02  0.99987561988E+01  0.24624622741E+02  0.00000000000E+00 0.  1.
         -2    1    1    2    0  503  0.32687198385E+01  0.22264599485E+02 -0.16708889950E+02  0.28028270068E+02  0.00000000000E+00 0. -1.
</event>
<event>
 4    1  0.1776638E+004  0.3315051E+02  0.7546771E-02  0.1394054E+00
         21   -1    0    0  501  502  0.00000000000E+00  0.00000000000E+00  0.69253488517E+02  0.69253488517E+02  0.00000000000E+00 0.  1.
         21   -1    0    0  502  503 -0.00000000000E+00 -0.00000000000E+00 -0.17510334913E+02  0.17510334913E+02  0.00000000000E+00 0. -1.
          2    1    1    2  501    0  0.32150998815E+02 -0.80789637372E+01  0.39155063201E+02  0.51303755751E+02  0.00000000000E+00 0.  1.
         -2    1    1    2    0  503 -0.32150998815E+02  0.80789637372E+01  0.12588090402E+02  0.35460067679E+02  0.00000000000E+00 0. -1.
</event>
<event>
 4    1  0.1776638E+004  0.2542349E+02  0.7546771E-02  0.1464121E+00
         21   -1    0    0  501  502  0.00000000000E+00  0.00000000000E+00  0.13002114354E+01  0.13002114354E+01  0.00000000000E+00 0. -1.
         21   -1    0    0  502  503 -0.00000000000E+00 -0.00000000000E+00 -0.52811556044E+03  0.52811556044E+03  0.00000000000E+00 0.  1.
          2    1    1    2  501    0  0.67034824154E+01  0.24523809625E+02 -0.19927329430E+03  0.20088852564E+03  0.00000000000E+00 0. -1.
         -2    1    1    2    0  503 -0.67034824154E+01 -0.24523809625E+02 -0.32754205470E+03  0.32852724623E+03  0.00000000000E+00 0.  1.
</event>
<event>
 4    1  0.1776638E+004  0.2497144E+02  0.7546771E-02  0.1469123E+00
         21   -1    0    0  503  502  0.00000000000E+00  0.00000000000E+00  0.17297890840E+02  0.17297890840E+02  0.00000000000E+00 0.  1.
         21   -1    0    0  501  503 -0.00000000000E+00 -0.00000000000E+00 -0.10283429669E+03  0.10283429669E+03  0.00000000000E+00 0. -1.
          2    1    1    2  501    0 -0.22760771566E+02 -0.10272299794E+02 -0.91174359715E+02  0.94532199460E+02  0.00000000000E+00 0. -1.
         -2    1    1    2    0  502  0.22760771566E+02  0.10272299794E+02  0.56379538663E+01  0.25599988069E+02  0.00000000000E+00 0.  1.
</event>
<event>
 4    1  0.1776638E+004  0.2175703E+02  0.7546771E-02  0.1508725E+00
         21   -1    0    0  503  502  0.00000000000E+00  0.00000000000E+00  0.90398919800E+01  0.90398919800E+01  0.00000000000E+00 0. -1.
         21   -1    0    0  501  503 -0.00000000000E+00 -0.00000000000E+00 -0.10755697561E+03  0.10755697561E+03  0.00000000000E+00 0.  1.
          2    1    1    2  501    0  0.10878325467E+02 -0.18842254202E+02 -0.91020219010E+02  0.93584447303E+02  0.00000000000E+00 0.  1.
         -2    1    1    2    0  502 -0.10878325467E+02  0.18842254202E+02 -0.74968646208E+01  0.23012420288E+02  0.00000000000E+00 0. -1.
</event>
<event>
 4    1  0.1776638E+004  0.2043783E+02  0.7546771E-02  0.1527445E+00
         21   -1    0    0  501  502  0.00000000000E+00  0.00000000000E+00  0.23557577658E+03  0.23557577658E+03  0.00000000000E+00 0. -1.
         21   -1    0    0  502  503 -0.00000000000E+00 -0.00000000000E+00 -0.23623183384E+01  0.23623183384E+01  0.00000000000E+00 0.  1.
          2    1    1    2  501    0 -0.16882907476E+02  0.11518340480E+02  0.17602152016E+03  0.17720406398E+03  0.00000000000E+00 0. -1.
         -2    1    1    2    0  503  0.16882907476E+02 -0.11518340480E+02  0.57191938080E+02  0.60734030935E+02  0.00000000000E+00 0.  1.
</event>
<event>
 4    1  0.1776638E+004  0.2330939E+02  0.7546771E-02  0.1488649E+00
         21   -1    0    0  503  502  0.00000000000E+00  0.00000000000E+00  0.35798645114E+02  0.35798645114E+02  0.00000000000E+00 0.  1.
         21   -1    0    0  501  503 -0.00000000000E+00 -0.00000000000E+00 -0.35520990186E+02  0.35520990186E+02  0.00000000000E+00 0. -1.
          2    1    1    2  501    0  0.65585360986E+01 -0.22367687869E+02 -0.26847956404E+02  0.35554755229E+02  0.00000000000E+00 0. -1.
         -2    1    1    2    0  502 -0.65585360986E+01  0.22367687869E+02  0.27125611332E+02  0.35764880071E+02  0.00000000000E+00 0.  1.
</event>
<event>
 4    1  0.1776638E+004  0.2792088E+02  0.7546771E-02  0.1438571E+00
         21   -1    0    0  501  502  0.00000000000E+00  0.00000000000E+00  0.12720951612E+02  0.12720951612E+02  0.00000000000E+00 0.  1.
         21   -1    0    0  502  503 -0.00000000000E+00 -0.00000000000E+00 -0.61413353941E+02  0.61413353941E+02  0.00000000000E+00 0. -1.
          2    1    1    2  501    0  0.26596451938E+02 -0.84973094073E+01 -0.22637153415E+02  0.35944627382E+02  0.00000000000E+00 0.  1.
         -2    1    1    2    0  503 -0.26596451938E+02  0.84973094073E+01 -0.26055248914E+02  0.38189678171E+02  0.00000000000E+00 0. -1.
</event>
<event>
 4    1  0.1776638E+004  0.2074460E+02  0.7546771E-02  0.1522943E+00
         21   -1    0    0  503  502  0.00000000000E+00  0.00000000000E+00  0.40709888588E+03  0.40709888588E+03  0.00000000000E+00 0.  1.
         21   -1    0    0  501  503 -0.00000000000E+00 -0.00000000000E+00 -0.11186957889E+01  0.11186957889E+01  0.00000000000E+00 0. -1.
          2    1    1    2  501    0 -0.19472669850E+02 -0.71521762314E+01  0.15509060512E+03  0.15647183226E+03  0.00000000000E+00 0. -1.
         -2    1    1    2    0  502  0.19472669850E+02  0.71521762314E+01  0.25088958497E+03  0.25174574940E+03  0.00000000000E+00 0.  1.
</event>
<event>
 4    1  0.1776638E+004  0.2626983E+02  0.7546771E-02  0.1455084E+00
         21   -1    0    0  501  502  0.00000000000E+00  0.00000000000E+00  0.10498371718E+02  0.10498371718E+02  0.00000000000E+00 0. -1.
         21   -1    0    0  502  503 -0.00000000000E+00 -0.00000000000E+00 -0.42910815459E+03  0.42910815459E+03  0.00000000000E+00 0.  1.
          2    1    1    2  501    0  0.18172421453E+02 -0.18970166236E+02 -0.70367270843E+01  0.27195948899E+02  0.00000000000E+00 0. -1.
         -2    1    1    2    0  503 -0.18172421453E+02  0.18970166236E+02 -0.41157305579E+03  0.41241057741E+03  0.00000000000E+00 0.  1.
</event>
<event>
 4    1  0.1776638E+004  0.3868811E+02  0.7546771E-02  0.1356350E+00
         21   -1    0    0  501  502  0.00000000000E+00  0.00000000000E+00  0.35633831998E+03  0.35633831998E+03  0.00000000000E+00 0. -1.
         21   -1    0    0  502  503 -0.00000000000E+00 -0.00000000000E+00 -0.76894585371E+01  0.76894585371E+01  0.00000000000E+00 0.  1.
          2    1    1    2  501    0 -0.11948839174E+01  0.38669655573E+02  0.29692984167E+03  0.29943964481E+03  0.00000000000E+00 0. -1.
         -2    1    1    2    0  503  0.11948839174E+01 -0.38669655573E+02  0.51719019782E+02  0.64588133716E+02  0.00000000000E+00 0.  1.
</event>
<event>
 4    1  0.1776638E+004  0.2212924E+02  0.7546771E-02  0.1503732E+00
         21   -1    0    0  501  502  0.00000000000E+00  0.00000000000E+00  0.16452348372E+03  0.16452348372E+03  0.00000000000E+00 0. -1.
         21   -1    0    0  502  503 -0.00000000000E+00 -0.00000000000E+00 -0.10151943584E+02  0.10151943584E+02  0.00000000000E+00 0.  1.
          2    1    1    2  501    0  0.18339819249E+02  0.12383636733E+02  0.15061208462E+03  0.15222911503E+03  0.00000000000E+00 0. -1.
         -2    1    1    2    0  503 -0.18339819249E+02 -0.12383636733E+02  0.37594555110E+01  0.22446312271E+02  0.00000000000E+00 0.  1.
</event>
<event>
 4    1  0.1776638E+004  0.3642956E+02  0.7546771E-02  0.1370782E+00
         21   -1    0    0  501  502  0.00000000000E+00  0.00000000000E+00  0.26232892782E+02  0.26232892782E+02  0.00000000000E+00 0.  1.
         21   -1    0    0  502  503 -0.00000000000E+00 -0.00000000000E+00 -0.22457486033E+03  0.22457486033E+03  0.00000000000E+00 0. -1.
          2    1    1    2  501    0 -0.32108060289E+02 -0.17210025943E+02  0.11208046673E+02  0.38114732568E+02  0.00000000000E+00 0.  1.
         -2    1    1    2    0  503  0.32108060289E+02  0.17210025943E+02 -0.20955001422E+03  0.21269302055E+03  0.00000000000E+00 0. -1.
</event>
<event>
 4    1  0.1776638E+004  0.2349958E+02  0.7546771E-02  0.1486318E+00
         21   -1    0    0  503  502  0.00000000000E+00  0.00000000000E+00  0.39465213279E+03  0.39465213279E+03  0.00000000000E+00 0. -1.
         21   -1    0    0  501  503 -0.00000000000E+00 -0.00000000000E+00 -0.51249869505E+01  0.51249869505E+01  0.00000000000E+00 0.  1.
          2    1    1    2  501    0  0.12138508145E+02  0.20121804126E+02  0.24333717746E+02  0.33828393409E+02  0.00000000000E+00 0.  1.
         -2    1    1    2    0  502 -0.12138508145E+02 -0.20121804126E+02  0.36519342809E+03  0.36594872633E+03  0.00000000000E+00 0. -1.
</event>
<event>
 4    1  0.1776638E+004  0.3458264E+02  0.7546771E-02  0.1383521E+00
         21   -1    0    0  503  502  0.00000000000E+00  0.00000000000E+00  0.11990774682E+03  0.11990774682E+03  0.00000000000E+00 0.  1.
         21   -1    0    0  501  503 -0.00000000000E+00 -0.00000000000E+00 -0.12092554483E+02  0.12092554483E+02  0.00000000000E+00 0. -1.
          2    1    1    2  501    0 -0.34377989488E+02 -0.37566965975E+01  0.26282326931E+02  0.43436386123E+02  0.00000000000E+00 0.  1.
         -2    1    1    2    0  502  0.34377989488E+02  0.37566965975E+01  0.81532865404E+02  0.88563915177E+02  0.00000000000E+00 0. -1.
</event>
<event>
 4    1  0.1776638E+004  0.2028016E+02  0.7546771E-02  0.1529795E+00
         21   -1    0    0  503  502  0.00000000000E+00  0.00000000000E+00  0.11239608147E+03  0.11239608147E+03  0.00000000000E+00 0.  1.
         21   -1    0    0  501  503 -0.00000000000E+00 -0.00000000000E+00 -0.38245934138E+01  0.38245934138E+01  0.00000000000E+00 0. -1.
          2    1    1    2  501    0  0.96978683005E+01  0.17811130384E+02  0.42203203686E+02  0.46823022292E+02  0.00000000000E+00 0. -1.
         -2    1    1    2    0  502 -0.96978683005E+01 -0.17811130384E+02  0.66368284370E+02  0.69397652592E+02  0.00000000000E+00 0.  1.
</event>
<event>
 4    1  0.1776638E+004  0.2509869E+02  0.7546771E-02  0.1467702E+00
         21   -1    0    0  501  502  0.00000000000E+00  0.00000000000E+00  0.15710898384E+01  0.15710898384E+01  0.00000000000E+00 0.  1.
         21   -1    0    0  502  503 -0.00000000000E+00 -0.00000000000E+00 -0.45405367727E+03  0.45405367727E+03  0.00000000000E+00 0. -1.
          2    1    1    2  501    0 -0.87741609373E+01 -0.23515066808E+02 -0.14833995705E+03  0.15044828722E+03  0.00000000000E+00 0.  1.
         -2    1    1    2    0  503  0.87741609373E+01  0.23515066808E+02 -0.30414263038E+03  0.30517647989E+03  0.00000000000E+00 0. -1.
</event>
<event>
 4    1  0.1776638E+004  0.2015196E+02  0.7546771E-02  0.1531725E+00
         21   -1    0    0  503  502  0.00000000000E+00  0.00000000000E+00  0.16866305216E+02  0.16866305216E+02  0.00000000000E+00 0.  1.
         21   -1    0    0  501  503 -0.00000000000E+00 -0.00000000000E+00 -0.51357137488E+02  0.51357137488E+02  0.00000000000E+00 0. -1.
          2    1    1    2  501    0  0.79359959475E+00 -0.20136326907E+02 -0.42106560380E+02  0.46680444393E+02  0.00000000000E+00 0. -1.
         -2    1    1    2    0  502 -0.79359959475E+00  0.20136326907E+02  0.76157281091E+01  0.21542998312E+02  0.00000000000E+00 0.  1.
</event>
<event>
 4    1  0.1776638E+004  0.2218811E+02  0.7546771E-02  0.1502953E+00
         21   -1    0    0  501  502  0.00000000000E+00  0.00000000000E+00  0.74195278565E+02  0.74195278565E+02  0.00000000000E+00 0. -1.
         21   -1    0    0  502  503 -0.00000000000E+00 -0.00000000000E+00 -0.88158858854E+01  0.88158858854E+01  0.00000000000E+00 0.  1.
          2    1    1    2  501    0  0.58620472346E+01 -0.21399732148E+02  0.53331825396E+02  0.57763273227E+02  0.00000000000E+00 0. -1.
         -2    1    1    2    0  503 -0.58620472346E+01  0.21399732148E+02  0.12047567284E+02  0.25247891224E+02  0.00000000000E+00 0.  1.
</event>
<event>
 4    1  0.1776638E+004  0.2328128E+02  0.7546771E-02  0.1488996E+00
         21   -1    0    0  501  502  0.00000000000E+00  0.00000000000E+00  0.31978044838E+02  0.31978044838E+02  0.00000000000E+00 0. -1.
         21   -1    0    0  502  503 -0.00000000000E+00 -0.00000000000E+00 -0.30544266491E+02  0.30544266491E+02  0.00000000000E+00 0.  1.
          2    1    1    2  501    0  0.17034824453E+02  0.15869244970E+02  0.21572499500E+02  0.31739422092E+02  0.00000000000E+00 0. -1.
         -2    1    1    2    0  503 -0.17034824453E+02 -0.15869244970E+02 -0.20138721153E+02  0.30782889237E+02  0.00000000000E+00 0.  1.
</event>
<event>
 4    1  0.1776638E+004  0.2388298E+02  0.7546771E-02  0.1481698E+00
         21   -1    0    0  503  502  0.00000000000E+00  0.00000000000E+00  0.12440457699E+03  0.12440457699E+03  0.00000000000E+00 0. -1.
         21   -1    0    0  501  503 -0.00000000000E+00 -0.00000000000E+00 -0.57615093410E+01  0.57615093410E+01  0.00000000000E+00 0.  1.
          2    1    1    2  501    0 -0.10574837092E+02  0.21414239789E+02  0.29911559386E+02  0.38276601602E+02  0.00000000000E+00 0.  1.
         -2    1    1    2    0  502  0.10574837092E+02 -0.21414239789E+02  0.88731508261E+02  0.91889484728E+02  0.00000000000E+00 0. -1.
</event>
<event>
 4    1  0.1776638E+004  0.2500981E+02  0.7546771E-02  0.1468694E+00
         21   -1    0    0  503  502  0.00000000000E+00  0.00000000000E+00  0.34644230459E+02  0.34644230459E+02  0.00000000000E+00 0. -1.
         21   -1    0    0  501  503 -0.00000000000E+00 -0.00000000000E+00 -0.19235678241E+02  0.19235678241E+02  0.00000000000E+00 0.  1.
          2    1    1    2  501    0 -0.14720628942E+02 -0.20218649671E+02  0.10290407692E+01  0.25030973530E+02  0.00000000000E+00 0.  1.
         -2    1    1    2    0  502  0.14720628942E+02  0.20218649671E+02  0.14379511448E+02  0.28848935170E+02  0.00000000000E+00 0. -1.
</event>
<event>
 4    1  0.1776638E+004  0.3659604E+02  0.7546771E-02  0.1369677E+00
         21   -1    0    0  503  502  0.00000000000E+00  0.00000000000E+00  0.66678154737E+02  0.66678154737E+02  0.00000000000E+00 0.  1.
         21   -1    0    0  501  503 -0.00000000000E+00 -0.00000000000E+00 -0.28256051620E+02  0.28256051620E+02  0.00000000000E+00 0. -1.
          2    1    1    2  501    0 -0.25189129240E+02  0.26547656956E+02 -0.63136216636E+01  0.37136668405E+02  0.00000000000E+00 0. -1.
         -2    1    1    2    0  502  0.25189129240E+02 -0.26547656956E+02  0.44735724780E+02  0.57797537952E+02  0.00000000000E+00 0.  1.
</event>
<event>
 4    1  0.1776638E+004  0.2176527E+02  0.7546771E-02  0.1508613E+00
         21   -1    0    0  501  502  0.00000000000E+00  0.00000000000E+00  0.35823771036E+02  0.35823771036E+02  0.00000000000E+00 0. -1.
         21   -1    0    0  502  503 -0.00000000000E+00 -0.00000000000E+00 -0.28428521437E+02  0.28428521437E+02  0.00000000000E+00 0.  1.
          2    1    1    2  501    0 -0.20744314890E+02  0.65878894535E+01  0.27192358585E+02  0.34830320888E+02  0.00000000000E+00 0. -1.
         -2    1    1    2    0  503  0.20744314890E+02 -0.65878894535E+01 -0.19797108987E+02  0.29421971585E+02  0.00000000000E+00 0.  1.
</event>
<event>
 4    1  0.1776638E+004  0.2456651E+02  0.7546771E-02  0.1473712E+00
         21   -1    0    0  503  502  0.00000000000E+00  0.00000000000E+00  0.19073486339E+02  0.19073486339E+02  0.00000000000E+00 0.  1.
         21   -1    0    0  501  503 -0.00000000000E+00 -0.00000000000E+00 -0.52706977299E+02  0.52706977299E+02  0.00000000000E+00 0. -1.
          2    1    1    2  501    0 -0.23239142160E+02  0.79658972894E+01 -0.39506412065E+02  0.46521713663E+02  0.00000000000E+00 0. -1.
         -2    1    1    2    0  502  0.23239142160E+02 -0.79658972894E+01  0.58729211046E+01  0.25258749974E+02  0.00000000000E+00 0.  1.
</event>
<event>
 4    1  0.1776638E+004  0.2587354E+02  0.7546771E-02  0.1459264E+00
         21   -1    0    0  503  502  0.00000000000E+00  0.00000000000E+00  0.66261946452E+02  0.66261946452E+02  0.00000000000E+00 0.  1.
         21   -1    0    0  501  503 -0.00000000000E+00 -0.00000000000E+00 -0.10627377874E+02  0.10627377874E+02  0.00000000000E+00 0. -1.
          2    1    1    2  501    0 -0.11536103978E+01 -0.25847809089E+02  0.36357574352E+02  0.44624133206E+02  0.00000000000E+00 0.  1.
         -2    1    1    2    0  502  0.11536103978E+01  0.25847809089E+02  0.19276994225E+02  0.32265191120E+02  0.00000000000E+00 0. -1.
</event>
<event>
 4    1  0.1776638E+004  0.3386377E+02  0.7546771E-02  0.1388732E+00
         21   -1    0    0  503  502  0.00000000000E+00  0.00000000000E+00  0.16867548830E+02  0.16867548830E+02  0.00000000000E+00 0.  1.
         21   -1    0    0  501  503 -0.00000000000E+00 -0.00000000000E+00 -0.30006439622E+03  0.30006439622E+03  0.00000000000E+00 0. -1.
          2    1    1    2  501    0  0.32979896011E+02  0.76864602085E+01 -0.28096102772E+03  0.28299444218E+03  0.00000000000E+00 0. -1.
         -2    1    1    2    0  502 -0.32979896011E+02 -0.76864602085E+01 -0.22358196773E+01  0.33937502870E+02  0.00000000000E+00 0.  1.
</event>
<event>
 4    1  0.1776638E+004  0.2459262E+02  0.7546771E-02  0.1473413E+00
         21   -1    0    0  501  502  0.00000000000E+00  0.00000000000E+00  0.11489255520E+02  0.11489255520E+02  0.00000000000E+00 0.  1.
         21   -1    0    0  502  503 -0.00000000000E+00 -0.00000000000E+00 -0.69829885126E+02  0.69829885126E+02  0.00000000000E+00 0. -1.
          2    1    1    2  501    0  0.22572720749E+02  0.97606062556E+01 -0.89970778788E+01  0.26186725012E+02  0.00000000000E+00 0. -1.
         -2    1    1    2    0  503 -0.22572720749E+02 -0.97606062556E+01 -0.49343551727E+02  0.55132415633E+02  0.00000000000E+00 0.  1.
</event>
<event>
 4    1  0.1776638E+004  0.2087741E+02  0.7546771E-02  0.1521022E+00
         21   -1    0    0  503  502  0.00000000000E+00  0.00000000000E+00  0.57774250887E+02  0.57774250887E+02  0.00000000000E+00 0. -1.
         21   -1    0    0  501  503 -0.00000000000E+00 -0.00000000000E+00 -0.90771259169E+01  0.90771259169E+01  0.00000000000E+00 0.  1.
          2    1    1    2  501    0 -0.20190168674E+02 -0.53125619031E+01  0.10612801192E+02  0.23420029338E+02  0.00000000000E+00 0.  1.
         -2    1    1    2    0  502  0.20190168674E+02  0.53125619031E+01  0.38084323778E+02  0.43431347466E+02  0.00000000000E+00 0. -1.
</event>
<event>
 4    1  0.1776638E+004  0.2308698E+02  0.7546771E-02  0.1491409E+00
         21   -1    0    0  503  502  0.00000000000E+00  0.00000000000E+00  0.75517956035E+02  0.75517956035E+02  0.00000000000E+00 0.  1.
         21   -1    0    0  501  503 -0.00000000000E+00 -0.00000000000E+00 -0.87142135836E+01  0.87142135836E+01  0.00000000000E+00 0. -1.
          2    1    1    2  501    0  0.91736766397E+01  0.21186135487E+02  0.15041267926E+02  0.27554462811E+02  0.00000000000E+00 0. -1.
         -2    1    1    2    0  502 -0.91736766397E+01 -0.21186135487E+02  0.51762474526E+02  0.56677706808E+02  0.00000000000E+00 0.  1.
</event>
<event>
 4    1  0.1776638E+004  0.2343822E+02  0.7546771E-02  0.1487067E+00
         21   -1    0    0  501  502  0.00000000000E+00  0.00000000000E+00  0.24535436902E+01  0.24535436902E+01  0.00000000000E+00 0.  1.
         21   -1    0    0  502  503 -0.00000000000E+00 -0.00000000000E+00 -0.31901513915E+03  0.31901513915E+03  0.00000000000E+00 0. -1.
          2    1    1    2  501    0  0.21770677730E+02  0.86826186345E+01 -0.70514831704E+02  0.74308086810E+02  0.00000000000E+00 0.  1.
         -2    1    1    2    0  503 -0.21770677730E+02 -0.86826186345E+01 -0.24604676376E+03  0.24716059603E+03  0.00000000000E+00 0. -1.
</event>
<event>
 4    1  0.1776638E+004  0.4015994E+02  0.7546771E-02  0.1347551E+00
         21   -1    0    0  503  502  0.00000000000E+00  0.00000000000E+00  0.30482868798E+03  0.30482868798E+03  0.00000000000E+00 0. -1.
         21   -1    0    0  501  503 -0.00000000000E+00 -0.00000000000E+00 -0.14197000433E+02  0.14197000433E+02  0.00000000000E+00 0.  1.
          2    1    1    2  501    0  0.12112191643E+02  0.38289887093E+02  0.18975820536E+02  0.44417366030E+02  0.00000000000E+00 0.  1.
         -2    1    1    2    0  502 -0.12112191643E+02 -0.38289887093E+02  0.27165586701E+03  0.27460832238E+03  0.00000000000E+00 0. -1.
</event>
<event>
 4    1  0.1776638E+004  0.4346812E+02  0.7546771E-02  0.1329279E+00
         21   -1    0    0  501  502  0.00000000000E+00  0.00000000000E+00  0.18045001259E+03  0.18045001259E+03  0.00000000000E+00 0. -1.
         21   -1    0    0  502  503 -0.00000000000E+00 -0.00000000000E+00 -0.14458043570E+02  0.14458043570E+02  0.00000000000E+00 0.  1.
          2    1    1    2  501    0  0.37309267099E+02  0.22304616671E+02  0.13417300187E+03  0.14103854710E+03  0.00000000000E+00 0. -1.
         -2    1    1    2    0  503 -0.37309267099E+02 -0.22304616671E+02  0.31818967151E+02  0.53869509064E+02  0.00000000000E+00 0.  1.
</event>
<event>
 4    1  0.1776638E+004  0.2195371E+02  0.7546771E-02  0.1506072E+00
         21   -1    0    0  501  502  0.00000000000E+00  0.00000000000E+00  0.15741896462E+02  0.15741896462E+02  0.00000000000E+00 0. -1.
         21   -1    0    0  502  503 -0.00000000000E+00 -0.00000000000E+00 -0.47505258332E+02  0.47505258332E+02  0.00000000000E+00 0.  1.
          2    1    1    2  501    0  0.20593146833E+02  0.76084100612E+01  0.29737251585E+01  0.22154201440E+02  0.00000000000E+00 0. -1.
         -2    1    1    2    0  503 -0.20593146833E+02 -0.76084100612E+01 -0.34737087029E+02  0.41092953354E+02  0.00000000000E+00 0.  1.
</event>
<event>
 4    1  0.1776638E+004  0.2016154E+02  0.7546771E-02  0.1531581E+00
         21   -1    0    0  503  502  0.00000000000E+00  0.00000000000E+00  0.80276230707E+01  0.80276230707E+01  0.00000000000E+00 0. -1.
         21   -1    0    0  501  503 -0.00000000000E+00 -0.00000000000E+00 -0.10951188844E+03  0.10951188844E+03  0.00000000000E+00 0.  1.
          2    1    1    2  501    0  0.19612175461E+02  0.46744095403E+01 -0.93833633169E+02  0.95975195986E+02  0.00000000000E+00 0.  1.
         -2    1    1    2    0  502 -0.19612175461E+02 -0.46744095403E+01 -0.76506321958E+01  0.21564315520E+02  0.00000000000E+00 0. -1.
</event>
<event>
 4    1  0.1776638E+004  0.2956646E+02  0.7546771E-02  0.1423402E+00
         21   -1    0    0  503  502  0.00000000000E+00  0.00000000000E+00  0.13772568354E+04  0.13772568354E+04  0.00000000000E+00 0. -1.
         21   -1    0    0  501  503 -0.00000000000E+00 -0.00000000000E+00 -0.98001637388E+00  0.98001637388E+00  0.00000000000E+00 0.  1.
          2    1    1    2  501    0 -0.14501254938E+02  0.25766051695E+02  0.27909285907E+03  0.28065459162E+03  0.00000000000E+00 0.  1.
         -2    1    1    2    0  502  0.14501254938E+02 -0.25766051695E+02  0.10971839599E+04  0.10975822601E+04  0.00000000000E+00 0. -1.
</event>
<event>
 4    1  0.1776638E+004  0.2262036E+02  0.7546771E-02  0.1497321E+00
         21   -1    0    0  503  502  0.00000000000E+00  0.00000000000E+00  0.28551037163E+02  0.28551037163E+02  0.00000000000E+00 0. -1.
         21   -1    0    0  501  503 -0.00000000000E+00 -0.00000000000E+00 -0.41788523018E+02  0.41788523018E+02  0.00000000000E+00 0.  1.
          2    1    1    2  501    0  0.77921379255E+01 -0.21235900191E+02 -0.33197775295E+02  0.40171795515E+02  0.00000000000E+00 0.  1.
         -2    1    1    2    0  502 -0.77921379255E+01  0.21235900191E+02  0.19960289441E+02  0.30167764666E+02  0.00000000000E+00 0. -1.
</event>
<event>
 4    1  0.1776638E+004  0.3581453E+02  0.7546771E-02  0.1374926E+00
         21   -1    0    0  503  502  0.00000000000E+00  0.00000000000E+00  0.21489784021E+01  0.21489784021E+01  0.00000000000E+00 0. -1.
         21   -1    0    0  501  503 -0.00000000000E+00 -0.00000000000E+00 -0.21540840326E+04  0.21540840326E+04  0.00000000000E+00 0.  1.
          2    1    1    2  501    0  0.15723085769E+02  0.32178646634E+02 -0.19926253131E+04  0.19929471441E+04  0.00000000000E+00 0.  1.
         -2    1    1    2    0  502 -0.15723085769E+02 -0.32178646634E+02 -0.15930974115E+03  0.16328586696E+03  0.00000000000E+00 0. -1.
</event>
<event>
 4    1  0.1776638E+004  0.2504213E+02  0.7546771E-02  0.1468333E+00
         21   -1    0    0  501  502  0.00000000000E+00  0.00000000000E+00  0.20016993797E+01  0.20016993797E+01  0.00000000000E+00 0. -1.
         21   -1    0    0  502  503 -0.00000000000E+00 -0.00000000000E+00 -0.31336177569E+03  0.31336177569E+03  0.00000000000E+00 0.  1.
          2    1    1    2  501    0  0.18087543064E+02 -0.17319035237E+02 -0.15810111405E+03  0.16007207895E+03  0.00000000000E+00 0. -1.
         -2    1    1    2    0  503 -0.18087543064E+02  0.17319035237E+02 -0.15325896226E+03  0.15529139612E+03  0.00000000000E+00 0.  1.
</event>
<event>
 4    1  0.1776638E+004  0.4145736E+02  0.7546771E-02  0.1340151E+00
         21   -1    0    0  501  502  0.00000000000E+00  0.00000000000E+00  0.17021479907E+02  0.17021479907E+02  0.00000000000E+00 0. -1.
         21   -1    0    0  502  503 -0.00000000000E+00 -0.00000000000E+00 -0.13167973388E+03  0.13167973388E+03  0.00000000000E+00 0.  1.
          2    1    1    2  501    0  0.50307862206E+01 -0.41150984369E+02 -0.21425291176E+02  0.46666427188E+02  0.00000000000E+00 0. -1.
         -2    1    1    2    0  503 -0.50307862206E+01  0.41150984369E+02 -0.93232962797E+02  0.10203478660E+03  0.00000000000E+00 0.  1.
</event>
<event>
 4    1  0.1776638E+004  0.2324228E+02  0.7546771E-02  0.1489478E+00
         21   -1    0    0  501  502  0.00000000000E+00  0.00000000000E+00  0.13890622214E+02  0.13890622214E+02  0.00000000000E+00 0. -1.
         21   -1    0    0  502  503 -0.00000000000E+00 -0.00000000000E+00 -0.45500855936E+02  0.45500855936E+02  0.00000000000E+00 0.  1.
          2    1    1    2  501    0 -0.22045412052E+02 -0.73622846364E+01 -0.44858059427E+01  0.23671203656E+02  0.00000000000E+00 0. -1.
         -2    1    1    2    0  503  0.22045412052E+02  0.73622846364E+01 -0.27124427779E+02  0.35720274494E+02  0.00000000000E+00 0.  1.
</event>
<event>
 4    1  0.1776638E+004  0.3170699E+02  0.7546771E-02  0.1405321E+00
         21   -1    0    0  501  502  0.00000000000E+00  0.00000000000E+00  0.74240539092E+01  0.74240539092E+01  0.00000000000E+00 0. -1.
         21   -1    0    0  502  503 -0.00000000000E+00 -0.00000000000E+00 -0.39110333658E+03  0.39110333658E+03  0.00000000000E+00 0.  1.
          2    1    1    2  501    0 -0.17778557870E+02  0.26253684006E+02 -0.30724138525E+02  0.44150942594E+02  0.00000000000E+00 0. -1.
         -2    1    1    2    0  503  0.17778557870E+02 -0.26253684006E+02 -0.35295514415E+03  0.35437644790E+03  0.00000000000E+00 0.  1.
</event>
<event>
 4    1  0.1776638E+004  0.9662209E+02  0.7546771E-02  0.1169794E+00
         21   -1    0    0  501  502  0.00000000000E+00  0.00000000000E+00  0.98976342459E+02  0.98976342459E+02  0.00000000000E+00 0. -1.
         21   -1    0    0  502  503 -0.00000000000E+00 -0.00000000000E+00 -0.12607645631E+03  0.12607645631E+03  0.00000000000E+00 0.  1.
          2    1    1    2  501    0  0.62591193061E+02  0.73608225343E+02  0.42921168428E+02  0.10572632116E+03  0.00000000000E+00 0.  1.
         -2    1    1    2    0  503 -0.62591193061E+02 -0.73608225343E+02 -0.70021282284E+02  0.11932647761E+03  0.00000000000E+00 0. -1.
</event>
<event>
 4    1  0.1776638E+004  0.2023566E+02  0.7546771E-02  0.1530463E+00
         21   -1    0    0  501  502  0.00000000000E+00  0.00000000000E+00  0.65317109813E+02  0.65317109813E+02  0.00000000000E+00 0.  1.
         21   -1    0    0  502  503 -0.00000000000E+00 -0.00000000000E+00 -0.10131721664E+02  0.10131721664E+02  0.00000000000E+00 0. -1.
          2    1    1    2  501    0  0.18479808548E+02 -0.82449260908E+01  0.50885387646E+02  0.54761344086E+02  0.00000000000E+00 0.  1.
         -2    1    1    2    0  503 -0.18479808548E+02  0.82449260908E+01  0.43000005024E+01  0.20687487391E+02  0.00000000000E+00 0. -1.
</event>
<event>
 4    1  0.1776638E+004  0.3442378E+02  0.7546771E-02  0.1384660E+00
         21   -1    0    0  503  502  0.00000000000E+00  0.00000000000E+00  0.61221645276E+01  0.61221645276E+01  0.00000000000E+00 0. -1.
         21   -1    0    0  501  503 -0.00000000000E+00 -0.00000000000E+00 -0.21673357655E+03  0.21673357655E+03  0.00000000000E+00 0.  1.
          2    1    1    2  501    0 -0.33771991125E+02 -0.66670124402E+01 -0.14174266738E+03  0.14586288148E+03  0.00000000000E+00 0.  1.
         -2    1    1    2    0  502  0.33771991125E+02  0.66670124402E+01 -0.68868744644E+02  0.76992859593E+02  0.00000000000E+00 0. -1.
</event>
<event>
 4    1  0.1776638E+004  0.2322327E+02  0.7546771E-02  0.1489713E+00
         21   -1    0    0  501  502  0.00000000000E+00  0.00000000000E+00  0.12966807521E+03  0.12966807521E+03  0.00000000000E+00 0. -1.
         21   -1    0    0  502  503 -0.00000000000E+00 -0.00000000000E+00 -0.90617336104E+01  0.90617336104E+01  0.00000000000E+00 0.  1.
          2    1    1    2  501    0 -0.23220959260E+02  0.32761789061E+00  0.11132344504E+03  0.11371996174E+03  0.00000000000E+00 0. -1.
         -2    1    1    2    0  503  0.23220959260E+02 -0.32761789061E+00  0.92828965592E+01  0.25009847080E+02  0.00000000000E+00 0.  1.
</event>
<event>
 4    1  0.1776638E+004  0.2339800E+02  0.7546771E-02  0.1487560E+00
         21   -1    0    0  503  502  0.00000000000E+00  0.00000000000E+00  0.22611960511E+03  0.22611960511E+03  0.00000000000E+00 0. -1.
         21   -1    0    0  501  503 -0.00000000000E+00 -0.00000000000E+00 -0.10126264188E+02  0.10126264188E+02  0.00000000000E+00 0.  1.
          2    1    1    2  501    0 -0.19298713706E+02 -0.13229733289E+02  0.49581650215E+01  0.23917558278E+02  0.00000000000E+00 0.  1.
         -2    1    1    2    0  502  0.19298713706E+02  0.13229733289E+02  0.21103517590E+03  0.21232831102E+03  0.00000000000E+00 0. -1.
</event>
<event>
 4    1  0.1776638E+004  0.2222028E+02  0.7546771E-02  0.1502528E+00
         21   -1    0    0  503  502  0.00000000000E+00  0.00000000000E+00  0.11711298741E+03  0.11711298741E+03  0.00000000000E+00 0.  1.
         21   -1    0    0  501  503 -0.00000000000E+00 -0.00000000000E+00 -0.52167857802E+01  0.52167857802E+01  0.00000000000E+00 0. -1.
          2    1    1    2  501    0  0.17419931363E+02 -0.13794450123E+02  0.29157335729E+02  0.36659120144E+02  0.00000000000E+00 0. -1.
         -2    1    1    2    0  502 -0.17419931363E+02  0.13794450123E+02  0.82738865906E+02  0.85670653051E+02  0.00000000000E+00 0.  1.
</event>
<event>
 4    1  0.1776638E+004  0.4699708E+02  0.7546771E-02  0.1311745E+00
         21   -1    0    0  501  502  0.00000000000E+00  0.00000000000E+00  0.61172640327E+02  0.61172640327E+02  0.00000000000E+00 0.  1.
         21   -1    0    0  502  503 -0.00000000000E+00 -0.00000000000E+00 -0.57995336303E+02  0.57995336303E+02  0.00000000000E+00 0. -1.
          2    1    1    2  501    0  0.23796253028E+01  0.46936796035E+02  0.38194047264E+02  0.60559975933E+02  0.00000000000E+00 0.  1.
         -2    1    1    2    0  503 -0.23796253028E+01 -0.46936796035E+02 -0.35016743240E+02  0.58608000697E+02  0.00000000000E+00 0. -1.
</event>
<event>
 4    1  0.1776638E+004  0.2034237E+02  0.7546771E-02  0.1528865E+00
         21   -1    0    0  503  502  0.00000000000E+00  0.00000000000E+00  0.53177404239E+01  0.53177404239E+01  0.00000000000E+00 0. -1.
         21   -1    0    0  501  503 -0.00000000000E+00 -0.00000000000E+00 -0.78590095176E+02  0.78590095176E+02  0.00000000000E+00 0.  1.
          2    1    1    2  501    0 -0.13441576957E+02 -0.15268794988E+02 -0.40796496558E+02  0.45586908459E+02  0.00000000000E+00 0.  1.
         -2    1    1    2    0  502  0.13441576957E+02  0.15268794988E+02 -0.32475858195E+02  0.38320927141E+02  0.00000000000E+00 0. -1.
</event>
<event>
 4    1  0.1776638E+004  0.2034386E+02  0.7546771E-02  0.1528842E+00
         21   -1    0    0  501  502  0.00000000000E+00  0.00000000000E+00  0.35059753930E+03  0.35059753930E+03  0.00000000000E+00 0.  1.
         21   -1    0    0  502  503 -0.00000000000E+00 -0.00000000000E+00 -0.57608538453E+01  0.57608538453E+01  0.00000000000E+00 0. -1.
          2    1    1    2  501    0 -0.18167794746E+02  0.91544492575E+01  0.33129647371E+03  0.33192051187E+03  0.00000000000E+00 0.  1.
         -2    1    1    2    0  503  0.18167794746E+02 -0.91544492575E+01  0.13540211745E+02  0.24437881276E+02  0.00000000000E+00 0. -1.
</event>
<event>
 4    1  0.1776638E+004  0.2303813E+02  0.7546771E-02  0.1492020E+00
         21   -1    0    0  501  502  0.00000000000E+00  0.00000000000E+00  0.35718059906E+02  0.35718059906E+02  0.00000000000E+00 0. -1.
         21   -1    0    0  502  503 -0.00000000000E+00 -0.00000000000E+00 -0.19086086727E+02  0.19086086727E+02  0.00000000000E+00 0.  1.
          2    1    1    2  501    0 -0.22926903643E+02  0.22610638299E+01 -0.45788495967E+01  0.23488745899E+02  0.00000000000E+00 0.  1.
         -2    1    1    2    0  503  0.22926903643E+02 -0.22610638299E+01  0.21210822776E+02  0.31315400734E+02  0.00000000000E+00 0. -1.
</event>
<event>
 4    1  0.1776638E+004  0.2869772E+02  0.7546771E-02  0.1431261E+00
         21   -1    0    0  503  502  0.00000000000E+00  0.00000000000E+00  0.10679044615E+02  0.10679044615E+02  0.00000000000E+00 0.  1.
         21   -1    0    0  501  503 -0.00000000000E+00 -0.00000000000E+00 -0.10153776179E+03  0.10153776179E+03  0.00000000000E+00 0. -1.
          2    1    1    2  501    0 -0.26072850416E+02 -0.11990222961E+02 -0.72944673750E+02  0.78386761663E+02  0.00000000000E+00 0.  1.
         -2    1    1    2    0  502  0.26072850416E+02  0.11990222961E+02 -0.17914043426E+02  0.33830044744E+02  0.00000000000E+00 0. -1.
</event>
<event>
 4    1  0.1776638E+004  0.3140973E+02  0.7546771E-02  0.1407729E+00
         21   -1    0    0  503  502  0.00000000000E+00  0.00000000000E+00  0.28417238610E+01  0.28417238610E+01  0.00000000000E+00 0. -1.
         21   -1    0    0  501  503 -0.00000000000E+00 -0.00000000000E+00 -0.68100751375E+03  0.68100751375E+03  0.00000000000E+00 0.  1.
          2    1    1    2  501    0 -0.30653158471E+02 -0.68523650672E+01 -0.57848047420E+03  0.57933257293E+03  0.00000000000E+00 0.  1.
         -2    1    1    2    0  502  0.30653158471E+02  0.68523650672E+01 -0.99685315685E+02  0.10451666467E+03  0.00000000000E+00 0. -1.
</event>
<event>
 4    1  0.1776638E+004  0.2257598E+02  0.7546771E-02  0.1497892E+00
         21   -1    0    0  501  502  0.00000000000E+00  0.00000000000E+00  0.68201879046E+03  0.68201879046E+03  0.00000000000E+00 0. -1.
         21   -1    0    0  502  503 -0.00000000000E+00 -0.00000000000E+00 -0.75606628806E+00  0.75606628806E+00  0.00000000000E+00 0.  1.
          2    1    1    2  501    0 -0.20852607239E+02  0.86512137653E+01  0.37738494430E+03  0.37805961291E+03  0.00000000000E+00 0. -1.
         -2    1    1    2    0  503  0.20852607239E+02 -0.86512137653E+01  0.30387777988E+03  0.30471524384E+03  0.00000000000E+00 0.  1.
</event>
<event>
 4    1  0.1776638E+004  0.3426476E+02  0.7546771E-02  0.1385807E+00
         21   -1    0    0  501  502  0.00000000000E+00  0.00000000000E+00  0.55578588798E+01  0.55578588798E+01  0.00000000000E+00 0.  1.
         21   -1    0    0  502  503 -0.00000000000E+00 -0.00000000000E+00 -0.34905626320E+03  0.34905626320E+03  0.00000000000E+00 0. -1.
          2    1    1    2  501    0  0.12587062265E+02  0.31869099769E+02 -0.60340374258E+02  0.69390449070E+02  0.00000000000E+00 0.  1.
         -2    1    1    2    0  503 -0.12587062265E+02 -0.31869099769E+02 -0.28315803006E+03  0.28522367301E+03  0.00000000000E+00 0. -1.
</event>
<event>
 4    1  0.1776638E+004  0.2386595E+02  0.7546771E-02  0.1481901E+00
         21   -1    0    0  501  502  0.00000000000E+00  0.00000000000E+00  0.11085323984E+03  0.11085323984E+03  0.00000000000E+00 0.  1.
         21   -1    0    0  502  503 -0.00000000000E+00 -0.00000000000E+00 -0.18905537914E+02  0.18905537914E+02  0.00000000000E+00 0. -1.
          2    1    1    2  501    0  0.19854588300E+02 -0.13243070224E+02  0.10133914074E+03  0.10411150288E+03  0.00000000000E+00 0.  1.
         -2    1    1    2    0  503 -0.19854588300E+02  0.13243070224E+02 -0.93914388142E+01  0.25647274875E+02  0.00000000000E+00 0. -1.
</event>
<event>
 4    1  0.1776638E+004  0.2072024E+02  0.7546771E-02  0.1523297E+00
         21   -1    0    0  503  502  0.00000000000E+00  0.00000000000E+00  0.33677139712E+02  0.33677139712E+02  0.00000000000E+00 0.  1.
         21   -1    0    0  501  503 -0.00000000000E+00 -0.00000000000E+00 -0.24651424327E+02  0.24651424327E+02  0.00000000000E+00 0. -1.
          2    1    1    2  501    0 -0.19818845563E+02 -0.60449717429E+01 -0.15752751296E+02  0.26028397881E+02  0.00000000000E+00 0. -1.
         -2    1    1    2    0  502  0.19818845563E+02  0.60449717429E+01  0.24778466681E+02  0.32300166159E+02  0.00000000000E+00 0.  1.
</event>
<event>
 4    1  0.1776638E+004  0.2145284E+02  0.7546771E-02  0.1512897E+00
         21   -1    0    0  501  502  0.00000000000E+00  0.00000000000E+00  0.94426575663E+02  0.94426575663E+02  0.00000000000E+00 0. -1.
         21   -1    0    0  502  503 -0.00000000000E+00 -0.00000000000E+00 -0.56338657539E+01  0.56338657539E+01  0.00000000000E+00 0.  1.
          2    1    1    2  501    0  0.18720936027E+02  0.10476196976E+02  0.62771502613E+02  0.66336156725E+02  0.00000000000E+00 0. -1.
         -2    1    1    2    0  503 -0.18720936027E+02 -0.10476196976E+02  0.26021207296E+02  0.33724284691E+02  0.00000000000E+00 0.  1.
</event>
<event>
 4    1  0.1776638E+004  0.2297643E+02  0.7546771E-02  0.1492794E+00
         21   -1    0    0  503  502  0.00000000000E+00  0.00000000000E+00  0.15622483115E+03  0.15622483115E+03  0.00000000000E+00 0. -1.
         21   -1    0    0  501  503 -0.00000000000E+00 -0.00000000000E+00 -0.64095220283E+01  0.64095220283E+01  0.00000000000E+00 0.  1.
          2    1    1    2  501    0 -0.36691990370E+01 -0.22681558598E+02  0.18994586636E+02  0.29811246929E+02  0.00000000000E+00 0.  1.
         -2    1    1    2    0  502  0.36691990370E+01  0.22681558598E+02  0.13082072249E+03  0.13282310625E+03  0.00000000000E+00 0. -1.
</event>
<event>
 4    1  0.1776638E+004  0.2939755E+02  0.7546771E-02  0.1424905E+00
         21   -1    0    0  501  502  0.00000000000E+00  0.00000000000E+00  0.15134476202E+03  0.15134476202E+03  0.00000000000E+00 0. -1.
         21   -1    0    0  502  503 -0.00000000000E+00 -0.00000000000E+00 -0.69821476238E+01  0.69821476238E+01  0.00000000000E+00 0.  1.
          2    1    1    2  501    0  0.26140414668E+02 -0.13449707042E+02  0.10596887268E+03  0.10997098651E+03  0.00000000000E+00 0. -1.
         -2    1    1    2    0  503 -0.26140414668E+02  0.13449707042E+02  0.38393741723E+02  0.48355923133E+02  0.00000000000E+00 0.  1.
</event>
<event>
 4    1  0.1776638E+004  0.2110211E+02  0.7546771E-02  0.1517812E+00
         21   -1    0    0  503  502  0.00000000000E+00  0.00000000000E+00  0.31502415525E+01  0.31502415525E+01  0.00000000000E+00 0.  1.
         21   -1    0    0  501  503 -0.00000000000E+00 -0.00000000000E+00 -0.15772298446E+03  0.15772298446E+03  0.00000000000E+00 0. -1.
          2    1    1    2  501    0 -0.19586947837E+02 -0.78517765687E+01 -0.10319942025E+03  0.10533479606E+03  0.00000000000E+00 0. -1.
         -2    1    1    2    0  502  0.19586947837E+02  0.78517765687E+01 -0.51373322664E+02  0.55538429960E+02  0.00000000000E+00 0.  1.
</event>
<event>
 4    1  0.1776638E+004  0.2299742E+02  0.7546771E-02  0.1492531E+00
         21   -1    0    0  501  502  0.00000000000E+00  0.00000000000E+00  0.56367068619E+01  0.56367068619E+01  0.00000000000E+00 0. -1.
         21   -1    0    0  502  503 -0.00000000000E+00 -0.00000000000E+00 -0.20987453743E+03  0.20987453743E+03  0.00000000000E+00 0.  1.
          2    1    1    2  501    0  0.42215467527E+01 -0.22606636470E+02 -0.21992451321E+02  0.31820581147E+02  0.00000000000E+00 0. -1.
         -2    1    1    2    0  503 -0.42215467527E+01  0.22606636470E+02 -0.18224537925E+03  0.18369066315E+03  0.00000000000E+00 0.  1.
</event>
<event>
 4    1  0.1776638E+004  0.2347911E+02  0.7546771E-02  0.1486568E+00
         21   -1    0    0  503  502  0.00000000000E+00  0.00000000000E+00  0.18104765714E+01  0.18104765714E+01  0.00000000000E+00 0.  1.
         21   -1    0    0  501  503 -0.00000000000E+00 -0.00000000000E+00 -0.39567073426E+03  0.39567073426E+03  0.00000000000E+00 0. -1.
          2    1    1    2  501    0 -0.78462707982E-01 -0.23478982585E+02 -0.29233607379E+03  0.29327742637E+03  0.00000000000E+00 0. -1.
         -2    1    1    2    0  502  0.78462707982E-01  0.23478982585E+02 -0.10152418389E+03  0.10420378445E+03  0.00000000000E+00 0.  1.
</event>
<event>
 4    1  0.1776638E+004  0.2382938E+02  0.7546771E-02  0.1482338E+00
         21   -1    0    0  501  502  0.00000000000E+00  0.00000000000E+00  0.55771738005E+02  0.55771738005E+02  0.00000000000E+00 0. -1.
         21   -1    0    0  502  503 -0.00000000000E+00 -0.00000000000E+00 -0.32308300161E+02  0.32308300161E+02  0.00000000000E+00 0.  1.
          2    1    1    2  501    0  0.92898882455E+01  0.21943963378E+02  0.48177714721E+02  0.53748783690E+02  0.00000000000E+00 0. -1.
         -2    1    1    2    0  503 -0.92898882455E+01 -0.21943963378E+02 -0.24714276877E+02  0.34331254476E+02  0.00000000000E+00 0.  1.
</event>
<event>
 4    1  0.1776638E+004  0.2234497E+02  0.7546771E-02  0.1500891E+00
         21   -1    0    0  501  502  0.00000000000E+00  0.00000000000E+00  0.12241964927E+03  0.12241964927E+03  0.00000000000E+00 0. -1.
         21   -1    0    0  502  503 -0.00000000000E+00 -0.00000000000E+00 -0.32061706239E+02  0.32061706239E+02  0.00000000000E+00 0.  1.
          2    1    1    2  501    0 -0.22156172274E+02  0.28985715968E+01  0.11733970140E+03  0.11944832863E+03  0.00000000000E+00 0. -1.
         -2    1    1    2    0  503  0.22156172274E+02 -0.28985715968E+01 -0.26981758375E+02  0.35033026877E+02  0.00000000000E+00 0.  1.
</event>
<event>
 4    1  0.1776638E+004  0.3767137E+02  0.7546771E-02  0.1362700E+00
         21   -1    0    0  501  502  0.00000000000E+00  0.00000000000E+00  0.47950627103E+01  0.47950627103E+01  0.00000000000E+00 0.  1.
         21   -1    0    0  502  503 -0.00000000000E+00 -0.00000000000E+00 -0.30170172725E+03  0.30170172725E+03  0.00000000000E+00 0. -1.
          2    1    1    2  501    0 -0.28872001924E+02 -0.24197922497E+02 -0.12730651055E+03  0.13276324633E+03  0.00000000000E+00 0.  1.
         -2    1    1    2    0  503  0.28872001924E+02  0.24197922497E+02 -0.16960015399E+03  0.17373354363E+03  0.00000000000E+00 0. -1.
</event>
<event>
 4    1  0.1776638E+004  0.2054081E+02  0.7546771E-02  0.1525923E+00
         21   -1    0    0  501  502  0.00000000000E+00  0.00000000000E+00  0.55431472332E+02  0.55431472332E+02  0.00000000000E+00 0. -1.
         21   -1    0    0  502  503 -0.00000000000E+00 -0.00000000000E+00 -0.27950730523E+02  0.27950730523E+02  0.00000000000E+00 0.  1.
          2    1    1    2  501    0  0.20431417130E+02 -0.21170568095E+01  0.49304525510E+02  0.53412179990E+02  0.00000000000E+00 0. -1.
         -2    1    1    2    0  503 -0.20431417130E+02  0.21170568095E+01 -0.21823783701E+02  0.29970022865E+02  0.00000000000E+00 0.  1.
</event>
<event>
 4    1  0.1776638E+004  0.2518272E+02  0.7546771E-02  0.1466770E+00
         21   -1    0    0  503  502  0.00000000000E+00  0.00000000000E+00  0.68590987503E+02  0.68590987503E+02  0.00000000000E+00 0.  1.
         21   -1    0    0  501  503 -0.00000000000E+00 -0.00000000000E+00 -0.11294064234E+02  0.11294064234E+02  0.00000000000E+00 0. -1.
          2    1    1    2  501    0  0.16314169364E+02  0.19183781958E+02  0.11637956648E+02  0.27741875336E+02  0.00000000000E+00 0. -1.
         -2    1    1    2    0  502 -0.16314169364E+02 -0.19183781958E+02  0.45658966621E+02  0.52143176400E+02  0.00000000000E+00 0.  1.
</event>
<event>
 4    1  0.1776638E+004  0.2771668E+02  0.7546771E-02  0.1440539E+00
         21   -1    0    0  503  502  0.00000000000E+00  0.00000000000E+00  0.21773466921E+02  0.21773466921E+02  0.00000000000E+00 0.  1.
         21   -1    0    0  501  503 -0.00000000000E+00 -0.00000000000E+00 -0.41906790610E+02  0.41906790610E+02  0.00000000000E+00 0. -1.
          2    1    1    2  501    0 -0.14712024631E+02 -0.23489804120E+02 -0.22726087886E+02  0.35842567388E+02  0.00000000000E+00 0.  1.
         -2    1    1    2    0  502  0.14712024631E+02  0.23489804120E+02  0.25927641969E+01  0.27837690144E+02  0.00000000000E+00 0. -1.
</event>
<event>
 4    1  0.1776638E+004  0.2237377E+02  0.7546771E-02  0.1500515E+00
         21   -1    0    0  503  502  0.00000000000E+00  0.00000000000E+00  0.87731514460E+01  0.87731514460E+01  0.00000000000E+00 0. -1.
         21   -1    0    0  501  503 -0.00000000000E+00 -0.00000000000E+00 -0.71601061858E+02  0.71601061858E+02  0.00000000000E+00 0.  1.
          2    1    1    2  501    0  0.19768229609E+02 -0.10478677827E+02 -0.49524971566E+02  0.54344350208E+02  0.00000000000E+00 0.  1.
         -2    1    1    2    0  502 -0.19768229609E+02  0.10478677827E+02 -0.13302938846E+02  0.26029863097E+02  0.00000000000E+00 0. -1.
</event>
<event>
 4    1  0.1776638E+004  0.3154567E+02  0.7546771E-02  0.1406624E+00
         21   -1    0    0  501  502  0.00000000000E+00  0.00000000000E+00  0.16027094040E+02  0.16027094040E+02  0.00000000000E+00 0.  1.
         21   -1    0    0  502  503 -0.00000000000E+00 -0.00000000000E+00 -0.74790274966E+02  0.74790274966E+02  0.00000000000E+00 0. -1.
          2    1    1    2  501    0  0.66095427548E+01  0.30845473796E+02 -0.10669797363E+02  0.33301259509E+02  0.00000000000E+00 0. -1.
         -2    1    1    2    0  503 -0.66095427548E+01 -0.30845473796E+02 -0.48093383563E+02  0.57516109498E+02  0.00000000000E+00 0.  1.
</event>
<event>
 4    1  0.1776638E+004  0.2101896E+02  0.7546771E-02  0.1518994E+00
         21   -1    0    0  503  502  0.00000000000E+00  0.00000000000E+00  0.54609032923E+02  0.54609032923E+02  0.00000000000E+00 0.  1.
         21   -1    0    0  501  503 -0.00000000000E+00 -0.00000000000E+00 -0.84842327666E+01  0.84842327666E+01  0.00000000000E+00 0. -1.
          2    1    1    2  501    0 -0.20863890880E+02  0.25484972237E+01  0.16263711036E+02  0.26576400761E+02  0.00000000000E+00 0. -1.
         -2    1    1    2    0  502  0.20863890880E+02 -0.25484972237E+01  0.29861089121E+02  0.36516864929E+02  0.00000000000E+00 0.  1.
</event>
<event>
 4    1  0.1776638E+004  0.2623916E+02  0.7546771E-02  0.1455404E+00
         21   -1    0    0  501  502  0.00000000000E+00  0.00000000000E+00  0.53539240231E+03  0.53539240231E+03  0.00000000000E+00 0.  1.
         21   -1    0    0  502  503 -0.00000000000E+00 -0.00000000000E+00 -0.15950073890E+01  0.15950073890E+01  0.00000000000E+00 0. -1.
          2    1    1    2  501    0 -0.22264688736E+02  0.13884424582E+02  0.38508435523E+03  0.38597727168E+03  0.00000000000E+00 0.  1.
         -2    1    1    2    0  503  0.22264688736E+02 -0.13884424582E+02  0.14871303970E+03  0.15101013803E+03  0.00000000000E+00 0. -1.
</event>
<event>
 4    1  0.1776638E+004  0.2402006E+02  0.7546771E-02  0.1480072E+00
         21   -1    0    0  501  502  0.00000000000E+00  0.00000000000E+00  0.74625707245E+02  0.74625707245E+02  0.00000000000E+00 0. -1.
         21   -1    0    0  502  503 -0.00000000000E+00 -0.00000000000E+00 -0.10050365898E+02  0.10050365898E+02  0.00000000000E+00 0.  1.
          2    1    1    2  501    0 -0.21249100945E+02 -0.11199964524E+02  0.52624538589E+02  0.57847260592E+02  0.00000000000E+00 0. -1.
         -2    1    1    2    0  503  0.21249100945E+02  0.11199964524E+02  0.11950802758E+02  0.26828812550E+02  0.00000000000E+00 0.  1.
</event>
<event>
 4    1  0.1776638E+004  0.2112882E+02  0.7546771E-02  0.1517433E+00
         21   -1    0    0  503  502  0.00000000000E+00  0.00000000000E+00  0.28597723879E+02  0.28597723879E+02  0.00000000000E+00 0. -1.
         21   -1    0    0  501  503 -0.00000000000E+00 -0.00000000000E+00 -0.77871710579E+02  0.77871710579E+02  0.00000000000E+00 0.  1.
          2    1    1    2  501    0  0.17648012535E+02 -0.11617867973E+02 -0.72237719465E+02  0.75264303067E+02  0.00000000000E+00 0.  1.
         -2    1    1    2    0  502 -0.17648012535E+02  0.11617867973E+02  0.22963732764E+02  0.31205131391E+02  0.00000000000E+00 0. -1.
</event>
<event>
 4    1  0.1776638E+004  0.2489359E+02  0.7546771E-02  0.1469997E+00
         21   -1    0    0  501  502  0.00000000000E+00  0.00000000000E+00  0.26354197530E+02  0.26354197530E+02  0.00000000000E+00 0.  1.
         21   -1    0    0  502  503 -0.00000000000E+00 -0.00000000000E+00 -0.25729627732E+02  0.25729627732E+02  0.00000000000E+00 0. -1.
          2    1    1    2  501    0 -0.15856820877E+02  0.19189895801E+02  0.79543540242E+01  0.26133553473E+02  0.00000000000E+00 0.  1.
         -2    1    1    2    0  503  0.15856820877E+02 -0.19189895801E+02 -0.73297842258E+01  0.25950271790E+02  0.00000000000E+00 0. -1.
</event>
<event>
 4    1  0.1776638E+004  0.3582571E+02  0.7546771E-02  0.1374849E+00
         21   -1    0    0  501  502  0.00000000000E+00  0.00000000000E+00  0.10421846050E+03  0.10421846050E+03  0.00000000000E+00 0. -1.
         21   -1    0    0  502  503 -0.00000000000E+00 -0.00000000000E+00 -0.15323134051E+02  0.15323134051E+02  0.00000000000E+00 0.  1.
          2    1    1    2  501    0 -0.20629782315E+02 -0.29289815215E+02  0.70929156453E+02  0.79463365325E+02  0.00000000000E+00 0. -1.
         -2    1    1    2    0  503  0.20629782315E+02  0.29289815215E+02  0.17966170002E+02  0.40078229230E+02  0.00000000000E+00 0.  1.
</event>
<event>
 4    1  0.1776638E+004  0.3840861E+02  0.7546771E-02  0.1358072E+00
         21   -1    0    0  503  502  0.00000000000E+00  0.00000000000E+00  0.16206166863E+02  0.16206166863E+02  0.00000000000E+00 0. -1.
         21   -1    0    0  501  503 -0.00000000000E+00 -0.00000000000E+00 -0.15980086431E+03  0.15980086431E+03  0.00000000000E+00 0.  1.
          2    1    1    2  501    0  0.53805503396E+01  0.38029866729E+02 -0.12952951080E+03  0.13510409044E+03  0.00000000000E+00 0.  1.
         -2    1    1    2    0  502 -0.53805503396E+01 -0.38029866729E+02 -0.14065186649E+02  0.40902940736E+02  0.00000000000E+00 0. -1.
</event>
<event>
 4    1  0.1776638E+004  0.3492820E+02  0.7546771E-02  0.1381069E+00
         21   -1    0    0  501  502  0.00000000000E+00  0.00000000000E+00  0.10246022568E+04  0.10246022568E+04  0.00000000000E+00 0.  1.
         21   -1    0    0  502  503 -0.00000000000E+00 -0.00000000000E+00 -0.13163480221E+01  0.13163480221E+01  0.00000000000E+00 0. -1.
          2    1    1    2  501    0  0.32627270974E+02 -0.12467582251E+02  0.35315370345E+03  0.35487676407E+03  0.00000000000E+00 0. -1.
         -2    1    1    2    0  503 -0.32627270974E+02  0.12467582251E+02  0.67013220532E+03  0.67104184074E+03  0.00000000000E+00 0.  1.
</event>
<event>
 4    1  0.1776638E+004  0.2037711E+02  0.7546771E-02  0.1528347E+00
         21   -1    0    0  503  502  0.00000000000E+00  0.00000000000E+00  0.42075060373E+02  0.42075060373E+02  0.00000000000E+00 0.  1.
         21   -1    0    0  501  503 -0.00000000000E+00 -0.00000000000E+00 -0.98947000148E+01  0.98947000148E+01  0.00000000000E+00 0. -1.
          2    1    1    2  501    0 -0.19967229472E+02 -0.40665158768E+01  0.17421786891E+02  0.26809428615E+02  0.00000000000E+00 0.  1.
         -2    1    1    2    0  502  0.19967229472E+02  0.40665158768E+01  0.14758573467E+02  0.25160331773E+02  0.00000000000E+00 0. -1.
</event>
<event>
 4    1  0.1776638E+004  0.3883042E+02  0.7546771E-02  0.1355479E+00
         21   -1    0    0  503  502  0.00000000000E+00  0.00000000000E+00  0.19327478184E+03  0.19327478184E+03  0.00000000000E+00 0. -1.
         21   -1    0    0  501  503 -0.00000000000E+00 -0.00000000000E+00 -0.78511074621E+01  0.78511074621E+01  0.00000000000E+00 0.  1.
          2    1    1    2  501    0 -0.38111707672E+02 -0.74363419580E+01  0.84704939072E+02  0.93181157680E+02  0.00000000000E+00 0. -1.
         -2    1    1    2    0  502  0.38111707672E+02  0.74363419580E+01  0.10071873530E+03  0.10794473162E+03  0.00000000000E+00 0.  1.
</event>
<event>
 4    1  0.1776638E+004  0.2332464E+02  0.7546771E-02  0.1488461E+00
         21   -1    0    0  501  502  0.00000000000E+00  0.00000000000E+00  0.53522645666E+02  0.53522645666E+02  0.00000000000E+00 0. -1.
         21   -1    0    0  502  503 -0.00000000000E+00 -0.00000000000E+00 -0.11632585880E+02  0.11632585880E+02  0.00000000000E+00 0.  1.
          2    1    1    2  501    0 -0.19120792730E+02 -0.13357930302E+02  0.32517726039E+02  0.40018014985E+02  0.00000000000E+00 0. -1.
         -2    1    1    2    0  503  0.19120792730E+02  0.13357930302E+02  0.93723337469E+01  0.25137216561E+02  0.00000000000E+00 0.  1.
</event>
<event>
 4    1  0.1776638E+004  0.2584662E+02  0.7546771E-02  0.1459551E+00
         21   -1    0    0  503  502  0.00000000000E+00  0.00000000000E+00  0.16697510997E+03  0.16697510997E+03  0.00000000000E+00 0.  1.
         21   -1    0    0  501  503 -0.00000000000E+00 -0.00000000000E+00 -0.40008829898E+01  0.40008829898E+01  0.00000000000E+00 0. -1.
          2    1    1    2  501    0 -0.20914995560E+02  0.15185876119E+02  0.81480176768E+02  0.85481384400E+02  0.00000000000E+00 0. -1.
         -2    1    1    2    0  502  0.20914995560E+02 -0.15185876119E+02  0.81494050211E+02  0.85494608558E+02  0.00000000000E+00 0.  1.
</event>
<event>
 4    1  0.1776638E+004  0.3911070E+02  0.7546771E-02  0.1353777E+00
         21   -1    0    0  501  502  0.00000000000E+00  0.00000000000E+00  0.22097073347E+03  0.22097073347E+03  0.00000000000E+00 0. -1.
         21   -1    0    0  502  503 -0.00000000000E+00 -0.00000000000E+00 -0.69296457129E+01  0.69296457129E+01  0.00000000000E+00 0.  1.
          2    1    1    2  501    0  0.40343365155E+01  0.38902067657E+02  0.11070645335E+03  0.11741194809E+03  0.00000000000E+00 0. -1.
         -2    1    1    2    0  503 -0.40343365155E+01 -0.38902067657E+02  0.10333463440E+03  0.11048843110E+03  0.00000000000E+00 0.  1.
</event>
<event>
 4    1  0.1776638E+004  0.2690471E+02  0.7546771E-02  0.1448568E+00
         21   -1    0    0  501  502  0.00000000000E+00  0.00000000000E+00  0.70167351778E+01  0.70167351778E+01  0.00000000000E+00 0. -1.
         21   -1    0    0  502  503 -0.00000000000E+00 -0.00000000000E+00 -0.42960634568E+03  0.42960634568E+03  0.00000000000E+00 0.  1.
          2    1    1    2  501    0  0.10672299150E+02 -0.24697476707E+02 -0.20991797872E+02  0.34125048025E+02  0.00000000000E+00 0. -1.
         -2    1    1    2    0  503 -0.10672299150E+02  0.24697476707E+02 -0.40159781263E+03  0.40249803283E+03  0.00000000000E+00 0.  1.
</event>
<event>
 4    1  0.1776638E+004  0.3592172E+02  0.7546771E-02  0.1374197E+00
         21   -1    0    0  503  502  0.00000000000E+00  0.00000000000E+00  0.30448238776E+02  0.30448238776E+02  0.00000000000E+00 0.  1.
         21   -1    0    0  501  503 -0.00000000000E+00 -0.00000000000E+00 -0.59129267927E+02  0.59129267927E+02  0.00000000000E+00 0. -1.
          2    1    1    2  501    0 -0.20670727809E+02  0.29378405730E+02 -0.38178908078E+02  0.52421357608E+02  0.00000000000E+00 0. -1.
         -2    1    1    2    0  502  0.20670727809E+02 -0.29378405730E+02  0.94978789271E+01  0.37156149094E+02  0.00000000000E+00 0.  1.
</event>
<event>
 4    1  0.1776638E+004  0.2262580E+02  0.7546771E-02  0.1497251E+00
         21   -1    0    0  501  502  0.00000000000E+00  0.00000000000E+00  0.56700822536E+02  0.56700822536E+02  0.00000000000E+00 0. -1.
         21   -1    0    0  502  503 -0.00000000000E+00 -0.00000000000E+00 -0.14308288545E+02  0.14308288545E+02  0.00000000000E+00 0.  1.
          2    1    1    2  501    0 -0.75266518140E+01 -0.21337205887E+02  0.42763577251E+02  0.48380268518E+02  0.00000000000E+00 0. -1.
         -2    1    1    2    0  503  0.75266518140E+01  0.21337205887E+02 -0.37104325953E+00  0.22628842562E+02  0.00000000000E+00 0.  1.
</event>
<event>
 4    1  0.1776638E+004  0.2010421E+02  0.7546771E-02  0.1532449E+00
         21   -1    0    0  501  502  0.00000000000E+00  0.00000000000E+00  0.36805205816E+01  0.36805205816E+01  0.00000000000E+00 0. -1.
         21   -1    0    0  502  503 -0.00000000000E+00 -0.00000000000E+00 -0.20103259641E+03  0.20103259641E+03  0.00000000000E+00 0.  1.
          2    1    1    2  501    0 -0.18974647006E+02  0.66439320749E+01 -0.29728302929E+02  0.35888035018E+02  0.00000000000E+00 0. -1.
         -2    1    1    2    0  503  0.18974647006E+02 -0.66439320749E+01 -0.16762377290E+03  0.16882508198E+03  0.00000000000E+00 0.  1.
</event>
<event>
 4    1  0.1776638E+004  0.2305171E+02  0.7546771E-02  0.1491850E+00
         21   -1    0    0  501  502  0.00000000000E+00  0.00000000000E+00  0.86273685687E+02  0.86273685687E+02  0.00000000000E+00 0.  1.
         21   -1    0    0  502  503 -0.00000000000E+00 -0.00000000000E+00 -0.66284523962E+01  0.66284523962E+01  0.00000000000E+00 0. -1.
          2    1    1    2  501    0  0.21301220649E+02  0.88113156270E+01  0.52181217152E+02  0.57046127894E+02  0.00000000000E+00 0.  1.
         -2    1    1    2    0  503 -0.21301220649E+02 -0.88113156270E+01  0.27464016139E+02  0.35856010190E+02  0.00000000000E+00 0. -1.
</event>
<event>
 4    1  0.1776638E+004  0.3679690E+02  0.7546771E-02  0.1368352E+00
         21   -1    0    0  503  502  0.00000000000E+00  0.00000000000E+00  0.15301506509E+02  0.15301506509E+02  0.00000000000E+00 0. -1.
         21   -1    0    0  501  503 -0.00000000000E+00 -0.00000000000E+00 -0.20161356486E+03  0.20161356486E+03  0.00000000000E+00 0.  1.
          2    1    1    2  501    0  0.17001012032E+02 -0.32633992493E+02 -0.17439767482E+03  0.17823737222E+03  0.00000000000E+00 0.  1.
         -2    1    1    2    0  502 -0.17001012032E+02  0.32633992493E+02 -0.11914383534E+02  0.38677699145E+02  0.00000000000E+00 0. -1.
</event>
<event>
 4    1  0.1776638E+004  0.2265087E+02  0.7546771E-02  0.1496929E+00
         21   -1    0    0  501  502  0.00000000000E+00  0.00000000000E+00  0.16623094000E+03  0.16623094000E+03  0.00000000000E+00 0.  1.
         21   -1    0    0  502  503 -0.00000000000E+00 -0.00000000000E+00 -0.43644065890E+01  0.43644065890E+01  0.00000000000E+00 0. -1.
          2    1    1    2  501    0 -0.22639004239E+02  0.73298525746E+00  0.12708992688E+03  0.12909264617E+03  0.00000000000E+00 0.  1.
         -2    1    1    2    0  503  0.22639004239E+02 -0.73298525746E+00  0.34776606524E+02  0.41502700414E+02  0.00000000000E+00 0. -1.
</event>
<event>
 4    1  0.1776638E+004  0.3604307E+02  0.7546771E-02  0.1373375E+00
         21   -1    0    0  501  502  0.00000000000E+00  0.00000000000E+00  0.68303959393E+01  0.68303959393E+01  0.00000000000E+00 0. -1.
         21   -1    0    0  502  503 -0.00000000000E+00 -0.00000000000E+00 -0.26273313912E+03  0.26273313912E+03  0.00000000000E+00 0.  1.
          2    1    1    2  501    0 -0.48002415406E+01 -0.35721992485E+02 -0.57130915804E+02  0.67550311669E+02  0.00000000000E+00 0. -1.
         -2    1    1    2    0  503  0.48002415406E+01  0.35721992485E+02 -0.19877182737E+03  0.20201322339E+03  0.00000000000E+00 0.  1.
</event>
<event>
 4    1  0.1776638E+004  0.2311720E+02  0.7546771E-02  0.1491032E+00
         21   -1    0    0  503  502  0.00000000000E+00  0.00000000000E+00  0.20497939313E+01  0.20497939313E+01  0.00000000000E+00 0.  1.
         21   -1    0    0  501  503 -0.00000000000E+00 -0.00000000000E+00 -0.28572295004E+03  0.28572295004E+03  0.00000000000E+00 0. -1.
          2    1    1    2  501    0  0.14205756065E+01  0.23073509358E+02 -0.18440783331E+03  0.18585116049E+03  0.00000000000E+00 0. -1.
         -2    1    1    2    0  502 -0.14205756065E+01 -0.23073509358E+02 -0.99265322802E+02  0.10192158348E+03  0.00000000000E+00 0.  1.
</event>
<event>
 4    1  0.1776638E+004  0.2497170E+02  0.7546771E-02  0.1469120E+00
         21   -1    0    0  501  502  0.00000000000E+00  0.00000000000E+00  0.62661121737E+02  0.62661121737E+02  0.00000000000E+00 0.  1.
         21   -1    0    0  502  503 -0.00000000000E+00 -0.00000000000E+00 -0.20776715411E+02  0.20776715411E+02  0.00000000000E+00 0. -1.
          2    1    1    2  501    0 -0.17431198955E+02  0.17881244936E+02  0.51055517664E+02  0.56835301542E+02  0.00000000000E+00 0.  1.
         -2    1    1    2    0  503  0.17431198955E+02 -0.17881244936E+02 -0.91711113381E+01  0.26602535605E+02  0.00000000000E+00 0. -1.
</event>
<event>
 4    1  0.1776638E+004  0.4496404E+02  0.7546771E-02  0.1321619E+00
         21   -1    0    0  501  502  0.00000000000E+00  0.00000000000E+00  0.94890650862E+03  0.94890650862E+03  0.00000000000E+00 0.  1.
         21   -1    0    0  502  503 -0.00000000000E+00 -0.00000000000E+00 -0.47451186193E+01  0.47451186193E+01  0.00000000000E+00 0. -1.
          2    1    1    2  501    0  0.39198119545E+02  0.22028902465E+02  0.82602091033E+03  0.82724380289E+03  0.00000000000E+00 0.  1.
         -2    1    1    2    0  503 -0.39198119545E+02 -0.22028902465E+02  0.11814047968E+03  0.12640782435E+03  0.00000000000E+00 0. -1.
</event>
<event>
 4    1  0.1776638E+004  0.2165659E+02  0.7546771E-02  0.1510093E+00
         21   -1    0    0  503  502  0.00000000000E+00  0.00000000000E+00  0.13568151776E+02  0.13568151776E+02  0.00000000000E+00 0.  1.
         21   -1    0    0  501  503 -0.00000000000E+00 -0.00000000000E+00 -0.38188638848E+02  0.38188638848E+02  0.00000000000E+00 0. -1.
          2    1    1    2  501    0  0.13466234747E+00  0.21656168007E+02 -0.20279799357E+02  0.29669479413E+02  0.00000000000E+00 0.  1.
         -2    1    1    2    0  502 -0.13466234747E+00 -0.21656168007E+02 -0.43406877153E+01  0.22087311211E+02  0.00000000000E+00 0. -1.
</event>
<event>
 4    1  0.1776638E+004  0.2069040E+02  0.7546771E-02  0.1523731E+00
         21   -1    0    0  503  502  0.00000000000E+00  0.00000000000E+00  0.27434381846E+01  0.27434381846E+01  0.00000000000E+00 0. -1.
         21   -1    0    0  501  503 -0.00000000000E+00 -0.00000000000E+00 -0.17469289332E+03  0.17469289332E+03  0.00000000000E+00 0.  1.
          2    1    1    2  501    0 -0.18158363441E+02  0.99179857212E+01 -0.11496287191E+03  0.11680990763E+03  0.00000000000E+00 0.  1.
         -2    1    1    2    0  502  0.18158363441E+02 -0.99179857212E+01 -0.56986583223E+02  0.60626423868E+02  0.00000000000E+00 0. -1.
</event>
<event>
 4    1  0.1776638E+004  0.3418680E+02  0.7546771E-02  0.1386372E+00
         21   -1    0    0  503  502  0.00000000000E+00  0.00000000000E+00  0.93485990752E+02  0.93485990752E+02  0.00000000000E+00 0.  1.
         21   -1    0    0  501  503 -0.00000000000E+00 -0.00000000000E+00 -0.12606260367E+02  0.12606260367E+02  0.00000000000E+00 0. -1.
          2    1    1    2  501    0  0.85320426719E+01  0.33105005648E+02  0.45270117983E+02  0.56728482558E+02  0.00000000000E+00 0.  1.
         -2    1    1    2    0  502 -0.85320426719E+01 -0.33105005648E+02  0.35609612402E+02  0.49363768561E+02  0.00000000000E+00 0. -1.
</event>
<event>
 4    1  0.1776638E+004  0.2991599E+02  0.7546771E-02  0.1420328E+00
         21   -1    0    0  503  502  0.00000000000E+00  0.00000000000E+00  0.22637013442E+02  0.22637013442E+02  0.00000000000E+00 0. -1.
         21   -1    0    0  501  503 -0.00000000000E+00 -0.00000000000E+00 -0.98154663688E+02  0.98154663688E+02  0.00000000000E+00 0.  1.
          2    1    1    2  501    0 -0.28673245746E+02 -0.85329685867E+01 -0.84432414693E+02  0.89575662015E+02  0.00000000000E+00 0.  1.
         -2    1    1    2    0  502  0.28673245746E+02  0.85329685867E+01  0.89147644475E+01  0.31216015115E+02  0.00000000000E+00 0. -1.
</event>
<event>
 4    1  0.1776638E+004  0.2107512E+02  0.7546771E-02  0.1518195E+00
         21   -1    0    0  501  502  0.00000000000E+00  0.00000000000E+00  0.19636505535E+03  0.19636505535E+03  0.00000000000E+00 0.  1.
         21   -1    0    0  502  503 -0.00000000000E+00 -0.00000000000E+00 -0.55115179179E+01  0.55115179179E+01  0.00000000000E+00 0. -1.
          2    1    1    2  501    0  0.20569058805E+02 -0.45906745384E+01  0.17293282975E+03  0.17421229600E+03  0.00000000000E+00 0.  1.
         -2    1    1    2    0  503 -0.20569058805E+02  0.45906745384E+01  0.17920707682E+02  0.27664277266E+02  0.00000000000E+00 0. -1.
</event>
<event>
 4    1  0.1776638E+004  0.2152096E+02  0.7546771E-02  0.1511955E+00
         21   -1    0    0  503  502  0.00000000000E+00  0.00000000000E+00  0.61426963500E+02  0.61426963500E+02  0.00000000000E+00 0.  1.
         21   -1    0    0  501  503 -0.00000000000E+00 -0.00000000000E+00 -0.23103147644E+02  0.23103147644E+02  0.00000000000E+00 0. -1.
          2    1    1    2  501    0  0.11730611712E+02  0.18042848865E+02 -0.15527455146E+02  0.26537775144E+02  0.00000000000E+00 0. -1.
         -2    1    1    2    0  502 -0.11730611712E+02 -0.18042848865E+02  0.53851271001E+02  0.57992336000E+02  0.00000000000E+00 0.  1.
</event>
<event>
 4    1  0.1776638E+004  0.2088722E+02  0.7546771E-02  0.1520881E+00
         21   -1    0    0  501  502  0.00000000000E+00  0.00000000000E+00  0.19160857858E+02  0.19160857858E+02  0.00000000000E+00 0.  1.
         21   -1    0    0  502  503 -0.00000000000E+00 -0.00000000000E+00 -0.44492597306E+02  0.44492597306E+02  0.00000000000E+00 0. -1.
          2    1    1    2  501    0  0.13957934753E+02 -0.15538720910E+02  0.95730057153E+01  0.22976471194E+02  0.00000000000E+00 0.  1.
         -2    1    1    2    0  503 -0.13957934753E+02  0.15538720910E+02 -0.34904745163E+02  0.40676983971E+02  0.00000000000E+00 0. -1.
</event>
<event>
 4    1  0.1776638E+004  0.3693000E+02  0.7546771E-02  0.1367480E+00
         21   -1    0    0  501  502  0.00000000000E+00  0.00000000000E+00  0.57191061324E+03  0.57191061324E+03  0.00000000000E+00 0. -1.
         21   -1    0    0  502  503 -0.00000000000E+00 -0.00000000000E+00 -0.25970878952E+01  0.25970878952E+01  0.00000000000E+00 0.  1.
          2    1    1    2  501    0  0.52571689879E+01 -0.36553887753E+02  0.36680657014E+03  0.36866093423E+03  0.00000000000E+00 0. -1.
         -2    1    1    2    0  503 -0.52571689879E+01  0.36553887753E+02  0.20250695521E+03  0.20584676691E+03  0.00000000000E+00 0.  1.
</event>
<event>
 4    1  0.1776638E+004  0.2046664E+02  0.7546771E-02  0.1527018E+00
         21   -1    0    0  501  502  0.00000000000E+00  0.00000000000E+00  0.10066734317E+03  0.10066734317E+03  0.00000000000E+00 0. -1.
         21   -1    0    0  502  503 -0.00000000000E+00 -0.00000000000E+00 -0.68855201411E+02  0.68855201411E+02  0.00000000000E+00 0.  1.
          2    1    1    2  501    0 -0.35335246400E+01  0.20159307609E+02  0.98066281965E+02  0.10017923506E+03  0.00000000000E+00 0. -1.
         -2    1    1    2    0  503  0.35335246400E+01 -0.20159307609E+02 -0.66254140208E+02  0.69343309514E+02  0.00000000000E+00 0.  1.
</event>
<event>
 4    1  0.1776638E+004  0.2091649E+02  0.7546771E-02  0.1520460E+00
         21   -1    0    0  501  502  0.00000000000E+00  0.00000000000E+00  0.10511206659E+01  0.10511206659E+01  0.00000000000E+00 0.  1.
         21   -1    0    0  502  503 -0.00000000000E+00 -0.00000000000E+00 -0.47670382889E+03  0.47670382889E+03  0.00000000000E+00 0. -1.
          2    1    1    2  501    0  0.20211158977E+02  0.53859801002E+01 -0.15273945205E+03  0.15416497637E+03  0.00000000000E+00 0.  1.
         -2    1    1    2    0  503 -0.20211158977E+02 -0.53859801002E+01 -0.32291325617E+03  0.32358997318E+03  0.00000000000E+00 0. -1.
</event>
<event>
 4    1  0.1776638E+004  0.2550298E+02  0.7546771E-02  0.1463254E+00
         21   -1    0    0  503  502  0.00000000000E+00  0.00000000000E+00  0.49613711853E+01  0.49613711853E+01  0.00000000000E+00 0.  1.
         21   -1    0    0  501  503 -0.00000000000E+00 -0.00000000000E+00 -0.15209228690E+03  0.15209228690E+03  0.00000000000E+00 0. -1.
          2    1    1    2  501    0  0.25298341968E+02  0.32242851633E+01 -0.10274405923E+03  0.10586190924E+03  0.00000000000E+00 0.  1.
         -2    1    1    2    0  502 -0.25298341968E+02 -0.32242851633E+01 -0.44386856488E+02  0.51191748847E+02  0.00000000000E+00 0. -1.
</event>
<event>
 4    1  0.1776638E+004  0.2042246E+02  0.7546771E-02  0.1527673E+00
         21   -1    0    0  501  502  0.00000000000E+00  0.00000000000E+00  0.14676981021E+02  0.14676981021E+02  0.00000000000E+00 0. -1.
         21   -1    0    0  502  503 -0.00000000000E+00 -0.00000000000E+00 -0.12469695714E+03  0.12469695714E+03  0.00000000000E+00 0.  1.
          2    1    1    2  501    0 -0.20421548087E+02  0.19332887228E+00  0.62238389231E+01  0.21349781574E+02  0.00000000000E+00 0. -1.
         -2    1    1    2    0  503  0.20421548087E+02 -0.19332887228E+00 -0.11624381504E+03  0.11802415658E+03  0.00000000000E+00 0.  1.
</event>
<event>
 4    1  0.1776638E+004  0.2286807E+02  0.7546771E-02  0.1494161E+00
         21   -1    0    0  503  502  0.00000000000E+00  0.00000000000E+00  0.43160359330E+01  0.43160359330E+01  0.00000000000E+00 0.  1.
         21   -1    0    0  501  503 -0.00000000000E+00 -0.00000000000E+00 -0.18349737977E+03  0.18349737977E+03  0.00000000000E+00 0. -1.
          2    1    1    2  501    0  0.13456310477E+02  0.18489900847E+02 -0.14432270464E+03  0.14612320760E+03  0.00000000000E+00 0. -1.
         -2    1    1    2    0  502 -0.13456310477E+02 -0.18489900847E+02 -0.34858639200E+02  0.41690208105E+02  0.00000000000E+00 0.  1.
</event>
<event>
 4    1  0.1776638E+004  0.2153205E+02  0.7546771E-02  0.1511802E+00
         21   -1    0    0  501  502  0.00000000000E+00  0.00000000000E+00  0.10271196728E+03  0.10271196728E+03  0.00000000000E+00 0.  1.
         21   -1    0    0  502  503 -0.00000000000E+00 -0.00000000000E+00 -0.49461222945E+01  0.49461222945E+01  0.00000000000E+00 0. -1.
          2    1    1    2  501    0 -0.11223669300E+01  0.21502782607E+02  0.32970052980E+02  0.39378341267E+02  0.00000000000E+00 0. -1.
         -2    1    1    2    0  503  0.11223669300E+01 -0.21502782607E+02  0.64795792003E+02  0.68279748305E+02  0.00000000000E+00 0.  1.
</event>
<event>
 4    1  0.1776638E+004  0.3444372E+02  0.7546771E-02  0.1384517E+00
         21   -1    0    0  501  502  0.00000000000E+00  0.00000000000E+00  0.30471887760E+03  0.30471887760E+03  0.00000000000E+00 0.  1.
         21   -1    0    0  502  503 -0.00000000000E+00 -0.00000000000E+00 -0.43159472009E+01  0.43159472009E+01  0.00000000000E+00 0. -1.
          2    1    1    2  501    0  0.14185276787E+02  0.31387058848E+02  0.10184932972E+03  0.10751583839E+03  0.00000000000E+00 0. -1.
         -2    1    1    2    0  503 -0.14185276787E+02 -0.31387058848E+02  0.19855360068E+03  0.20151898641E+03  0.00000000000E+00 0.  1.
</event>
<event>
 4    1  0.1776638E+004  0.2041833E+02  0.7546771E-02  0.1527734E+00
         21   -1    0    0  503  502  0.00000000000E+00  0.00000000000E+00  0.13857763980E+02  0.13857763980E+02  0.00000000000E+00 0. -1.
         21   -1    0    0  501  503 -0.00000000000E+00 -0.00000000000E+00 -0.34136740013E+02  0.34136740013E+02  0.00000000000E+00 0.  1.
          2    1    1    2  501    0 -0.14226371230E+02  0.14646456110E+02 -0.18407117378E+02  0.27490549014E+02  0.00000000000E+00 0. -1.
         -2    1    1    2    0  502  0.14226371230E+02 -0.14646456110E+02 -0.18718586548E+01  0.20503954979E+02  0.00000000000E+00 0.  1.
</event>
<event>
 4    1  0.1776638E+004  0.2464006E+02  0.7546771E-02  0.1472871E+00
         21   -1    0    0  503  502  0.00000000000E+00  0.00000000000E+00  0.13876191088E+02  0.13876191088E+02  0.00000000000E+00 0.  1.
         21   -1    0    0  501  503 -0.00000000000E+00 -0.00000000000E+00 -0.11086430706E+03  0.11086430706E+03  0.00000000000E+00 0. -1.
          2    1    1    2  501    0  0.19556885918E+02  0.14988687889E+02 -0.97020415116E+02  0.10010041709E+03  0.00000000000E+00 0. -1.
         -2    1    1    2    0  502 -0.19556885918E+02 -0.14988687889E+02  0.32299144819E-01  0.24640081061E+02  0.00000000000E+00 0.  1.
</event>
<event>
 4    1  0.1776638E+004  0.2182155E+02  0.7546771E-02  0.1507851E+00
         21   -1    0    0  501  502  0.00000000000E+00  0.00000000000E+00  0.25341967573E+01  0.25341967573E+01  0.00000000000E+00 0.  1.
         21   -1    0    0  502  503 -0.00000000000E+00 -0.00000000000E+00 -0.18798784696E+03  0.18798784696E+03  0.00000000000E+00 0. -1.
          2    1    1    2  501    0 -0.21813144916E+02  0.60572209330E+00 -0.90689031226E+02  0.93277438725E+02  0.00000000000E+00 0.  1.
         -2    1    1    2    0  503  0.21813144916E+02 -0.60572209330E+00 -0.94764618981E+02  0.97244604997E+02  0.00000000000E+00 0. -1.
</event>
<event>
 4    1  0.1776638E+004  0.2271481E+02  0.7546771E-02  0.1496111E+00
         21   -1    0    0  503  502  0.00000000000E+00  0.00000000000E+00  0.30760898506E+01  0.30760898506E+01  0.00000000000E+00 0.  1.
         21   -1    0    0  501  503 -0.00000000000E+00 -0.00000000000E+00 -0.16872418901E+03  0.16872418901E+03  0.00000000000E+00 0. -1.
          2    1    1    2  501    0  0.14451494505E+02 -0.17524754433E+02 -0.89406945904E+02  0.92247301788E+02  0.00000000000E+00 0.  1.
         -2    1    1    2    0  502 -0.14451494505E+02  0.17524754433E+02 -0.76241153254E+02  0.79552977071E+02  0.00000000000E+00 0. -1.
</event>
<event>
 4    1  0.1776638E+004  0.2845651E+02  0.7546771E-02  0.1433501E+00
         21   -1    0    0  503  502  0.00000000000E+00  0.00000000000E+00  0.69982743266E+01  0.69982743266E+01  0.00000000000E+00 0.  1.
         21   -1    0    0  501  503 -0.00000000000E+00 -0.00000000000E+00 -0.29322663984E+03  0.29322663984E+03  0.00000000000E+00 0. -1.
          2    1    1    2  501    0  0.85752051903E+01 -0.27133722928E+02 -0.25991182527E+03  0.26146496894E+03  0.00000000000E+00 0. -1.
         -2    1    1    2    0  502 -0.85752051903E+01  0.27133722928E+02 -0.26316540237E+02  0.38759945227E+02  0.00000000000E+00 0.  1.
</event>
<event>
 4    1  0.1776638E+004  0.2181569E+02  0.7546771E-02  0.1507930E+00
         21   -1    0    0  501  502  0.00000000000E+00  0.00000000000E+00  0.53269705080E+02  0.53269705080E+02  0.00000000000E+00 0. -1.
         21   -1    0    0  502  503 -0.00000000000E+00 -0.00000000000E+00 -0.97621660491E+01  0.97621660491E+01  0.00000000000E+00 0.  1.
          2    1    1    2  501    0  0.49284658094E+01 -0.21251694172E+02  0.30931876713E+02  0.37851093477E+02  0.00000000000E+00 0.  1.
         -2    1    1    2    0  503 -0.49284658094E+01  0.21251694172E+02  0.12575662318E+02  0.25180777652E+02  0.00000000000E+00 0. -1.
</event>
<event>
 4    1  0.1776638E+004  0.2376739E+02  0.7546771E-02  0.1483080E+00
         21   -1    0    0  501  502  0.00000000000E+00  0.00000000000E+00  0.85787640318E+01  0.85787640318E+01  0.00000000000E+00 0.  1.
         21   -1    0    0  502  503 -0.00000000000E+00 -0.00000000000E+00 -0.18255488468E+03  0.18255488468E+03  0.00000000000E+00 0. -1.
          2    1    1    2  501    0  0.12166026705E+01  0.23736232699E+02 -0.10576357810E+02  0.26014384662E+02  0.00000000000E+00 0.  1.
         -2    1    1    2    0  503 -0.12166026705E+01 -0.23736232699E+02 -0.16339976283E+03  0.16511926405E+03  0.00000000000E+00 0. -1.
</event>
<event>
 4    1  0.1776638E+004  0.2266108E+02  0.7546771E-02  0.1496798E+00
         21   -1    0    0  503  502  0.00000000000E+00  0.00000000000E+00  0.10733664896E+02  0.10733664896E+02  0.00000000000E+00 0.  1.
         21   -1    0    0  501  503 -0.00000000000E+00 -0.00000000000E+00 -0.68446862339E+02  0.68446862339E+02  0.00000000000E+00 0. -1.
          2    1    1    2  501    0  0.17183801235E+02  0.14773002058E+02 -0.50578205381E+02  0.55422734273E+02  0.00000000000E+00 0.  1.
         -2    1    1    2    0  502 -0.17183801235E+02 -0.14773002058E+02 -0.71349920612E+01  0.23757792961E+02  0.00000000000E+00 0. -1.
</event>
<event>
 4    1  0.1776638E+004  0.2633675E+02  0.7546771E-02  0.1454387E+00
         21   -1    0    0  501  502  0.00000000000E+00  0.00000000000E+00  0.62917802221E+01  0.62917802221E+01  0.00000000000E+00 0. -1.
         21   -1    0    0  502  503 -0.00000000000E+00 -0.00000000000E+00 -0.11943559423E+03  0.11943559423E+03  0.00000000000E+00 0.  1.
          2    1    1    2  501    0 -0.18307920557E+02  0.18932634416E+02 -0.39131666021E+02  0.47168971651E+02  0.00000000000E+00 0. -1.
         -2    1    1    2    0  503  0.18307920557E+02 -0.18932634416E+02 -0.74012147983E+02  0.78558402798E+02  0.00000000000E+00 0.  1.
</event>
<event>
 4    1  0.1776638E+004  0.3064375E+02  0.7546771E-02  0.1414083E+00
         21   -1    0    0  501  502  0.00000000000E+00  0.00000000000E+00  0.35972521152E+03  0.35972521152E+03  0.00000000000E+00 0. -1.
         21   -1    0    0  502  503 -0.00000000000E+00 -0.00000000000E+00 -0.30364227592E+01  0.30364227592E+01  0.00000000000E+00 0.  1.
          2    1    1    2  501    0 -0.56914718838E+01 -0.30110567994E+02  0.24628180230E+03  0.24818091244E+03  0.00000000000E+00 0. -1.
         -2    1    1    2    0  503  0.56914718838E+01  0.30110567994E+02  0.11040698646E+03  0.11458072184E+03  0.00000000000E+00 0.  1.
</event>
<event>
 4    1  0.1776638E+004  0.2230674E+02  0.7546771E-02  0.1501392E+00
         21   -1    0    0  503  502  0.00000000000E+00  0.00000000000E+00  0.82218669638E+00  0.82218669638E+00  0.00000000000E+00 0. -1.
         21   -1    0    0  501  503 -0.00000000000E+00 -0.00000000000E+00 -0.71615389933E+03  0.71615389933E+03  0.00000000000E+00 0.  1.
          2    1    1    2  501    0  0.17747720774E+01  0.22236028783E+02 -0.49876834637E+03  0.49926691672E+03  0.00000000000E+00 0.  1.
         -2    1    1    2    0  502 -0.17747720774E+01 -0.22236028783E+02 -0.21656336627E+03  0.21770916931E+03  0.00000000000E+00 0. -1.
</event>
<event>
 4    1  0.1776638E+004  0.2809859E+02  0.7546771E-02  0.1436874E+00
         21   -1    0    0  501  502  0.00000000000E+00  0.00000000000E+00  0.40883131280E+01  0.40883131280E+01  0.00000000000E+00 0.  1.
         21   -1    0    0  502  503 -0.00000000000E+00 -0.00000000000E+00 -0.21642838179E+03  0.21642838179E+03  0.00000000000E+00 0. -1.
          2    1    1    2  501    0  0.16001661439E+02  0.23097134633E+02 -0.14235432663E+03  0.14510094798E+03  0.00000000000E+00 0. -1.
         -2    1    1    2    0  503 -0.16001661439E+02 -0.23097134633E+02 -0.69985742032E+02  0.75415746928E+02  0.00000000000E+00 0.  1.
</event>
<event>
 4    1  0.1776638E+004  0.3930631E+02  0.7546771E-02  0.1352599E+00
         21   -1    0    0  501  502  0.00000000000E+00  0.00000000000E+00  0.25576568179E+03  0.25576568179E+03  0.00000000000E+00 0.  1.
         21   -1    0    0  502  503 -0.00000000000E+00 -0.00000000000E+00 -0.64731941165E+01  0.64731941165E+01  0.00000000000E+00 0. -1.
          2    1    1    2  501    0  0.19622966036E+02  0.34057671506E+02  0.15854104868E+03  0.16334090088E+03  0.00000000000E+00 0.  1.
         -2    1    1    2    0  503 -0.19622966036E+02 -0.34057671506E+02  0.90751438989E+02  0.98897975020E+02  0.00000000000E+00 0. -1.
</event>
<event>
 4    1  0.1776638E+004  0.2896222E+02  0.7546771E-02  0.1428834E+00
         21   -1    0    0  501  502  0.00000000000E+00  0.00000000000E+00  0.12392027658E+03  0.12392027658E+03  0.00000000000E+00 0.  1.
         21   -1    0    0  502  503 -0.00000000000E+00 -0.00000000000E+00 -0.11097958273E+02  0.11097958273E+02  0.00000000000E+00 0. -1.
          2    1    1    2  501    0 -0.23406712796E+02 -0.17056849819E+02  0.98574500865E+02  0.10274114342E+03  0.00000000000E+00 0.  1.
         -2    1    1    2    0  503  0.23406712796E+02  0.17056849819E+02  0.14247817438E+02  0.32277091434E+02  0.00000000000E+00 0. -1.
</event>
<event>
 4    1  0.1776638E+004  0.2058521E+02  0.7546771E-02  0.1525270E+00
         21   -1    0    0  501  502  0.00000000000E+00  0.00000000000E+00  0.51169332202E+02  0.51169332202E+02  0.00000000000E+00 0.  1.
         21   -1    0    0  502  503 -0.00000000000E+00 -0.00000000000E+00 -0.99574564097E+01  0.99574564097E+01  0.00000000000E+00 0. -1.
          2    1    1    2  501    0 -0.12122430398E+02  0.16637230390E+02  0.33145407646E+02  0.39017544795E+02  0.00000000000E+00 0.  1.
         -2    1    1    2    0  503  0.12122430398E+02 -0.16637230390E+02  0.80664681466E+01  0.22109243817E+02  0.00000000000E+00 0. -1.
</event>
<event>
 4    1  0.1776638E+004  0.2461175E+02  0.7546771E-02  0.1473194E+00
         21   -1    0    0  503  502  0.00000000000E+00  0.00000000000E+00  0.55969066695E+01  0.55969066695E+01  0.00000000000E+00 0. -1.
         21   -1    0    0  501  503 -0.00000000000E+00 -0.00000000000E+00 -0.15633145833E+03  0.15633145833E+03  0.00000000000E+00 0.  1.
          2    1    1    2  501    0  0.23364074839E+02 -0.77367988986E+01 -0.12027914121E+03  0.12277137231E+03  0.00000000000E+00 0.  1.
         -2    1    1    2    0  502 -0.23364074839E+02  0.77367988986E+01 -0.30455410452E+02  0.39156992684E+02  0.00000000000E+00 0. -1.
</event>
<event>
 4    1  0.1776638E+004  0.2303436E+02  0.7546771E-02  0.1492067E+00
         21   -1    0    0  501  502  0.00000000000E+00  0.00000000000E+00  0.58598117867E+01  0.58598117867E+01  0.00000000000E+00 0. -1.
         21   -1    0    0  502  503 -0.00000000000E+00 -0.00000000000E+00 -0.13414766026E+03  0.13414766026E+03  0.00000000000E+00 0.  1.
          2    1    1    2  501    0 -0.23019792146E+02 -0.81897044329E+00 -0.24233898370E+02  0.33434463855E+02  0.00000000000E+00 0.  1.
         -2    1    1    2    0  503  0.23019792146E+02  0.81897044329E+00 -0.10405395010E+03  0.10657300819E+03  0.00000000000E+00 0. -1.
</event>
<event>
 4    1  0.1776638E+004  0.2818427E+02  0.7546771E-02  0.1436061E+00
         21   -1    0    0  501  502  0.00000000000E+00  0.00000000000E+00  0.23680710378E+02  0.23680710378E+02  0.00000000000E+00 0.  1.
         21   -1    0    0  502  503 -0.00000000000E+00 -0.00000000000E+00 -0.71526438600E+02  0.71526438600E+02  0.00000000000E+00 0. -1.
          2    1    1    2  501    0 -0.25923743047E+02  0.11059506102E+02  0.10766465293E+02  0.30170679536E+02  0.00000000000E+00 0.  1.
         -2    1    1    2    0  503  0.25923743047E+02 -0.11059506102E+02 -0.58612193516E+02  0.65036469442E+02  0.00000000000E+00 0. -1.
</event>
<event>
 4    1  0.1776638E+004  0.2450089E+02  0.7546771E-02  0.1474465E+00
         21   -1    0    0  501  502  0.00000000000E+00  0.00000000000E+00  0.65827295838E+01  0.65827295838E+01  0.00000000000E+00 0. -1.
         21   -1    0    0  502  503 -0.00000000000E+00 -0.00000000000E+00 -0.35274144608E+03  0.35274144608E+03  0.00000000000E+00 0.  1.
          2    1    1    2  501    0 -0.64660626035E+01  0.23632257501E+02 -0.18374149152E+02  0.30625200690E+02  0.00000000000E+00 0. -1.
         -2    1    1    2    0  503  0.64660626035E+01 -0.23632257501E+02 -0.32778456735E+03  0.32869897498E+03  0.00000000000E+00 0.  1.
</event>
<event>
 4    1  0.1776638E+004  0.2069668E+02  0.7546771E-02  0.1523640E+00
         21   -1    0    0  501  502  0.00000000000E+00  0.00000000000E+00  0.47572140843E+03  0.47572140843E+03  0.00000000000E+00 0. -1.
         21   -1    0    0  502  503 -0.00000000000E+00 -0.00000000000E+00 -0.14080969751E+01  0.14080969751E+01  0.00000000000E+00 0.  1.
          2    1    1    2  501    0  0.11055891374E+02  0.17496279467E+02  0.38040203422E+03  0.38096464424E+03  0.00000000000E+00 0. -1.
         -2    1    1    2    0  503 -0.11055891374E+02 -0.17496279467E+02  0.93911277239E+02  0.96164861160E+02  0.00000000000E+00 0.  1.
</event>
<event>
 4    1  0.1776638E+004  0.2645172E+02  0.7546771E-02  0.1453195E+00
         21   -1    0    0  501  502  0.00000000000E+00  0.00000000000E+00  0.50474938985E+03  0.50474938985E+03  0.00000000000E+00 0. -1.
         21   -1    0    0  502  503 -0.00000000000E+00 -0.00000000000E+00 -0.19397880289E+01  0.19397880289E+01  0.00000000000E+00 0.  1.
          2    1    1    2  501    0 -0.86301579396E+01  0.25004280526E+02  0.38674288292E+03  0.38764642545E+03  0.00000000000E+00 0. -1.
         -2    1    1    2    0  503  0.86301579396E+01 -0.25004280526E+02  0.11606671890E+03  0.11904275244E+03  0.00000000000E+00 0.  1.
</event>
<event>
 4    1  0.1776638E+004  0.2077813E+02  0.7546771E-02  0.1522456E+00
         21   -1    0    0  501  502  0.00000000000E+00  0.00000000000E+00  0.90809635685E+02  0.90809635685E+02  0.00000000000E+00 0. -1.
         21   -1    0    0  502  503 -0.00000000000E+00 -0.00000000000E+00 -0.67667547958E+01  0.67667547958E+01  0.00000000000E+00 0.  1.
          2    1    1    2  501    0  0.20190758019E+02 -0.49054909121E+01  0.15414534543E+02  0.25871575631E+02  0.00000000000E+00 0.  1.
         -2    1    1    2    0  503 -0.20190758019E+02  0.49054909121E+01  0.68628346346E+02  0.71704814849E+02  0.00000000000E+00 0. -1.
</event>
<event>
 4    1  0.1776638E+004  0.8201856E+02  0.7546771E-02  0.1199237E+00
         21   -1    0    0  503  502  0.00000000000E+00  0.00000000000E+00  0.22861345375E+02  0.22861345375E+02  0.00000000000E+00 0. -1.
         21   -1    0    0  501  503 -0.00000000000E+00 -0.00000000000E+00 -0.59052323644E+03  0.59052323644E+03  0.00000000000E+00 0.  1.
          2    1    1    2  501    0 -0.69808227872E+02  0.43056421113E+02 -0.50106483933E+03  0.50773321468E+03  0.00000000000E+00 0.  1.
         -2    1    1    2    0  502  0.69808227872E+02 -0.43056421113E+02 -0.66597051736E+02  0.10565136714E+03  0.00000000000E+00 0. -1.
</event>
<event>
 4    1  0.1776638E+004  0.2482867E+02  0.7546771E-02  0.1470729E+00
         21   -1    0    0  501  502  0.00000000000E+00  0.00000000000E+00  0.99843233971E+03  0.99843233971E+03  0.00000000000E+00 0. -1.
         21   -1    0    0  502  503 -0.00000000000E+00 -0.00000000000E+00 -0.70888542163E+00  0.70888542163E+00  0.00000000000E+00 0.  1.
          2    1    1    2  501    0 -0.19846343056E+02 -0.14919304386E+02  0.67829850268E+03  0.67875276921E+03  0.00000000000E+00 0.  1.
         -2    1    1    2    0  503  0.19846343056E+02  0.14919304386E+02  0.31942495160E+03  0.32038845591E+03  0.00000000000E+00 0. -1.
</event>
<event>
 4    1  0.1776638E+004  0.4745686E+02  0.7546771E-02  0.1309592E+00
         21   -1    0    0  501  502  0.00000000000E+00  0.00000000000E+00  0.61848325274E+02  0.61848325274E+02  0.00000000000E+00 0.  1.
         21   -1    0    0  502  503 -0.00000000000E+00 -0.00000000000E+00 -0.75425692060E+02  0.75425692060E+02  0.00000000000E+00 0. -1.
          2    1    1    2  501    0 -0.44516433316E+02  0.16445075155E+02  0.42573610383E+02  0.63754730280E+02  0.00000000000E+00 0.  1.
         -2    1    1    2    0  503  0.44516433316E+02 -0.16445075155E+02 -0.56150977168E+02  0.73519287054E+02  0.00000000000E+00 0. -1.
</event>
<event>
 4    1  0.1776638E+004  0.3170313E+02  0.7546771E-02  0.1405352E+00
         21   -1    0    0  501  502  0.00000000000E+00  0.00000000000E+00  0.12328944825E+02  0.12328944825E+02  0.00000000000E+00 0. -1.
         21   -1    0    0  502  503 -0.00000000000E+00 -0.00000000000E+00 -0.12427533025E+03  0.12427533025E+03  0.00000000000E+00 0.  1.
          2    1    1    2  501    0  0.10972444182E+02  0.29743809415E+02 -0.15912052162E+02  0.35472272747E+02  0.00000000000E+00 0. -1.
         -2    1    1    2    0  503 -0.10972444182E+02 -0.29743809415E+02 -0.96034333268E+02  0.10113200233E+03  0.00000000000E+00 0.  1.
</event>
<event>
 4    1  0.1776638E+004  0.2218085E+02  0.7546771E-02  0.1503049E+00
         21   -1    0    0  503  502  0.00000000000E+00  0.00000000000E+00  0.29343982478E+02  0.29343982478E+02  0.00000000000E+00 0.  1.
         21   -1    0    0  501  503 -0.00000000000E+00 -0.00000000000E+00 -0.56463715156E+02  0.56463715156E+02  0.00000000000E+00 0. -1.
          2    1    1    2  501    0  0.11925153197E+01 -0.22148774358E+02 -0.49534186051E+02  0.54273620536E+02  0.00000000000E+00 0. -1.
         -2    1    1    2    0  502 -0.11925153197E+01  0.22148774358E+02  0.22414453373E+02  0.31534077097E+02  0.00000000000E+00 0.  1.
</event>
<event>
 4    1  0.1776638E+004  0.2062276E+02  0.7546771E-02  0.1524720E+00
         21   -1    0    0  501  502  0.00000000000E+00  0.00000000000E+00  0.11095388098E+02  0.11095388098E+02  0.00000000000E+00 0.  1.
         21   -1    0    0  502  503 -0.00000000000E+00 -0.00000000000E+00 -0.56105388019E+02  0.56105388019E+02  0.00000000000E+00 0. -1.
          2    1    1    2  501    0  0.42409290751E+01  0.20181989706E+02 -0.35929597726E+01  0.20933407459E+02  0.00000000000E+00 0.  1.
         -2    1    1    2    0  503 -0.42409290751E+01 -0.20181989706E+02 -0.41417040149E+02  0.46267368659E+02  0.00000000000E+00 0. -1.
</event>
<event>
 4    1  0.1776638E+004  0.3995668E+02  0.7546771E-02  0.1348740E+00
         21   -1    0    0  501  502  0.00000000000E+00  0.00000000000E+00  0.15485383784E+03  0.15485383784E+03  0.00000000000E+00 0. -1.
         21   -1    0    0  502  503 -0.00000000000E+00 -0.00000000000E+00 -0.36527563652E+02  0.36527563652E+02  0.00000000000E+00 0.  1.
          2    1    1    2  501    0  0.34567357073E+02 -0.20040818031E+02  0.14023233858E+03  0.14581373511E+03  0.00000000000E+00 0. -1.
         -2    1    1    2    0  503 -0.34567357073E+02  0.20040818031E+02 -0.21906064393E+02  0.45567666383E+02  0.00000000000E+00 0.  1.
</event>
<event>
 4    1  0.1776638E+004  0.7537996E+02  0.7546771E-02  0.1214999E+00
         21   -1    0    0  501  502  0.00000000000E+00  0.00000000000E+00  0.15963925095E+03  0.15963925095E+03  0.00000000000E+00 0.  1.
         21   -1    0    0  502  503 -0.00000000000E+00 -0.00000000000E+00 -0.40623007179E+02  0.40623007179E+02  0.00000000000E+00 0. -1.
          2    1    1    2  501    0 -0.52859453139E+02  0.53740268760E+02  0.94740403268E+02  0.12106974141E+03  0.00000000000E+00 0.  1.
         -2    1    1    2    0  503  0.52859453139E+02 -0.53740268760E+02  0.24275840501E+02  0.79192516721E+02  0.00000000000E+00 0. -1.
</event>
<event>
 4    1  0.1776638E+004  0.2023707E+02  0.7546771E-02  0.1530442E+00
         21   -1    0    0  503  502  0.00000000000E+00  0.00000000000E+00  0.29913239481E+02  0.29913239481E+02  0.00000000000E+00 0. -1.
         21   -1    0    0  501  503 -0.00000000000E+00 -0.00000000000E+00 -0.13485137623E+03  0.13485137623E+03  0.00000000000E+00 0.  1.
          2    1    1    2  501    0  0.18893001004E+02 -0.72521251792E+01 -0.13055751258E+03  0.13211662612E+03  0.00000000000E+00 0.  1.
         -2    1    1    2    0  502 -0.18893001004E+02  0.72521251792E+01  0.25619375829E+02  0.32647989592E+02  0.00000000000E+00 0. -1.
</event>
<event>
 4    1  0.1776638E+004  0.2896492E+02  0.7546771E-02  0.1428810E+00
         21   -1    0    0  503  502  0.00000000000E+00  0.00000000000E+00  0.23437489015E+01  0.23437489015E+01  0.00000000000E+00 0. -1.
         21   -1    0    0  501  503 -0.00000000000E+00 -0.00000000000E+00 -0.40932200992E+03  0.40932200992E+03  0.00000000000E+00 0.  1.
          2    1    1    2  501    0  0.24610278738E+02  0.15274182904E+02 -0.27640240218E+03  0.27791591249E+03  0.00000000000E+00 0.  1.
         -2    1    1    2    0  502 -0.24610278738E+02 -0.15274182904E+02 -0.13057585883E+03  0.13374984633E+03  0.00000000000E+00 0. -1.
</event>
<event>
 4    1  0.1776638E+004  0.2858686E+02  0.7546771E-02  0.1432287E+00
         21   -1    0    0  501  502  0.00000000000E+00  0.00000000000E+00  0.58528430805E+02  0.58528430805E+02  0.00000000000E+00 0. -1.
         21   -1    0    0  502  503 -0.00000000000E+00 -0.00000000000E+00 -0.24184076095E+02  0.24184076095E+02  0.00000000000E+00 0.  1.
          2    1    1    2  501    0  0.28584110723E+02 -0.39668027035E+00  0.44058621288E+02  0.52520194696E+02  0.00000000000E+00 0. -1.
         -2    1    1    2    0  503 -0.28584110723E+02  0.39668027035E+00 -0.97142665776E+01  0.30192312204E+02  0.00000000000E+00 0.  1.
</event>
<event>
 4    1  0.1776638E+004  0.2700366E+02  0.7546771E-02  0.1447571E+00
         21   -1    0    0  503  502  0.00000000000E+00  0.00000000000E+00  0.24208042858E+03  0.24208042858E+03  0.00000000000E+00 0. -1.
         21   -1    0    0  501  503 -0.00000000000E+00 -0.00000000000E+00 -0.65467775673E+01  0.65467775673E+01  0.00000000000E+00 0.  1.
          2    1    1    2  501    0  0.19841925628E+02  0.18316546450E+02  0.26424344686E+02  0.37781528272E+02  0.00000000000E+00 0.  1.
         -2    1    1    2    0  502 -0.19841925628E+02 -0.18316546450E+02  0.20910930633E+03  0.21084567788E+03  0.00000000000E+00 0. -1.
</event>
<event>
 4    1  0.1776638E+004  0.4338189E+02  0.7546771E-02  0.1329732E+00
         21   -1    0    0  501  502  0.00000000000E+00  0.00000000000E+00  0.32471861839E+03  0.32471861839E+03  0.00000000000E+00 0. -1.
         21   -1    0    0  502  503 -0.00000000000E+00 -0.00000000000E+00 -0.23120862891E+02  0.23120862891E+02  0.00000000000E+00 0.  1.
          2    1    1    2  501    0 -0.26309306637E+02 -0.34493599466E+02  0.30135031059E+03  0.30445688974E+03  0.00000000000E+00 0. -1.
         -2    1    1    2    0  503  0.26309306637E+02  0.34493599466E+02  0.24744491364E+00  0.43382591541E+02  0.00000000000E+00 0.  1.
</event>
<event>
 4    1  0.1776638E+004  0.2113070E+02  0.7546771E-02  0.1517407E+00
         21   -1    0    0  503  502  0.00000000000E+00  0.00000000000E+00  0.68250275017E+02  0.68250275017E+02  0.00000000000E+00 0. -1.
         21   -1    0    0  501  503 -0.00000000000E+00 -0.00000000000E+00 -0.28124924660E+02  0.28124924660E+02  0.00000000000E+00 0.  1.
          2    1    1    2  501    0  0.20115114100E+02  0.64721517007E+01 -0.22149992952E+02  0.30612558708E+02  0.00000000000E+00 0.  1.
         -2    1    1    2    0  502 -0.20115114100E+02 -0.64721517007E+01  0.62275343309E+02  0.65762640968E+02  0.00000000000E+00 0. -1.
</event>
<event>
 4    1  0.1776638E+004  0.3226857E+02  0.7546771E-02  0.1400855E+00
         21   -1    0    0  501  502  0.00000000000E+00  0.00000000000E+00  0.28202486054E+03  0.28202486054E+03  0.00000000000E+00 0. -1.
         21   -1    0    0  502  503 -0.00000000000E+00 -0.00000000000E+00 -0.13462306082E+02  0.13462306082E+02  0.00000000000E+00 0.  1.
          2    1    1    2  501    0 -0.20826682550E+02 -0.24647713525E+02  0.26014513408E+03  0.26213880154E+03  0.00000000000E+00 0. -1.
         -2    1    1    2    0  503  0.20826682550E+02  0.24647713525E+02  0.84174203834E+01  0.33348365087E+02  0.00000000000E+00 0.  1.
</event>
<event>
 4    1  0.1776638E+004  0.2720891E+02  0.7546771E-02  0.1445521E+00
         21   -1    0    0  503  502  0.00000000000E+00  0.00000000000E+00  0.26869992945E+02  0.26869992945E+02  0.00000000000E+00 0. -1.
         21   -1    0    0  501  503 -0.00000000000E+00 -0.00000000000E+00 -0.84256084373E+02  0.84256084373E+02  0.00000000000E+00 0.  1.
          2    1    1    2  501    0 -0.27101540430E+02  0.24147790636E+01 -0.74274917175E+02  0.79101757079E+02  0.00000000000E+00 0.  1.
         -2    1    1    2    0  502  0.27101540430E+02 -0.24147790636E+01  0.16888825748E+02  0.32024320238E+02  0.00000000000E+00 0. -1.
</event>
<event>
 4    1  0.1776638E+004  0.2206159E+02  0.7546771E-02  0.1504630E+00
         21   -1    0    0  503  502  0.00000000000E+00  0.00000000000E+00  0.11259113227E+03  0.11259113227E+03  0.00000000000E+00 0. -1.
         21   -1    0    0  501  503 -0.00000000000E+00 -0.00000000000E+00 -0.14643593445E+02  0.14643593445E+02  0.00000000000E+00 0.  1.
          2    1    1    2  501    0 -0.20826176455E+02  0.72790288100E+01 -0.44343702818E+01  0.22502833731E+02  0.00000000000E+00 0.  1.
         -2    1    1    2    0  502  0.20826176455E+02 -0.72790288100E+01  0.10238190911E+03  0.10473189198E+03  0.00000000000E+00 0. -1.
</event>
<event>
 4    1  0.1776638E+004  0.3040763E+02  0.7546771E-02  0.1416087E+00
         21   -1    0    0  501  502  0.00000000000E+00  0.00000000000E+00  0.67638957522E+02  0.67638957522E+02  0.00000000000E+00 0. -1.
         21   -1    0    0  502  503 -0.00000000000E+00 -0.00000000000E+00 -0.20641408631E+02  0.20641408631E+02  0.00000000000E+00 0.  1.
          2    1    1    2  501    0 -0.27534955241E+02 -0.12901550884E+02  0.49151002407E+02  0.57796581326E+02  0.00000000000E+00 0. -1.
         -2    1    1    2    0  503  0.27534955241E+02  0.12901550884E+02 -0.21534535158E+01  0.30483784828E+02  0.00000000000E+00 0.  1.
</event>
<event>
 4    1  0.1776638E+004  0.3906339E+02  0.7546771E-02  0.1354063E+00
         21   -1    0    0  501  502  0.00000000000E+00  0.00000000000E+00  0.15923062037E+03  0.15923062037E+03  0.00000000000E+00 0. -1.
         21   -1    0    0  502  503 -0.00000000000E+00 -0.00000000000E+00 -0.13918646523E+02  0.13918646523E+02  0.00000000000E+00 0.  1.
          2    1    1    2  501    0  0.15398205839E+02 -0.35900468000E+02  0.12097366971E+03  0.12712425854E+03  0.00000000000E+00 0. -1.
         -2    1    1    2    0  503 -0.15398205839E+02  0.35900468000E+02  0.24338304133E+02  0.46025008351E+02  0.00000000000E+00 0.  1.
</event>
<event>
 4    1  0.1776638E+004  0.3012127E+02  0.7546771E-02  0.1418545E+00
         21   -1    0    0  501  502  0.00000000000E+00  0.00000000000E+00  0.39290459658E+02  0.39290459658E+02  0.00000000000E+00 0.  1.
         21   -1    0    0  502  503 -0.00000000000E+00 -0.00000000000E+00 -0.25658449227E+02  0.25658449227E+02  0.00000000000E+00 0. -1.
          2    1    1    2  501    0  0.10103727451E+02 -0.28376145521E+02 -0.34547497996E+01  0.30318744025E+02  0.00000000000E+00 0. -1.
         -2    1    1    2    0  503 -0.10103727451E+02  0.28376145521E+02  0.17086760231E+02  0.34630164860E+02  0.00000000000E+00 0.  1.
</event>
<event>
 4    1  0.1776638E+004  0.2905469E+02  0.7546771E-02  0.1427993E+00
         21   -1    0    0  501  502  0.00000000000E+00  0.00000000000E+00  0.65922456757E+02  0.65922456757E+02  0.00000000000E+00 0.  1.
         21   -1    0    0  502  503 -0.00000000000E+00 -0.00000000000E+00 -0.53916908178E+02  0.53916908178E+02  0.00000000000E+00 0. -1.
          2    1    1    2  501    0  0.18787314985E+02 -0.22163293985E+02  0.58325192322E+02  0.65161360207E+02  0.00000000000E+00 0.  1.
         -2    1    1    2    0  503 -0.18787314985E+02  0.22163293985E+02 -0.46319643743E+02  0.54678004729E+02  0.00000000000E+00 0. -1.
</event>
<event>
 4    1  0.1776638E+004  0.3300747E+02  0.7546771E-02  0.1395140E+00
         21   -1    0    0  501  502  0.00000000000E+00  0.00000000000E+00  0.82471119276E+01  0.82471119276E+01  0.00000000000E+00 0. -1.
         21   -1    0    0  502  503 -0.00000000000E+00 -0.00000000000E+00 -0.13916213671E+03  0.13916213671E+03  0.00000000000E+00 0.  1.
          2    1    1    2  501    0  0.12567230441E+02  0.30521428756E+02 -0.48860956905E+02  0.58965125320E+02  0.00000000000E+00 0.  1.
         -2    1    1    2    0  503 -0.12567230441E+02 -0.30521428756E+02 -0.82054067873E+02  0.88444123314E+02  0.00000000000E+00 0. -1.
</event>
<event>
 4    1  0.1776638E+004  0.2927001E+02  0.7546771E-02  0.1426048E+00
         21   -1    0    0  503  502  0.00000000000E+00  0.00000000000E+00  0.33975259586E+02  0.33975259586E+02  0.00000000000E+00 0. -1.
         21   -1    0    0  501  503 -0.00000000000E+00 -0.00000000000E+00 -0.26527281702E+02  0.26527281702E+02  0.00000000000E+00 0.  1.
          2    1    1    2  501    0  0.28942329383E+02  0.43675006057E+01 -0.30008236749E+01  0.29423433423E+02  0.00000000000E+00 0.  1.
         -2    1    1    2    0  502 -0.28942329383E+02 -0.43675006057E+01  0.10448801559E+02  0.31079107865E+02  0.00000000000E+00 0. -1.
</event>
<event>
 4    1  0.1776638E+004  0.3151774E+02  0.7546771E-02  0.1406850E+00
         21   -1    0    0  503  502  0.00000000000E+00  0.00000000000E+00  0.11715111496E+03  0.11715111496E+03  0.00000000000E+00 0. -1.
         21   -1    0    0  501  503 -0.00000000000E+00 -0.00000000000E+00 -0.10424320256E+02  0.10424320256E+02  0.00000000000E+00 0.  1.
          2    1    1    2  501    0 -0.29965968363E+02 -0.97677319905E+01  0.25810501523E+02  0.40737572793E+02  0.00000000000E+00 0.  1.
         -2    1    1    2    0  502  0.29965968363E+02  0.97677319905E+01  0.80916293178E+02  0.86837862421E+02  0.00000000000E+00 0. -1.
</event>
<event>
 4    1  0.1776638E+004  0.3244155E+02  0.7546771E-02  0.1399501E+00
         21   -1    0    0  503  502  0.00000000000E+00  0.00000000000E+00  0.93947367964E+02  0.93947367964E+02  0.00000000000E+00 0.  1.
         21   -1    0    0  501  503 -0.00000000000E+00 -0.00000000000E+00 -0.11354486946E+02  0.11354486946E+02  0.00000000000E+00 0. -1.
          2    1    1    2  501    0  0.27684906735E+02 -0.16911540357E+02  0.47386064817E+02  0.57427287912E+02  0.00000000000E+00 0. -1.
         -2    1    1    2    0  502 -0.27684906735E+02  0.16911540357E+02  0.35206816202E+02  0.47874566998E+02  0.00000000000E+00 0.  1.
</event>
<event>
 4    1  0.1776638E+004  0.2416194E+02  0.7546771E-02  0.1478401E+00
         21   -1    0    0  501  502  0.00000000000E+00  0.00000000000E+00  0.15833324570E+03  0.15833324570E+03  0.00000000000E+00 0.  1.
         21   -1    0    0  502  503 -0.00000000000E+00 -0.00000000000E+00 -0.71303188314E+01  0.71303188314E+01  0.00000000000E+00 0. -1.
          2    1    1    2  501    0  0.74057862145E+01  0.22998988938E+02  0.13309205426E+03  0.13526749081E+03  0.00000000000E+00 0. -1.
         -2    1    1    2    0  503 -0.74057862145E+01 -0.22998988938E+02  0.18110872601E+02  0.30196073719E+02  0.00000000000E+00 0.  1.
</event>
<event>
 4    1  0.1776638E+004  0.2248612E+02  0.7546771E-02  0.1499054E+00
         21   -1    0    0  503  502  0.00000000000E+00  0.00000000000E+00  0.39784195189E+03  0.39784195189E+03  0.00000000000E+00 0.  1.
         21   -1    0    0  501  503 -0.00000000000E+00 -0.00000000000E+00 -0.17864813605E+01  0.17864813605E+01  0.00000000000E+00 0. -1.
          2    1    1    2  501    0  0.11361321769E+02 -0.19404797507E+02  0.90686451297E+02  0.93432640161E+02  0.00000000000E+00 0. -1.
         -2    1    1    2    0  502 -0.11361321769E+02  0.19404797507E+02  0.30536901923E+03  0.30619579309E+03  0.00000000000E+00 0.  1.
</event>
<event>
 4    1  0.1776638E+004  0.2610517E+02  0.7546771E-02  0.1456810E+00
         21   -1    0    0  503  502  0.00000000000E+00  0.00000000000E+00  0.51680528812E+01  0.51680528812E+01  0.00000000000E+00 0.  1.
         21   -1    0    0  501  503 -0.00000000000E+00 -0.00000000000E+00 -0.40017392934E+03  0.40017392934E+03  0.00000000000E+00 0. -1.
          2    1    1    2  501    0 -0.25678878750E+02 -0.46983980664E+01 -0.36345613603E+03  0.36439242936E+03  0.00000000000E+00 0. -1.
         -2    1    1    2    0  502  0.25678878750E+02  0.46983980664E+01 -0.31549740426E+02  0.40949552857E+02  0.00000000000E+00 0.  1.
</event>
<event>
 4    1  0.1776638E+004  0.2042104E+02  0.7546771E-02  0.1527694E+00
         21   -1    0    0  503  502  0.00000000000E+00  0.00000000000E+00  0.83224056391E+01  0.83224056391E+01  0.00000000000E+00 0.  1.
         21   -1    0    0  501  503 -0.00000000000E+00 -0.00000000000E+00 -0.14620208958E+03  0.14620208958E+03  0.00000000000E+00 0. -1.
          2    1    1    2  501    0  0.16084883531E+02 -0.12581553274E+02 -0.13157799226E+03  0.13315324633E+03  0.00000000000E+00 0. -1.
         -2    1    1    2    0  502 -0.16084883531E+02  0.12581553274E+02 -0.63016916784E+01  0.21371248887E+02  0.00000000000E+00 0.  1.
</event>
<event>
 4    1  0.1776638E+004  0.3838614E+02  0.7546771E-02  0.1358212E+00
         21   -1    0    0  503  502  0.00000000000E+00  0.00000000000E+00  0.52994328234E+03  0.52994328234E+03  0.00000000000E+00 0.  1.
         21   -1    0    0  501  503 -0.00000000000E+00 -0.00000000000E+00 -0.73014101208E+01  0.73014101208E+01  0.00000000000E+00 0. -1.
          2    1    1    2  501    0  0.14667591974E+02 -0.35473331152E+02  0.49946348136E+02  0.62993120017E+02  0.00000000000E+00 0. -1.
         -2    1    1    2    0  502 -0.14667591974E+02  0.35473331152E+02  0.47269552409E+03  0.47425157245E+03  0.00000000000E+00 0.  1.
</event>
<event>
 4    1  0.1776638E+004  0.2144855E+02  0.7546771E-02  0.1512956E+00
         21   -1    0    0  501  502  0.00000000000E+00  0.00000000000E+00  0.25796481497E+01  0.25796481497E+01  0.00000000000E+00 0.  1.
         21   -1    0    0  502  503 -0.00000000000E+00 -0.00000000000E+00 -0.18826617673E+03  0.18826617673E+03  0.00000000000E+00 0. -1.
          2    1    1    2  501    0 -0.61935340704E+01  0.20534860744E+02 -0.11476005174E+03  0.11674720487E+03  0.00000000000E+00 0. -1.
         -2    1    1    2    0  503  0.61935340704E+01 -0.20534860744E+02 -0.70926476842E+02  0.74098620010E+02  0.00000000000E+00 0.  1.
</event>
<event>
 4    1  0.1776638E+004  0.2454286E+02  0.7546771E-02  0.1473983E+00
         21   -1    0    0  501  502  0.00000000000E+00  0.00000000000E+00  0.29401176881E+03  0.29401176881E+03  0.00000000000E+00 0.  1.
         21   -1    0    0  502  503 -0.00000000000E+00 -0.00000000000E+00 -0.26286817701E+01  0.26286817701E+01  0.00000000000E+00 0. -1.
          2    1    1    2  501    0  0.23977799984E+02  0.52361439574E+01  0.21535829678E+03  0.21675227355E+03  0.00000000000E+00 0.  1.
         -2    1    1    2    0  503 -0.23977799984E+02 -0.52361439574E+01  0.76024790255E+02  0.79888177029E+02  0.00000000000E+00 0. -1.
</event>
<event>
 4    1  0.1776638E+004  0.2954638E+02  0.7546771E-02  0.1423580E+00
         21   -1    0    0  501  502  0.00000000000E+00  0.00000000000E+00  0.41647721528E+02  0.41647721528E+02  0.00000000000E+00 0. -1.
         21   -1    0    0  502  503 -0.00000000000E+00 -0.00000000000E+00 -0.39553954512E+02  0.39553954512E+02  0.00000000000E+00 0.  1.
          2    1    1    2  501    0 -0.37675975033E+01 -0.29305187485E+02  0.28883162832E+02  0.41318590243E+02  0.00000000000E+00 0. -1.
         -2    1    1    2    0  503  0.37675975033E+01  0.29305187485E+02 -0.26789395816E+02  0.39883085797E+02  0.00000000000E+00 0.  1.
</event>
<event>
 4    1  0.1776638E+004  0.2279097E+02  0.7546771E-02  0.1495140E+00
         21   -1    0    0  501  502  0.00000000000E+00  0.00000000000E+00  0.12760121277E+03  0.12760121277E+03  0.00000000000E+00 0. -1.
         21   -1    0    0  502  503 -0.00000000000E+00 -0.00000000000E+00 -0.50836486157E+01  0.50836486157E+01  0.00000000000E+00 0.  1.
          2    1    1    2  501    0  0.41307805574E+01  0.22413500097E+02  0.90872561288E+02  0.93686982712E+02  0.00000000000E+00 0. -1.
         -2    1    1    2    0  503 -0.41307805574E+01 -0.22413500097E+02  0.31645002864E+02  0.38997878672E+02  0.00000000000E+00 0.  1.
</event>
<event>
 4    1  0.1776638E+004  0.2349298E+02  0.7546771E-02  0.1486399E+00
         21   -1    0    0  503  502  0.00000000000E+00  0.00000000000E+00  0.26839255826E+01  0.26839255826E+01  0.00000000000E+00 0. -1.
         21   -1    0    0  501  503 -0.00000000000E+00 -0.00000000000E+00 -0.65403502788E+03  0.65403502788E+03  0.00000000000E+00 0.  1.
          2    1    1    2  501    0  0.23629272288E+01  0.23373841841E+02 -0.59755720612E+03  0.59801884125E+03  0.00000000000E+00 0.  1.
         -2    1    1    2    0  502 -0.23629272288E+01 -0.23373841841E+02 -0.53793896179E+02  0.58700112211E+02  0.00000000000E+00 0. -1.
</event>
<event>
 4    1  0.1776638E+004  0.2138879E+02  0.7546771E-02  0.1513786E+00
         21   -1    0    0  501  502  0.00000000000E+00  0.00000000000E+00  0.21741590833E+03  0.21741590833E+03  0.00000000000E+00 0.  1.
         21   -1    0    0  502  503 -0.00000000000E+00 -0.00000000000E+00 -0.33953439491E+01  0.33953439491E+01  0.00000000000E+00 0. -1.
          2    1    1    2  501    0  0.49022569522E+01  0.20819414775E+02  0.17509373930E+03  0.17639528820E+03  0.00000000000E+00 0.  1.
         -2    1    1    2    0  503 -0.49022569522E+01 -0.20819414775E+02  0.38926825081E+02  0.44415964086E+02  0.00000000000E+00 0. -1.
</event>
<event>
 4    1  0.1776638E+004  0.3718898E+02  0.7546771E-02  0.1365795E+00
         21   -1    0    0  501  502  0.00000000000E+00  0.00000000000E+00  0.81465698486E+01  0.81465698486E+01  0.00000000000E+00 0. -1.
         21   -1    0    0  502  503 -0.00000000000E+00 -0.00000000000E+00 -0.18297507189E+03  0.18297507189E+03  0.00000000000E+00 0.  1.
          2    1    1    2  501    0  0.55565191405E+01  0.36771529454E+02 -0.11308866104E+03  0.11904648479E+03  0.00000000000E+00 0.  1.
         -2    1    1    2    0  503 -0.55565191405E+01 -0.36771529454E+02 -0.61739841001E+02  0.72075156956E+02  0.00000000000E+00 0. -1.
</event>
<event>
 4    1  0.1776638E+004  0.2554743E+02  0.7546771E-02  0.1462771E+00
         21   -1    0    0  501  502  0.00000000000E+00  0.00000000000E+00  0.10634338226E+02  0.10634338226E+02  0.00000000000E+00 0. -1.
         21   -1    0    0  502  503 -0.00000000000E+00 -0.00000000000E+00 -0.79738446030E+02  0.79738446030E+02  0.00000000000E+00 0.  1.
          2    1    1    2  501    0 -0.21484083811E+02 -0.13824092932E+02 -0.12866864306E+02  0.28604677933E+02  0.00000000000E+00 0. -1.
         -2    1    1    2    0  503  0.21484083811E+02  0.13824092932E+02 -0.56237243498E+02  0.61768106323E+02  0.00000000000E+00 0.  1.
</event>
<event>
 4    1  0.1776638E+004  0.2134697E+02  0.7546771E-02  0.1514368E+00
         21   -1    0    0  501  502  0.00000000000E+00  0.00000000000E+00  0.65720375990E+02  0.65720375990E+02  0.00000000000E+00 0.  1.
         21   -1    0    0  502  503 -0.00000000000E+00 -0.00000000000E+00 -0.70073097338E+01  0.70073097338E+01  0.00000000000E+00 0. -1.
          2    1    1    2  501    0 -0.64982958769E+01  0.20333847962E+02  0.25632538587E+02  0.33357461784E+02  0.00000000000E+00 0.  1.
         -2    1    1    2    0  503  0.64982958769E+01 -0.20333847962E+02  0.33080527669E+02  0.39370223940E+02  0.00000000000E+00 0. -1.
</event>
<event>
 4    1  0.1776638E+004  0.2808620E+02  0.7546771E-02  0.1436992E+00
         21   -1    0    0  501  502  0.00000000000E+00  0.00000000000E+00  0.66243624889E+02  0.66243624889E+02  0.00000000000E+00 0. -1.
         21   -1    0    0  502  503 -0.00000000000E+00 -0.00000000000E+00 -0.20429774965E+02  0.20429774965E+02  0.00000000000E+00 0.  1.
          2    1    1    2  501    0 -0.24420649940E+02  0.13873234876E+02  0.50895892731E+02  0.58131116334E+02  0.00000000000E+00 0. -1.
         -2    1    1    2    0  503  0.24420649940E+02 -0.13873234876E+02 -0.50820428063E+01  0.28542283520E+02  0.00000000000E+00 0.  1.
</event>
<event>
 4    1  0.1776638E+004  0.2231527E+02  0.7546771E-02  0.1501280E+00
         21   -1    0    0  501  502  0.00000000000E+00  0.00000000000E+00  0.12893541479E+02  0.12893541479E+02  0.00000000000E+00 0.  1.
         21   -1    0    0  502  503 -0.00000000000E+00 -0.00000000000E+00 -0.94114517014E+02  0.94114517014E+02  0.00000000000E+00 0. -1.
          2    1    1    2  501    0  0.95906745249E+01 -0.20149199794E+02  0.47385304362E+00  0.22320300779E+02  0.00000000000E+00 0.  1.
         -2    1    1    2    0  503 -0.95906745249E+01  0.20149199794E+02 -0.81694828579E+02  0.84687757714E+02  0.00000000000E+00 0. -1.
</event>
<event>
 4    1  0.1776638E+004  0.2158178E+02  0.7546771E-02  0.1511118E+00
         21   -1    0    0  503  502  0.00000000000E+00  0.00000000000E+00  0.65896125378E+01  0.65896125378E+01  0.00000000000E+00 0.  1.
         21   -1    0    0  501  503 -0.00000000000E+00 -0.00000000000E+00 -0.30563630909E+03  0.30563630909E+03  0.00000000000E+00 0. -1.
          2    1    1    2  501    0  0.20393907268E+02 -0.70612866633E+01 -0.28639935324E+03  0.28721135555E+03  0.00000000000E+00 0. -1.
         -2    1    1    2    0  502 -0.20393907268E+02  0.70612866633E+01 -0.12647343312E+02  0.25014566074E+02  0.00000000000E+00 0.  1.
</event>
<event>
 4    1  0.1776638E+004  0.4780251E+02  0.7546771E-02  0.1307992E+00
         21   -1    0    0  501  502  0.00000000000E+00  0.00000000000E+00  0.23366907467E+01  0.23366907467E+01  0.00000000000E+00 0.  1.
         21   -1    0    0  502  503 -0.00000000000E+00 -0.00000000000E+00 -0.98327547601E+03  0.98327547601E+03  0.00000000000E+00 0. -1.
          2    1    1    2  501    0 -0.43265491226E+02  0.20326770834E+02 -0.45407624179E+03  0.45658549441E+03  0.00000000000E+00 0. -1.
         -2    1    1    2    0  503  0.43265491226E+02 -0.20326770834E+02 -0.52686254347E+03  0.52902667235E+03  0.00000000000E+00 0.  1.
</event>
<event>
 4    1  0.1776638E+004  0.2000634E+02  0.7546771E-02  0.1533939E+00
         21   -1    0    0  501  502  0.00000000000E+00  0.00000000000E+00  0.15769932138E+03  0.15769932138E+03  0.00000000000E+00 0.  1.
         21   -1    0    0  502  503 -0.00000000000E+00 -0.00000000000E+00 -0.25692623006E+01  0.25692623006E+01  0.00000000000E+00 0. -1.
          2    1    1    2  501    0 -0.10236593178E+02  0.17189114827E+02  0.68736922242E+02  0.71589230948E+02  0.00000000000E+00 0. -1.
         -2    1    1    2    0  503  0.10236593178E+02 -0.17189114827E+02  0.86393136833E+02  0.88679352728E+02  0.00000000000E+00 0.  1.
</event>
<event>
 4    1  0.1776638E+004  0.2014190E+02  0.7546771E-02  0.1531877E+00
         21   -1    0    0  501  502  0.00000000000E+00  0.00000000000E+00  0.84950096413E+01  0.84950096413E+01  0.00000000000E+00 0. -1.
         21   -1    0    0  502  503 -0.00000000000E+00 -0.00000000000E+00 -0.59913356029E+02  0.59913356029E+02  0.00000000000E+00 0.  1.
          2    1    1    2  501    0 -0.19604351104E+02 -0.46222993828E+01 -0.10302141411E+02  0.22623667948E+02  0.00000000000E+00 0. -1.
         -2    1    1    2    0  503  0.19604351104E+02  0.46222993828E+01 -0.41116204977E+02  0.45784697722E+02  0.00000000000E+00 0.  1.
</event>
<event>
 4    1  0.1776638E+004  0.3298585E+02  0.7546771E-02  0.1395304E+00
         21   -1    0    0  503  502  0.00000000000E+00  0.00000000000E+00  0.76270950739E+02  0.76270950739E+02  0.00000000000E+00 0.  1.
         21   -1    0    0  501  503 -0.00000000000E+00 -0.00000000000E+00 -0.12555212311E+03  0.12555212311E+03  0.00000000000E+00 0. -1.
          2    1    1    2  501    0 -0.23637910383E+02 -0.23006851916E+02 -0.11964629210E+03  0.12411003688E+03  0.00000000000E+00 0. -1.
         -2    1    1    2    0  502  0.23637910383E+02  0.23006851916E+02  0.70365119720E+02  0.77713036973E+02  0.00000000000E+00 0.  1.
</event>
<event>
 4    1  0.1776638E+004  0.4354286E+02  0.7546771E-02  0.1328888E+00
         21   -1    0    0  503  502  0.00000000000E+00  0.00000000000E+00  0.12612715748E+02  0.12612715748E+02  0.00000000000E+00 0.  1.
         21   -1    0    0  501  503 -0.00000000000E+00 -0.00000000000E+00 -0.18090235677E+03  0.18090235677E+03  0.00000000000E+00 0. -1.
          2    1    1    2  501    0 -0.30944881354E+02 -0.30633230972E+02 -0.12392596586E+03  0.13135305682E+03  0.00000000000E+00 0. -1.
         -2    1    1    2    0  502  0.30944881354E+02  0.30633230972E+02 -0.44363675162E+02  0.62162015698E+02  0.00000000000E+00 0.  1.
</event>
<event>
 4    1  0.1776638E+004  0.2027682E+02  0.7546771E-02  0.1529845E+00
         21   -1    0    0  503  502  0.00000000000E+00  0.00000000000E+00  0.47376925755E+01  0.47376925755E+01  0.00000000000E+00 0. -1.
         21   -1    0    0  501  503 -0.00000000000E+00 -0.00000000000E+00 -0.12496914624E+03  0.12496914624E+03  0.00000000000E+00 0.  1.
          2    1    1    2  501    0  0.17043058151E+02  0.10985600306E+02 -0.95965524559E+02  0.98084306335E+02  0.00000000000E+00 0. -1.
         -2    1    1    2    0  502 -0.17043058151E+02 -0.10985600306E+02 -0.24265929110E+02  0.31622532485E+02  0.00000000000E+00 0.  1.
</event>
<event>
 4    1  0.1776638E+004  0.2326245E+02  0.7546771E-02  0.1489229E+00
         21   -1    0    0  501  502  0.00000000000E+00  0.00000000000E+00  0.10818683099E+01  0.10818683099E+01  0.00000000000E+00 0.  1.
         21   -1    0    0  502  503 -0.00000000000E+00 -0.00000000000E+00 -0.57177270587E+03  0.57177270587E+03  0.00000000000E+00 0. -1.
          2    1    1    2  501    0 -0.15584961787E+02  0.17269937711E+02 -0.18400074624E+03  0.18546540486E+03  0.00000000000E+00 0.  1.
         -2    1    1    2    0  503  0.15584961787E+02 -0.17269937711E+02 -0.38669009132E+03  0.38738916932E+03  0.00000000000E+00 0. -1.
</event>
<event>
 4    1  0.1776638E+004  0.2766073E+02  0.7546771E-02  0.1441081E+00
         21   -1    0    0  503  502  0.00000000000E+00  0.00000000000E+00  0.62807365915E+02  0.62807365915E+02  0.00000000000E+00 0.  1.
         21   -1    0    0  501  503 -0.00000000000E+00 -0.00000000000E+00 -0.32688931612E+02  0.32688931612E+02  0.00000000000E+00 0. -1.
          2    1    1    2  501    0  0.14606064152E+02  0.23489979517E+02 -0.22759521197E+02  0.35820553496E+02  0.00000000000E+00 0. -1.
         -2    1    1    2    0  502 -0.14606064152E+02 -0.23489979517E+02  0.52877955500E+02  0.59675744030E+02  0.00000000000E+00 0.  1.
</event>
<event>
 4    1  0.1776638E+004  0.2627097E+02  0.7546771E-02  0.1455072E+00
         21   -1    0    0  501  502  0.00000000000E+00  0.00000000000E+00  0.20553570446E+02  0.20553570446E+02  0.00000000000E+00 0.  1.
         21   -1    0    0  502  503 -0.00000000000E+00 -0.00000000000E+00 -0.40728749275E+02  0.40728749275E+02  0.00000000000E+00 0. -1.
          2    1    1    2  501    0  0.26270436735E+02  0.16731701384E+00  0.27506869553E+01  0.26414581578E+02  0.00000000000E+00 0.  1.
         -2    1    1    2    0  503 -0.26270436735E+02 -0.16731701384E+00 -0.22925865785E+02  0.34867738143E+02  0.00000000000E+00 0. -1.
</event>
<event>
 4    1  0.1776638E+004  0.2023660E+02  0.7546771E-02  0.1530449E+00
         21   -1    0    0  501  502  0.00000000000E+00  0.00000000000E+00  0.77772111605E+01  0.77772111605E+01  0.00000000000E+00 0.  1.
         21   -1    0    0  502  503 -0.00000000000E+00 -0.00000000000E+00 -0.63892686792E+02  0.63892686792E+02  0.00000000000E+00 0. -1.
          2    1    1    2  501    0  0.18891497509E+02  0.72547505202E+01 -0.13030046317E+02  0.24068697311E+02  0.00000000000E+00 0.  1.
         -2    1    1    2    0  503 -0.18891497509E+02 -0.72547505202E+01 -0.43085429314E+02  0.47601200641E+02  0.00000000000E+00 0. -1.
</event>
<event>
 4    1  0.1776638E+004  0.2341793E+02  0.7546771E-02  0.1487316E+00
         21   -1    0    0  501  502  0.00000000000E+00  0.00000000000E+00  0.34767639233E+01  0.34767639233E+01  0.00000000000E+00 0.  1.
         21   -1    0    0  502  503 -0.00000000000E+00 -0.00000000000E+00 -0.15990664858E+03  0.15990664858E+03  0.00000000000E+00 0. -1.
          2    1    1    2  501    0  0.16503063674E+02 -0.16614706266E+02 -0.68689981667E+02  0.72572123824E+02  0.00000000000E+00 0.  1.
         -2    1    1    2    0  503 -0.16503063674E+02  0.16614706266E+02 -0.87739902991E+02  0.90811288681E+02  0.00000000000E+00 0. -1.
</event>
<event>
 4    1  0.1776638E+004  0.2103436E+02  0.7546771E-02  0.1518775E+00
         21   -1    0    0  503  502  0.00000000000E+00  0.00000000000E+00  0.64851959721E+03  0.64851959721E+03  0.00000000000E+00 0.  1.
         21   -1    0    0  501  503 -0.00000000000E+00 -0.00000000000E+00 -0.99021645156E+00  0.99021645156E+00  0.00000000000E+00 0. -1.
          2    1    1    2  501    0  0.20170385545E+02 -0.59665641866E+01  0.14265102384E+03  0.14419347747E+03  0.00000000000E+00 0. -1.
         -2    1    1    2    0  502 -0.20170385545E+02  0.59665641866E+01  0.50487835691E+03  0.50531633619E+03  0.00000000000E+00 0.  1.
</event>
<event>
 4    1  0.1776638E+004  0.2066729E+02  0.7546771E-02  0.1524069E+00
         21   -1    0    0  501  502  0.00000000000E+00  0.00000000000E+00  0.13634061713E+04  0.13634061713E+04  0.00000000000E+00 0.  1.
         21   -1    0    0  502  503 -0.00000000000E+00 -0.00000000000E+00 -0.33719612472E+00  0.33719612472E+00  0.00000000000E+00 0. -1.
          2    1    1    2  501    0 -0.17507885845E+02 -0.10982289176E+02  0.86310602986E+03  0.86335343604E+03  0.00000000000E+00 0.  1.
         -2    1    1    2    0  503  0.17507885845E+02  0.10982289176E+02  0.49996294530E+03  0.50038993136E+03  0.00000000000E+00 0. -1.
</event>
<event>
 4    1  0.1776638E+004  0.3025034E+02  0.7546771E-02  0.1417433E+00
         21   -1    0    0  503  502  0.00000000000E+00  0.00000000000E+00  0.53077056622E+01  0.53077056622E+01  0.00000000000E+00 0.  1.
         21   -1    0    0  501  503 -0.00000000000E+00 -0.00000000000E+00 -0.19786945780E+03  0.19786945780E+03  0.00000000000E+00 0. -1.
          2    1    1    2  501    0 -0.10767423972E+02  0.28269159066E+02 -0.13272354993E+03  0.13612723269E+03  0.00000000000E+00 0. -1.
         -2    1    1    2    0  502  0.10767423972E+02 -0.28269159066E+02 -0.59838202201E+02  0.67049930767E+02  0.00000000000E+00 0.  1.
</event>
<event>
 4    1  0.1776638E+004  0.3304828E+02  0.7546771E-02  0.1394829E+00
         21   -1    0    0  501  502  0.00000000000E+00  0.00000000000E+00  0.66494451369E+02  0.66494451369E+02  0.00000000000E+00 0.  1.
         21   -1    0    0  502  503 -0.00000000000E+00 -0.00000000000E+00 -0.19829144971E+02  0.19829144971E+02  0.00000000000E+00 0. -1.
          2    1    1    2  501    0  0.33037189118E+02  0.85618529322E+00  0.41215420213E+02  0.52828967256E+02  0.00000000000E+00 0.  1.
         -2    1    1    2    0  503 -0.33037189118E+02 -0.85618529322E+00  0.54498861848E+01  0.33494629084E+02  0.00000000000E+00 0. -1.
</event>
<event>
 4    1  0.1776638E+004  0.2018115E+02  0.7546771E-02  0.1531284E+00
         21   -1    0    0  503  502  0.00000000000E+00  0.00000000000E+00  0.69170224726E+02  0.69170224726E+02  0.00000000000E+00 0.  1.
         21   -1    0    0  501  503 -0.00000000000E+00 -0.00000000000E+00 -0.10293634310E+02  0.10293634310E+02  0.00000000000E+00 0. -1.
          2    1    1    2  501    0 -0.11809116592E+02 -0.16365322189E+02  0.34453107693E+01  0.20473132915E+02  0.00000000000E+00 0. -1.
         -2    1    1    2    0  502  0.11809116592E+02  0.16365322189E+02  0.55431279647E+02  0.58990726121E+02  0.00000000000E+00 0.  1.
</event>
<event>
 4    1  0.1776638E+004  0.2134522E+02  0.7546771E-02  0.1514393E+00
         21   -1    0    0  503  502  0.00000000000E+00  0.00000000000E+00  0.13657398625E+02  0.13657398625E+02  0.00000000000E+00 0.  1.
         21   -1    0    0  501  503 -0.00000000000E+00 -0.00000000000E+00 -0.59330918067E+02  0.59330918067E+02  0.00000000000E+00 0. -1.
          2    1    1    2  501    0 -0.72836262161E+01 -0.20064082412E+02 -0.46981453194E+02  0.51603057643E+02  0.00000000000E+00 0. -1.
         -2    1    1    2    0  502  0.72836262161E+01  0.20064082412E+02  0.13079337517E+01  0.21385259049E+02  0.00000000000E+00 0.  1.
</event>
<event>
 4    1  0.1776638E+004  0.2505642E+02  0.7546771E-02  0.1468173E+00
         21   -1    0    0  501  502  0.00000000000E+00  0.00000000000E+00  0.65425467922E+03  0.65425467922E+03  0.00000000000E+00 0.  1.
         21   -1    0    0  502  503 -0.00000000000E+00 -0.00000000000E+00 -0.10735964939E+01  0.10735964939E+01  0.00000000000E+00 0. -1.
          2    1    1    2  501    0 -0.16066289210E+02 -0.19227549104E+02  0.43336066342E+03  0.43408442600E+03  0.00000000000E+00 0.  1.
         -2    1    1    2    0  503  0.16066289210E+02  0.19227549104E+02  0.21982041931E+03  0.22124384972E+03  0.00000000000E+00 0. -1.
</event>
<event>
 4    1  0.1776638E+004  0.2509203E+02  0.7546771E-02  0.1467776E+00
         21   -1    0    0  503  502  0.00000000000E+00  0.00000000000E+00  0.49919497355E+01  0.49919497355E+01  0.00000000000E+00 0.  1.
         21   -1    0    0  501  503 -0.00000000000E+00 -0.00000000000E+00 -0.13875434044E+03  0.13875434044E+03  0.00000000000E+00 0. -1.
          2    1    1    2  501    0  0.26582738268E+01  0.24950826635E+02 -0.88564823075E+02  0.92050736314E+02  0.00000000000E+00 0. -1.
         -2    1    1    2    0  502 -0.26582738268E+01 -0.24950826635E+02 -0.45197567629E+02  0.51695553861E+02  0.00000000000E+00 0.  1.
</event>
<event>
 4    1  0.1776638E+004  0.2057238E+02  0.7546771E-02  0.1525459E+00
         21   -1    0    0  503  502  0.00000000000E+00  0.00000000000E+00  0.25182099309E+03  0.25182099309E+03  0.00000000000E+00 0.  1.
         21   -1    0    0  501  503 -0.00000000000E+00 -0.00000000000E+00 -0.33469305874E+01  0.33469305874E+01  0.00000000000E+00 0. -1.
          2    1    1    2  501    0  0.16719409123E+02 -0.11986830351E+02  0.34215394131E+02  0.39923876801E+02  0.00000000000E+00 0. -1.
         -2    1    1    2    0  502 -0.16719409123E+02  0.11986830351E+02  0.21425866837E+03  0.21524404687E+03  0.00000000000E+00 0.  1.
</event>
<event>
 4    1  0.1776638E+004  0.2258719E+02  0.7546771E-02  0.1497748E+00
         21   -1    0    0  501  502  0.00000000000E+00  0.00000000000E+00  0.91100183264E+02  0.91100183264E+02  0.00000000000E+00 0.  1.
         21   -1    0    0  502  503 -0.00000000000E+00 -0.00000000000E+00 -0.21757637438E+02  0.21757637438E+02  0.00000000000E+00 0. -1.
          2    1    1    2  501    0  0.76022207988E+01  0.21269400420E+02  0.83298752048E+02  0.86306797229E+02  0.00000000000E+00 0.  1.
         -2    1    1    2    0  503 -0.76022207988E+01 -0.21269400420E+02 -0.13956206222E+02  0.26551023472E+02  0.00000000000E+00 0. -1.
</event>
<event>
 4    1  0.1776638E+004  0.2556370E+02  0.7546771E-02  0.1462595E+00
         21   -1    0    0  501  502  0.00000000000E+00  0.00000000000E+00  0.21880495394E+02  0.21880495394E+02  0.00000000000E+00 0. -1.
         21   -1    0    0  502  503 -0.00000000000E+00 -0.00000000000E+00 -0.23447112271E+03  0.23447112271E+03  0.00000000000E+00 0.  1.
          2    1    1    2  501    0 -0.12196530290E+02 -0.22466580549E+02  0.13439014327E+02  0.28880957372E+02  0.00000000000E+00 0. -1.
         -2    1    1    2    0  503  0.12196530290E+02  0.22466580549E+02 -0.22602964164E+03  0.22747066073E+03  0.00000000000E+00 0.  1.
</event>
<event>
 4    1  0.1776638E+004  0.2652438E+02  0.7546771E-02  0.1452445E+00
         21   -1    0    0  503  502  0.00000000000E+00  0.00000000000E+00  0.20058309955E+03  0.20058309955E+03  0.00000000000E+00 0.  1.
         21   -1    0    0  501  503 -0.00000000000E+00 -0.00000000000E+00 -0.82771218710E+01  0.82771218710E+01  0.00000000000E+00 0. -1.
          2    1    1    2  501    0 -0.12561540947E+02  0.23361301658E+02  0.16879384445E+02  0.31439725593E+02  0.00000000000E+00 0. -1.
         -2    1    1    2    0  502  0.12561540947E+02 -0.23361301658E+02  0.17542659323E+03  0.17742049582E+03  0.00000000000E+00 0.  1.
</event>
<event>
 4    1  0.1776638E+004  0.3148490E+02  0.7546771E-02  0.1407117E+00
         21   -1    0    0  501  502  0.00000000000E+00  0.00000000000E+00  0.32733595416E+03  0.32733595416E+03  0.00000000000E+00 0.  1.
         21   -1    0    0  502  503 -0.00000000000E+00 -0.00000000000E+00 -0.10372883649E+02  0.10372883649E+02  0.00000000000E+00 0. -1.
          2    1    1    2  501    0  0.23920366707E+02  0.20472304264E+02  0.30056507386E+03  0.30220963388E+03  0.00000000000E+00 0.  1.
         -2    1    1    2    0  503 -0.23920366707E+02 -0.20472304264E+02  0.16397996647E+02  0.35499203925E+02  0.00000000000E+00 0. -1.
</event>
<event>
 4    1  0.1776638E+004  0.2021328E+02  0.7546771E-02  0.1530800E+00
         21   -1    0    0  501  502  0.00000000000E+00  0.00000000000E+00  0.72651956901E+03  0.72651956901E+03  0.00000000000E+00 0.  1.
         21   -1    0    0  502  503 -0.00000000000E+00 -0.00000000000E+00 -0.83251984976E+00  0.83251984976E+00  0.00000000000E+00 0. -1.
          2    1    1    2  501    0 -0.15372751475E+02 -0.13124602880E+02  0.57000808847E+03  0.57036637139E+03  0.00000000000E+00 0.  1.
         -2    1    1    2    0  503  0.15372751475E+02  0.13124602880E+02  0.15567896070E+03  0.15698571748E+03  0.00000000000E+00 0. -1.
</event>
<event>
 4    1  0.1776638E+004  0.3317073E+02  0.7546771E-02  0.1393901E+00
         21   -1    0    0  503  502  0.00000000000E+00  0.00000000000E+00  0.11341663351E+01  0.11341663351E+01  0.00000000000E+00 0.  1.
         21   -1    0    0  501  503 -0.00000000000E+00 -0.00000000000E+00 -0.12246730389E+04  0.12246730389E+04  0.00000000000E+00 0. -1.
          2    1    1    2  501    0 -0.32901809318E+01 -0.33007153379E+02 -0.89118859476E+03  0.89180570132E+03  0.00000000000E+00 0. -1.
         -2    1    1    2    0  502  0.32901809318E+01  0.33007153379E+02 -0.33235027776E+03  0.33400150388E+03  0.00000000000E+00 0.  1.
</event>
<event>
 4    1  0.1776638E+004  0.2008779E+02  0.7546771E-02  0.1532698E+00
         21   -1    0    0  503  502  0.00000000000E+00  0.00000000000E+00  0.44189818840E+00  0.44189818840E+00  0.00000000000E+00 0.  1.
         21   -1    0    0  501  503 -0.00000000000E+00 -0.00000000000E+00 -0.92186430103E+03  0.92186430103E+03  0.00000000000E+00 0. -1.
          2    1    1    2  501    0 -0.53421302069E+01 -0.19364421050E+02 -0.41587408578E+03  0.41635894897E+03  0.00000000000E+00 0. -1.
         -2    1    1    2    0  502  0.53421302069E+01  0.19364421050E+02 -0.50554831705E+03  0.50594725025E+03  0.00000000000E+00 0.  1.
</event>
<event>
 4    1  0.1776638E+004  0.2239975E+02  0.7546771E-02  0.1500176E+00
         21   -1    0    0  503  502  0.00000000000E+00  0.00000000000E+00  0.12501590954E+03  0.12501590954E+03  0.00000000000E+00 0. -1.
         21   -1    0    0  501  503 -0.00000000000E+00 -0.00000000000E+00 -0.24059590114E+02  0.24059590114E+02  0.00000000000E+00 0.  1.
          2    1    1    2  501    0 -0.19905920180E+02  0.10271463118E+02 -0.17559167190E+02  0.28461780780E+02  0.00000000000E+00 0.  1.
         -2    1    1    2    0  502  0.19905920180E+02 -0.10271463118E+02  0.11851548662E+03  0.12061371887E+03  0.00000000000E+00 0. -1.
</event>
<event>
 4    1  0.1776638E+004  0.2031847E+02  0.7546771E-02  0.1529222E+00
         21   -1    0    0  501  502  0.00000000000E+00  0.00000000000E+00  0.10416478781E+01  0.10416478781E+01  0.00000000000E+00 0. -1.
         21   -1    0    0  502  503 -0.00000000000E+00 -0.00000000000E+00 -0.52329533717E+03  0.52329533717E+03  0.00000000000E+00 0.  1.
          2    1    1    2  501    0 -0.15398222421E+02  0.13256507331E+02 -0.13199207695E+03  0.13354680310E+03  0.00000000000E+00 0. -1.
         -2    1    1    2    0  503  0.15398222421E+02 -0.13256507331E+02 -0.39026161234E+03  0.39079018195E+03  0.00000000000E+00 0.  1.
</event>
<event>
 4    1  0.1776638E+004  0.2556930E+02  0.7546771E-02  0.1462534E+00
         21   -1    0    0  503  502  0.00000000000E+00  0.00000000000E+00  0.82668250049E+02  0.82668250049E+02  0.00000000000E+00 0.  1.
         21   -1    0    0  501  503 -0.00000000000E+00 -0.00000000000E+00 -0.29366690553E+02  0.29366690553E+02  0.00000000000E+00 0. -1.
          2    1    1    2  501    0 -0.60060990558E+00 -0.25562245212E+02 -0.21233355585E+02  0.33236192651E+02  0.00000000000E+00 0. -1.
         -2    1    1    2    0  502  0.60060990558E+00  0.25562245212E+02  0.74534915081E+02  0.78798747951E+02  0.00000000000E+00 0.  1.
</event>
<event>
 4    1  0.1776638E+004  0.2361025E+02  0.7546771E-02  0.1484974E+00
         21   -1    0    0  503  502  0.00000000000E+00  0.00000000000E+00  0.63757507921E+01  0.63757507921E+01  0.00000000000E+00 0. -1.
         21   -1    0    0  501  503 -0.00000000000E+00 -0.00000000000E+00 -0.95719340487E+02  0.95719340487E+02  0.00000000000E+00 0.  1.
          2    1    1    2  501    0 -0.11469177764E+02  0.20637385146E+02 -0.59692366711E+02  0.64192073871E+02  0.00000000000E+00 0.  1.
         -2    1    1    2    0  502  0.11469177764E+02 -0.20637385146E+02 -0.29651222983E+02  0.37903017408E+02  0.00000000000E+00 0. -1.
</event>
<event>
 4    1  0.1776638E+004  0.3423629E+02  0.7546771E-02  0.1386013E+00
         21   -1    0    0  501  502  0.00000000000E+00  0.00000000000E+00  0.58006557337E+02  0.58006557337E+02  0.00000000000E+00 0.  1.
         21   -1    0    0  502  503 -0.00000000000E+00 -0.00000000000E+00 -0.25616353682E+02  0.25616353682E+02  0.00000000000E+00 0. -1.
          2    1    1    2  501    0 -0.34178270929E+02 -0.19923139444E+01  0.35409186052E+02  0.49253771180E+02  0.00000000000E+00 0.  1.
         -2    1    1    2    0  503  0.34178270929E+02  0.19923139444E+01 -0.30189823973E+01  0.34369139839E+02  0.00000000000E+00 0. -1.
</event>
<event>
 4    1  0.1776638E+004  0.2511733E+02  0.7546771E-02  0.1467495E+00
         21   -1    0    0  503  502  0.00000000000E+00  0.00000000000E+00  0.17555102822E+02  0.17555102822E+02  0.00000000000E+00 0. -1.
         21   -1    0    0  501  503 -0.00000000000E+00 -0.00000000000E+00 -0.43245074372E+02  0.43245074372E+02  0.00000000000E+00 0.  1.
          2    1    1    2  501    0  0.43852584940E+00  0.25113501149E+02 -0.25341927592E+02  0.35680436362E+02  0.00000000000E+00 0. -1.
         -2    1    1    2    0  502 -0.43852584940E+00 -0.25113501149E+02 -0.34804395743E+00  0.25119740832E+02  0.00000000000E+00 0.  1.
</event>
<event>
 4    1  0.1776638E+004  0.2140374E+02  0.7546771E-02  0.1513578E+00
         21   -1    0    0  503  502  0.00000000000E+00  0.00000000000E+00  0.17628480634E+01  0.17628480634E+01  0.00000000000E+00 0. -1.
         21   -1    0    0  501  503 -0.00000000000E+00 -0.00000000000E+00 -0.27216730787E+03  0.27216730787E+03  0.00000000000E+00 0.  1.
          2    1    1    2  501    0 -0.11110187121E+02 -0.18294366259E+02 -0.16431000720E+03  0.16569821532E+03  0.00000000000E+00 0. -1.
         -2    1    1    2    0  502  0.11110187121E+02  0.18294366259E+02 -0.10609445260E+03  0.10823194061E+03  0.00000000000E+00 0.  1.
</event>
<event>
 4    1  0.1776638E+004  0.2534548E+02  0.7546771E-02  0.1464975E+00
         21   -1    0    0  503  502  0.00000000000E+00  0.00000000000E+00  0.15500132953E+01  0.15500132953E+01  0.00000000000E+00 0. -1.
         21   -1    0    0  501  503 -0.00000000000E+00 -0.00000000000E+00 -0.41714160132E+03  0.41714160132E+03  0.00000000000E+00 0.  1.
          2    1    1    2  501    0  0.99224915652E+00  0.25326053077E+02 -0.22463110430E+03  0.22605646760E+03  0.00000000000E+00 0. -1.
         -2    1    1    2    0  502 -0.99224915652E+00 -0.25326053077E+02 -0.19096048372E+03  0.19263514701E+03  0.00000000000E+00 0.  1.
</event>
<event>
 4    1  0.1776638E+004  0.2453790E+02  0.7546771E-02  0.1474040E+00
         21   -1    0    0  501  502  0.00000000000E+00  0.00000000000E+00  0.46514898407E+03  0.46514898407E+03  0.00000000000E+00 0.  1.
         21   -1    0    0  502  503 -0.00000000000E+00 -0.00000000000E+00 -0.39134887492E+01  0.39134887492E+01  0.00000000000E+00 0. -1.
          2    1    1    2  501    0  0.32417589040E+01  0.24322823740E+02  0.42248029526E+03  0.42319228329E+03  0.00000000000E+00 0.  1.
         -2    1    1    2    0  503 -0.32417589040E+01 -0.24322823740E+02  0.38755200065E+02  0.45870189531E+02  0.00000000000E+00 0. -1.
</event>
<event>
 4    1  0.1776638E+004  0.3068262E+02  0.7546771E-02  0.1413755E+00
         21   -1    0    0  501  502  0.00000000000E+00  0.00000000000E+00  0.11265230697E+03  0.11265230697E+03  0.00000000000E+00 0. -1.
         21   -1    0    0  502  503 -0.00000000000E+00 -0.00000000000E+00 -0.32332656947E+02  0.32332656947E+02  0.00000000000E+00 0.  1.
          2    1    1    2  501    0 -0.10718490641E+02  0.28749563828E+02  0.10258481538E+03  0.10707505689E+03  0.00000000000E+00 0. -1.
         -2    1    1    2    0  503  0.10718490641E+02 -0.28749563828E+02 -0.22265165360E+02  0.37909907022E+02  0.00000000000E+00 0.  1.
</event>
<event>
 4    1  0.1776638E+004  0.2630829E+02  0.7546771E-02  0.1454683E+00
         21   -1    0    0  503  502  0.00000000000E+00  0.00000000000E+00  0.35299654606E+02  0.35299654606E+02  0.00000000000E+00 0.  1.
         21   -1    0    0  501  503 -0.00000000000E+00 -0.00000000000E+00 -0.23944825392E+02  0.23944825392E+02  0.00000000000E+00 0. -1.
          2    1    1    2  501    0  0.21745044453E+02 -0.14808085129E+02 -0.69303926640E+01  0.27205820810E+02  0.00000000000E+00 0. -1.
         -2    1    1    2    0  502 -0.21745044453E+02  0.14808085129E+02  0.18285221878E+02  0.32038659188E+02  0.00000000000E+00 0.  1.
</event>
<event>
 4    1  0.1776638E+004  0.2055737E+02  0.7546771E-02  0.1525679E+00
         21   -1    0    0  501  502  0.00000000000E+00  0.00000000000E+00  0.38707296366E+03  0.38707296366E+03  0.00000000000E+00 0.  1.
         21   -1    0    0  502  503 -0.00000000000E+00 -0.00000000000E+00 -0.16275077557E+01  0.16275077557E+01  0.00000000000E+00 0. -1.
          2    1    1    2  501    0  0.32629447785E+01  0.20296760518E+02  0.30422623223E+03  0.30491999880E+03  0.00000000000E+00 0.  1.
         -2    1    1    2    0  503 -0.32629447785E+01 -0.20296760518E+02  0.81219223676E+02  0.83780472609E+02  0.00000000000E+00 0. -1.
</event>
<event>
 4    1  0.1776638E+004  0.2735724E+02  0.7546771E-02  0.1444052E+00
         21   -1    0    0  501  502  0.00000000000E+00  0.00000000000E+00  0.47472103946E+02  0.47472103946E+02  0.00000000000E+00 0.  1.
         21   -1    0    0  502  503 -0.00000000000E+00 -0.00000000000E+00 -0.18437361271E+02  0.18437361271E+02  0.00000000000E+00 0. -1.
          2    1    1    2  501    0  0.13514029160E+02 -0.23786328116E+02  0.27062658583E+02  0.38481240611E+02  0.00000000000E+00 0.  1.
         -2    1    1    2    0  503 -0.13514029160E+02  0.23786328116E+02  0.19720840921E+01  0.27428224606E+02  0.00000000000E+00 0. -1.
</event>
<event>
 4    1  0.1776638E+004  0.3331276E+02  0.7546771E-02  0.1392829E+00
         21   -1    0    0  501  502  0.00000000000E+00  0.00000000000E+00  0.54062023603E+02  0.54062023603E+02  0.00000000000E+00 0. -1.
         21   -1    0    0  502  503 -0.00000000000E+00 -0.00000000000E+00 -0.35302981659E+02  0.35302981659E+02  0.00000000000E+00 0.  1.
          2    1    1    2  501    0 -0.38499837206E+01  0.33089538657E+02  0.38286824312E+02  0.50750574963E+02  0.00000000000E+00 0. -1.
         -2    1    1    2    0  503  0.38499837206E+01 -0.33089538657E+02 -0.19527782368E+02  0.38614430300E+02  0.00000000000E+00 0.  1.
</event>
<event>
 4    1  0.1776638E+004  0.2181267E+02  0.7546771E-02  0.1507971E+00
         21   -1    0    0  503  502  0.00000000000E+00  0.00000000000E+00  0.12913043350E+02  0.12913043350E+02  0.00000000000E+00 0. -1.
         21   -1    0    0  501  503 -0.00000000000E+00 -0.00000000000E+00 -0.58086272259E+02  0.58086272259E+02  0.00000000000E+00 0.  1.
          2    1    1    2  501    0  0.15366943391E+02  0.15480619710E+02 -0.44053478647E+02  0.49157924251E+02  0.00000000000E+00 0.  1.
         -2    1    1    2    0  502 -0.15366943391E+02 -0.15480619710E+02 -0.11197502623E+01  0.21841391357E+02  0.00000000000E+00 0. -1.
</event>
<event>
 4    1  0.1776638E+004  0.4469642E+02  0.7546771E-02  0.1322964E+00
         21   -1    0    0  501  502  0.00000000000E+00  0.00000000000E+00  0.62652933319E+02  0.62652933319E+02  0.00000000000E+00 0. -1.
         21   -1    0    0  502  503 -0.00000000000E+00 -0.00000000000E+00 -0.34134368945E+02  0.34134368945E+02  0.00000000000E+00 0.  1.
          2    1    1    2  501    0 -0.10960822236E+02  0.43331634781E+02  0.26678587702E+02  0.52053023338E+02  0.00000000000E+00 0. -1.
         -2    1    1    2    0  503  0.10960822236E+02 -0.43331634781E+02  0.18399766717E+01  0.44734278926E+02  0.00000000000E+00 0.  1.
</event>
<event>
 4    1  0.1776638E+004  0.2542063E+02  0.7546771E-02  0.1464152E+00
         21   -1    0    0  503  502  0.00000000000E+00  0.00000000000E+00  0.12367493785E+03  0.12367493785E+03  0.00000000000E+00 0.  1.
         21   -1    0    0  501  503 -0.00000000000E+00 -0.00000000000E+00 -0.77503791592E+01  0.77503791592E+01  0.00000000000E+00 0. -1.
          2    1    1    2  501    0  0.61350089616E+00 -0.25413229541E+02  0.20452376067E+02  0.32626803488E+02  0.00000000000E+00 0. -1.
         -2    1    1    2    0  502 -0.61350089616E+00  0.25413229541E+02  0.95472182624E+02  0.98798513521E+02  0.00000000000E+00 0.  1.
</event>
<event>
 4    1  0.1776638E+004  0.2757879E+02  0.7546771E-02  0.1441879E+00
         21   -1    0    0  501  502  0.00000000000E+00  0.00000000000E+00  0.20452165529E+02  0.20452165529E+02  0.00000000000E+00 0.  1.
         21   -1    0    0  502  503 -0.00000000000E+00 -0.00000000000E+00 -0.56265963844E+02  0.56265963844E+02  0.00000000000E+00 0. -1.
          2    1    1    2  501    0 -0.27574392590E+02  0.49271839283E+00  0.44289732717E+01  0.27932162507E+02  0.00000000000E+00 0.  1.
         -2    1    1    2    0  503  0.27574392590E+02 -0.49271839283E+00 -0.40242771587E+02  0.48785966866E+02  0.00000000000E+00 0. -1.
</event>
<event>
 4    1  0.1776638E+004  0.2409616E+02  0.7546771E-02  0.1479174E+00
         21   -1    0    0  503  502  0.00000000000E+00  0.00000000000E+00  0.11248814484E+02  0.11248814484E+02  0.00000000000E+00 0.  1.
         21   -1    0    0  501  503 -0.00000000000E+00 -0.00000000000E+00 -0.63168149122E+03  0.63168149122E+03  0.00000000000E+00 0. -1.
          2    1    1    2  501    0 -0.29735113250E+01 -0.23911988626E+02 -0.61826770203E+03  0.61873708175E+03  0.00000000000E+00 0. -1.
         -2    1    1    2    0  502  0.29735113250E+01  0.23911988626E+02 -0.21649747108E+01  0.24193223951E+02  0.00000000000E+00 0.  1.
</event>
<event>
 4    1  0.1776638E+004  0.2040442E+02  0.7546771E-02  0.1527941E+00
         21   -1    0    0  501  502  0.00000000000E+00  0.00000000000E+00  0.61223560423E+01  0.61223560423E+01  0.00000000000E+00 0. -1.
         21   -1    0    0  502  503 -0.00000000000E+00 -0.00000000000E+00 -0.10527464703E+03  0.10527464703E+03  0.00000000000E+00 0.  1.
          2    1    1    2  501    0  0.10733986843E+02 -0.17352867771E+02 -0.16434880297E+02  0.26200110378E+02  0.00000000000E+00 0. -1.
         -2    1    1    2    0  503 -0.10733986843E+02  0.17352867771E+02 -0.82717410692E+02  0.85196892696E+02  0.00000000000E+00 0.  1.
</event>
<event>
 4    1  0.1776638E+004  0.3237238E+02  0.7546771E-02  0.1400041E+00
         21   -1    0    0  503  502  0.00000000000E+00  0.00000000000E+00  0.23158514875E+02  0.23158514875E+02  0.00000000000E+00 0.  1.
         21   -1    0    0  501  503 -0.00000000000E+00 -0.00000000000E+00 -0.12356408045E+03  0.12356408045E+03  0.00000000000E+00 0. -1.
          2    1    1    2  501    0 -0.12306163273E+02 -0.29942102643E+02 -0.10860576439E+03  0.11332776899E+03  0.00000000000E+00 0. -1.
         -2    1    1    2    0  502  0.12306163273E+02  0.29942102643E+02  0.82001988189E+01  0.33394826333E+02  0.00000000000E+00 0.  1.
</event>
<event>
 4    1  0.1776638E+004  0.2034682E+02  0.7546771E-02  0.1528798E+00
         21   -1    0    0  501  502  0.00000000000E+00  0.00000000000E+00  0.15844261554E+03  0.15844261554E+03  0.00000000000E+00 0.  1.
         21   -1    0    0  502  503 -0.00000000000E+00 -0.00000000000E+00 -0.59626801155E+01  0.59626801155E+01  0.00000000000E+00 0. -1.
          2    1    1    2  501    0 -0.20199363077E+02  0.24451464458E+01  0.13785318640E+03  0.13934666846E+03  0.00000000000E+00 0.  1.
         -2    1    1    2    0  503  0.20199363077E+02 -0.24451464458E+01  0.14626749020E+02  0.25058627192E+02  0.00000000000E+00 0. -1.
</event>
<event>
 4    1  0.1776638E+004  0.2011377E+02  0.7546771E-02  0.1532304E+00
         21   -1    0    0  501  502  0.00000000000E+00  0.00000000000E+00  0.43258199980E+01  0.43258199980E+01  0.00000000000E+00 0. -1.
         21   -1    0    0  502  503 -0.00000000000E+00 -0.00000000000E+00 -0.93743297091E+02  0.93743297091E+02  0.00000000000E+00 0.  1.
          2    1    1    2  501    0  0.12537153560E+02  0.15728430852E+02 -0.42331814001E+02  0.46867325858E+02  0.00000000000E+00 0.  1.
         -2    1    1    2    0  503 -0.12537153560E+02 -0.15728430852E+02 -0.47085663092E+02  0.51201791231E+02  0.00000000000E+00 0. -1.
</event>
<event>
 4    1  0.1776638E+004  0.2743786E+02  0.7546771E-02  0.1443259E+00
         21   -1    0    0  503  502  0.00000000000E+00  0.00000000000E+00  0.10271230854E+02  0.10271230854E+02  0.00000000000E+00 0.  1.
         21   -1    0    0  501  503 -0.00000000000E+00 -0.00000000000E+00 -0.13664961177E+03  0.13664961177E+03  0.00000000000E+00 0. -1.
          2    1    1    2  501    0 -0.13878721926E+02  0.23668913142E+02 -0.11320832345E+03  0.11648588271E+03  0.00000000000E+00 0. -1.
         -2    1    1    2    0  502  0.13878721926E+02 -0.23668913142E+02 -0.13170057469E+02  0.30434959920E+02  0.00000000000E+00 0.  1.
</event>
<event>
 4    1  0.1776638E+004  0.5414136E+02  0.7546771E-02  0.1281151E+00
         21   -1    0    0  501  502  0.00000000000E+00  0.00000000000E+00  0.74593769195E+02  0.74593769195E+02  0.00000000000E+00 0. -1.
         21   -1    0    0  502  503 -0.00000000000E+00 -0.00000000000E+00 -0.42838375932E+02  0.42838375932E+02  0.00000000000E+00 0.  1.
          2    1    1    2  501    0  0.23223007076E+02  0.48907861438E+02  0.32760577467E+02  0.63281453872E+02  0.00000000000E+00 0. -1.
         -2    1    1    2    0  503 -0.23223007076E+02 -0.48907861438E+02 -0.10051842045E+01  0.54150691255E+02  0.00000000000E+00 0.  1.
</event>
<event>
 4    1  0.1776638E+004  0.2467782E+02  0.7546771E-02  0.1472440E+00
         21   -1    0    0  501  502  0.00000000000E+00  0.00000000000E+00  0.16846300225E+03  0.16846300225E+03  0.00000000000E+00 0. -1.
         21   -1    0    0  502  503 -0.00000000000E+00 -0.00000000000E+00 -0.76206217184E+02  0.76206217184E+02  0.00000000000E+00 0.  1.
          2    1    1    2  501    0 -0.13146434917E+02 -0.20884588179E+02  0.16552614723E+03  0.16735560998E+03  0.00000000000E+00 0. -1.
         -2    1    1    2    0  503  0.13146434917E+02  0.20884588179E+02 -0.73269362166E+02  0.77313609453E+02  0.00000000000E+00 0.  1.
</event>
<event>
 4    1  0.1776638E+004  0.2345406E+02  0.7546771E-02  0.1486874E+00
         21   -1    0    0  501  502  0.00000000000E+00  0.00000000000E+00  0.64471542854E+02  0.64471542854E+02  0.00000000000E+00 0.  1.
         21   -1    0    0  502  503 -0.00000000000E+00 -0.00000000000E+00 -0.12052637488E+02  0.12052637488E+02  0.00000000000E+00 0. -1.
          2    1    1    2  501    0 -0.15826977398E+02  0.17308954288E+02  0.46887872010E+02  0.52426764670E+02  0.00000000000E+00 0.  1.
         -2    1    1    2    0  503  0.15826977398E+02 -0.17308954288E+02  0.55310333561E+01  0.24097415673E+02  0.00000000000E+00 0. -1.
</event>
<event>
 4    1  0.1776638E+004  0.2880798E+02  0.7546771E-02  0.1430246E+00
         21   -1    0    0  503  502  0.00000000000E+00  0.00000000000E+00  0.30156683948E+01  0.30156683948E+01  0.00000000000E+00 0. -1.
         21   -1    0    0  501  503 -0.00000000000E+00 -0.00000000000E+00 -0.29591472679E+03  0.29591472679E+03  0.00000000000E+00 0.  1.
          2    1    1    2  501    0  0.25632339419E+02 -0.13148503761E+02 -0.18599875533E+03  0.18821646305E+03  0.00000000000E+00 0. -1.
         -2    1    1    2    0  502 -0.25632339419E+02  0.13148503761E+02 -0.10690030306E+03  0.11071393213E+03  0.00000000000E+00 0.  1.
</event>
<event>
 4    1  0.1776638E+004  0.2125128E+02  0.7546771E-02  0.1515707E+00
         21   -1    0    0  503  502  0.00000000000E+00  0.00000000000E+00  0.10113116646E+02  0.10113116646E+02  0.00000000000E+00 0.  1.
         21   -1    0    0  501  503 -0.00000000000E+00 -0.00000000000E+00 -0.48964853422E+02  0.48964853422E+02  0.00000000000E+00 0. -1.
          2    1    1    2  501    0  0.12524247855E+02 -0.17168580057E+02 -0.28187930934E+02  0.35301223433E+02  0.00000000000E+00 0. -1.
         -2    1    1    2    0  502 -0.12524247855E+02  0.17168580057E+02 -0.10663805841E+02  0.23776746635E+02  0.00000000000E+00 0.  1.
</event>
<event>
 4    1  0.1776638E+004  0.2115227E+02  0.7546771E-02  0.1517102E+00
         21   -1    0    0  503  502  0.00000000000E+00  0.00000000000E+00  0.33430545998E+03  0.33430545998E+03  0.00000000000E+00 0.  1.
         21   -1    0    0  501  503 -0.00000000000E+00 -0.00000000000E+00 -0.16720185008E+01  0.16720185008E+01  0.00000000000E+00 0. -1.
          2    1    1    2  501    0  0.18732169145E+02 -0.98246818066E+01  0.24136066254E+03  0.24228575681E+03  0.00000000000E+00 0. -1.
         -2    1    1    2    0  502 -0.18732169145E+02  0.98246818066E+01  0.91272778937E+02  0.93691721664E+02  0.00000000000E+00 0.  1.
</event>
<event>
 4    1  0.1776638E+004  0.2134643E+02  0.7546771E-02  0.1514376E+00
         21   -1    0    0  503  502  0.00000000000E+00  0.00000000000E+00  0.27128236199E+03  0.27128236199E+03  0.00000000000E+00 0. -1.
         21   -1    0    0  501  503 -0.00000000000E+00 -0.00000000000E+00 -0.75551454706E+02  0.75551454706E+02  0.00000000000E+00 0.  1.
          2    1    1    2  501    0  0.19320437699E+02  0.90769389656E+01 -0.73612883100E+02  0.76645461002E+02  0.00000000000E+00 0.  1.
         -2    1    1    2    0  502 -0.19320437699E+02 -0.90769389656E+01  0.26934379038E+03  0.27018835569E+03  0.00000000000E+00 0. -1.
</event>
<event>
 4    1  0.1776638E+004  0.3177728E+02  0.7546771E-02  0.1404756E+00
         21   -1    0    0  501  502  0.00000000000E+00  0.00000000000E+00  0.22984835333E+02  0.22984835333E+02  0.00000000000E+00 0.  1.
         21   -1    0    0  502  503 -0.00000000000E+00 -0.00000000000E+00 -0.48514215809E+02  0.48514215809E+02  0.00000000000E+00 0. -1.
          2    1    1    2  501    0 -0.31572705799E+02 -0.35999722801E+01 -0.17791754067E+01  0.31827048512E+02  0.00000000000E+00 0.  1.
         -2    1    1    2    0  503  0.31572705799E+02  0.35999722801E+01 -0.23750205069E+02  0.39672002630E+02  0.00000000000E+00 0. -1.
</event>
<event>
 4    1  0.1776638E+004  0.2440802E+02  0.7546771E-02  0.1475536E+00
         21   -1    0    0  501  502  0.00000000000E+00  0.00000000000E+00  0.24866545683E+02  0.24866545683E+02  0.00000000000E+00 0. -1.
         21   -1    0    0  502  503 -0.00000000000E+00 -0.00000000000E+00 -0.27069367499E+02  0.27069367499E+02  0.00000000000E+00 0.  1.
          2    1    1    2  501    0 -0.12236150199E+01  0.24377334497E+02  0.77025330700E+01  0.25594544078E+02  0.00000000000E+00 0. -1.
         -2    1    1    2    0  503  0.12236150199E+01 -0.24377334497E+02 -0.99053548860E+01  0.26341369105E+02  0.00000000000E+00 0.  1.
</event>
<event>
 4    1  0.1776638E+004  0.2635466E+02  0.7546771E-02  0.1454201E+00
         21   -1    0    0  501  502  0.00000000000E+00  0.00000000000E+00  0.17109043150E+03  0.17109043150E+03  0.00000000000E+00 0.  1.
         21   -1    0    0  502  503 -0.00000000000E+00 -0.00000000000E+00 -0.87543625295E+01  0.87543625295E+01  0.00000000000E+00 0. -1.
          2    1    1    2  501    0  0.24624782385E+02  0.93908628689E+01  0.14701865304E+03  0.14936215235E+03  0.00000000000E+00 0.  1.
         -2    1    1    2    0  503 -0.24624782385E+02 -0.93908628689E+01  0.15317415929E+02  0.30482641678E+02  0.00000000000E+00 0. -1.
</event>
<event>
 4    1  0.1776638E+004  0.2526178E+02  0.7546771E-02  0.1465896E+00
         21   -1    0    0  501  502  0.00000000000E+00  0.00000000000E+00  0.87263385183E+01  0.87263385183E+01  0.00000000000E+00 0. -1.
         21   -1    0    0  502  503 -0.00000000000E+00 -0.00000000000E+00 -0.32192459495E+03  0.32192459495E+03  0.00000000000E+00 0.  1.
          2    1    1    2  501    0  0.21035632711E+02  0.13987842668E+02 -0.11259814885E+02  0.27657567089E+02  0.00000000000E+00 0. -1.
         -2    1    1    2    0  503 -0.21035632711E+02 -0.13987842668E+02 -0.30193844155E+03  0.30299336638E+03  0.00000000000E+00 0.  1.
</event>
<event>
 4    1  0.1776638E+004  0.2186594E+02  0.7546771E-02  0.1507252E+00
         21   -1    0    0  501  502  0.00000000000E+00  0.00000000000E+00  0.48507659238E+03  0.48507659238E+03  0.00000000000E+00 0.  1.
         21   -1    0    0  502  503 -0.00000000000E+00 -0.00000000000E+00 -0.23329166734E+01  0.23329166734E+01  0.00000000000E+00 0. -1.
          2    1    1    2  501    0 -0.98989337742E+01 -0.19496935105E+02  0.42657140511E+03  0.42713145872E+03  0.00000000000E+00 0.  1.
         -2    1    1    2    0  503  0.98989337742E+01  0.19496935105E+02  0.56172270598E+02  0.60278050338E+02  0.00000000000E+00 0. -1.
</event>
<event>
 4    1  0.1776638E+004  0.3018972E+02  0.7546771E-02  0.1417955E+00
         21   -1    0    0  503  502  0.00000000000E+00  0.00000000000E+00  0.21726873146E+02  0.21726873146E+02  0.00000000000E+00 0. -1.
         21   -1    0    0  501  503 -0.00000000000E+00 -0.00000000000E+00 -0.72078367954E+02  0.72078367954E+02  0.00000000000E+00 0.  1.
          2    1    1    2  501    0  0.18442148717E+02 -0.23902019946E+02 -0.55499995635E+02  0.63179655921E+02  0.00000000000E+00 0.  1.
         -2    1    1    2    0  502 -0.18442148717E+02  0.23902019946E+02  0.51485008271E+01  0.30625585179E+02  0.00000000000E+00 0. -1.
</event>
<event>
 4    1  0.1776638E+004  0.2340187E+02  0.7546771E-02  0.1487513E+00
         21   -1    0    0  503  502  0.00000000000E+00  0.00000000000E+00  0.31677209270E+02  0.31677209270E+02  0.00000000000E+00 0.  1.
         21   -1    0    0  501  503 -0.00000000000E+00 -0.00000000000E+00 -0.17917491427E+02  0.17917491427E+02  0.00000000000E+00 0. -1.
          2    1    1    2  501    0  0.47957099076E+01 -0.22905206356E+02  0.22332733102E+01  0.23508186264E+02  0.00000000000E+00 0. -1.
         -2    1    1    2    0  502 -0.47957099076E+01  0.22905206356E+02  0.11526444533E+02  0.26086514434E+02  0.00000000000E+00 0.  1.
</event>
<event>
 4    1  0.1776638E+004  0.2668472E+02  0.7546771E-02  0.1450801E+00
         21   -1    0    0  503  502  0.00000000000E+00  0.00000000000E+00  0.90135813430E+02  0.90135813430E+02  0.00000000000E+00 0.  1.
         21   -1    0    0  501  503 -0.00000000000E+00 -0.00000000000E+00 -0.93607304601E+01  0.93607304601E+01  0.00000000000E+00 0. -1.
          2    1    1    2  501    0 -0.26445010538E+02 -0.35687130679E+01  0.20735579551E+02  0.33794060937E+02  0.00000000000E+00 0. -1.
         -2    1    1    2    0  502  0.26445010538E+02  0.35687130679E+01  0.60039503419E+02  0.65702482953E+02  0.00000000000E+00 0.  1.
</event>
<event>
 4    1  0.1776638E+004  0.2231443E+02  0.7546771E-02  0.1501291E+00
         21   -1    0    0  503  502  0.00000000000E+00  0.00000000000E+00  0.69783269450E+01  0.69783269450E+01  0.00000000000E+00 0. -1.
         21   -1    0    0  501  503 -0.00000000000E+00 -0.00000000000E+00 -0.15954854886E+03  0.15954854886E+03  0.00000000000E+00 0.  1.
          2    1    1    2  501    0  0.15800311559E+02 -0.15757022212E+02 -0.13819044287E+03  0.13998047041E+03  0.00000000000E+00 0.  1.
         -2    1    1    2    0  502 -0.15800311559E+02  0.15757022212E+02 -0.14379779050E+02  0.26546405404E+02  0.00000000000E+00 0. -1.
</event>
<event>
 4    1  0.1776638E+004  0.2422808E+02  0.7546771E-02  0.1477627E+00
         21   -1    0    0  501  502  0.00000000000E+00  0.00000000000E+00  0.73116205614E+03  0.73116205614E+03  0.00000000000E+00 0. -1.
         21   -1    0    0  502  503 -0.00000000000E+00 -0.00000000000E+00 -0.91392658340E+00  0.91392658340E+00  0.00000000000E+00 0.  1.
          2    1    1    2  501    0 -0.10753783440E+02  0.21710740154E+02  0.49274369573E+03  0.49333898060E+03  0.00000000000E+00 0. -1.
         -2    1    1    2    0  503  0.10753783440E+02 -0.21710740154E+02  0.23750443383E+03  0.23873700212E+03  0.00000000000E+00 0.  1.
</event>
<event>
 4    1  0.1776638E+004  0.2944539E+02  0.7546771E-02  0.1424478E+00
         21   -1    0    0  501  502  0.00000000000E+00  0.00000000000E+00  0.65926153095E+02  0.65926153095E+02  0.00000000000E+00 0.  1.
         21   -1    0    0  502  503 -0.00000000000E+00 -0.00000000000E+00 -0.18265413462E+02  0.18265413462E+02  0.00000000000E+00 0. -1.
          2    1    1    2  501    0 -0.25765326665E+02  0.14254081032E+02  0.46104386646E+02  0.54705076110E+02  0.00000000000E+00 0.  1.
         -2    1    1    2    0  503  0.25765326665E+02 -0.14254081032E+02  0.15563529871E+01  0.29486490447E+02  0.00000000000E+00 0. -1.
</event>
<event>
 4    1  0.1776638E+004  0.2565768E+02  0.7546771E-02  0.1461579E+00
         21   -1    0    0  501  502  0.00000000000E+00  0.00000000000E+00  0.28304729167E+03  0.28304729167E+03  0.00000000000E+00 0. -1.
         21   -1    0    0  502  503 -0.00000000000E+00 -0.00000000000E+00 -0.48216367102E+01  0.48216367102E+01  0.00000000000E+00 0.  1.
          2    1    1    2  501    0  0.25547956781E+01  0.25530172701E+02  0.24266852670E+03  0.24402116824E+03  0.00000000000E+00 0. -1.
         -2    1    1    2    0  503 -0.25547956781E+01 -0.25530172701E+02  0.35557128259E+02  0.43847760138E+02  0.00000000000E+00 0.  1.
</event>
<event>
 4    1  0.1776638E+004  0.2056324E+02  0.7546771E-02  0.1525593E+00
         21   -1    0    0  503  502  0.00000000000E+00  0.00000000000E+00  0.68539075160E+01  0.68539075160E+01  0.00000000000E+00 0.  1.
         21   -1    0    0  501  503 -0.00000000000E+00 -0.00000000000E+00 -0.15640993851E+03  0.15640993851E+03  0.00000000000E+00 0. -1.
          2    1    1    2  501    0  0.12033838749E+02 -0.16674337442E+02 -0.13830215264E+03  0.13982250259E+03  0.00000000000E+00 0. -1.
         -2    1    1    2    0  502 -0.12033838749E+02  0.16674337442E+02 -0.11253878347E+02  0.23441343434E+02  0.00000000000E+00 0.  1.
</event>
<event>
 4    1  0.1776638E+004  0.2094857E+02  0.7546771E-02  0.1520000E+00
         21   -1    0    0  501  502  0.00000000000E+00  0.00000000000E+00  0.31634974853E+02  0.31634974853E+02  0.00000000000E+00 0. -1.
         21   -1    0    0  502  503 -0.00000000000E+00 -0.00000000000E+00 -0.14217225864E+02  0.14217225864E+02  0.00000000000E+00 0.  1.
          2    1    1    2  501    0  0.20760340100E+02  0.28019282151E+01  0.12281040519E+02  0.24283049212E+02  0.00000000000E+00 0. -1.
         -2    1    1    2    0  503 -0.20760340100E+02 -0.28019282151E+01  0.51367084698E+01  0.21569151506E+02  0.00000000000E+00 0.  1.
</event>
<event>
 4    1  0.1776638E+004  0.2465318E+02  0.7546771E-02  0.1472721E+00
         21   -1    0    0  503  502  0.00000000000E+00  0.00000000000E+00  0.36621167477E+03  0.36621167477E+03  0.00000000000E+00 0.  1.
         21   -1    0    0  501  503 -0.00000000000E+00 -0.00000000000E+00 -0.36287751164E+01  0.36287751164E+01  0.00000000000E+00 0. -1.
          2    1    1    2  501    0 -0.14163724420E+02  0.20178403142E+02  0.45071004679E+02  0.51372896605E+02  0.00000000000E+00 0. -1.
         -2    1    1    2    0  502  0.14163724420E+02 -0.20178403142E+02  0.31751189497E+03  0.31846755328E+03  0.00000000000E+00 0.  1.
</event>
<event>
 4    1  0.1776638E+004  0.2205233E+02  0.7546771E-02  0.1504754E+00
         21   -1    0    0  503  502  0.00000000000E+00  0.00000000000E+00  0.37325097085E+02  0.37325097085E+02  0.00000000000E+00 0.  1.
         21   -1    0    0  501  503 -0.00000000000E+00 -0.00000000000E+00 -0.32158423452E+02  0.32158423452E+02  0.00000000000E+00 0. -1.
          2    1    1    2  501    0  0.10431948187E+02 -0.19428832249E+02 -0.24211831355E+02  0.32749318208E+02  0.00000000000E+00 0. -1.
         -2    1    1    2    0  502 -0.10431948187E+02  0.19428832249E+02  0.29378504987E+02  0.36734202330E+02  0.00000000000E+00 0.  1.
</event>
<event>
 4    1  0.1776638E+004  0.2097960E+02  0.7546771E-02  0.1519556E+00
         21   -1    0    0  503  502  0.00000000000E+00  0.00000000000E+00  0.54240317520E+01  0.54240317520E+01  0.00000000000E+00 0.  1.
         21   -1    0    0  501  503 -0.00000000000E+00 -0.00000000000E+00 -0.81457284800E+02  0.81457284800E+02  0.00000000000E+00 0. -1.
          2    1    1    2  501    0  0.19527301161E+02 -0.76699529877E+01 -0.35335347456E+02  0.41094165636E+02  0.00000000000E+00 0. -1.
         -2    1    1    2    0  502 -0.19527301161E+02  0.76699529877E+01 -0.40697905592E+02  0.45787150916E+02  0.00000000000E+00 0.  1.
</event>
<event>
 4    1  0.1776638E+004  0.2529569E+02  0.7546771E-02  0.1465523E+00
         21   -1    0    0  503  502  0.00000000000E+00  0.00000000000E+00  0.86489618348E+02  0.86489618348E+02  0.00000000000E+00 0. -1.
         21   -1    0    0  501  503 -0.00000000000E+00 -0.00000000000E+00 -0.78747154274E+01  0.78747154274E+01  0.00000000000E+00 0.  1.
          2    1    1    2  501    0  0.19397690734E+02  0.16235811071E+02  0.27701643904E+02  0.37513371508E+02  0.00000000000E+00 0.  1.
         -2    1    1    2    0  502 -0.19397690734E+02 -0.16235811071E+02  0.50913259018E+02  0.56850962268E+02  0.00000000000E+00 0. -1.
</event>
<event>
 4    1  0.1776638E+004  0.3091094E+02  0.7546771E-02  0.1411842E+00
         21   -1    0    0  503  502  0.00000000000E+00  0.00000000000E+00  0.66252601736E+02  0.66252601736E+02  0.00000000000E+00 0.  1.
         21   -1    0    0  501  503 -0.00000000000E+00 -0.00000000000E+00 -0.24137186031E+02  0.24137186031E+02  0.00000000000E+00 0. -1.
          2    1    1    2  501    0  0.25774044431E+02  0.17064139189E+02 -0.76153878850E+01  0.31835206065E+02  0.00000000000E+00 0. -1.
         -2    1    1    2    0  502 -0.25774044431E+02 -0.17064139189E+02  0.49730803589E+02  0.58554581701E+02  0.00000000000E+00 0.  1.
</event>
<event>
 4    1  0.1776638E+004  0.3130670E+02  0.7546771E-02  0.1408571E+00
         21   -1    0    0  501  502  0.00000000000E+00  0.00000000000E+00  0.24832889660E+02  0.24832889660E+02  0.00000000000E+00 0. -1.
         21   -1    0    0  502  503 -0.00000000000E+00 -0.00000000000E+00 -0.42926543928E+02  0.42926543928E+02  0.00000000000E+00 0.  1.
          2    1    1    2  501    0 -0.71119877166E+01  0.30488184661E+02  0.56951921723E+00  0.31311884730E+02  0.00000000000E+00 0. -1.
         -2    1    1    2    0  503  0.71119877166E+01 -0.30488184661E+02 -0.18663173485E+02  0.36447548858E+02  0.00000000000E+00 0.  1.
</event>
<event>
 4    1  0.1776638E+004  0.3406140E+02  0.7546771E-02  0.1387285E+00
         21   -1    0    0  501  502  0.00000000000E+00  0.00000000000E+00  0.12964498949E+02  0.12964498949E+02  0.00000000000E+00 0. -1.
         21   -1    0    0  502  503 -0.00000000000E+00 -0.00000000000E+00 -0.14601561940E+03  0.14601561940E+03  0.00000000000E+00 0.  1.
          2    1    1    2  501    0 -0.26376260723E+02  0.21551607762E+02 -0.17067167243E+02  0.38098124948E+02  0.00000000000E+00 0. -1.
         -2    1    1    2    0  503  0.26376260723E+02 -0.21551607762E+02 -0.11598395321E+03  0.12088199341E+03  0.00000000000E+00 0.  1.
</event>
<event>
 4    1  0.1776638E+004  0.2022270E+02  0.7546771E-02  0.1530658E+00
         21   -1    0    0  503  502  0.00000000000E+00  0.00000000000E+00  0.10909251853E+04  0.10909251853E+04  0.00000000000E+00 0. -1.
         21   -1    0    0  501  503 -0.00000000000E+00 -0.00000000000E+00 -0.42775511671E+00  0.42775511671E+00  0.00000000000E+00 0.  1.
          2    1    1    2  501    0  0.19444409422E+02 -0.55563176096E+01  0.73711319117E+03  0.73739054396E+03  0.00000000000E+00 0.  1.
         -2    1    1    2    0  502 -0.19444409422E+02  0.55563176096E+01  0.35338423901E+03  0.35396239645E+03  0.00000000000E+00 0. -1.
</event>
<event>
 4    1  0.1776638E+004  0.2375674E+02  0.7546771E-02  0.1483208E+00
         21   -1    0    0  501  502  0.00000000000E+00  0.00000000000E+00  0.13889698537E+03  0.13889698537E+03  0.00000000000E+00 0.  1.
         21   -1    0    0  502  503 -0.00000000000E+00 -0.00000000000E+00 -0.94782423400E+01  0.94782423400E+01  0.00000000000E+00 0. -1.
          2    1    1    2  501    0 -0.58415235857E+01  0.23027361691E+02  0.12078364400E+03  0.12309781250E+03  0.00000000000E+00 0.  1.
         -2    1    1    2    0  503  0.58415235857E+01 -0.23027361691E+02  0.86350990245E+01  0.25277415205E+02  0.00000000000E+00 0. -1.
</event>
<event>
 4    1  0.1776638E+004  0.2017872E+02  0.7546771E-02  0.1531321E+00
         21   -1    0    0  501  502  0.00000000000E+00  0.00000000000E+00  0.14804142850E+02  0.14804142850E+02  0.00000000000E+00 0.  1.
         21   -1    0    0  502  503 -0.00000000000E+00 -0.00000000000E+00 -0.52525372097E+02  0.52525372097E+02  0.00000000000E+00 0. -1.
          2    1    1    2  501    0  0.14713399852E+02 -0.13809297953E+02  0.43743474495E+01  0.20647415353E+02  0.00000000000E+00 0.  1.
         -2    1    1    2    0  503 -0.14713399852E+02  0.13809297953E+02 -0.42095576696E+02  0.46682099594E+02  0.00000000000E+00 0. -1.
</event>
<event>
 4    1  0.1776638E+004  0.2033884E+02  0.7546771E-02  0.1528917E+00
         21   -1    0    0  503  502  0.00000000000E+00  0.00000000000E+00  0.10539094053E+02  0.10539094053E+02  0.00000000000E+00 0. -1.
         21   -1    0    0  501  503 -0.00000000000E+00 -0.00000000000E+00 -0.41660317294E+02  0.41660317294E+02  0.00000000000E+00 0.  1.
          2    1    1    2  501    0  0.15602842690E+02  0.13046833825E+02 -0.21837340371E+02  0.29841883441E+02  0.00000000000E+00 0.  1.
         -2    1    1    2    0  502 -0.15602842690E+02 -0.13046833825E+02 -0.92838828706E+01  0.22357527905E+02  0.00000000000E+00 0. -1.
</event>
<event>
 4    1  0.1776638E+004  0.2703567E+02  0.7546771E-02  0.1447250E+00
         21   -1    0    0  503  502  0.00000000000E+00  0.00000000000E+00  0.76127320478E+01  0.76127320478E+01  0.00000000000E+00 0.  1.
         21   -1    0    0  501  503 -0.00000000000E+00 -0.00000000000E+00 -0.11385482625E+03  0.11385482625E+03  0.00000000000E+00 0. -1.
          2    1    1    2  501    0  0.19696355262E+02  0.18519747241E+02 -0.77162699509E+02  0.81761908270E+02  0.00000000000E+00 0. -1.
         -2    1    1    2    0  502 -0.19696355262E+02 -0.18519747241E+02 -0.29079394697E+02  0.39705650032E+02  0.00000000000E+00 0.  1.
</event>
<event>
 4    1  0.1776638E+004  0.2022566E+02  0.7546771E-02  0.1530614E+00
         21   -1    0    0  503  502  0.00000000000E+00  0.00000000000E+00  0.37382479749E+02  0.37382479749E+02  0.00000000000E+00 0.  1.
         21   -1    0    0  501  503 -0.00000000000E+00 -0.00000000000E+00 -0.12304594425E+02  0.12304594425E+02  0.00000000000E+00 0. -1.
          2    1    1    2  501    0 -0.12380730765E+02  0.15993587080E+02  0.42747573058E+01  0.20672466520E+02  0.00000000000E+00 0. -1.
         -2    1    1    2    0  502  0.12380730765E+02 -0.15993587080E+02  0.20803128018E+02  0.29014607654E+02  0.00000000000E+00 0.  1.
</event>
<event>
 4    1  0.1776638E+004  0.2311075E+02  0.7546771E-02  0.1491112E+00
         21   -1    0    0  501  502  0.00000000000E+00  0.00000000000E+00  0.15169394240E+03  0.15169394240E+03  0.00000000000E+00 0.  1.
         21   -1    0    0  502  503 -0.00000000000E+00 -0.00000000000E+00 -0.16292258992E+02  0.16292258992E+02  0.00000000000E+00 0. -1.
          2    1    1    2  501    0 -0.19409719577E+02  0.12544701695E+02  0.14206619939E+03  0.14393370614E+03  0.00000000000E+00 0.  1.
         -2    1    1    2    0  503  0.19409719577E+02 -0.12544701695E+02 -0.66645159791E+01  0.24052495253E+02  0.00000000000E+00 0. -1.
</event>
<event>
 4    1  0.1776638E+004  0.2324943E+02  0.7546771E-02  0.1489390E+00
         21   -1    0    0  501  502  0.00000000000E+00  0.00000000000E+00  0.90583445089E+01  0.90583445089E+01  0.00000000000E+00 0. -1.
         21   -1    0    0  502  503 -0.00000000000E+00 -0.00000000000E+00 -0.75074234438E+02  0.75074234438E+02  0.00000000000E+00 0.  1.
          2    1    1    2  501    0 -0.22616486045E+02 -0.53880024714E+01 -0.13954630650E+02  0.27115820626E+02  0.00000000000E+00 0. -1.
         -2    1    1    2    0  503  0.22616486045E+02  0.53880024714E+01 -0.52061259279E+02  0.57016758321E+02  0.00000000000E+00 0.  1.
</event>
<event>
 4    1  0.1776638E+004  0.2245778E+02  0.7546771E-02  0.1499421E+00
         21   -1    0    0  503  502  0.00000000000E+00  0.00000000000E+00  0.37402435622E+02  0.37402435622E+02  0.00000000000E+00 0. -1.
         21   -1    0    0  501  503 -0.00000000000E+00 -0.00000000000E+00 -0.13982657702E+02  0.13982657702E+02  0.00000000000E+00 0.  1.
          2    1    1    2  501    0  0.22367547578E+02  0.20110898368E+01  0.16559567121E+02  0.27902883905E+02  0.00000000000E+00 0. -1.
         -2    1    1    2    0  502 -0.22367547578E+02 -0.20110898368E+01  0.68602107993E+01  0.23482209419E+02  0.00000000000E+00 0.  1.
</event>
<event>
 4    1  0.1776638E+004  0.2082748E+02  0.7546771E-02  0.1521742E+00
         21   -1    0    0  503  502  0.00000000000E+00  0.00000000000E+00  0.20906020354E+02  0.20906020354E+02  0.00000000000E+00 0.  1.
         21   -1    0    0  501  503 -0.00000000000E+00 -0.00000000000E+00 -0.21959873731E+02  0.21959873731E+02  0.00000000000E+00 0. -1.
          2    1    1    2  501    0  0.20615441111E+02  0.29643654728E+01 -0.55593216633E+01  0.21556667929E+02  0.00000000000E+00 0. -1.
         -2    1    1    2    0  502 -0.20615441111E+02 -0.29643654728E+01  0.45054682866E+01  0.21309226155E+02  0.00000000000E+00 0.  1.
</event>
<event>
 4    1  0.1776638E+004  0.2221060E+02  0.7546771E-02  0.1502656E+00
         21   -1    0    0  501  502  0.00000000000E+00  0.00000000000E+00  0.32542817136E+01  0.32542817136E+01  0.00000000000E+00 0. -1.
         21   -1    0    0  502  503 -0.00000000000E+00 -0.00000000000E+00 -0.21564462888E+03  0.21564462888E+03  0.00000000000E+00 0.  1.
          2    1    1    2  501    0  0.17557142586E+02  0.13603585316E+02 -0.46543098201E+02  0.51571026549E+02  0.00000000000E+00 0. -1.
         -2    1    1    2    0  503 -0.17557142586E+02 -0.13603585316E+02 -0.16584724897E+03  0.16732788405E+03  0.00000000000E+00 0.  1.
</event>
<event>
 4    1  0.1776638E+004  0.2059371E+02  0.7546771E-02  0.1525145E+00
         21   -1    0    0  501  502  0.00000000000E+00  0.00000000000E+00  0.49563184511E+01  0.49563184511E+01  0.00000000000E+00 0.  1.
         21   -1    0    0  502  503 -0.00000000000E+00 -0.00000000000E+00 -0.14089470430E+03  0.14089470430E+03  0.00000000000E+00 0. -1.
          2    1    1    2  501    0  0.18782889365E+02  0.84441661001E+01 -0.22270829827E+02  0.30332997465E+02  0.00000000000E+00 0.  1.
         -2    1    1    2    0  503 -0.18782889365E+02 -0.84441661001E+01 -0.11366755602E+03  0.11551802528E+03  0.00000000000E+00 0. -1.
</event>
<event>
 4    1  0.1776638E+004  0.2082045E+02  0.7546771E-02  0.1521844E+00
         21   -1    0    0  501  502  0.00000000000E+00  0.00000000000E+00  0.16064508145E+04  0.16064508145E+04  0.00000000000E+00 0. -1.
         21   -1    0    0  502  503 -0.00000000000E+00 -0.00000000000E+00 -0.27275098720E+00  0.27275098720E+00  0.00000000000E+00 0.  1.
          2    1    1    2  501    0 -0.29948450276E+01  0.20603928127E+02  0.88602771224E+03  0.88627230455E+03  0.00000000000E+00 0.  1.
         -2    1    1    2    0  503  0.29948450276E+01 -0.20603928127E+02  0.72015035128E+03  0.72045126095E+03  0.00000000000E+00 0. -1.
</event>
<event>
 4    1  0.1776638E+004  0.2819434E+02  0.7546771E-02  0.1435966E+00
         21   -1    0    0  503  502  0.00000000000E+00  0.00000000000E+00  0.10346929511E+02  0.10346929511E+02  0.00000000000E+00 0.  1.
         21   -1    0    0  501  503 -0.00000000000E+00 -0.00000000000E+00 -0.10660065100E+03  0.10660065100E+03  0.00000000000E+00 0. -1.
          2    1    1    2  501    0  0.75309994316E+01  0.27169920563E+02 -0.79029778845E+02  0.83908441054E+02  0.00000000000E+00 0. -1.
         -2    1    1    2    0  502 -0.75309994316E+01 -0.27169920563E+02 -0.17223942643E+02  0.33039139456E+02  0.00000000000E+00 0.  1.
</event>
<event>
 4    1  0.1776638E+004  0.2072877E+02  0.7546771E-02  0.1523173E+00
         21   -1    0    0  501  502  0.00000000000E+00  0.00000000000E+00  0.43549864459E+00  0.43549864459E+00  0.00000000000E+00 0.  1.
         21   -1    0    0  502  503 -0.00000000000E+00 -0.00000000000E+00 -0.99833229134E+03  0.99833229134E+03  0.00000000000E+00 0. -1.
          2    1    1    2  501    0  0.19847393186E+02 -0.59801928144E+01 -0.55298519963E+03  0.55337357430E+03  0.00000000000E+00 0.  1.
         -2    1    1    2    0  503 -0.19847393186E+02  0.59801928144E+01 -0.44491159307E+03  0.44539421569E+03  0.00000000000E+00 0. -1.
</event>
<event>
 4    1  0.1776638E+004  0.2812378E+02  0.7546771E-02  0.1436635E+00
         21   -1    0    0  501  502  0.00000000000E+00  0.00000000000E+00  0.46633421628E+01  0.46633421628E+01  0.00000000000E+00 0.  1.
         21   -1    0    0  502  503 -0.00000000000E+00 -0.00000000000E+00 -0.25616844840E+03  0.25616844840E+03  0.00000000000E+00 0. -1.
          2    1    1    2  501    0 -0.24992249250E+02  0.12897082397E+02 -0.49943054027E+02  0.57317151904E+02  0.00000000000E+00 0.  1.
         -2    1    1    2    0  503  0.24992249250E+02 -0.12897082397E+02 -0.20156205221E+03  0.20351463866E+03  0.00000000000E+00 0. -1.
</event>
<event>
 4    1  0.1776638E+004  0.2601298E+02  0.7546771E-02  0.1457783E+00
         21   -1    0    0  503  502  0.00000000000E+00  0.00000000000E+00  0.30935477623E+01  0.30935477623E+01  0.00000000000E+00 0. -1.
         21   -1    0    0  501  503 -0.00000000000E+00 -0.00000000000E+00 -0.21999084391E+03  0.21999084391E+03  0.00000000000E+00 0.  1.
          2    1    1    2  501    0  0.21182490105E+02 -0.15098907087E+02 -0.11686789433E+03  0.11972793997E+03  0.00000000000E+00 0. -1.
         -2    1    1    2    0  502 -0.21182490105E+02  0.15098907087E+02 -0.10002940181E+03  0.10335645171E+03  0.00000000000E+00 0.  1.
</event>
<event>
 4    1  0.1776638E+004  0.2608488E+02  0.7546771E-02  0.1457024E+00
         21   -1    0    0  501  502  0.00000000000E+00  0.00000000000E+00  0.19830322674E+01  0.19830322674E+01  0.00000000000E+00 0.  1.
         21   -1    0    0  502  503 -0.00000000000E+00 -0.00000000000E+00 -0.38865720239E+03  0.38865720239E+03  0.00000000000E+00 0. -1.
          2    1    1    2  501    0 -0.19148399440E+02  0.17713267503E+02 -0.12648121599E+03  0.12914301779E+03  0.00000000000E+00 0.  1.
         -2    1    1    2    0  503  0.19148399440E+02 -0.17713267503E+02 -0.26019295414E+03  0.26149721687E+03  0.00000000000E+00 0. -1.
</event>
<event>
 4    1  0.1776638E+004  0.3414194E+02  0.7546771E-02  0.1386698E+00
         21   -1    0    0  501  502  0.00000000000E+00  0.00000000000E+00  0.79810026848E+01  0.79810026848E+01  0.00000000000E+00 0.  1.
         21   -1    0    0  502  503 -0.00000000000E+00 -0.00000000000E+00 -0.10666511559E+04  0.10666511559E+04  0.00000000000E+00 0. -1.
          2    1    1    2  501    0 -0.28289191848E+02 -0.19115282335E+02 -0.30159873607E+02  0.45555355011E+02  0.00000000000E+00 0.  1.
         -2    1    1    2    0  503  0.28289191848E+02  0.19115282335E+02 -0.10285102796E+04  0.10290768035E+04  0.00000000000E+00 0. -1.
</event>
<event>
 4    1  0.1776638E+004  0.2702903E+02  0.7546771E-02  0.1447317E+00
         21   -1    0    0  503  502  0.00000000000E+00  0.00000000000E+00  0.16253656118E+03  0.16253656118E+03  0.00000000000E+00 0.  1.
         21   -1    0    0  501  503 -0.00000000000E+00 -0.00000000000E+00 -0.73383695886E+01  0.73383695886E+01  0.00000000000E+00 0. -1.
          2    1    1    2  501    0 -0.26968054586E+02 -0.18144922430E+01  0.24726345730E+02  0.36632779358E+02  0.00000000000E+00 0. -1.
         -2    1    1    2    0  502  0.26968054586E+02  0.18144922430E+01  0.13047184586E+03  0.13324215141E+03  0.00000000000E+00 0.  1.
</event>
<event>
 4    1  0.1776638E+004  0.2047624E+02  0.7546771E-02  0.1526876E+00
         21   -1    0    0  503  502  0.00000000000E+00  0.00000000000E+00  0.22305719388E+02  0.22305719388E+02  0.00000000000E+00 0.  1.
         21   -1    0    0  501  503 -0.00000000000E+00 -0.00000000000E+00 -0.37291910499E+02  0.37291910499E+02  0.00000000000E+00 0. -1.
          2    1    1    2  501    0  0.16333370814E+02  0.12348987803E+02 -0.28478626157E+02  0.35075755868E+02  0.00000000000E+00 0. -1.
         -2    1    1    2    0  502 -0.16333370814E+02 -0.12348987803E+02  0.13492435046E+02  0.24521874019E+02  0.00000000000E+00 0.  1.
</event>
<event>
 4    1  0.1776638E+004  0.3287394E+02  0.7546771E-02  0.1396159E+00
         21   -1    0    0  501  502  0.00000000000E+00  0.00000000000E+00  0.21279964538E+03  0.21279964538E+03  0.00000000000E+00 0.  1.
         21   -1    0    0  502  503 -0.00000000000E+00 -0.00000000000E+00 -0.71605807046E+01  0.71605807046E+01  0.00000000000E+00 0. -1.
          2    1    1    2  501    0 -0.26788726268E+02  0.19054136673E+02  0.16212466201E+03  0.16542400675E+03  0.00000000000E+00 0.  1.
         -2    1    1    2    0  503  0.26788726268E+02 -0.19054136673E+02  0.43514402671E+02  0.54536219334E+02  0.00000000000E+00 0. -1.
</event>
<event>
 4    1  0.1776638E+004  0.2295922E+02  0.7546771E-02  0.1493011E+00
         21   -1    0    0  501  502  0.00000000000E+00  0.00000000000E+00  0.90177786300E+02  0.90177786300E+02  0.00000000000E+00 0. -1.
         21   -1    0    0  502  503 -0.00000000000E+00 -0.00000000000E+00 -0.59439856573E+01  0.59439856573E+01  0.00000000000E+00 0.  1.
          2    1    1    2  501    0  0.12891056805E+01  0.22923002643E+02  0.48306247239E+02  0.53484758258E+02  0.00000000000E+00 0. -1.
         -2    1    1    2    0  503 -0.12891056805E+01 -0.22923002643E+02  0.35927553403E+02  0.42637013699E+02  0.00000000000E+00 0.  1.
</event>
<event>
 4    1  0.1776638E+004  0.2141996E+02  0.7546771E-02  0.1513353E+00
         21   -1    0    0  501  502  0.00000000000E+00  0.00000000000E+00  0.20171036246E+02  0.20171036246E+02  0.00000000000E+00 0. -1.
         21   -1    0    0  502  503 -0.00000000000E+00 -0.00000000000E+00 -0.25994066695E+02  0.25994066695E+02  0.00000000000E+00 0.  1.
          2    1    1    2  501    0  0.11605878390E+02 -0.18003282475E+02  0.52476407968E+01  0.22053397176E+02  0.00000000000E+00 0. -1.
         -2    1    1    2    0  503 -0.11605878390E+02  0.18003282475E+02 -0.11070671246E+02  0.24111705765E+02  0.00000000000E+00 0.  1.
</event>
<event>
 4    1  0.1776638E+004  0.2067786E+02  0.7546771E-02  0.1523914E+00
         21   -1    0    0  503  502  0.00000000000E+00  0.00000000000E+00  0.13790071855E+02  0.13790071855E+02  0.00000000000E+00 0.  1.
         21   -1    0    0  501  503 -0.00000000000E+00 -0.00000000000E+00 -0.36853750136E+02  0.36853750136E+02  0.00000000000E+00 0. -1.
          2    1    1    2  501    0 -0.14971034718E+02 -0.14263316336E+02 -0.21618616778E+02  0.29915525481E+02  0.00000000000E+00 0. -1.
         -2    1    1    2    0  502  0.14971034718E+02  0.14263316336E+02 -0.14450615037E+01  0.20728296510E+02  0.00000000000E+00 0.  1.
</event>
<event>
 4    1  0.1776638E+004  0.2557118E+02  0.7546771E-02  0.1462514E+00
         21   -1    0    0  501  502  0.00000000000E+00  0.00000000000E+00  0.46259815354E+03  0.46259815354E+03  0.00000000000E+00 0.  1.
         21   -1    0    0  502  503 -0.00000000000E+00 -0.00000000000E+00 -0.32726353874E+01  0.32726353874E+01  0.00000000000E+00 0. -1.
          2    1    1    2  501    0 -0.13172128587E+02 -0.21917578575E+02  0.40522919478E+03  0.40603520232E+03  0.00000000000E+00 0.  1.
         -2    1    1    2    0  503  0.13172128587E+02  0.21917578575E+02  0.54096323375E+02  0.59835586609E+02  0.00000000000E+00 0. -1.
</event>
<event>
 4    1  0.1776638E+004  0.2517211E+02  0.7546771E-02  0.1466887E+00
         21   -1    0    0  501  502  0.00000000000E+00  0.00000000000E+00  0.82909015944E+03  0.82909015944E+03  0.00000000000E+00 0. -1.
         21   -1    0    0  502  503 -0.00000000000E+00 -0.00000000000E+00 -0.81043266514E+00  0.81043266514E+00  0.00000000000E+00 0.  1.
          2    1    1    2  501    0 -0.24442652729E+02 -0.60159487505E+01  0.51319145710E+03  0.51380843371E+03  0.00000000000E+00 0. -1.
         -2    1    1    2    0  503  0.24442652729E+02  0.60159487505E+01  0.31508826968E+03  0.31609215840E+03  0.00000000000E+00 0.  1.
</event>
<event>
 4    1  0.1776638E+004  0.2140292E+02  0.7546771E-02  0.1513589E+00
         21   -1    0    0  503  502  0.00000000000E+00  0.00000000000E+00  0.19087654240E+02  0.19087654240E+02  0.00000000000E+00 0. -1.
         21   -1    0    0  501  503 -0.00000000000E+00 -0.00000000000E+00 -0.56193127681E+02  0.56193127681E+02  0.00000000000E+00 0.  1.
          2    1    1    2  501    0 -0.20616513359E+02  0.57484279996E+01 -0.47043278039E+02  0.51683218323E+02  0.00000000000E+00 0.  1.
         -2    1    1    2    0  502  0.20616513359E+02 -0.57484279996E+01  0.99378045976E+01  0.23597563598E+02  0.00000000000E+00 0. -1.
</event>
<event>
 4    1  0.1776638E+004  0.2751055E+02  0.7546771E-02  0.1442546E+00
         21   -1    0    0  503  502  0.00000000000E+00  0.00000000000E+00  0.50036220227E+01  0.50036220227E+01  0.00000000000E+00 0. -1.
         21   -1    0    0  501  503 -0.00000000000E+00 -0.00000000000E+00 -0.18496332184E+03  0.18496332184E+03  0.00000000000E+00 0.  1.
          2    1    1    2  501    0 -0.23104360656E+02 -0.14933821300E+02 -0.13052733731E+03  0.13339496349E+03  0.00000000000E+00 0.  1.
         -2    1    1    2    0  502  0.23104360656E+02  0.14933821300E+02 -0.49432362508E+02  0.56571980371E+02  0.00000000000E+00 0. -1.
</event>
<event>
 4    1  0.1776638E+004  0.2116165E+02  0.7546771E-02  0.1516969E+00
         21   -1    0    0  501  502  0.00000000000E+00  0.00000000000E+00  0.61401947036E+01  0.61401947036E+01  0.00000000000E+00 0. -1.
         21   -1    0    0  502  503 -0.00000000000E+00 -0.00000000000E+00 -0.15819852114E+03  0.15819852114E+03  0.00000000000E+00 0.  1.
          2    1    1    2  501    0 -0.16776598142E+02 -0.12898112749E+02 -0.15704011708E+02  0.26352069016E+02  0.00000000000E+00 0. -1.
         -2    1    1    2    0  503  0.16776598142E+02  0.12898112749E+02 -0.13635431473E+03  0.13798664683E+03  0.00000000000E+00 0.  1.
</event>
<event>
 4    1  0.1776638E+004  0.2376806E+02  0.7546771E-02  0.1483072E+00
         21   -1    0    0  503  502  0.00000000000E+00  0.00000000000E+00  0.18124244801E+01  0.18124244801E+01  0.00000000000E+00 0.  1.
         21   -1    0    0  501  503 -0.00000000000E+00 -0.00000000000E+00 -0.32472074539E+03  0.32472074539E+03  0.00000000000E+00 0. -1.
          2    1    1    2  501    0 -0.20183570468E+02  0.12551662278E+02 -0.19415585870E+03  0.19560526120E+03  0.00000000000E+00 0. -1.
         -2    1    1    2    0  502  0.20183570468E+02 -0.12551662278E+02 -0.12875246221E+03  0.13092790867E+03  0.00000000000E+00 0.  1.
</event>
<event>
 4    1  0.1776638E+004  0.2048994E+02  0.7546771E-02  0.1526673E+00
         21   -1    0    0  503  502  0.00000000000E+00  0.00000000000E+00  0.12340523082E+02  0.12340523082E+02  0.00000000000E+00 0. -1.
         21   -1    0    0  501  503 -0.00000000000E+00 -0.00000000000E+00 -0.49571148207E+02  0.49571148207E+02  0.00000000000E+00 0.  1.
          2    1    1    2  501    0 -0.21269461667E+00 -0.20488839755E+02 -0.35953126526E+02  0.41381941720E+02  0.00000000000E+00 0.  1.
         -2    1    1    2    0  502  0.21269461667E+00  0.20488839755E+02 -0.12774985986E+01  0.20529729569E+02  0.00000000000E+00 0. -1.
</event>
<event>
 4    1  0.1776638E+004  0.2034088E+02  0.7546771E-02  0.1528887E+00
         21   -1    0    0  503  502  0.00000000000E+00  0.00000000000E+00  0.49637608002E+02  0.49637608002E+02  0.00000000000E+00 0. -1.
         21   -1    0    0  501  503 -0.00000000000E+00 -0.00000000000E+00 -0.94796175913E+01  0.94796175913E+01  0.00000000000E+00 0.  1.
          2    1    1    2  501    0 -0.29632066813E+01 -0.20123881911E+02  0.30348173355E+02  0.36534406290E+02  0.00000000000E+00 0. -1.
         -2    1    1    2    0  502  0.29632066813E+01  0.20123881911E+02  0.98098170561E+01  0.22582819303E+02  0.00000000000E+00 0.  1.
</event>
<event>
 4    1  0.1776638E+004  0.2701295E+02  0.7546771E-02  0.1447478E+00
         21   -1    0    0  501  502  0.00000000000E+00  0.00000000000E+00  0.59750742353E+02  0.59750742353E+02  0.00000000000E+00 0. -1.
         21   -1    0    0  502  503 -0.00000000000E+00 -0.00000000000E+00 -0.38893416073E+02  0.38893416073E+02  0.00000000000E+00 0.  1.
          2    1    1    2  501    0  0.24811065639E+02 -0.10682238807E+02  0.51279844246E+02  0.57959655192E+02  0.00000000000E+00 0. -1.
         -2    1    1    2    0  503 -0.24811065639E+02  0.10682238807E+02 -0.30422517966E+02  0.40684503235E+02  0.00000000000E+00 0.  1.
</event>
<event>
 4    1  0.1776638E+004  0.3437355E+02  0.7546771E-02  0.1385022E+00
         21   -1    0    0  501  502  0.00000000000E+00  0.00000000000E+00  0.16184072828E+01  0.16184072828E+01  0.00000000000E+00 0. -1.
         21   -1    0    0  502  503 -0.00000000000E+00 -0.00000000000E+00 -0.78752905521E+03  0.78752905521E+03  0.00000000000E+00 0.  1.
          2    1    1    2  501    0 -0.82202783484E+01  0.33376154536E+02 -0.49954062584E+03  0.50072185645E+03  0.00000000000E+00 0.  1.
         -2    1    1    2    0  503  0.82202783484E+01 -0.33376154536E+02 -0.28637002209E+03  0.28842560604E+03  0.00000000000E+00 0. -1.
</event>
<event>
 4    1  0.1776638E+004  0.2375444E+02  0.7546771E-02  0.1483236E+00
         21   -1    0    0  501  502  0.00000000000E+00  0.00000000000E+00  0.54796942977E+01  0.54796942977E+01  0.00000000000E+00 0.  1.
         21   -1    0    0  502  503 -0.00000000000E+00 -0.00000000000E+00 -0.19892721214E+03  0.19892721214E+03  0.00000000000E+00 0. -1.
          2    1    1    2  501    0  0.21849618916E+02 -0.93202736567E+01 -0.25742252372E+02  0.35027659142E+02  0.00000000000E+00 0.  1.
         -2    1    1    2    0  503 -0.21849618916E+02  0.93202736567E+01 -0.16770526547E+03  0.16937924730E+03  0.00000000000E+00 0. -1.
</event>
<event>
 4    1  0.1776638E+004  0.2301020E+02  0.7546771E-02  0.1492370E+00
         21   -1    0    0  501  502  0.00000000000E+00  0.00000000000E+00  0.50438781041E+01  0.50438781041E+01  0.00000000000E+00 0.  1.
         21   -1    0    0  502  503 -0.00000000000E+00 -0.00000000000E+00 -0.11013393134E+03  0.11013393134E+03  0.00000000000E+00 0. -1.
          2    1    1    2  501    0  0.16242825507E+02 -0.16298468832E+02 -0.40078220258E+02  0.46213993615E+02  0.00000000000E+00 0.  1.
         -2    1    1    2    0  503 -0.16242825507E+02  0.16298468832E+02 -0.65011832979E+02  0.68963815831E+02  0.00000000000E+00 0. -1.
</event>
<event>
 4    1  0.1776638E+004  0.2174198E+02  0.7546771E-02  0.1508930E+00
         21   -1    0    0  501  502  0.00000000000E+00  0.00000000000E+00  0.27416921574E+03  0.27416921574E+03  0.00000000000E+00 0.  1.
         21   -1    0    0  502  503 -0.00000000000E+00 -0.00000000000E+00 -0.26678419816E+01  0.26678419816E+01  0.00000000000E+00 0. -1.
          2    1    1    2  501    0  0.16109116662E+02 -0.14601715700E+02  0.21807444885E+03  0.21915560450E+03  0.00000000000E+00 0.  1.
         -2    1    1    2    0  503 -0.16109116662E+02  0.14601715700E+02  0.53426924909E+02  0.57681453225E+02  0.00000000000E+00 0. -1.
</event>
<event>
 4    1  0.1776638E+004  0.2781723E+02  0.7546771E-02  0.1439567E+00
         21   -1    0    0  503  502  0.00000000000E+00  0.00000000000E+00  0.93508486294E+01  0.93508486294E+01  0.00000000000E+00 0. -1.
         21   -1    0    0  501  503 -0.00000000000E+00 -0.00000000000E+00 -0.11325264138E+03  0.11325264138E+03  0.00000000000E+00 0.  1.
          2    1    1    2  501    0  0.10798216273E+02  0.25635852747E+02 -0.83763956136E+02  0.88262102673E+02  0.00000000000E+00 0.  1.
         -2    1    1    2    0  502 -0.10798216273E+02 -0.25635852747E+02 -0.20137836617E+02  0.34341387339E+02  0.00000000000E+00 0. -1.
</event>
<event>
 4    1  0.1776638E+004  0.2141419E+02  0.7546771E-02  0.1513433E+00
         21   -1    0    0  503  502  0.00000000000E+00  0.00000000000E+00  0.42925482039E+02  0.42925482039E+02  0.00000000000E+00 0. -1.
         21   -1    0    0  501  503 -0.00000000000E+00 -0.00000000000E+00 -0.23414908736E+02  0.23414908736E+02  0.00000000000E+00 0.  1.
          2    1    1    2  501    0 -0.11884594383E+02 -0.17813591005E+02 -0.14704387427E+02  0.25976655246E+02  0.00000000000E+00 0.  1.
         -2    1    1    2    0  502  0.11884594383E+02  0.17813591005E+02  0.34214960730E+02  0.40363735529E+02  0.00000000000E+00 0. -1.
</event>
<event>
 4    1  0.1776638E+004  0.2520728E+02  0.7546771E-02  0.1466498E+00
         21   -1    0    0  501  502  0.00000000000E+00  0.00000000000E+00  0.19428292081E+03  0.19428292081E+03  0.00000000000E+00 0. -1.
         21   -1    0    0  502  503 -0.00000000000E+00 -0.00000000000E+00 -0.51639624816E+01  0.51639624816E+01  0.00000000000E+00 0.  1.
          2    1    1    2  501    0 -0.25159369848E+02 -0.15533885120E+01  0.15494479574E+03  0.15698183536E+03  0.00000000000E+00 0. -1.
         -2    1    1    2    0  503  0.25159369848E+02  0.15533885120E+01  0.34174162594E+02  0.42465047934E+02  0.00000000000E+00 0.  1.
</event>
<event>
 4    1  0.1776638E+004  0.3311414E+02  0.7546771E-02  0.1394329E+00
         21   -1    0    0  501  502  0.00000000000E+00  0.00000000000E+00  0.14190153192E+02  0.14190153192E+02  0.00000000000E+00 0.  1.
         21   -1    0    0  502  503 -0.00000000000E+00 -0.00000000000E+00 -0.92124326328E+02  0.92124326328E+02  0.00000000000E+00 0. -1.
          2    1    1    2  501    0  0.30271986888E+02 -0.13422114630E+02 -0.17625519657E+02  0.37512735097E+02  0.00000000000E+00 0.  1.
         -2    1    1    2    0  503 -0.30271986888E+02  0.13422114630E+02 -0.60308653479E+02  0.68801744424E+02  0.00000000000E+00 0. -1.
</event>
<event>
 4    1  0.1776638E+004  0.2443298E+02  0.7546771E-02  0.1475248E+00
         21   -1    0    0  503  502  0.00000000000E+00  0.00000000000E+00  0.62640306554E+02  0.62640306554E+02  0.00000000000E+00 0. -1.
         21   -1    0    0  501  503 -0.00000000000E+00 -0.00000000000E+00 -0.21636964328E+02  0.21636964328E+02  0.00000000000E+00 0.  1.
          2    1    1    2  501    0 -0.12425000558E+02  0.21037814608E+02 -0.11019155501E+02  0.26802836982E+02  0.00000000000E+00 0.  1.
         -2    1    1    2    0  502  0.12425000558E+02 -0.21037814608E+02  0.52022497727E+02  0.57474433900E+02  0.00000000000E+00 0. -1.
</event>
<event>
 4    1  0.1776638E+004  0.5112044E+02  0.7546771E-02  0.1293386E+00
         21   -1    0    0  503  502  0.00000000000E+00  0.00000000000E+00  0.29356666788E+03  0.29356666788E+03  0.00000000000E+00 0.  1.
         21   -1    0    0  501  503 -0.00000000000E+00 -0.00000000000E+00 -0.10982182682E+02  0.10982182682E+02  0.00000000000E+00 0. -1.
          2    1    1    2  501    0  0.73048880885E+00  0.51115221980E+02  0.20756642505E+03  0.21376884792E+03  0.00000000000E+00 0. -1.
         -2    1    1    2    0  502 -0.73048880885E+00 -0.51115221980E+02  0.75018060152E+02  0.90780002649E+02  0.00000000000E+00 0.  1.
</event>
<event>
 4    1  0.1776638E+004  0.2836586E+02  0.7546771E-02  0.1434350E+00
         21   -1    0    0  501  502  0.00000000000E+00  0.00000000000E+00  0.16508901773E+03  0.16508901773E+03  0.00000000000E+00 0.  1.
         21   -1    0    0  502  503 -0.00000000000E+00 -0.00000000000E+00 -0.23144142092E+02  0.23144142092E+02  0.00000000000E+00 0. -1.
          2    1    1    2  501    0  0.70819581260E+01  0.27467578156E+02  0.15459397218E+03  0.15717480146E+03  0.00000000000E+00 0.  1.
         -2    1    1    2    0  503 -0.70819581260E+01 -0.27467578156E+02 -0.12649096541E+02  0.31058358359E+02  0.00000000000E+00 0. -1.
</event>
<event>
 4    1  0.1776638E+004  0.2321362E+02  0.7546771E-02  0.1489833E+00
         21   -1    0    0  503  502  0.00000000000E+00  0.00000000000E+00  0.30347546828E+01  0.30347546828E+01  0.00000000000E+00 0. -1.
         21   -1    0    0  501  503 -0.00000000000E+00 -0.00000000000E+00 -0.18170271625E+03  0.18170271625E+03  0.00000000000E+00 0.  1.
          2    1    1    2  501    0  0.21537295584E+02 -0.86612321321E+01 -0.75398439698E+02  0.78891043547E+02  0.00000000000E+00 0. -1.
         -2    1    1    2    0  502 -0.21537295584E+02  0.86612321321E+01 -0.10326952187E+03  0.10584642738E+03  0.00000000000E+00 0.  1.
</event>
<event>
 4    1  0.1776638E+004  0.3468165E+02  0.7546771E-02  0.1382815E+00
         21   -1    0    0  501  502  0.00000000000E+00  0.00000000000E+00  0.94791848042E+01  0.94791848042E+01  0.00000000000E+00 0. -1.
         21   -1    0    0  502  503 -0.00000000000E+00 -0.00000000000E+00 -0.13291296898E+03  0.13291296898E+03  0.00000000000E+00 0.  1.
          2    1    1    2  501    0 -0.33480327953E+02 -0.90489970170E+01 -0.46561524029E+02  0.58058524152E+02  0.00000000000E+00 0. -1.
         -2    1    1    2    0  503  0.33480327953E+02  0.90489970170E+01 -0.76872260152E+02  0.84333629637E+02  0.00000000000E+00 0.  1.
</event>
<event>
 4    1  0.1776638E+004  0.2015872E+02  0.7546771E-02  0.1531623E+00
         21   -1    0    0  503  502  0.00000000000E+00  0.00000000000E+00  0.73917842658E+02  0.73917842658E+02  0.00000000000E+00 0.  1.
         21   -1    0    0  501  503 -0.00000000000E+00 -0.00000000000E+00 -0.30791864916E+02  0.30791864916E+02  0.00000000000E+00 0. -1.
          2    1    1    2  501    0 -0.13714744757E+02 -0.14774299287E+02 -0.25888472262E+02  0.32811387340E+02  0.00000000000E+00 0. -1.
         -2    1    1    2    0  502  0.13714744757E+02  0.14774299287E+02  0.69014450004E+02  0.71898320234E+02  0.00000000000E+00 0.  1.
</event>
<event>
 4    1  0.1776638E+004  0.2564469E+02  0.7546771E-02  0.1461719E+00
         21   -1    0    0  503  502  0.00000000000E+00  0.00000000000E+00  0.59093789310E+01  0.59093789310E+01  0.00000000000E+00 0. -1.
         21   -1    0    0  501  503 -0.00000000000E+00 -0.00000000000E+00 -0.13585804020E+03  0.13585804020E+03  0.00000000000E+00 0.  1.
          2    1    1    2  501    0 -0.22514316995E+02  0.12278251765E+02 -0.95118010472E+02  0.98514394138E+02  0.00000000000E+00 0.  1.
         -2    1    1    2    0  502  0.22514316995E+02 -0.12278251765E+02 -0.34830650799E+02  0.43253024995E+02  0.00000000000E+00 0. -1.
</event>
<event>
 4    1  0.1776638E+004  0.2308610E+02  0.7546771E-02  0.1491420E+00
         21   -1    0    0  503  502  0.00000000000E+00  0.00000000000E+00  0.13368641025E+03  0.13368641025E+03  0.00000000000E+00 0.  1.
         21   -1    0    0  501  503 -0.00000000000E+00 -0.00000000000E+00 -0.26218437814E+02  0.26218437814E+02  0.00000000000E+00 0. -1.
          2    1    1    2  501    0 -0.22973131325E+02  0.22811075554E+01 -0.19889247986E+02  0.30472124967E+02  0.00000000000E+00 0. -1.
         -2    1    1    2    0  502  0.22973131325E+02 -0.22811075554E+01  0.12735722042E+03  0.12943272310E+03  0.00000000000E+00 0.  1.
</event>
<event>
 4    1  0.1776638E+004  0.2427723E+02  0.7546771E-02  0.1477054E+00
         21   -1    0    0  501  502  0.00000000000E+00  0.00000000000E+00  0.10029632899E+02  0.10029632899E+02  0.00000000000E+00 0. -1.
         21   -1    0    0  502  503 -0.00000000000E+00 -0.00000000000E+00 -0.77187408745E+02  0.77187408745E+02  0.00000000000E+00 0.  1.
          2    1    1    2  501    0  0.22094139239E+02  0.10061449464E+02 -0.12273949122E+02  0.27203558243E+02  0.00000000000E+00 0. -1.
         -2    1    1    2    0  503 -0.22094139239E+02 -0.10061449464E+02 -0.54883826724E+02  0.60013483401E+02  0.00000000000E+00 0.  1.
</event>
<event>
 4    1  0.1776638E+004  0.4317703E+02  0.7546771E-02  0.1330811E+00
         21   -1    0    0  503  502  0.00000000000E+00  0.00000000000E+00  0.44612327026E+02  0.44612327026E+02  0.00000000000E+00 0.  1.
         21   -1    0    0  501  503 -0.00000000000E+00 -0.00000000000E+00 -0.62775496640E+02  0.62775496640E+02  0.00000000000E+00 0. -1.
          2    1    1    2  501    0  0.32238526188E+02  0.28721647579E+02 -0.40127987509E+02  0.58944982754E+02  0.00000000000E+00 0. -1.
         -2    1    1    2    0  502 -0.32238526188E+02 -0.28721647579E+02  0.21964817895E+02  0.48442840911E+02  0.00000000000E+00 0.  1.
</event>
<event>
 4    1  0.1776638E+004  0.2972164E+02  0.7546771E-02  0.1422031E+00
         21   -1    0    0  501  502  0.00000000000E+00  0.00000000000E+00  0.14781709598E+03  0.14781709598E+03  0.00000000000E+00 0.  1.
         21   -1    0    0  502  503 -0.00000000000E+00 -0.00000000000E+00 -0.12621751078E+02  0.12621751078E+02  0.00000000000E+00 0. -1.
          2    1    1    2  501    0  0.84857661772E+01 -0.28484517208E+02  0.12580626901E+03  0.12926945993E+03  0.00000000000E+00 0.  1.
         -2    1    1    2    0  503 -0.84857661772E+01  0.28484517208E+02  0.93890758993E+01  0.31169387136E+02  0.00000000000E+00 0. -1.
</event>
<event>
 4    1  0.1776638E+004  0.2168006E+02  0.7546771E-02  0.1509773E+00
         21   -1    0    0  501  502  0.00000000000E+00  0.00000000000E+00  0.24772977242E+02  0.24772977242E+02  0.00000000000E+00 0.  1.
         21   -1    0    0  502  503 -0.00000000000E+00 -0.00000000000E+00 -0.23230019180E+02  0.23230019180E+02  0.00000000000E+00 0. -1.
          2    1    1    2  501    0 -0.20140727311E+02  0.80234814082E+01  0.11045750197E+02  0.24331743627E+02  0.00000000000E+00 0.  1.
         -2    1    1    2    0  503  0.20140727311E+02 -0.80234814082E+01 -0.95027921353E+01  0.23671252795E+02  0.00000000000E+00 0. -1.
</event>
<event>
 4    1  0.1776638E+004  0.2109441E+02  0.7546771E-02  0.1517921E+00
         21   -1    0    0  501  502  0.00000000000E+00  0.00000000000E+00  0.13382087636E+02  0.13382087636E+02  0.00000000000E+00 0. -1.
         21   -1    0    0  502  503 -0.00000000000E+00 -0.00000000000E+00 -0.91894868708E+02  0.91894868708E+02  0.00000000000E+00 0.  1.
          2    1    1    2  501    0 -0.51606965088E+01 -0.20453393519E+02  0.27937312168E+01  0.21278604959E+02  0.00000000000E+00 0. -1.
         -2    1    1    2    0  503  0.51606965088E+01  0.20453393519E+02 -0.81306512289E+02  0.83998351386E+02  0.00000000000E+00 0.  1.
</event>
<event>
 4    1  0.1776638E+004  0.2602366E+02  0.7546771E-02  0.1457670E+00
         21   -1    0    0  503  502  0.00000000000E+00  0.00000000000E+00  0.12860087595E+02  0.12860087595E+02  0.00000000000E+00 0.  1.
         21   -1    0    0  501  503 -0.00000000000E+00 -0.00000000000E+00 -0.52905903673E+02  0.52905903673E+02  0.00000000000E+00 0. -1.
          2    1    1    2  501    0  0.25885796336E+02  0.26751635400E+01 -0.17787734580E+02  0.31521967791E+02  0.00000000000E+00 0.  1.
         -2    1    1    2    0  502 -0.25885796336E+02 -0.26751635400E+01 -0.22258081498E+02  0.34244023477E+02  0.00000000000E+00 0. -1.
</event>
<event>
 4    1  0.1776638E+004  0.3463217E+02  0.7546771E-02  0.1383168E+00
         21   -1    0    0  501  502  0.00000000000E+00  0.00000000000E+00  0.44926431946E+02  0.44926431946E+02  0.00000000000E+00 0. -1.
         21   -1    0    0  502  503 -0.00000000000E+00 -0.00000000000E+00 -0.44970864204E+02  0.44970864204E+02  0.00000000000E+00 0.  1.
          2    1    1    2  501    0 -0.29331812032E+02 -0.18412829033E+02  0.28630762785E+02  0.44934486174E+02  0.00000000000E+00 0. -1.
         -2    1    1    2    0  503  0.29331812032E+02  0.18412829033E+02 -0.28675195043E+02  0.44962809975E+02  0.00000000000E+00 0.  1.
</event>
<event>
 4    1  0.1776638E+004  0.2014702E+02  0.7546771E-02  0.1531800E+00
         21   -1    0    0  501  502  0.00000000000E+00  0.00000000000E+00  0.21481759511E+03  0.21481759511E+03  0.00000000000E+00 0.  1.
         21   -1    0    0  502  503 -0.00000000000E+00 -0.00000000000E+00 -0.21572895488E+01  0.21572895488E+01  0.00000000000E+00 0. -1.
          2    1    1    2  501    0 -0.19773548279E+02 -0.38612559427E+01  0.68108940303E+02  0.71026264566E+02  0.00000000000E+00 0. -1.
         -2    1    1    2    0  503  0.19773548279E+02  0.38612559427E+01  0.14455136526E+03  0.14594862009E+03  0.00000000000E+00 0.  1.
</event>
<event>
 4    1  0.1776638E+004  0.2257499E+02  0.7546771E-02  0.1497905E+00
         21   -1    0    0  501  502  0.00000000000E+00  0.00000000000E+00  0.20624551459E+02  0.20624551459E+02  0.00000000000E+00 0.  1.
         21   -1    0    0  502  503 -0.00000000000E+00 -0.00000000000E+00 -0.33130507802E+02  0.33130507802E+02  0.00000000000E+00 0. -1.
          2    1    1    2  501    0  0.19385039106E+02 -0.11569375062E+02 -0.19803235812E+02  0.30029957194E+02  0.00000000000E+00 0. -1.
         -2    1    1    2    0  503 -0.19385039106E+02  0.11569375062E+02  0.72972794696E+01  0.23725102067E+02  0.00000000000E+00 0.  1.
</event>
<event>
 4    1  0.1776638E+004  0.2083487E+02  0.7546771E-02  0.1521636E+00
         21   -1    0    0  503  502  0.00000000000E+00  0.00000000000E+00  0.18301213199E+02  0.18301213199E+02  0.00000000000E+00 0. -1.
         21   -1    0    0  501  503 -0.00000000000E+00 -0.00000000000E+00 -0.31519828294E+02  0.31519828294E+02  0.00000000000E+00 0.  1.
          2    1    1    2  501    0  0.20033454894E+02  0.57229775542E+01 -0.19001643133E+02  0.28198479194E+02  0.00000000000E+00 0.  1.
         -2    1    1    2    0  502 -0.20033454894E+02 -0.57229775542E+01  0.57830280390E+01  0.21622562299E+02  0.00000000000E+00 0. -1.
</event>
<event>
 4    1  0.1776638E+004  0.2369490E+02  0.7546771E-02  0.1483952E+00
         21   -1    0    0  503  502  0.00000000000E+00  0.00000000000E+00  0.14281973141E+02  0.14281973141E+02  0.00000000000E+00 0.  1.
         21   -1    0    0  501  503 -0.00000000000E+00 -0.00000000000E+00 -0.46127380296E+02  0.46127380296E+02  0.00000000000E+00 0. -1.
          2    1    1    2  501    0  0.19733363615E+02 -0.13116497333E+02 -0.27533192841E+02  0.36325264621E+02  0.00000000000E+00 0. -1.
         -2    1    1    2    0  502 -0.19733363615E+02  0.13116497333E+02 -0.43122143144E+01  0.24084088816E+02  0.00000000000E+00 0.  1.
</event>
<event>
 4    1  0.1776638E+004  0.2102248E+02  0.7546771E-02  0.1518944E+00
         21   -1    0    0  503  502  0.00000000000E+00  0.00000000000E+00  0.24043625637E+02  0.24043625637E+02  0.00000000000E+00 0.  1.
         21   -1    0    0  501  503 -0.00000000000E+00 -0.00000000000E+00 -0.24213810672E+02  0.24213810672E+02  0.00000000000E+00 0. -1.
          2    1    1    2  501    0 -0.98650826473E+01  0.18564074251E+02 -0.11927593724E+02  0.24170482007E+02  0.00000000000E+00 0. -1.
         -2    1    1    2    0  502  0.98650826473E+01 -0.18564074251E+02  0.11757408689E+02  0.24086954302E+02  0.00000000000E+00 0.  1.
</event>
<event>
 4    1  0.1776638E+004  0.2796372E+02  0.7546771E-02  0.1438160E+00
         21   -1    0    0  503  502  0.00000000000E+00  0.00000000000E+00  0.72704112590E+02  0.72704112590E+02  0.00000000000E+00 0. -1.
         21   -1    0    0  501  503 -0.00000000000E+00 -0.00000000000E+00 -0.16286017782E+02  0.16286017782E+02  0.00000000000E+00 0.  1.
          2    1    1    2  501    0 -0.23494651466E+02 -0.15164797176E+02  0.22799769942E+01  0.28056514680E+02  0.00000000000E+00 0.  1.
         -2    1    1    2    0  502  0.23494651466E+02  0.15164797176E+02  0.54138117814E+02  0.60933615692E+02  0.00000000000E+00 0. -1.
</event>
<event>
 4    1  0.1776638E+004  0.2109539E+02  0.7546771E-02  0.1517907E+00
         21   -1    0    0  503  502  0.00000000000E+00  0.00000000000E+00  0.83622814477E+00  0.83622814477E+00  0.00000000000E+00 0. -1.
         21   -1    0    0  501  503 -0.00000000000E+00 -0.00000000000E+00 -0.54841428039E+03  0.54841428039E+03  0.00000000000E+00 0.  1.
          2    1    1    2  501    0 -0.84178194562E+01  0.19343107089E+02 -0.32105376049E+03  0.32174606851E+03  0.00000000000E+00 0.  1.
         -2    1    1    2    0  502  0.84178194562E+01 -0.19343107089E+02 -0.22652429176E+03  0.22750444003E+03  0.00000000000E+00 0. -1.
</event>
<event>
 4    1  0.1776638E+004  0.3579455E+02  0.7546771E-02  0.1375062E+00
         21   -1    0    0  503  502  0.00000000000E+00  0.00000000000E+00  0.23189641836E+03  0.23189641836E+03  0.00000000000E+00 0. -1.
         21   -1    0    0  501  503 -0.00000000000E+00 -0.00000000000E+00 -0.37233218257E+02  0.37233218257E+02  0.00000000000E+00 0.  1.
          2    1    1    2  501    0  0.12987420210E+02 -0.33355314458E+02 -0.26848355472E+02  0.44744656417E+02  0.00000000000E+00 0.  1.
         -2    1    1    2    0  502 -0.12987420210E+02  0.33355314458E+02  0.22151155558E+03  0.22438498020E+03  0.00000000000E+00 0. -1.
</event>
<event>
 4    1  0.1776638E+004  0.3107215E+02  0.7546771E-02  0.1410503E+00
         21   -1    0    0  503  502  0.00000000000E+00  0.00000000000E+00  0.46468295116E+03  0.46468295116E+03  0.00000000000E+00 0. -1.
         21   -1    0    0  501  503 -0.00000000000E+00 -0.00000000000E+00 -0.24471374930E+01  0.24471374930E+01  0.00000000000E+00 0.  1.
          2    1    1    2  501    0 -0.25736256728E+02 -0.17410451724E+02  0.14036922491E+03  0.14376716607E+03  0.00000000000E+00 0.  1.
         -2    1    1    2    0  502  0.25736256728E+02  0.17410451724E+02  0.32186658876E+03  0.32336292258E+03  0.00000000000E+00 0. -1.
</event>
<event>
 4    1  0.1776638E+004  0.2207065E+02  0.7546771E-02  0.1504510E+00
         21   -1    0    0  503  502  0.00000000000E+00  0.00000000000E+00  0.51848413937E+02  0.51848413937E+02  0.00000000000E+00 0. -1.
         21   -1    0    0  501  503 -0.00000000000E+00 -0.00000000000E+00 -0.23980818745E+02  0.23980818745E+02  0.00000000000E+00 0.  1.
          2    1    1    2  501    0  0.76287835281E+01 -0.20710272616E+02 -0.15635477454E+02  0.27047770429E+02  0.00000000000E+00 0.  1.
         -2    1    1    2    0  502 -0.76287835281E+01  0.20710272616E+02  0.43503072646E+02  0.48781462253E+02  0.00000000000E+00 0. -1.
</event>
<event>
 4    1  0.1776638E+004  0.2946747E+02  0.7546771E-02  0.1424281E+00
         21   -1    0    0  501  502  0.00000000000E+00  0.00000000000E+00  0.69619952637E+02  0.69619952637E+02  0.00000000000E+00 0. -1.
         21   -1    0    0  502  503 -0.00000000000E+00 -0.00000000000E+00 -0.12477785221E+02  0.12477785221E+02  0.00000000000E+00 0.  1.
          2    1    1    2  501    0  0.28456347770E+02 -0.76529755760E+01  0.29419449798E+02  0.41639353861E+02  0.00000000000E+00 0.  1.
         -2    1    1    2    0  503 -0.28456347770E+02  0.76529755760E+01  0.27722717617E+02  0.40458383997E+02  0.00000000000E+00 0. -1.
</event>
<event>
 4    1  0.1776638E+004  0.2100008E+02  0.7546771E-02  0.1519264E+00
         21   -1    0    0  503  502  0.00000000000E+00  0.00000000000E+00  0.69806662492E+02  0.69806662492E+02  0.00000000000E+00 0. -1.
         21   -1    0    0  501  503 -0.00000000000E+00 -0.00000000000E+00 -0.11158911946E+02  0.11158911946E+02  0.00000000000E+00 0.  1.
          2    1    1    2  501    0  0.14059922617E+02 -0.15598779549E+02  0.26586255473E+01  0.21167702691E+02  0.00000000000E+00 0.  1.
         -2    1    1    2    0  502 -0.14059922617E+02  0.15598779549E+02  0.55989124998E+02  0.59797871747E+02  0.00000000000E+00 0. -1.
</event>
<event>
 4    1  0.1776638E+004  0.2392877E+02  0.7546771E-02  0.1481154E+00
         21   -1    0    0  501  502  0.00000000000E+00  0.00000000000E+00  0.29315757647E+01  0.29315757647E+01  0.00000000000E+00 0. -1.
         21   -1    0    0  502  503 -0.00000000000E+00 -0.00000000000E+00 -0.20098341800E+03  0.20098341800E+03  0.00000000000E+00 0.  1.
          2    1    1    2  501    0 -0.11741185685E+02 -0.20850189286E+02 -0.81905945305E+02  0.85329770367E+02  0.00000000000E+00 0. -1.
         -2    1    1    2    0  503  0.11741185685E+02  0.20850189286E+02 -0.11614589693E+03  0.11858522340E+03  0.00000000000E+00 0.  1.
</event>
<event>
 4    1  0.1776638E+004  0.2236184E+02  0.7546771E-02  0.1500671E+00
         21   -1    0    0  503  502  0.00000000000E+00  0.00000000000E+00  0.16734755954E+02  0.16734755954E+02  0.00000000000E+00 0.  1.
         21   -1    0    0  501  503 -0.00000000000E+00 -0.00000000000E+00 -0.31184824126E+02  0.31184824126E+02  0.00000000000E+00 0. -1.
          2    1    1    2  501    0 -0.59589566714E+01 -0.21553256593E+02 -0.12124096645E+02  0.25437094053E+02  0.00000000000E+00 0. -1.
         -2    1    1    2    0  502  0.59589566714E+01  0.21553256593E+02 -0.23259715265E+01  0.22482486026E+02  0.00000000000E+00 0.  1.
</event>
<event>
 4    1  0.1776638E+004  0.2107867E+02  0.7546771E-02  0.1518145E+00
         21   -1    0    0  501  502  0.00000000000E+00  0.00000000000E+00  0.92057578883E+00  0.92057578883E+00  0.00000000000E+00 0.  1.
         21   -1    0    0  502  503 -0.00000000000E+00 -0.00000000000E+00 -0.79183332183E+03  0.79183332183E+03  0.00000000000E+00 0. -1.
          2    1    1    2  501    0 -0.87432445131E+01 -0.19179829023E+02 -0.14776897503E+03  0.14926479875E+03  0.00000000000E+00 0.  1.
         -2    1    1    2    0  503  0.87432445131E+01  0.19179829023E+02 -0.64314377101E+03  0.64348909886E+03  0.00000000000E+00 0. -1.
</event>
<event>
 4    1  0.1776638E+004  0.2554734E+02  0.7546771E-02  0.1462772E+00
         21   -1    0    0  503  502  0.00000000000E+00  0.00000000000E+00  0.27838890107E+03  0.27838890107E+03  0.00000000000E+00 0.  1.
         21   -1    0    0  501  503 -0.00000000000E+00 -0.00000000000E+00 -0.10940867083E+02  0.10940867083E+02  0.00000000000E+00 0. -1.
          2    1    1    2  501    0 -0.57956582589E+01  0.24881261139E+02  0.54920873749E+01  0.26131012882E+02  0.00000000000E+00 0. -1.
         -2    1    1    2    0  502  0.57956582589E+01 -0.24881261139E+02  0.26195594662E+03  0.26319875527E+03  0.00000000000E+00 0.  1.
</event>
<event>
 4    1  0.1776638E+004  0.2201389E+02  0.7546771E-02  0.1505266E+00
         21   -1    0    0  503  502  0.00000000000E+00  0.00000000000E+00  0.30567456699E+02  0.30567456699E+02  0.00000000000E+00 0. -1.
         21   -1    0    0  501  503 -0.00000000000E+00 -0.00000000000E+00 -0.32321236554E+02  0.32321236554E+02  0.00000000000E+00 0.  1.
          2    1    1    2  501    0 -0.19578130978E+02  0.10065193755E+02 -0.23321453355E+02  0.32070259190E+02  0.00000000000E+00 0.  1.
         -2    1    1    2    0  502  0.19578130978E+02 -0.10065193755E+02  0.21567673499E+02  0.30818434063E+02  0.00000000000E+00 0. -1.
</event>
<event>
 4    1  0.1776638E+004  0.2268382E+02  0.7546771E-02  0.1496507E+00
         21   -1    0    0  501  502  0.00000000000E+00  0.00000000000E+00  0.21842739512E+03  0.21842739512E+03  0.00000000000E+00 0. -1.
         21   -1    0    0  502  503 -0.00000000000E+00 -0.00000000000E+00 -0.25164018616E+01  0.25164018616E+01  0.00000000000E+00 0.  1.
          2    1    1    2  501    0  0.10704329070E+02 -0.19999331375E+02  0.13587013771E+03  0.13775068144E+03  0.00000000000E+00 0. -1.
         -2    1    1    2    0  503 -0.10704329070E+02  0.19999331375E+02  0.80040855544E+02  0.83193115536E+02  0.00000000000E+00 0.  1.
</event>
<event>
 4    1  0.1776638E+004  0.2124304E+02  0.7546771E-02  0.1515823E+00
         21   -1    0    0  503  502  0.00000000000E+00  0.00000000000E+00  0.40814431879E+01  0.40814431879E+01  0.00000000000E+00 0.  1.
         21   -1    0    0  501  503 -0.00000000000E+00 -0.00000000000E+00 -0.39934916017E+03  0.39934916017E+03  0.00000000000E+00 0. -1.
          2    1    1    2  501    0  0.13470969516E+02  0.16425581642E+02 -0.36916728961E+03  0.36977797997E+03  0.00000000000E+00 0. -1.
         -2    1    1    2    0  502 -0.13470969516E+02 -0.16425581642E+02 -0.26100427375E+02  0.33652623392E+02  0.00000000000E+00 0.  1.
</event>
<event>
 4    1  0.1776638E+004  0.3683388E+02  0.7546771E-02  0.1368109E+00
         21   -1    0    0  503  502  0.00000000000E+00  0.00000000000E+00  0.11587656334E+02  0.11587656334E+02  0.00000000000E+00 0. -1.
         21   -1    0    0  501  503 -0.00000000000E+00 -0.00000000000E+00 -0.14503170707E+03  0.14503170707E+03  0.00000000000E+00 0.  1.
          2    1    1    2  501    0  0.14762925655E+02 -0.33745973510E+02 -0.10109786785E+03  0.10759885495E+03  0.00000000000E+00 0.  1.
         -2    1    1    2    0  502 -0.14762925655E+02  0.33745973510E+02 -0.32346182884E+02  0.49020508456E+02  0.00000000000E+00 0. -1.
</event>
<event>
 4    1  0.1776638E+004  0.3164886E+02  0.7546771E-02  0.1405789E+00
         21   -1    0    0  503  502  0.00000000000E+00  0.00000000000E+00  0.10713622628E+04  0.10713622628E+04  0.00000000000E+00 0.  1.
         21   -1    0    0  501  503 -0.00000000000E+00 -0.00000000000E+00 -0.10897452490E+01  0.10897452490E+01  0.00000000000E+00 0. -1.
          2    1    1    2  501    0  0.36621853643E+01  0.31436266610E+02  0.73724726720E+03  0.73792627237E+03  0.00000000000E+00 0.  1.
         -2    1    1    2    0  502 -0.36621853643E+01 -0.31436266610E+02  0.33302525031E+03  0.33452573564E+03  0.00000000000E+00 0. -1.
</event>
<event>
 4    1  0.1776638E+004  0.2006572E+02  0.7546771E-02  0.1533033E+00
         21   -1    0    0  503  502  0.00000000000E+00  0.00000000000E+00  0.16099145731E+01  0.16099145731E+01  0.00000000000E+00 0.  1.
         21   -1    0    0  501  503 -0.00000000000E+00 -0.00000000000E+00 -0.46212329704E+03  0.46212329704E+03  0.00000000000E+00 0. -1.
          2    1    1    2  501    0  0.18342688063E+02  0.81350480447E+01 -0.38731291483E+03  0.38783234420E+03  0.00000000000E+00 0. -1.
         -2    1    1    2    0  502 -0.18342688063E+02 -0.81350480447E+01 -0.73200467635E+02  0.75900867413E+02  0.00000000000E+00 0.  1.
</event>
<event>
 4    1  0.1776638E+004  0.2267464E+02  0.7546771E-02  0.1496625E+00
         21   -1    0    0  501  502  0.00000000000E+00  0.00000000000E+00  0.34878857599E+02  0.34878857599E+02  0.00000000000E+00 0. -1.
         21   -1    0    0  502  503 -0.00000000000E+00 -0.00000000000E+00 -0.17705789377E+02  0.17705789377E+02  0.00000000000E+00 0.  1.
          2    1    1    2  501    0 -0.12258949470E+02  0.19075048930E+02  0.19345958647E+02  0.29806131077E+02  0.00000000000E+00 0. -1.
         -2    1    1    2    0  503  0.12258949470E+02 -0.19075048930E+02 -0.21728904246E+01  0.22778515900E+02  0.00000000000E+00 0.  1.
</event>
<event>
 4    1  0.1776638E+004  0.2179207E+02  0.7546771E-02  0.1508250E+00
         21   -1    0    0  501  502  0.00000000000E+00  0.00000000000E+00  0.22251712849E+02  0.22251712849E+02  0.00000000000E+00 0. -1.
         21   -1    0    0  502  503 -0.00000000000E+00 -0.00000000000E+00 -0.21358822677E+02  0.21358822677E+02  0.00000000000E+00 0.  1.
          2    1    1    2  501    0  0.14665905333E+02 -0.16118489873E+02  0.10596755905E+01  0.21817823158E+02  0.00000000000E+00 0.  1.
         -2    1    1    2    0  503 -0.14665905333E+02  0.16118489873E+02 -0.16678541868E+00  0.21792712369E+02  0.00000000000E+00 0. -1.
</event>
<event>
 4    1  0.1776638E+004  0.2923604E+02  0.7546771E-02  0.1426353E+00
         21   -1    0    0  501  502  0.00000000000E+00  0.00000000000E+00  0.54761952894E+02  0.54761952894E+02  0.00000000000E+00 0.  1.
         21   -1    0    0  502  503 -0.00000000000E+00 -0.00000000000E+00 -0.46345505339E+02  0.46345505339E+02  0.00000000000E+00 0. -1.
          2    1    1    2  501    0 -0.25218205089E+02 -0.14791484719E+02  0.45378231009E+02  0.53980827500E+02  0.00000000000E+00 0.  1.
         -2    1    1    2    0  503  0.25218205089E+02  0.14791484719E+02 -0.36961783454E+02  0.47126630733E+02  0.00000000000E+00 0. -1.
</event>
<event>
 4    1  0.1776638E+004  0.2484826E+02  0.7546771E-02  0.1470508E+00
         21   -1    0    0  501  502  0.00000000000E+00  0.00000000000E+00  0.22850883289E+03  0.22850883289E+03  0.00000000000E+00 0. -1.
         21   -1    0    0  502  503 -0.00000000000E+00 -0.00000000000E+00 -0.30466728400E+01  0.30466728400E+01  0.00000000000E+00 0.  1.
          2    1    1    2  501    0  0.17953714796E+02  0.17178477111E+02  0.15167159750E+03  0.15369355692E+03  0.00000000000E+00 0.  1.
         -2    1    1    2    0  503 -0.17953714796E+02 -0.17178477111E+02  0.73790562545E+02  0.77861948803E+02  0.00000000000E+00 0. -1.
</event>
<event>
 4    1  0.1776638E+004  0.2601928E+02  0.7546771E-02  0.1457716E+00
         21   -1    0    0  503  502  0.00000000000E+00  0.00000000000E+00  0.75313233554E+01  0.75313233554E+01  0.00000000000E+00 0. -1.
         21   -1    0    0  501  503 -0.00000000000E+00 -0.00000000000E+00 -0.20081331251E+03  0.20081331251E+03  0.00000000000E+00 0.  1.
          2    1    1    2  501    0 -0.25970569327E+02  0.15913403333E+01 -0.17406298410E+03  0.17599694676E+03  0.00000000000E+00 0.  1.
         -2    1    1    2    0  502  0.25970569327E+02 -0.15913403333E+01 -0.19219005057E+02  0.32347689107E+02  0.00000000000E+00 0. -1.
</event>
<event>
 4    1  0.1776638E+004  0.2332452E+02  0.7546771E-02  0.1488463E+00
         21   -1    0    0  501  502  0.00000000000E+00  0.00000000000E+00  0.71675096285E+01  0.71675096285E+01  0.00000000000E+00 0. -1.
         21   -1    0    0  502  503 -0.00000000000E+00 -0.00000000000E+00 -0.82622150411E+02  0.82622150411E+02  0.00000000000E+00 0.  1.
          2    1    1    2  501    0 -0.23324094934E+02  0.14052514045E+00 -0.50530439282E+02  0.55653916716E+02  0.00000000000E+00 0.  1.
         -2    1    1    2    0  503  0.23324094934E+02 -0.14052514045E+00 -0.24924201501E+02  0.34135743324E+02  0.00000000000E+00 0. -1.
</event>
<event>
 4    1  0.1776638E+004  0.2001051E+02  0.7546771E-02  0.1533875E+00
         21   -1    0    0  501  502  0.00000000000E+00  0.00000000000E+00  0.64372294714E+02  0.64372294714E+02  0.00000000000E+00 0.  1.
         21   -1    0    0  502  503 -0.00000000000E+00 -0.00000000000E+00 -0.69670496407E+01  0.69670496407E+01  0.00000000000E+00 0. -1.
          2    1    1    2  501    0 -0.16501912722E+02 -0.11318451401E+02  0.40379787536E+02  0.45066037179E+02  0.00000000000E+00 0.  1.
         -2    1    1    2    0  503  0.16501912722E+02  0.11318451401E+02  0.17025457538E+02  0.26273307176E+02  0.00000000000E+00 0. -1.
</event>
<event>
 4    1  0.1776638E+004  0.3322105E+02  0.7546771E-02  0.1393520E+00
         21   -1    0    0  501  502  0.00000000000E+00  0.00000000000E+00  0.72625455450E+02  0.72625455450E+02  0.00000000000E+00 0. -1.
         21   -1    0    0  502  503 -0.00000000000E+00 -0.00000000000E+00 -0.33608858841E+02  0.33608858841E+02  0.00000000000E+00 0.  1.
          2    1    1    2  501    0 -0.10928564082E+02  0.31372040829E+02  0.58823904226E+02  0.67556570125E+02  0.00000000000E+00 0. -1.
         -2    1    1    2    0  503  0.10928564082E+02 -0.31372040829E+02 -0.19807307617E+02  0.38677744165E+02  0.00000000000E+00 0.  1.
</event>
<event>
 4    1  0.1776638E+004  0.3135608E+02  0.7546771E-02  0.1408167E+00
         21   -1    0    0  503  502  0.00000000000E+00  0.00000000000E+00  0.22021231938E+03  0.22021231938E+03  0.00000000000E+00 0. -1.
         21   -1    0    0  501  503 -0.00000000000E+00 -0.00000000000E+00 -0.17618001994E+02  0.17618001994E+02  0.00000000000E+00 0.  1.
          2    1    1    2  501    0  0.10194087440E+02  0.29652734173E+02 -0.14511394053E+01  0.31389645876E+02  0.00000000000E+00 0.  1.
         -2    1    1    2    0  502 -0.10194087440E+02 -0.29652734173E+02  0.20404545679E+03  0.20644067549E+03  0.00000000000E+00 0. -1.
</event>
<event>
 4    1  0.1776638E+004  0.2944002E+02  0.7546771E-02  0.1424526E+00
         21   -1    0    0  503  502  0.00000000000E+00  0.00000000000E+00  0.20567060676E+03  0.20567060676E+03  0.00000000000E+00 0.  1.
         21   -1    0    0  501  503 -0.00000000000E+00 -0.00000000000E+00 -0.56539465756E+01  0.56539465756E+01  0.00000000000E+00 0. -1.
          2    1    1    2  501    0 -0.28991848410E+02 -0.51173731247E+01  0.46686691689E+02  0.55193858016E+02  0.00000000000E+00 0.  1.
         -2    1    1    2    0  502  0.28991848410E+02  0.51173731247E+01  0.15332996849E+03  0.15613069532E+03  0.00000000000E+00 0. -1.
</event>
<event>
 4    1  0.1776638E+004  0.2144761E+02  0.7546771E-02  0.1512969E+00
         21   -1    0    0  503  502  0.00000000000E+00  0.00000000000E+00  0.42571890509E+02  0.42571890509E+02  0.00000000000E+00 0.  1.
         21   -1    0    0  501  503 -0.00000000000E+00 -0.00000000000E+00 -0.14563301795E+02  0.14563301795E+02  0.00000000000E+00 0. -1.
          2    1    1    2  501    0 -0.15130964064E+02  0.15200463377E+02 -0.50762403213E+00  0.21453620733E+02  0.00000000000E+00 0. -1.
         -2    1    1    2    0  502  0.15130964064E+02 -0.15200463377E+02  0.28516212746E+02  0.35681571571E+02  0.00000000000E+00 0.  1.
</event>
<event>
 4    1  0.1776638E+004  0.3471340E+02  0.7546771E-02  0.1382589E+00
         21   -1    0    0  503  502  0.00000000000E+00  0.00000000000E+00  0.76101105942E+02  0.76101105942E+02  0.00000000000E+00 0. -1.
         21   -1    0    0  501  503 -0.00000000000E+00 -0.00000000000E+00 -0.17373463093E+02  0.17373463093E+02  0.00000000000E+00 0.  1.
          2    1    1    2  501    0 -0.32560566182E+02 -0.12034531869E+02  0.15453438685E+02  0.37997752494E+02  0.00000000000E+00 0. -1.
         -2    1    1    2    0  502  0.32560566182E+02  0.12034531869E+02  0.43274204165E+02  0.55476816541E+02  0.00000000000E+00 0.  1.
</event>
<event>
 4    1  0.1776638E+004  0.3626201E+02  0.7546771E-02  0.1371902E+00
         21   -1    0    0  503  502  0.00000000000E+00  0.00000000000E+00  0.59017154373E+03  0.59017154373E+03  0.00000000000E+00 0.  1.
         21   -1    0    0  501  503 -0.00000000000E+00 -0.00000000000E+00 -0.37325572613E+01  0.37325572613E+01  0.00000000000E+00 0. -1.
          2    1    1    2  501    0  0.35166209317E+02  0.88470832333E+01  0.10468974910E+03  0.11079204270E+03  0.00000000000E+00 0. -1.
         -2    1    1    2    0  502 -0.35166209317E+02 -0.88470832333E+01  0.48174923736E+03  0.48311205828E+03  0.00000000000E+00 0.  1.
</event>
<event>
 4    1  0.1776638E+004  0.2198017E+02  0.7546771E-02  0.1505717E+00
         21   -1    0    0  501  502  0.00000000000E+00  0.00000000000E+00  0.30223261286E+02  0.30223261286E+02  0.00000000000E+00 0.  1.
         21   -1    0    0  502  503 -0.00000000000E+00 -0.00000000000E+00 -0.16071685721E+02  0.16071685721E+02  0.00000000000E+00 0. -1.
          2    1    1    2  501    0  0.19176076116E+02  0.10742717614E+02  0.87728417996E+01  0.23666233967E+02  0.00000000000E+00 0.  1.
         -2    1    1    2    0  503 -0.19176076116E+02 -0.10742717614E+02  0.53787337656E+01  0.22628713040E+02  0.00000000000E+00 0. -1.
</event>
<event>
 4    1  0.1776638E+004  0.2706629E+02  0.7546771E-02  0.1446943E+00
         21   -1    0    0  501  502  0.00000000000E+00  0.00000000000E+00  0.72723463300E+02  0.72723463300E+02  0.00000000000E+00 0. -1.
         21   -1    0    0  502  503 -0.00000000000E+00 -0.00000000000E+00 -0.16326860764E+02  0.16326860764E+02  0.00000000000E+00 0.  1.
          2    1    1    2  501    0 -0.78592244447E+01 -0.25900124683E+02  0.64275863915E+00  0.27073917451E+02  0.00000000000E+00 0.  1.
         -2    1    1    2    0  503  0.78592244447E+01  0.25900124683E+02  0.55753843896E+02  0.61976406613E+02  0.00000000000E+00 0. -1.
</event>
<event>
 4    1  0.1776638E+004  0.2179162E+02  0.7546771E-02  0.1508256E+00
         21   -1    0    0  501  502  0.00000000000E+00  0.00000000000E+00  0.43716645227E+01  0.43716645227E+01  0.00000000000E+00 0.  1.
         21   -1    0    0  502  503 -0.00000000000E+00 -0.00000000000E+00 -0.36553911875E+03  0.36553911875E+03  0.00000000000E+00 0. -1.
          2    1    1    2  501    0  0.20823404332E+02  0.64234379964E+01 -0.25525956211E+02  0.33562615574E+02  0.00000000000E+00 0.  1.
         -2    1    1    2    0  503 -0.20823404332E+02 -0.64234379964E+01 -0.33564149801E+03  0.33634816770E+03  0.00000000000E+00 0. -1.
</event>
<event>
 4    1  0.1776638E+004  0.2075284E+02  0.7546771E-02  0.1522823E+00
         21   -1    0    0  503  502  0.00000000000E+00  0.00000000000E+00  0.65984855154E+02  0.65984855154E+02  0.00000000000E+00 0.  1.
         21   -1    0    0  501  503 -0.00000000000E+00 -0.00000000000E+00 -0.94448125613E+01  0.94448125613E+01  0.00000000000E+00 0. -1.
          2    1    1    2  501    0  0.17137829477E+02  0.11703643129E+02  0.73073196365E+01  0.22001758610E+02  0.00000000000E+00 0. -1.
         -2    1    1    2    0  502 -0.17137829477E+02 -0.11703643129E+02  0.49232722956E+02  0.53427909105E+02  0.00000000000E+00 0.  1.
</event>
<event>
 4    1  0.1776638E+004  0.3018341E+02  0.7546771E-02  0.1418009E+00
         21   -1    0    0  501  502  0.00000000000E+00  0.00000000000E+00  0.21810283083E+02  0.21810283083E+02  0.00000000000E+00 0.  1.
         21   -1    0    0  502  503 -0.00000000000E+00 -0.00000000000E+00 -0.95374791390E+02  0.95374791390E+02  0.00000000000E+00 0. -1.
          2    1    1    2  501    0 -0.59329813883E+01  0.29594555833E+02  0.71438952321E+01  0.31017305527E+02  0.00000000000E+00 0.  1.
         -2    1    1    2    0  503  0.59329813883E+01 -0.29594555833E+02 -0.80708403539E+02  0.86167768945E+02  0.00000000000E+00 0. -1.
</event>
<event>
 4    1  0.1776638E+004  0.2052315E+02  0.7546771E-02  0.1526183E+00
         21   -1    0    0  503  502  0.00000000000E+00  0.00000000000E+00  0.17133039327E+02  0.17133039327E+02  0.00000000000E+00 0. -1.
         21   -1    0    0  501  503 -0.00000000000E+00 -0.00000000000E+00 -0.24615037684E+02  0.24615037684E+02  0.00000000000E+00 0.  1.
          2    1    1    2  501    0 -0.20511584932E+02  0.68887484215E+00 -0.30004882711E+01  0.20741325773E+02  0.00000000000E+00 0.  1.
         -2    1    1    2    0  502  0.20511584932E+02 -0.68887484215E+00 -0.44815100853E+01  0.21006751238E+02  0.00000000000E+00 0. -1.
</event>
<event>
 4    1  0.1776638E+004  0.2223189E+02  0.7546771E-02  0.1502375E+00
         21   -1    0    0  503  502  0.00000000000E+00  0.00000000000E+00  0.72195415973E+02  0.72195415973E+02  0.00000000000E+00 0. -1.
         21   -1    0    0  501  503 -0.00000000000E+00 -0.00000000000E+00 -0.92219812807E+01  0.92219812807E+01  0.00000000000E+00 0.  1.
          2    1    1    2  501    0  0.14745047770E+02  0.16638522564E+02  0.10823988117E+02  0.24726819157E+02  0.00000000000E+00 0.  1.
         -2    1    1    2    0  502 -0.14745047770E+02 -0.16638522564E+02  0.52149446576E+02  0.56690578098E+02  0.00000000000E+00 0. -1.
</event>
<event>
 4    1  0.1776638E+004  0.3357330E+02  0.7546771E-02  0.1390881E+00
         21   -1    0    0  503  502  0.00000000000E+00  0.00000000000E+00  0.10257460173E+03  0.10257460173E+03  0.00000000000E+00 0. -1.
         21   -1    0    0  501  503 -0.00000000000E+00 -0.00000000000E+00 -0.12241650092E+02  0.12241650092E+02  0.00000000000E+00 0.  1.
          2    1    1    2  501    0 -0.31035364040E+02 -0.12805167981E+02  0.26800565243E+02  0.42958543335E+02  0.00000000000E+00 0.  1.
         -2    1    1    2    0  502  0.31035364040E+02  0.12805167981E+02  0.63532386394E+02  0.71857708487E+02  0.00000000000E+00 0. -1.
</event>
<event>
 4    1  0.1776638E+004  0.2046664E+02  0.7546771E-02  0.1527018E+00
         21   -1    0    0  501  502  0.00000000000E+00  0.00000000000E+00  0.30992971575E+03  0.30992971575E+03  0.00000000000E+00 0.  1.
         21   -1    0    0  502  503 -0.00000000000E+00 -0.00000000000E+00 -0.52696896980E+01  0.52696896980E+01  0.00000000000E+00 0. -1.
          2    1    1    2  501    0  0.17516763601E+02 -0.10585188785E+02  0.28822493799E+03  0.28895068456E+03  0.00000000000E+00 0.  1.
         -2    1    1    2    0  503 -0.17516763601E+02  0.10585188785E+02  0.16435088064E+02  0.26248720889E+02  0.00000000000E+00 0. -1.
</event>
<event>
 4    1  0.1776638E+004  0.2885634E+02  0.7546771E-02  0.1429802E+00
         21   -1    0    0  501  502  0.00000000000E+00  0.00000000000E+00  0.24824056273E+01  0.24824056273E+01  0.00000000000E+00 0.  1.
         21   -1    0    0  502  503 -0.00000000000E+00 -0.00000000000E+00 -0.48376103447E+03  0.48376103447E+03  0.00000000000E+00 0. -1.
          2    1    1    2  501    0  0.28306196789E+02 -0.56078349670E+01 -0.10601753556E+03  0.10987450312E+03  0.00000000000E+00 0.  1.
         -2    1    1    2    0  503 -0.28306196789E+02  0.56078349670E+01 -0.37526109328E+03  0.37636893698E+03  0.00000000000E+00 0. -1.
</event>
<event>
 4    1  0.1776638E+004  0.2090999E+02  0.7546771E-02  0.1520554E+00
         21   -1    0    0  501  502  0.00000000000E+00  0.00000000000E+00  0.92773916818E+00  0.92773916818E+00  0.00000000000E+00 0.  1.
         21   -1    0    0  502  503 -0.00000000000E+00 -0.00000000000E+00 -0.55790428097E+03  0.55790428097E+03  0.00000000000E+00 0. -1.
          2    1    1    2  501    0 -0.16872252907E+02 -0.12351300422E+02 -0.16838906969E+03  0.16968236894E+03  0.00000000000E+00 0.  1.
         -2    1    1    2    0  503  0.16872252907E+02  0.12351300422E+02 -0.38858747211E+03  0.38914965119E+03  0.00000000000E+00 0. -1.
</event>
<event>
 4    1  0.1776638E+004  0.3068398E+02  0.7546771E-02  0.1413744E+00
         21   -1    0    0  501  502  0.00000000000E+00  0.00000000000E+00  0.11757146277E+03  0.11757146277E+03  0.00000000000E+00 0. -1.
         21   -1    0    0  502  503 -0.00000000000E+00 -0.00000000000E+00 -0.12624791655E+02  0.12624791655E+02  0.00000000000E+00 0.  1.
          2    1    1    2  501    0 -0.41108496091E+01 -0.30407359323E+02  0.91840016336E+02  0.96830239007E+02  0.00000000000E+00 0. -1.
         -2    1    1    2    0  503  0.41108496091E+01  0.30407359323E+02  0.13106654783E+02  0.33366015422E+02  0.00000000000E+00 0.  1.
</event>
<event>
 4    1  0.1776638E+004  0.6497333E+02  0.7546771E-02  0.1243811E+00
         21   -1    0    0  501  502  0.00000000000E+00  0.00000000000E+00  0.90328578159E+01  0.90328578159E+01  0.00000000000E+00 0.  1.
         21   -1    0    0  502  503 -0.00000000000E+00 -0.00000000000E+00 -0.50203692218E+03  0.50203692218E+03  0.00000000000E+00 0. -1.
          2    1    1    2  501    0  0.41588797639E+02  0.49918990804E+02 -0.31366751001E+03  0.32032614718E+03  0.00000000000E+00 0. -1.
         -2    1    1    2    0  503 -0.41588797639E+02 -0.49918990804E+02 -0.17933655436E+03  0.19074363282E+03  0.00000000000E+00 0.  1.
</event>
<event>
 4    1  0.1776638E+004  0.3639128E+02  0.7546771E-02  0.1371037E+00
         21   -1    0    0  503  502  0.00000000000E+00  0.00000000000E+00  0.21573572514E+02  0.21573572514E+02  0.00000000000E+00 0. -1.
         21   -1    0    0  501  503 -0.00000000000E+00 -0.00000000000E+00 -0.92126067110E+02  0.92126067110E+02  0.00000000000E+00 0.  1.
          2    1    1    2  501    0  0.35230071306E+02 -0.91196228605E+01 -0.68115020010E+02  0.77226817857E+02  0.00000000000E+00 0.  1.
         -2    1    1    2    0  502 -0.35230071306E+02  0.91196228605E+01 -0.24374745863E+01  0.36472821767E+02  0.00000000000E+00 0. -1.
</event>
<event>
 4    1  0.1776638E+004  0.2849368E+02  0.7546771E-02  0.1433154E+00
         21   -1    0    0  503  502  0.00000000000E+00  0.00000000000E+00  0.41074850578E+03  0.41074850578E+03  0.00000000000E+00 0.  1.
         21   -1    0    0  501  503 -0.00000000000E+00 -0.00000000000E+00 -0.26983026128E+01  0.26983026128E+01  0.00000000000E+00 0. -1.
          2    1    1    2  501    0 -0.15562796780E+02 -0.23868164014E+02  0.97114632163E+02  0.10120840715E+03  0.00000000000E+00 0. -1.
         -2    1    1    2    0  502  0.15562796780E+02  0.23868164014E+02  0.31093557101E+03  0.31223840125E+03  0.00000000000E+00 0.  1.
</event>
<event>
 4    1  0.1776638E+004  0.2248784E+02  0.7546771E-02  0.1499032E+00
         21   -1    0    0  503  502  0.00000000000E+00  0.00000000000E+00  0.42385507627E+03  0.42385507627E+03  0.00000000000E+00 0.  1.
         21   -1    0    0  501  503 -0.00000000000E+00 -0.00000000000E+00 -0.13433452772E+01  0.13433452772E+01  0.00000000000E+00 0. -1.
          2    1    1    2  501    0 -0.62984609639E+01  0.21587779029E+02  0.14015682711E+03  0.14194942409E+03  0.00000000000E+00 0. -1.
         -2    1    1    2    0  502  0.62984609639E+01 -0.21587779029E+02  0.28235490388E+03  0.28324899745E+03  0.00000000000E+00 0.  1.
</event>
<event>
 4    1  0.1776638E+004  0.2066284E+02  0.7546771E-02  0.1524134E+00
         21   -1    0    0  503  502  0.00000000000E+00  0.00000000000E+00  0.30772096497E+02  0.30772096497E+02  0.00000000000E+00 0. -1.
         21   -1    0    0  501  503 -0.00000000000E+00 -0.00000000000E+00 -0.21131700000E+02  0.21131700000E+02  0.00000000000E+00 0.  1.
          2    1    1    2  501    0  0.16279483699E+02  0.12725220567E+02 -0.10388121358E+02  0.23127167863E+02  0.00000000000E+00 0.  1.
         -2    1    1    2    0  502 -0.16279483699E+02 -0.12725220567E+02  0.20028517856E+02  0.28776628634E+02  0.00000000000E+00 0. -1.
</event>
<event>
 4    1  0.1776638E+004  0.2039313E+02  0.7546771E-02  0.1528108E+00
         21   -1    0    0  503  502  0.00000000000E+00  0.00000000000E+00  0.20592628075E+03  0.20592628075E+03  0.00000000000E+00 0.  1.
         21   -1    0    0  501  503 -0.00000000000E+00 -0.00000000000E+00 -0.36672854009E+01  0.36672854009E+01  0.00000000000E+00 0. -1.
          2    1    1    2  501    0 -0.16939536710E+02 -0.11354817133E+02  0.30884004618E+02  0.37009478749E+02  0.00000000000E+00 0.  1.
         -2    1    1    2    0  502  0.16939536710E+02  0.11354817133E+02  0.17137499073E+03  0.17258408740E+03  0.00000000000E+00 0. -1.
</event>
<event>
 4    1  0.1776638E+004  0.2306033E+02  0.7546771E-02  0.1491742E+00
         21   -1    0    0  503  502  0.00000000000E+00  0.00000000000E+00  0.15272066728E+03  0.15272066728E+03  0.00000000000E+00 0.  1.
         21   -1    0    0  501  503 -0.00000000000E+00 -0.00000000000E+00 -0.52749106704E+01  0.52749106704E+01  0.00000000000E+00 0. -1.
          2    1    1    2  501    0 -0.16595204309E+02  0.16011801953E+02  0.27667267286E+02  0.36017444203E+02  0.00000000000E+00 0. -1.
         -2    1    1    2    0  502  0.16595204309E+02 -0.16011801953E+02  0.11977848932E+03  0.12197813375E+03  0.00000000000E+00 0.  1.
</event>
<event>
 4    1  0.1776638E+004  0.2606791E+02  0.7546771E-02  0.1457203E+00
         21   -1    0    0  503  502  0.00000000000E+00  0.00000000000E+00  0.34102715995E+02  0.34102715995E+02  0.00000000000E+00 0. -1.
         21   -1    0    0  501  503 -0.00000000000E+00 -0.00000000000E+00 -0.53704948252E+02  0.53704948252E+02  0.00000000000E+00 0.  1.
          2    1    1    2  501    0  0.23975153377E+02 -0.10233660833E+02 -0.44620203423E+02  0.51676864717E+02  0.00000000000E+00 0.  1.
         -2    1    1    2    0  502 -0.23975153377E+02  0.10233660833E+02  0.25017971165E+02  0.36130799531E+02  0.00000000000E+00 0. -1.
</event>
<event>
 4    1  0.1776638E+004  0.2945286E+02  0.7546771E-02  0.1424411E+00
         21   -1    0    0  501  502  0.00000000000E+00  0.00000000000E+00  0.43136084027E+02  0.43136084027E+02  0.00000000000E+00 0.  1.
         21   -1    0    0  502  503 -0.00000000000E+00 -0.00000000000E+00 -0.31235243077E+02  0.31235243077E+02  0.00000000000E+00 0. -1.
          2    1    1    2  501    0  0.24792445593E+02  0.15899865821E+02 -0.16242059416E+02  0.33634440469E+02  0.00000000000E+00 0. -1.
         -2    1    1    2    0  503 -0.24792445593E+02 -0.15899865821E+02  0.28142900366E+02  0.40736886634E+02  0.00000000000E+00 0.  1.
</event>
<event>
 4    1  0.1776638E+004  0.2186479E+02  0.7546771E-02  0.1507267E+00
         21   -1    0    0  503  502  0.00000000000E+00  0.00000000000E+00  0.20284931597E+02  0.20284931597E+02  0.00000000000E+00 0.  1.
         21   -1    0    0  501  503 -0.00000000000E+00 -0.00000000000E+00 -0.26565788502E+02  0.26565788502E+02  0.00000000000E+00 0. -1.
          2    1    1    2  501    0  0.28743469630E+00  0.21862897265E+02  0.47290901807E+01  0.22370364089E+02  0.00000000000E+00 0.  1.
         -2    1    1    2    0  502 -0.28743469630E+00 -0.21862897265E+02 -0.11009947086E+02  0.24480356010E+02  0.00000000000E+00 0. -1.
</event>
<event>
 4    1  0.1776638E+004  0.2388417E+02  0.7546771E-02  0.1481684E+00
         21   -1    0    0  503  502  0.00000000000E+00  0.00000000000E+00  0.40475319917E+02  0.40475319917E+02  0.00000000000E+00 0. -1.
         21   -1    0    0  501  503 -0.00000000000E+00 -0.00000000000E+00 -0.14694851482E+02  0.14694851482E+02  0.00000000000E+00 0.  1.
          2    1    1    2  501    0 -0.16308222086E+02  0.17449803901E+02  0.73116566993E+01  0.24978272308E+02  0.00000000000E+00 0.  1.
         -2    1    1    2    0  502  0.16308222086E+02 -0.17449803901E+02  0.18468811736E+02  0.30191899091E+02  0.00000000000E+00 0. -1.
</event>
<event>
 4    1  0.1776638E+004  0.2101650E+02  0.7546771E-02  0.1519029E+00
         21   -1    0    0  503  502  0.00000000000E+00  0.00000000000E+00  0.27118849433E+02  0.27118849433E+02  0.00000000000E+00 0.  1.
         21   -1    0    0  501  503 -0.00000000000E+00 -0.00000000000E+00 -0.19934310873E+02  0.19934310873E+02  0.00000000000E+00 0. -1.
          2    1    1    2  501    0  0.12846994001E+02 -0.16632733578E+02  0.13655239340E+02  0.25063093236E+02  0.00000000000E+00 0.  1.
         -2    1    1    2    0  502 -0.12846994001E+02  0.16632733578E+02 -0.64707007798E+01  0.21990067069E+02  0.00000000000E+00 0. -1.
</event>
<event>
 4    1  0.1776638E+004  0.2526712E+02  0.7546771E-02  0.1465837E+00
         21   -1    0    0  501  502  0.00000000000E+00  0.00000000000E+00  0.46878936860E+03  0.46878936860E+03  0.00000000000E+00 0. -1.
         21   -1    0    0  502  503 -0.00000000000E+00 -0.00000000000E+00 -0.13623289657E+01  0.13623289657E+01  0.00000000000E+00 0.  1.
          2    1    1    2  501    0 -0.25177458454E+02 -0.21266683632E+01  0.22936833127E+03  0.23075584179E+03  0.00000000000E+00 0.  1.
         -2    1    1    2    0  503  0.25177458454E+02  0.21266683632E+01  0.23805870837E+03  0.23939585578E+03  0.00000000000E+00 0. -1.
</event>
<event>
 4    1  0.1776638E+004  0.2306990E+02  0.7546771E-02  0.1491622E+00
         21   -1    0    0  501  502  0.00000000000E+00  0.00000000000E+00  0.22867044930E+03  0.22867044930E+03  0.00000000000E+00 0.  1.
         21   -1    0    0  502  503 -0.00000000000E+00 -0.00000000000E+00 -0.24242264822E+01  0.24242264822E+01  0.00000000000E+00 0. -1.
          2    1    1    2  501    0  0.21316718739E+02  0.88214284989E+01  0.90037156132E+02  0.92945734614E+02  0.00000000000E+00 0.  1.
         -2    1    1    2    0  503 -0.21316718739E+02 -0.88214284989E+01  0.13620906668E+03  0.13814894117E+03  0.00000000000E+00 0. -1.
</event>
<event>
 4    1  0.1776638E+004  0.2195727E+02  0.7546771E-02  0.1506024E+00
         21   -1    0    0  501  502  0.00000000000E+00  0.00000000000E+00  0.11474102954E+02  0.11474102954E+02  0.00000000000E+00 0. -1.
         21   -1    0    0  502  503 -0.00000000000E+00 -0.00000000000E+00 -0.47322665527E+02  0.47322665527E+02  0.00000000000E+00 0.  1.
          2    1    1    2  501    0  0.24159258748E+01  0.21823957826E+02 -0.27766822702E+02  0.35399410673E+02  0.00000000000E+00 0.  1.
         -2    1    1    2    0  503 -0.24159258748E+01 -0.21823957826E+02 -0.80817398719E+01  0.23397357808E+02  0.00000000000E+00 0. -1.
</event>
<event>
 4    1  0.1776638E+004  0.2130897E+02  0.7546771E-02  0.1514899E+00
         21   -1    0    0  503  502  0.00000000000E+00  0.00000000000E+00  0.37454736830E+03  0.37454736830E+03  0.00000000000E+00 0.  1.
         21   -1    0    0  501  503 -0.00000000000E+00 -0.00000000000E+00 -0.16358094349E+01  0.16358094349E+01  0.00000000000E+00 0. -1.
          2    1    1    2  501    0 -0.12313082421E+02 -0.17391383902E+02  0.90753344699E+02  0.93221466449E+02  0.00000000000E+00 0. -1.
         -2    1    1    2    0  502  0.12313082421E+02  0.17391383902E+02  0.28215821417E+03  0.28296171129E+03  0.00000000000E+00 0.  1.
</event>
<event>
 4    1  0.1776638E+004  0.2076777E+02  0.7546771E-02  0.1522606E+00
         21   -1    0    0  501  502  0.00000000000E+00  0.00000000000E+00  0.52256928260E+01  0.52256928260E+01  0.00000000000E+00 0.  1.
         21   -1    0    0  502  503 -0.00000000000E+00 -0.00000000000E+00 -0.15025324035E+03  0.15025324035E+03  0.00000000000E+00 0. -1.
          2    1    1    2  501    0  0.18936035330E+01  0.20681262256E+02 -0.20324191081E+02  0.29058098457E+02  0.00000000000E+00 0.  1.
         -2    1    1    2    0  503 -0.18936035330E+01 -0.20681262256E+02 -0.12470335645E+03  0.12642083472E+03  0.00000000000E+00 0. -1.
</event>
<event>
 4    1  0.1776638E+004  0.2002903E+02  0.7546771E-02  0.1533592E+00
         21   -1    0    0  501  502  0.00000000000E+00  0.00000000000E+00  0.12915934534E+02  0.12915934534E+02  0.00000000000E+00 0. -1.
         21   -1    0    0  502  503 -0.00000000000E+00 -0.00000000000E+00 -0.44001842409E+02  0.44001842409E+02  0.00000000000E+00 0.  1.
          2    1    1    2  501    0 -0.11342950935E+02 -0.16507563588E+02 -0.10856977033E+00  0.20029327970E+02  0.00000000000E+00 0. -1.
         -2    1    1    2    0  503  0.11342950935E+02  0.16507563588E+02 -0.30977338105E+02  0.36888448972E+02  0.00000000000E+00 0.  1.
</event>
<event>
 4    1  0.1776638E+004  0.2316195E+02  0.7546771E-02  0.1490474E+00
         21   -1    0    0  503  502  0.00000000000E+00  0.00000000000E+00  0.14773261115E+03  0.14773261115E+03  0.00000000000E+00 0.  1.
         21   -1    0    0  501  503 -0.00000000000E+00 -0.00000000000E+00 -0.41381104640E+01  0.41381104640E+01  0.00000000000E+00 0. -1.
          2    1    1    2  501    0  0.23147816854E+02 -0.80903165997E+00  0.45225285244E+02  0.50811439487E+02  0.00000000000E+00 0. -1.
         -2    1    1    2    0  502 -0.23147816854E+02  0.80903165997E+00  0.98369215447E+02  0.10105928213E+03  0.00000000000E+00 0.  1.
</event>
<event>
 4    1  0.1776638E+004  0.2113058E+02  0.7546771E-02  0.1517409E+00
         21   -1    0    0  503  502  0.00000000000E+00  0.00000000000E+00  0.55502849518E+02  0.55502849518E+02  0.00000000000E+00 0. -1.
         21   -1    0    0  501  503 -0.00000000000E+00 -0.00000000000E+00 -0.37123871912E+03  0.37123871912E+03  0.00000000000E+00 0.  1.
          2    1    1    2  501    0  0.70075818041E+01 -0.19934769454E+02 -0.36891421032E+03  0.36951887071E+03  0.00000000000E+00 0.  1.
         -2    1    1    2    0  502 -0.70075818041E+01  0.19934769454E+02  0.53178340720E+02  0.57222697924E+02  0.00000000000E+00 0. -1.
</event>
<event>
 4    1  0.1776638E+004  0.2016541E+02  0.7546771E-02  0.1531522E+00
         21   -1    0    0  501  502  0.00000000000E+00  0.00000000000E+00  0.33803887214E+02  0.33803887214E+02  0.00000000000E+00 0.  1.
         21   -1    0    0  502  503 -0.00000000000E+00 -0.00000000000E+00 -0.12800437522E+02  0.12800437522E+02  0.00000000000E+00 0. -1.
          2    1    1    2  501    0 -0.18307924855E+02  0.84536083955E+01  0.16220401270E+02  0.25879432466E+02  0.00000000000E+00 0.  1.
         -2    1    1    2    0  503  0.18307924855E+02 -0.84536083955E+01  0.47830484221E+01  0.20724892270E+02  0.00000000000E+00 0. -1.
</event>
<event>
 4    1  0.1776638E+004  0.2077093E+02  0.7546771E-02  0.1522561E+00
         21   -1    0    0  501  502  0.00000000000E+00  0.00000000000E+00  0.98502530822E+02  0.98502530822E+02  0.00000000000E+00 0.  1.
         21   -1    0    0  502  503 -0.00000000000E+00 -0.00000000000E+00 -0.87262032466E+01  0.87262032466E+01  0.00000000000E+00 0. -1.
          2    1    1    2  501    0 -0.20016857901E+02  0.55458866756E+01  0.82726185259E+02  0.85293922331E+02  0.00000000000E+00 0.  1.
         -2    1    1    2    0  503  0.20016857901E+02 -0.55458866756E+01  0.70501423164E+01  0.21934811737E+02  0.00000000000E+00 0. -1.
</event>
<event>
 4    1  0.1776638E+004  0.2209010E+02  0.7546771E-02  0.1504251E+00
         21   -1    0    0  503  502  0.00000000000E+00  0.00000000000E+00  0.58557380737E+01  0.58557380737E+01  0.00000000000E+00 0. -1.
         21   -1    0    0  501  503 -0.00000000000E+00 -0.00000000000E+00 -0.89036044578E+02  0.89036044578E+02  0.00000000000E+00 0.  1.
          2    1    1    2  501    0 -0.14515406535E+02  0.16651592009E+02 -0.53598769738E+02  0.57972412928E+02  0.00000000000E+00 0.  1.
         -2    1    1    2    0  502  0.14515406535E+02 -0.16651592009E+02 -0.29581536767E+02  0.36919369724E+02  0.00000000000E+00 0. -1.
</event>
<event>
 4    1  0.1776638E+004  0.2063677E+02  0.7546771E-02  0.1524515E+00
         21   -1    0    0  503  502  0.00000000000E+00  0.00000000000E+00  0.27117171547E+01  0.27117171547E+01  0.00000000000E+00 0. -1.
         21   -1    0    0  501  503 -0.00000000000E+00 -0.00000000000E+00 -0.15708454176E+03  0.15708454176E+03  0.00000000000E+00 0.  1.
          2    1    1    2  501    0  0.56949497973E+01 -0.19835419711E+02 -0.76008910454E+02  0.78760591648E+02  0.00000000000E+00 0.  1.
         -2    1    1    2    0  502 -0.56949497973E+01  0.19835419711E+02 -0.78363914152E+02  0.81035667268E+02  0.00000000000E+00 0. -1.
</event>
<event>
 4    1  0.1776638E+004  0.2637632E+02  0.7546771E-02  0.1453976E+00
         21   -1    0    0  503  502  0.00000000000E+00  0.00000000000E+00  0.28158675459E+02  0.28158675459E+02  0.00000000000E+00 0. -1.
         21   -1    0    0  501  503 -0.00000000000E+00 -0.00000000000E+00 -0.45679045199E+02  0.45679045199E+02  0.00000000000E+00 0.  1.
          2    1    1    2  501    0  0.24901297224E+02 -0.86968694130E+01 -0.33775873883E+02  0.42854635661E+02  0.00000000000E+00 0.  1.
         -2    1    1    2    0  502 -0.24901297224E+02  0.86968694130E+01  0.16255504143E+02  0.30983084998E+02  0.00000000000E+00 0. -1.
</event>
<event>
 4    1  0.1776638E+004  0.2181497E+02  0.7546771E-02  0.1507940E+00
         21   -1    0    0  501  502  0.00000000000E+00  0.00000000000E+00  0.10403184369E+02  0.10403184369E+02  0.00000000000E+00 0. -1.
         21   -1    0    0  502  503 -0.00000000000E+00 -0.00000000000E+00 -0.46277769962E+02  0.46277769962E+02  0.00000000000E+00 0.  1.
          2    1    1    2  501    0  0.13032504665E+02  0.17494196403E+02 -0.14896312085E+02  0.26415775577E+02  0.00000000000E+00 0. -1.
         -2    1    1    2    0  503 -0.13032504665E+02 -0.17494196403E+02 -0.20978273508E+02  0.30265178754E+02  0.00000000000E+00 0.  1.
</event>
<event>
 4    1  0.1776638E+004  0.2852720E+02  0.7546771E-02  0.1432842E+00
         21   -1    0    0  501  502  0.00000000000E+00  0.00000000000E+00  0.10642166907E+03  0.10642166907E+03  0.00000000000E+00 0.  1.
         21   -1    0    0  502  503 -0.00000000000E+00 -0.00000000000E+00 -0.15098350362E+02  0.15098350362E+02  0.00000000000E+00 0. -1.
          2    1    1    2  501    0 -0.12620720194E+02  0.25583563224E+02  0.88346337009E+02  0.92837904696E+02  0.00000000000E+00 0.  1.
         -2    1    1    2    0  503  0.12620720194E+02 -0.25583563224E+02  0.29769816943E+01  0.28682114731E+02  0.00000000000E+00 0. -1.
</event>
<event>
 4    1  0.1776638E+004  0.2078062E+02  0.7546771E-02  0.1522420E+00
         21   -1    0    0  501  502  0.00000000000E+00  0.00000000000E+00  0.28418922960E+03  0.28418922960E+03  0.00000000000E+00 0.  1.
         21   -1    0    0  502  503 -0.00000000000E+00 -0.00000000000E+00 -0.20262596536E+01  0.20262596536E+01  0.00000000000E+00 0. -1.
          2    1    1    2  501    0 -0.15361014274E+02 -0.13995482040E+02  0.21264693745E+03  0.21365990332E+03  0.00000000000E+00 0.  1.
         -2    1    1    2    0  503  0.15361014274E+02  0.13995482040E+02  0.69516032498E+02  0.72555585942E+02  0.00000000000E+00 0. -1.
</event>
<event>
 4    1  0.1776638E+004  0.3252652E+02  0.7546771E-02  0.1398839E+00
         21   -1    0    0  503  502  0.00000000000E+00  0.00000000000E+00  0.11416069980E+03  0.11416069980E+03  0.00000000000E+00 0.  1.
         21   -1    0    0  501  503 -0.00000000000E+00 -0.00000000000E+00 -0.19370527706E+02  0.19370527706E+02  0.00000000000E+00 0. -1.
          2    1    1    2  501    0  0.31740570830E+02  0.71071006399E+01 -0.82296952574E+00  0.32536932784E+02  0.00000000000E+00 0. -1.
         -2    1    1    2    0  502 -0.31740570830E+02 -0.71071006399E+01  0.95613141615E+02  0.10099429472E+03  0.00000000000E+00 0.  1.
</event>
<event>
 4    1  0.1776638E+004  0.2100838E+02  0.7546771E-02  0.1519145E+00
         21   -1    0    0  501  502  0.00000000000E+00  0.00000000000E+00  0.94405777665E+01  0.94405777665E+01  0.00000000000E+00 0. -1.
         21   -1    0    0  502  503 -0.00000000000E+00 -0.00000000000E+00 -0.10897567308E+03  0.10897567308E+03  0.00000000000E+00 0.  1.
          2    1    1    2  501    0  0.19580489150E+02  0.76129099453E+01 -0.50271844308E+01  0.21601493849E+02  0.00000000000E+00 0. -1.
         -2    1    1    2    0  503 -0.19580489150E+02 -0.76129099453E+01 -0.94507910887E+02  0.96814757002E+02  0.00000000000E+00 0.  1.
</event>
<event>
 4    1  0.1776638E+004  0.3516108E+02  0.7546771E-02  0.1379434E+00
         21   -1    0    0  501  502  0.00000000000E+00  0.00000000000E+00  0.26430055502E+03  0.26430055502E+03  0.00000000000E+00 0. -1.
         21   -1    0    0  502  503 -0.00000000000E+00 -0.00000000000E+00 -0.13456110372E+02  0.13456110372E+02  0.00000000000E+00 0.  1.
          2    1    1    2  501    0 -0.28256708410E+02  0.20925102298E+02  0.23759417390E+03  0.24018179146E+03  0.00000000000E+00 0. -1.
         -2    1    1    2    0  503  0.28256708410E+02 -0.20925102298E+02  0.13250270749E+02  0.37574873936E+02  0.00000000000E+00 0.  1.
</event>
<event>
 4    1  0.1776638E+004  0.2147598E+02  0.7546771E-02  0.1512576E+00
         21   -1    0    0  503  502  0.00000000000E+00  0.00000000000E+00  0.11424426348E+04  0.11424426348E+04  0.00000000000E+00 0. -1.
         21   -1    0    0  501  503 -0.00000000000E+00 -0.00000000000E+00 -0.42134986770E+00  0.42134986770E+00  0.00000000000E+00 0.  1.
          2    1    1    2  501    0  0.17561489809E+02 -0.12361698849E+02  0.68792535298E+03  0.68826049487E+03  0.00000000000E+00 0.  1.
         -2    1    1    2    0  502 -0.17561489809E+02  0.12361698849E+02  0.45409593192E+03  0.45460348977E+03  0.00000000000E+00 0. -1.
</event>
<event>
 4    1  0.1776638E+004  0.2940952E+02  0.7546771E-02  0.1424798E+00
         21   -1    0    0  501  502  0.00000000000E+00  0.00000000000E+00  0.38507369191E+03  0.38507369191E+03  0.00000000000E+00 0. -1.
         21   -1    0    0  502  503 -0.00000000000E+00 -0.00000000000E+00 -0.35524875256E+01  0.35524875256E+01  0.00000000000E+00 0.  1.
          2    1    1    2  501    0 -0.29407902065E+02  0.30867621647E+00  0.30859422055E+03  0.30999244014E+03  0.00000000000E+00 0. -1.
         -2    1    1    2    0  503  0.29407902065E+02 -0.30867621647E+00  0.72926983828E+02  0.78633739293E+02  0.00000000000E+00 0.  1.
</event>
<event>
 4    1  0.1776638E+004  0.3456573E+02  0.7546771E-02  0.1383642E+00
         21   -1    0    0  503  502  0.00000000000E+00  0.00000000000E+00  0.11612660674E+03  0.11612660674E+03  0.00000000000E+00 0.  1.
         21   -1    0    0  501  503 -0.00000000000E+00 -0.00000000000E+00 -0.10832953820E+02  0.10832953820E+02  0.00000000000E+00 0. -1.
          2    1    1    2  501    0  0.10759048587E+02  0.32848632798E+02  0.66875671085E+02  0.75280443584E+02  0.00000000000E+00 0.  1.
         -2    1    1    2    0  502 -0.10759048587E+02 -0.32848632798E+02  0.38417981839E+02  0.51679116979E+02  0.00000000000E+00 0. -1.
</event>
<event>
 4    1  0.1776638E+004  0.2667716E+02  0.7546771E-02  0.1450878E+00
         21   -1    0    0  501  502  0.00000000000E+00  0.00000000000E+00  0.39285340299E+02  0.39285340299E+02  0.00000000000E+00 0.  1.
         21   -1    0    0  502  503 -0.00000000000E+00 -0.00000000000E+00 -0.65581456494E+02  0.65581456494E+02  0.00000000000E+00 0. -1.
          2    1    1    2  501    0 -0.23999197121E+02  0.11649435462E+02  0.31459548228E+02  0.41247714891E+02  0.00000000000E+00 0.  1.
         -2    1    1    2    0  503  0.23999197121E+02 -0.11649435462E+02 -0.57755664423E+02  0.63619081901E+02  0.00000000000E+00 0. -1.
</event>
<event>
 4    1  0.1776638E+004  0.2381861E+02  0.7546771E-02  0.1482467E+00
         21   -1    0    0  501  502  0.00000000000E+00  0.00000000000E+00  0.38573725774E+02  0.38573725774E+02  0.00000000000E+00 0. -1.
         21   -1    0    0  502  503 -0.00000000000E+00 -0.00000000000E+00 -0.43520001035E+02  0.43520001035E+02  0.00000000000E+00 0.  1.
          2    1    1    2  501    0 -0.23597876089E+02  0.32351492283E+01  0.30925245708E+02  0.39034558644E+02  0.00000000000E+00 0. -1.
         -2    1    1    2    0  503  0.23597876089E+02 -0.32351492283E+01 -0.35871520970E+02  0.43059168165E+02  0.00000000000E+00 0.  1.
</event>
<event>
 4    1  0.1776638E+004  0.2630598E+02  0.7546771E-02  0.1454707E+00
         21   -1    0    0  503  502  0.00000000000E+00  0.00000000000E+00  0.87911992090E+02  0.87911992090E+02  0.00000000000E+00 0. -1.
         21   -1    0    0  501  503 -0.00000000000E+00 -0.00000000000E+00 -0.12909897440E+02  0.12909897440E+02  0.00000000000E+00 0.  1.
          2    1    1    2  501    0 -0.83210305275E+01  0.24955257356E+02  0.60085489280E+01  0.26983459359E+02  0.00000000000E+00 0.  1.
         -2    1    1    2    0  502  0.83210305275E+01 -0.24955257356E+02  0.68993545722E+02  0.73838430171E+02  0.00000000000E+00 0. -1.
</event>
<event>
 4    1  0.1776638E+004  0.4303172E+02  0.7546771E-02  0.1331581E+00
         21   -1    0    0  501  502  0.00000000000E+00  0.00000000000E+00  0.73222131440E+02  0.73222131440E+02  0.00000000000E+00 0. -1.
         21   -1    0    0  502  503 -0.00000000000E+00 -0.00000000000E+00 -0.28144506814E+02  0.28144506814E+02  0.00000000000E+00 0.  1.
          2    1    1    2  501    0 -0.40141939509E+02  0.15503355703E+02  0.38682189343E+02  0.57862259876E+02  0.00000000000E+00 0. -1.
         -2    1    1    2    0  503  0.40141939509E+02 -0.15503355703E+02  0.63954352833E+01  0.43504378378E+02  0.00000000000E+00 0.  1.
</event>
<event>
 4    1  0.1776638E+004  0.2506403E+02  0.7546771E-02  0.1468088E+00
         21   -1    0    0  503  502  0.00000000000E+00  0.00000000000E+00  0.46253616107E+02  0.46253616107E+02  0.00000000000E+00 0. -1.
         21   -1    0    0  501  503 -0.00000000000E+00 -0.00000000000E+00 -0.16374708068E+02  0.16374708068E+02  0.00000000000E+00 0.  1.
          2    1    1    2  501    0 -0.87270518291E+01  0.23495619814E+02  0.27872038473E+02  0.37484078123E+02  0.00000000000E+00 0. -1.
         -2    1    1    2    0  502  0.87270518291E+01 -0.23495619814E+02  0.20068695658E+01  0.25144246052E+02  0.00000000000E+00 0.  1.
</event>
<event>
 4    1  0.1776638E+004  0.2707887E+02  0.7546771E-02  0.1446817E+00
         21   -1    0    0  501  502  0.00000000000E+00  0.00000000000E+00  0.36982062664E+02  0.36982062664E+02  0.00000000000E+00 0. -1.
         21   -1    0    0  502  503 -0.00000000000E+00 -0.00000000000E+00 -0.19958421927E+02  0.19958421927E+02  0.00000000000E+00 0.  1.
          2    1    1    2  501    0  0.25437372826E+02  0.92846708004E+01  0.62067156331E+01  0.27781079301E+02  0.00000000000E+00 0. -1.
         -2    1    1    2    0  503 -0.25437372826E+02 -0.92846708004E+01  0.10816925103E+02  0.29159405290E+02  0.00000000000E+00 0.  1.
</event>
<event>
 4    1  0.1776638E+004  0.2921435E+02  0.7546771E-02  0.1426549E+00
         21   -1    0    0  503  502  0.00000000000E+00  0.00000000000E+00  0.13631411170E+03  0.13631411170E+03  0.00000000000E+00 0.  1.
         21   -1    0    0  501  503 -0.00000000000E+00 -0.00000000000E+00 -0.72361362403E+01  0.72361362403E+01  0.00000000000E+00 0. -1.
          2    1    1    2  501    0  0.26216926579E+02  0.12889967919E+02  0.90885754292E+02  0.95465694600E+02  0.00000000000E+00 0.  1.
         -2    1    1    2    0  502 -0.26216926579E+02 -0.12889967919E+02  0.38192221167E+02  0.48084553340E+02  0.00000000000E+00 0. -1.
</event>
<event>
 4    1  0.1776638E+004  0.3885174E+02  0.7546771E-02  0.1355349E+00
         21   -1    0    0  501  502  0.00000000000E+00  0.00000000000E+00  0.71849141717E+03  0.71849141717E+03  0.00000000000E+00 0. -1.
         21   -1    0    0  502  503 -0.00000000000E+00 -0.00000000000E+00 -0.10661826294E+02  0.10661826294E+02  0.00000000000E+00 0.  1.
          2    1    1    2  501    0 -0.25722036895E+02 -0.29117604254E+02  0.68060350078E+03  0.68171151034E+03  0.00000000000E+00 0. -1.
         -2    1    1    2    0  503  0.25722036895E+02  0.29117604254E+02  0.27226090093E+02  0.47441733118E+02  0.00000000000E+00 0.  1.
</event>
<event>
 4    1  0.1776638E+004  0.3989209E+02  0.7546771E-02  0.1349119E+00
         21   -1    0    0  503  502  0.00000000000E+00  0.00000000000E+00  0.35607131480E+02  0.35607131480E+02  0.00000000000E+00 0. -1.
         21   -1    0    0  501  503 -0.00000000000E+00 -0.00000000000E+00 -0.91820037150E+02  0.91820037150E+02  0.00000000000E+00 0.  1.
          2    1    1    2  501    0 -0.22678390123E+02 -0.32818738737E+02 -0.73752138741E+02  0.83849609180E+02  0.00000000000E+00 0.  1.
         -2    1    1    2    0  502  0.22678390123E+02  0.32818738737E+02  0.17539233071E+02  0.43577559450E+02  0.00000000000E+00 0. -1.
</event>
<event>
 4    1  0.1776638E+004  0.2000635E+02  0.7546771E-02  0.1533939E+00
         21   -1    0    0  503  502  0.00000000000E+00  0.00000000000E+00  0.12854956745E+02  0.12854956745E+02  0.00000000000E+00 0.  1.
         21   -1    0    0  501  503 -0.00000000000E+00 -0.00000000000E+00 -0.31499138441E+02  0.31499138441E+02  0.00000000000E+00 0. -1.
          2    1    1    2  501    0 -0.10013001111E+02  0.17320331262E+02 -0.69414643803E+01  0.21176354597E+02  0.00000000000E+00 0.  1.
         -2    1    1    2    0  502  0.10013001111E+02 -0.17320331262E+02 -0.11702717315E+02  0.23177740589E+02  0.00000000000E+00 0. -1.
</event>
<event>
 4    1  0.1776638E+004  0.4526262E+02  0.7546771E-02  0.1320131E+00
         21   -1    0    0  503  502  0.00000000000E+00  0.00000000000E+00  0.13326871590E+03  0.13326871590E+03  0.00000000000E+00 0. -1.
         21   -1    0    0  501  503 -0.00000000000E+00 -0.00000000000E+00 -0.16748099073E+02  0.16748099073E+02  0.00000000000E+00 0.  1.
          2    1    1    2  501    0 -0.44691827686E+02  0.71655381324E+01  0.36765364124E+02  0.58312917932E+02  0.00000000000E+00 0. -1.
         -2    1    1    2    0  502  0.44691827686E+02 -0.71655381324E+01  0.79755252708E+02  0.91703897044E+02  0.00000000000E+00 0.  1.
</event>
<event>
 4    1  0.1776638E+004  0.2418841E+02  0.7546771E-02  0.1478091E+00
         21   -1    0    0  503  502  0.00000000000E+00  0.00000000000E+00  0.33001801388E+02  0.33001801388E+02  0.00000000000E+00 0. -1.
         21   -1    0    0  501  503 -0.00000000000E+00 -0.00000000000E+00 -0.10504844752E+03  0.10504844752E+03  0.00000000000E+00 0.  1.
          2    1    1    2  501    0 -0.20896317529E+02  0.12182907897E+02 -0.98954896830E+02  0.10186830193E+03  0.00000000000E+00 0.  1.
         -2    1    1    2    0  502  0.20896317529E+02 -0.12182907897E+02  0.26908250702E+02  0.36181946975E+02  0.00000000000E+00 0. -1.
</event>
<event>
 4    1  0.1776638E+004  0.4488705E+02  0.7546771E-02  0.1322005E+00
         21   -1    0    0  501  502  0.00000000000E+00  0.00000000000E+00  0.44369476633E+02  0.44369476633E+02  0.00000000000E+00 0.  1.
         21   -1    0    0  502  503 -0.00000000000E+00 -0.00000000000E+00 -0.48147749860E+02  0.48147749860E+02  0.00000000000E+00 0. -1.
          2    1    1    2  501    0 -0.35435211634E+02  0.27553454259E+02  0.91402005275E+01  0.45808190652E+02  0.00000000000E+00 0.  1.
         -2    1    1    2    0  503  0.35435211634E+02 -0.27553454259E+02 -0.12918473754E+02  0.46709035842E+02  0.00000000000E+00 0. -1.
</event>
<event>
 4    1  0.1776638E+004  0.2009326E+02  0.7546771E-02  0.1532615E+00
         21   -1    0    0  503  502  0.00000000000E+00  0.00000000000E+00  0.31117279279E+01  0.31117279279E+01  0.00000000000E+00 0. -1.
         21   -1    0    0  501  503 -0.00000000000E+00 -0.00000000000E+00 -0.22230807796E+03  0.22230807796E+03  0.00000000000E+00 0.  1.
          2    1    1    2  501    0 -0.47900188426E+01  0.19513964377E+02 -0.18232545696E+03  0.18342930884E+03  0.00000000000E+00 0.  1.
         -2    1    1    2    0  502  0.47900188426E+01 -0.19513964377E+02 -0.36870893065E+02  0.41990497040E+02  0.00000000000E+00 0. -1.
</event>
<event>
 4    1  0.1776638E+004  0.2172609E+02  0.7546771E-02  0.1509146E+00
         21   -1    0    0  501  502  0.00000000000E+00  0.00000000000E+00  0.58751686275E+03  0.58751686275E+03  0.00000000000E+00 0. -1.
         21   -1    0    0  502  503 -0.00000000000E+00 -0.00000000000E+00 -0.82488989400E+00  0.82488989400E+00  0.00000000000E+00 0.  1.
          2    1    1    2  501    0  0.10323967602E+02  0.19116447007E+02  0.34080466924E+03  0.34149647938E+03  0.00000000000E+00 0. -1.
         -2    1    1    2    0  503 -0.10323967602E+02 -0.19116447007E+02  0.24588730362E+03  0.24684527326E+03  0.00000000000E+00 0.  1.
</event>
<event>
 4    1  0.1776638E+004  0.3149508E+02  0.7546771E-02  0.1407034E+00
         21   -1    0    0  501  502  0.00000000000E+00  0.00000000000E+00  0.16401631023E+03  0.16401631023E+03  0.00000000000E+00 0. -1.
         21   -1    0    0  502  503 -0.00000000000E+00 -0.00000000000E+00 -0.10840085469E+02  0.10840085469E+02  0.00000000000E+00 0.  1.
          2    1    1    2  501    0  0.66813491873E+01  0.30778232781E+02  0.13471885966E+03  0.13835140472E+03  0.00000000000E+00 0. -1.
         -2    1    1    2    0  503 -0.66813491873E+01 -0.30778232781E+02  0.18457365108E+02  0.36504990985E+02  0.00000000000E+00 0.  1.
</event>
<event>
 4    1  0.1776638E+004  0.2355368E+02  0.7546771E-02  0.1485660E+00
         21   -1    0    0  501  502  0.00000000000E+00  0.00000000000E+00  0.71524810470E+02  0.71524810470E+02  0.00000000000E+00 0.  1.
         21   -1    0    0  502  503 -0.00000000000E+00 -0.00000000000E+00 -0.10306653963E+03  0.10306653963E+03  0.00000000000E+00 0. -1.
          2    1    1    2  501    0 -0.18718233172E+02  0.14296977347E+02  0.68175792874E+02  0.72129845060E+02  0.00000000000E+00 0.  1.
         -2    1    1    2    0  503  0.18718233172E+02 -0.14296977347E+02 -0.99717522037E+02  0.10246150504E+03  0.00000000000E+00 0. -1.
</event>
<event>
 4    1  0.1776638E+004  0.2111984E+02  0.7546771E-02  0.1517561E+00
         21   -1    0    0  501  502  0.00000000000E+00  0.00000000000E+00  0.42354902949E+01  0.42354902949E+01  0.00000000000E+00 0.  1.
         21   -1    0    0  502  503 -0.00000000000E+00 -0.00000000000E+00 -0.16738387227E+03  0.16738387227E+03  0.00000000000E+00 0. -1.
          2    1    1    2  501    0  0.10414086973E+02 -0.18373748210E+02 -0.29319292558E+02  0.36134038619E+02  0.00000000000E+00 0.  1.
         -2    1    1    2    0  503 -0.10414086973E+02  0.18373748210E+02 -0.13382908941E+03  0.13548532394E+03  0.00000000000E+00 0. -1.
</event>
<event>
 4    1  0.1776638E+004  0.2823632E+02  0.7546771E-02  0.1435569E+00
         21   -1    0    0  501  502  0.00000000000E+00  0.00000000000E+00  0.97941836837E+02  0.97941836837E+02  0.00000000000E+00 0.  1.
         21   -1    0    0  502  503 -0.00000000000E+00 -0.00000000000E+00 -0.81662175165E+01  0.81662175165E+01  0.00000000000E+00 0. -1.
          2    1    1    2  501    0  0.67864409622E+01  0.27408652272E+02  0.47868370336E+02  0.55575811995E+02  0.00000000000E+00 0.  1.
         -2    1    1    2    0  503 -0.67864409622E+01 -0.27408652272E+02  0.41907248985E+02  0.50532242358E+02  0.00000000000E+00 0. -1.
</event>
<event>
 4    1  0.1776638E+004  0.2097139E+02  0.7546771E-02  0.1519674E+00
         21   -1    0    0  503  502  0.00000000000E+00  0.00000000000E+00  0.13436115823E+02  0.13436115823E+02  0.00000000000E+00 0. -1.
         21   -1    0    0  501  503 -0.00000000000E+00 -0.00000000000E+00 -0.67931288757E+02  0.67931288757E+02  0.00000000000E+00 0.  1.
          2    1    1    2  501    0  0.18821896979E+02  0.92485272913E+01 -0.56532824379E+02  0.60297257775E+02  0.00000000000E+00 0.  1.
         -2    1    1    2    0  502 -0.18821896979E+02 -0.92485272913E+01  0.20376514452E+01  0.21070146804E+02  0.00000000000E+00 0. -1.
</event>
<event>
 4    1  0.1776638E+004  0.8398018E+02  0.7546771E-02  0.1194897E+00
         21   -1    0    0  503  502  0.00000000000E+00  0.00000000000E+00  0.11322743956E+03  0.11322743956E+03  0.00000000000E+00 0.  1.
         21   -1    0    0  501  503 -0.00000000000E+00 -0.00000000000E+00 -0.18430729662E+03  0.18430729662E+03  0.00000000000E+00 0. -1.
          2    1    1    2  501    0 -0.67368061487E+02 -0.50141943967E+02 -0.15658617040E+03  0.17768483057E+03  0.00000000000E+00 0. -1.
         -2    1    1    2    0  502  0.67368061487E+02  0.50141943967E+02  0.85506313349E+02  0.11984990561E+03  0.00000000000E+00 0.  1.
</event>
<event>
 4    1  0.1776638E+004  0.2680741E+02  0.7546771E-02  0.1449552E+00
         21   -1    0    0  501  502  0.00000000000E+00  0.00000000000E+00  0.20333778461E+03  0.20333778461E+03  0.00000000000E+00 0. -1.
         21   -1    0    0  502  503 -0.00000000000E+00 -0.00000000000E+00 -0.51041177943E+01  0.51041177943E+01  0.00000000000E+00 0.  1.
          2    1    1    2  501    0  0.15948229911E+02  0.21547418197E+02  0.41316206005E+02  0.49251052242E+02  0.00000000000E+00 0.  1.
         -2    1    1    2    0  503 -0.15948229911E+02 -0.21547418197E+02  0.15691746081E+03  0.15919085017E+03  0.00000000000E+00 0. -1.
</event>
<event>
 4    1  0.1776638E+004  0.2140440E+02  0.7546771E-02  0.1513569E+00
         21   -1    0    0  503  502  0.00000000000E+00  0.00000000000E+00  0.60203622122E+02  0.60203622122E+02  0.00000000000E+00 0. -1.
         21   -1    0    0  501  503 -0.00000000000E+00 -0.00000000000E+00 -0.17270431355E+02  0.17270431355E+02  0.00000000000E+00 0.  1.
          2    1    1    2  501    0 -0.17880562241E+01 -0.21329581689E+02 -0.75050699454E+01  0.22682025372E+02  0.00000000000E+00 0.  1.
         -2    1    1    2    0  502  0.17880562241E+01  0.21329581689E+02  0.50438260713E+02  0.54792028105E+02  0.00000000000E+00 0. -1.
</event>
<event>
 4    1  0.1776638E+004  0.2904891E+02  0.7546771E-02  0.1428045E+00
         21   -1    0    0  503  502  0.00000000000E+00  0.00000000000E+00  0.10753271066E+03  0.10753271066E+03  0.00000000000E+00 0. -1.
         21   -1    0    0  501  503 -0.00000000000E+00 -0.00000000000E+00 -0.86834544230E+01  0.86834544230E+01  0.00000000000E+00 0.  1.
          2    1    1    2  501    0 -0.26484296438E+02 -0.11934036446E+02  0.31392832517E+02  0.42770891002E+02  0.00000000000E+00 0.  1.
         -2    1    1    2    0  502  0.26484296438E+02  0.11934036446E+02  0.67456423722E+02  0.73445274082E+02  0.00000000000E+00 0. -1.
</event>
<event>
 4    1  0.1776638E+004  0.2205041E+02  0.7546771E-02  0.1504779E+00
         21   -1    0    0  501  502  0.00000000000E+00  0.00000000000E+00  0.65405337348E+00  0.65405337348E+00  0.00000000000E+00 0.  1.
         21   -1    0    0  502  503 -0.00000000000E+00 -0.00000000000E+00 -0.76013070416E+03  0.76013070416E+03  0.00000000000E+00 0. -1.
          2    1    1    2  501    0 -0.20871178574E+02  0.71143806762E+01 -0.32329666936E+03  0.32404776952E+03  0.00000000000E+00 0.  1.
         -2    1    1    2    0  503  0.20871178574E+02 -0.71143806762E+01 -0.43617998142E+03  0.43673698801E+03  0.00000000000E+00 0. -1.
</event>
<event>
 4    1  0.1776638E+004  0.2224934E+02  0.7546771E-02  0.1502146E+00
         21   -1    0    0  501  502  0.00000000000E+00  0.00000000000E+00  0.37876115411E+01  0.37876115411E+01  0.00000000000E+00 0. -1.
         21   -1    0    0  502  503 -0.00000000000E+00 -0.00000000000E+00 -0.28885911738E+03  0.28885911738E+03  0.00000000000E+00 0.  1.
          2    1    1    2  501    0  0.22208614041E+02 -0.13455058597E+01 -0.34262640741E+02  0.40852924916E+02  0.00000000000E+00 0. -1.
         -2    1    1    2    0  503 -0.22208614041E+02  0.13455058597E+01 -0.25080886510E+03  0.25179380401E+03  0.00000000000E+00 0.  1.
</event>
<event>
 4    1  0.1776638E+004  0.2363688E+02  0.7546771E-02  0.1484652E+00
         21   -1    0    0  503  502  0.00000000000E+00  0.00000000000E+00  0.59827603918E+01  0.59827603918E+01  0.00000000000E+00 0. -1.
         21   -1    0    0  501  503 -0.00000000000E+00 -0.00000000000E+00 -0.95945562973E+02  0.95945562973E+02  0.00000000000E+00 0.  1.
          2    1    1    2  501    0  0.80728420763E+01  0.22215565848E+02 -0.53306528555E+02  0.58311989605E+02  0.00000000000E+00 0. -1.
         -2    1    1    2    0  502 -0.80728420763E+01 -0.22215565848E+02 -0.36656274026E+02  0.43616333759E+02  0.00000000000E+00 0.  1.
</event>
<event>
 4    1  0.1776638E+004  0.3555208E+02  0.7546771E-02  0.1376723E+00
         21   -1    0    0  503  502  0.00000000000E+00  0.00000000000E+00  0.11678846697E+03  0.11678846697E+03  0.00000000000E+00 0.  1.
         21   -1    0    0  501  503 -0.00000000000E+00 -0.00000000000E+00 -0.12091806241E+02  0.12091806241E+02  0.00000000000E+00 0. -1.
          2    1    1    2  501    0  0.30444937646E+02  0.18359091740E+02  0.31470595129E+02  0.47479983525E+02  0.00000000000E+00 0. -1.
         -2    1    1    2    0  502 -0.30444937646E+02 -0.18359091740E+02  0.73226065602E+02  0.81400289688E+02  0.00000000000E+00 0.  1.
</event>
<event>
 4    1  0.1776638E+004  0.2093336E+02  0.7546771E-02  0.1520218E+00
         21   -1    0    0  501  502  0.00000000000E+00  0.00000000000E+00  0.43467426868E+02  0.43467426868E+02  0.00000000000E+00 0.  1.
         21   -1    0    0  502  503 -0.00000000000E+00 -0.00000000000E+00 -0.10129971444E+02  0.10129971444E+02  0.00000000000E+00 0. -1.
          2    1    1    2  501    0 -0.90431880216E+01  0.18879257511E+02  0.18527426354E+02  0.27954805330E+02  0.00000000000E+00 0.  1.
         -2    1    1    2    0  503  0.90431880216E+01 -0.18879257511E+02  0.14810029071E+02  0.25642592982E+02  0.00000000000E+00 0. -1.
</event>
<event>
 4    1  0.1776638E+004  0.4372068E+02  0.7546771E-02  0.1327962E+00
         21   -1    0    0  501  502  0.00000000000E+00  0.00000000000E+00  0.13776465970E+04  0.13776465970E+04  0.00000000000E+00 0.  1.
         21   -1    0    0  502  503 -0.00000000000E+00 -0.00000000000E+00 -0.14302532757E+02  0.14302532757E+02  0.00000000000E+00 0. -1.
          2    1    1    2  501    0 -0.37377728290E+02 -0.22680460097E+02  0.13430267982E+04  0.13437382477E+04  0.00000000000E+00 0.  1.
         -2    1    1    2    0  503  0.37377728290E+02  0.22680460097E+02  0.20317266046E+02  0.48210881987E+02  0.00000000000E+00 0. -1.
</event>
<event>
 4    1  0.1776638E+004  0.2193857E+02  0.7546771E-02  0.1506275E+00
         21   -1    0    0  501  502  0.00000000000E+00  0.00000000000E+00  0.33058977352E+01  0.33058977352E+01  0.00000000000E+00 0.  1.
         21   -1    0    0  502  503 -0.00000000000E+00 -0.00000000000E+00 -0.17085242747E+03  0.17085242747E+03  0.00000000000E+00 0. -1.
          2    1    1    2  501    0 -0.66656156936E+01  0.20901443700E+02 -0.50287989940E+02  0.54865132037E+02  0.00000000000E+00 0.  1.
         -2    1    1    2    0  503  0.66656156936E+01 -0.20901443700E+02 -0.11725853979E+03  0.11929319317E+03  0.00000000000E+00 0. -1.
</event>
<event>
 4    1  0.1776638E+004  0.2018456E+02  0.7546771E-02  0.1531233E+00
         21   -1    0    0  503  502  0.00000000000E+00  0.00000000000E+00  0.27994441780E+03  0.27994441780E+03  0.00000000000E+00 0.  1.
         21   -1    0    0  501  503 -0.00000000000E+00 -0.00000000000E+00 -0.87023447346E+01  0.87023447346E+01  0.00000000000E+00 0. -1.
          2    1    1    2  501    0 -0.16744501846E+00 -0.20183862728E+02  0.39174483422E+01  0.20561195344E+02  0.00000000000E+00 0. -1.
         -2    1    1    2    0  502  0.16744501846E+00  0.20183862728E+02  0.26732462472E+03  0.26808556719E+03  0.00000000000E+00 0.  1.
</event>
<event>
 4    1  0.1776638E+004  0.3007054E+02  0.7546771E-02  0.1418984E+00
         21   -1    0    0  503  502  0.00000000000E+00  0.00000000000E+00  0.59844865966E+02  0.59844865966E+02  0.00000000000E+00 0.  1.
         21   -1    0    0  501  503 -0.00000000000E+00 -0.00000000000E+00 -0.20062522494E+02  0.20062522494E+02  0.00000000000E+00 0. -1.
          2    1    1    2  501    0 -0.12629648489E+02 -0.27289725861E+02  0.39771276742E-01  0.30070562686E+02  0.00000000000E+00 0. -1.
         -2    1    1    2    0  502  0.12629648489E+02  0.27289725861E+02  0.39742572196E+02  0.49836825774E+02  0.00000000000E+00 0.  1.
</event>
<event>
 4    1  0.1776638E+004  0.3508062E+02  0.7546771E-02  0.1379997E+00
         21   -1    0    0  501  502  0.00000000000E+00  0.00000000000E+00  0.42524287722E+03  0.42524287722E+03  0.00000000000E+00 0.  1.
         21   -1    0    0  502  503 -0.00000000000E+00 -0.00000000000E+00 -0.11726041592E+02  0.11726041592E+02  0.00000000000E+00 0. -1.
          2    1    1    2  501    0 -0.33953792534E+02  0.88198688140E+01  0.39637466610E+03  0.39792402043E+03  0.00000000000E+00 0.  1.
         -2    1    1    2    0  503  0.33953792534E+02 -0.88198688140E+01  0.17142169534E+02  0.39044898383E+02  0.00000000000E+00 0. -1.
</event>
<event>
 4    1  0.1776638E+004  0.2522442E+02  0.7546771E-02  0.1466308E+00
         21   -1    0    0  501  502  0.00000000000E+00  0.00000000000E+00  0.12198266053E+03  0.12198266053E+03  0.00000000000E+00 0. -1.
         21   -1    0    0  502  503 -0.00000000000E+00 -0.00000000000E+00 -0.10177673294E+02  0.10177673294E+02  0.00000000000E+00 0.  1.
          2    1    1    2  501    0  0.15525252152E+02  0.19880593942E+02  0.10204034908E+03  0.10511186569E+03  0.00000000000E+00 0. -1.
         -2    1    1    2    0  503 -0.15525252152E+02 -0.19880593942E+02  0.97646381619E+01  0.27048468132E+02  0.00000000000E+00 0.  1.
</event>
<event>
 4    1  0.1776638E+004  0.3599344E+02  0.7546771E-02  0.1373710E+00
         21   -1    0    0  503  502  0.00000000000E+00  0.00000000000E+00  0.77140351717E+01  0.77140351717E+01  0.00000000000E+00 0. -1.
         21   -1    0    0  501  503 -0.00000000000E+00 -0.00000000000E+00 -0.65125880177E+03  0.65125880177E+03  0.00000000000E+00 0.  1.
          2    1    1    2  501    0  0.29052144994E+02 -0.21248547614E+02 -0.60561372245E+03  0.60668237878E+03  0.00000000000E+00 0.  1.
         -2    1    1    2    0  502 -0.29052144994E+02  0.21248547614E+02 -0.37931044150E+02  0.52290458161E+02  0.00000000000E+00 0. -1.
</event>
<event>
 4    1  0.1776638E+004  0.3706498E+02  0.7546771E-02  0.1366600E+00
         21   -1    0    0  503  502  0.00000000000E+00  0.00000000000E+00  0.23675893612E+02  0.23675893612E+02  0.00000000000E+00 0.  1.
         21   -1    0    0  501  503 -0.00000000000E+00 -0.00000000000E+00 -0.64048059275E+02  0.64048059275E+02  0.00000000000E+00 0. -1.
          2    1    1    2  501    0  0.30460561482E+02 -0.21117929613E+02 -0.33635850995E+02  0.50051805453E+02  0.00000000000E+00 0. -1.
         -2    1    1    2    0  502 -0.30460561482E+02  0.21117929613E+02 -0.67363146680E+01  0.37672147434E+02  0.00000000000E+00 0.  1.
</event>
<event>
 4    1  0.1776638E+004  0.2902365E+02  0.7546771E-02  0.1428275E+00
         21   -1    0    0  503  502  0.00000000000E+00  0.00000000000E+00  0.32229420648E+03  0.32229420648E+03  0.00000000000E+00 0.  1.
         21   -1    0    0  501  503 -0.00000000000E+00 -0.00000000000E+00 -0.27014116769E+01  0.27014116769E+01  0.00000000000E+00 0. -1.
          2    1    1    2  501    0 -0.52788455385E+01 -0.28539554665E+02  0.13051160868E+03  0.13369985935E+03  0.00000000000E+00 0. -1.
         -2    1    1    2    0  502  0.52788455385E+01  0.28539554665E+02  0.18908118613E+03  0.19129575881E+03  0.00000000000E+00 0.  1.
</event>
<event>
 4    1  0.1776638E+004  0.3828635E+02  0.7546771E-02  0.1358831E+00
         21   -1    0    0  503  502  0.00000000000E+00  0.00000000000E+00  0.37104610690E+02  0.37104610690E+02  0.00000000000E+00 0.  1.
         21   -1    0    0  501  503 -0.00000000000E+00 -0.00000000000E+00 -0.56767749944E+02  0.56767749944E+02  0.00000000000E+00 0. -1.
          2    1    1    2  501    0  0.36420566107E+02  0.11806228855E+02 -0.35713861439E+02  0.52357660129E+02  0.00000000000E+00 0. -1.
         -2    1    1    2    0  502 -0.36420566107E+02 -0.11806228855E+02  0.16050722185E+02  0.41514700505E+02  0.00000000000E+00 0.  1.
</event>
<event>
 4    1  0.1776638E+004  0.2911527E+02  0.7546771E-02  0.1427444E+00
         21   -1    0    0  503  502  0.00000000000E+00  0.00000000000E+00  0.15487924171E+03  0.15487924171E+03  0.00000000000E+00 0.  1.
         21   -1    0    0  501  503 -0.00000000000E+00 -0.00000000000E+00 -0.60818525972E+01  0.60818525972E+01  0.00000000000E+00 0. -1.
          2    1    1    2  501    0 -0.15754705423E+02 -0.24484450828E+02  0.48940626607E+02  0.56946325676E+02  0.00000000000E+00 0. -1.
         -2    1    1    2    0  502  0.15754705423E+02  0.24484450828E+02  0.99856762510E+02  0.10401476864E+03  0.00000000000E+00 0.  1.
</event>
<event>
 4    1  0.1776638E+004  0.2973735E+02  0.7546771E-02  0.1421893E+00
         21   -1    0    0  503  502  0.00000000000E+00  0.00000000000E+00  0.37094798499E+01  0.37094798499E+01  0.00000000000E+00 0. -1.
         21   -1    0    0  501  503 -0.00000000000E+00 -0.00000000000E+00 -0.26654131902E+03  0.26654131902E+03  0.00000000000E+00 0.  1.
          2    1    1    2  501    0  0.17542706818E+02 -0.24011731832E+02 -0.17532857397E+03  0.17783255798E+03  0.00000000000E+00 0. -1.
         -2    1    1    2    0  502 -0.17542706818E+02  0.24011731832E+02 -0.87503265196E+02  0.92418240883E+02  0.00000000000E+00 0.  1.
</event>
<event>
 4    1  0.1776638E+004  0.2026233E+02  0.7546771E-02  0.1530063E+00
         21   -1    0    0  503  502  0.00000000000E+00  0.00000000000E+00  0.79927171332E+02  0.79927171332E+02  0.00000000000E+00 0. -1.
         21   -1    0    0  501  503 -0.00000000000E+00 -0.00000000000E+00 -0.14118891572E+02  0.14118891572E+02  0.00000000000E+00 0.  1.
          2    1    1    2  501    0 -0.20259221555E+02  0.35505183276E+00 -0.46019173990E+01  0.20778348432E+02  0.00000000000E+00 0.  1.
         -2    1    1    2    0  502  0.20259221555E+02 -0.35505183276E+00  0.70410197160E+02  0.73267714471E+02  0.00000000000E+00 0. -1.
</event>
<event>
 4    1  0.1776638E+004  0.3565062E+02  0.7546771E-02  0.1376046E+00
         21   -1    0    0  501  502  0.00000000000E+00  0.00000000000E+00  0.14680078411E+04  0.14680078411E+04  0.00000000000E+00 0.  1.
         21   -1    0    0  502  503 -0.00000000000E+00 -0.00000000000E+00 -0.94229851305E+00  0.94229851305E+00  0.00000000000E+00 0. -1.
          2    1    1    2  501    0  0.10989295355E+02  0.33914629294E+02  0.94283603274E+03  0.94350980457E+03  0.00000000000E+00 0.  1.
         -2    1    1    2    0  503 -0.10989295355E+02 -0.33914629294E+02  0.52422950984E+03  0.52544033503E+03  0.00000000000E+00 0. -1.
</event>
<event>
 4    1  0.1776638E+004  0.2424731E+02  0.7546771E-02  0.1477403E+00
         21   -1    0    0  503  502  0.00000000000E+00  0.00000000000E+00  0.24364176763E+02  0.24364176763E+02  0.00000000000E+00 0.  1.
         21   -1    0    0  501  503 -0.00000000000E+00 -0.00000000000E+00 -0.29285647193E+02  0.29285647193E+02  0.00000000000E+00 0. -1.
          2    1    1    2  501    0 -0.22272839651E+01 -0.24144795059E+02 -0.13714825949E+02  0.27857285818E+02  0.00000000000E+00 0. -1.
         -2    1    1    2    0  502  0.22272839651E+01  0.24144795059E+02  0.87933555188E+01  0.25792538138E+02  0.00000000000E+00 0.  1.
</event>
<event>
 4    1  0.1776638E+004  0.3012913E+02  0.7546771E-02  0.1418478E+00
         21   -1    0    0  503  502  0.00000000000E+00  0.00000000000E+00  0.16589283679E+02  0.16589283679E+02  0.00000000000E+00 0.  1.
         21   -1    0    0  501  503 -0.00000000000E+00 -0.00000000000E+00 -0.15915106098E+03  0.15915106098E+03  0.00000000000E+00 0. -1.
          2    1    1    2  501    0  0.29230420791E+02 -0.73038943116E+01 -0.14245986018E+03  0.14561104399E+03  0.00000000000E+00 0. -1.
         -2    1    1    2    0  502 -0.29230420791E+02  0.73038943116E+01 -0.10191712911E+00  0.30129300669E+02  0.00000000000E+00 0.  1.
</event>
<event>
 4    1  0.1776638E+004  0.2472875E+02  0.7546771E-02  0.1471861E+00
         21   -1    0    0  503  502  0.00000000000E+00  0.00000000000E+00  0.33511195241E+02  0.33511195241E+02  0.00000000000E+00 0. -1.
         21   -1    0    0  501  503 -0.00000000000E+00 -0.00000000000E+00 -0.25265603488E+02  0.25265603488E+02  0.00000000000E+00 0.  1.
          2    1    1    2  501    0  0.11240842998E+02  0.22026221576E+02 -0.11365609629E+02  0.27215585066E+02  0.00000000000E+00 0.  1.
         -2    1    1    2    0  502 -0.11240842998E+02 -0.22026221576E+02  0.19611201382E+02  0.31561213663E+02  0.00000000000E+00 0. -1.
</event>
<event>
 4    1  0.1776638E+004  0.2289520E+02  0.7546771E-02  0.1493818E+00
         21   -1    0    0  501  502  0.00000000000E+00  0.00000000000E+00  0.14269765434E+03  0.14269765434E+03  0.00000000000E+00 0. -1.
         21   -1    0    0  502  503 -0.00000000000E+00 -0.00000000000E+00 -0.80983206070E+01  0.80983206070E+01  0.00000000000E+00 0.  1.
          2    1    1    2  501    0 -0.13558663596E+02 -0.18448650905E+02  0.12303280013E+03  0.12514495590E+03  0.00000000000E+00 0. -1.
         -2    1    1    2    0  503  0.13558663596E+02  0.18448650905E+02  0.11566533604E+02  0.25651019051E+02  0.00000000000E+00 0.  1.
</event>
<event>
 4    1  0.1776638E+004  0.2074357E+02  0.7546771E-02  0.1522958E+00
         21   -1    0    0  503  502  0.00000000000E+00  0.00000000000E+00  0.86978471332E+01  0.86978471332E+01  0.00000000000E+00 0.  1.
         21   -1    0    0  501  503 -0.00000000000E+00 -0.00000000000E+00 -0.56275696914E+02  0.56275696914E+02  0.00000000000E+00 0. -1.
          2    1    1    2  501    0  0.98077411524E+01  0.18278504007E+02 -0.35085186385E+02  0.40758628521E+02  0.00000000000E+00 0. -1.
         -2    1    1    2    0  502 -0.98077411524E+01 -0.18278504007E+02 -0.12492663396E+02  0.24214915526E+02  0.00000000000E+00 0.  1.
</event>
<event>
 4    1  0.1776638E+004  0.4730203E+02  0.7546771E-02  0.1310314E+00
         21   -1    0    0  501  502  0.00000000000E+00  0.00000000000E+00  0.22315293720E+03  0.22315293720E+03  0.00000000000E+00 0. -1.
         21   -1    0    0  502  503 -0.00000000000E+00 -0.00000000000E+00 -0.21918013770E+02  0.21918013770E+02  0.00000000000E+00 0.  1.
          2    1    1    2  501    0 -0.45499052844E+02  0.12935142351E+02  0.19087357755E+03  0.19664741118E+03  0.00000000000E+00 0. -1.
         -2    1    1    2    0  503  0.45499052844E+02 -0.12935142351E+02  0.10361345881E+02  0.48423539790E+02  0.00000000000E+00 0.  1.
</event>
<event>
 4    1  0.1776638E+004  0.2184333E+02  0.7546771E-02  0.1507557E+00
         21   -1    0    0  501  502  0.00000000000E+00  0.00000000000E+00  0.14728265175E+04  0.14728265175E+04  0.00000000000E+00 0.  1.
         21   -1    0    0  502  503 -0.00000000000E+00 -0.00000000000E+00 -0.32504388580E+00  0.32504388580E+00  0.00000000000E+00 0. -1.
          2    1    1    2  501    0 -0.80337623686E+01 -0.20312299482E+02  0.69363627940E+03  0.69398012864E+03  0.00000000000E+00 0.  1.
         -2    1    1    2    0  503  0.80337623686E+01  0.20312299482E+02  0.77886519423E+03  0.77917143276E+03  0.00000000000E+00 0. -1.
</event>
<event>
 4    1  0.1776638E+004  0.2308836E+02  0.7546771E-02  0.1491392E+00
         21   -1    0    0  501  502  0.00000000000E+00  0.00000000000E+00  0.11759600598E+02  0.11759600598E+02  0.00000000000E+00 0. -1.
         21   -1    0    0  502  503 -0.00000000000E+00 -0.00000000000E+00 -0.86716168179E+02  0.86716168179E+02  0.00000000000E+00 0.  1.
          2    1    1    2  501    0  0.39254184029E+01  0.22752215987E+02 -0.34631099947E+01  0.23346635150E+02  0.00000000000E+00 0. -1.
         -2    1    1    2    0  503 -0.39254184029E+01 -0.22752215987E+02 -0.71493457587E+02  0.75129133628E+02  0.00000000000E+00 0.  1.
</event>
<event>
 4    1  0.1776638E+004  0.2956814E+02  0.7546771E-02  0.1423387E+00
         21   -1    0    0  501  502  0.00000000000E+00  0.00000000000E+00  0.18365970040E+03  0.18365970040E+03  0.00000000000E+00 0.  1.
         21   -1    0    0  502  503 -0.00000000000E+00 -0.00000000000E+00 -0.13827774782E+02  0.13827774782E+02  0.00000000000E+00 0. -1.
          2    1    1    2  501    0 -0.27447681288E+02  0.10995430940E+02  0.16487667703E+03  0.16750699490E+03  0.00000000000E+00 0.  1.
         -2    1    1    2    0  503  0.27447681288E+02 -0.10995430940E+02  0.49552485858E+01  0.29980480286E+02  0.00000000000E+00 0. -1.
</event>
<event>
 4    1  0.1776638E+004  0.2107716E+02  0.7546771E-02  0.1518166E+00
         21   -1    0    0  503  502  0.00000000000E+00  0.00000000000E+00  0.45832959409E+02  0.45832959409E+02  0.00000000000E+00 0. -1.
         21   -1    0    0  501  503 -0.00000000000E+00 -0.00000000000E+00 -0.25477280228E+02  0.25477280228E+02  0.00000000000E+00 0.  1.
          2    1    1    2  501    0 -0.14741555869E+02 -0.15064300367E+02 -0.17886927324E+02  0.27643964695E+02  0.00000000000E+00 0.  1.
         -2    1    1    2    0  502  0.14741555869E+02  0.15064300367E+02  0.38242606505E+02  0.43666274942E+02  0.00000000000E+00 0. -1.
</event>
<event>
 4    1  0.1776638E+004  0.2139636E+02  0.7546771E-02  0.1513680E+00
         21   -1    0    0  501  502  0.00000000000E+00  0.00000000000E+00  0.71647219760E+02  0.71647219760E+02  0.00000000000E+00 0.  1.
         21   -1    0    0  502  503 -0.00000000000E+00 -0.00000000000E+00 -0.67427206960E+01  0.67427206960E+01  0.00000000000E+00 0. -1.
          2    1    1    2  501    0  0.38567255155E+01  0.21045898585E+02  0.41420616329E+02  0.46620506604E+02  0.00000000000E+00 0.  1.
         -2    1    1    2    0  503 -0.38567255155E+01 -0.21045898585E+02  0.23483882735E+02  0.31769433852E+02  0.00000000000E+00 0. -1.
</event>
<event>
 4    1  0.1776638E+004  0.2388528E+02  0.7546771E-02  0.1481671E+00
         21   -1    0    0  503  502  0.00000000000E+00  0.00000000000E+00  0.35160112997E+02  0.35160112997E+02  0.00000000000E+00 0.  1.
         21   -1    0    0  501  503 -0.00000000000E+00 -0.00000000000E+00 -0.32351901080E+02  0.32351901080E+02  0.00000000000E+00 0. -1.
          2    1    1    2  501    0 -0.13810001001E+02  0.19488216545E+02 -0.22428067565E+02  0.32764690239E+02  0.00000000000E+00 0. -1.
         -2    1    1    2    0  502  0.13810001001E+02 -0.19488216545E+02  0.25236279483E+02  0.34747323838E+02  0.00000000000E+00 0.  1.
</event>
<event>
 4    1  0.1776638E+004  0.2792820E+02  0.7546771E-02  0.1438501E+00
         21   -1    0    0  501  502  0.00000000000E+00  0.00000000000E+00  0.21331623963E+01  0.21331623963E+01  0.00000000000E+00 0.  1.
         21   -1    0    0  502  503 -0.00000000000E+00 -0.00000000000E+00 -0.49298547228E+03  0.49298547228E+03  0.00000000000E+00 0. -1.
          2    1    1    2  501    0  0.26371028221E+02 -0.91952706193E+01 -0.11960830112E+03  0.12282560738E+03  0.00000000000E+00 0.  1.
         -2    1    1    2    0  503 -0.26371028221E+02  0.91952706193E+01 -0.37124400876E+03  0.37229302729E+03  0.00000000000E+00 0. -1.
</event>
<event>
 4    1  0.1776638E+004  0.2390993E+02  0.7546771E-02  0.1481378E+00
         21   -1    0    0  503  502  0.00000000000E+00  0.00000000000E+00  0.62876886636E+01  0.62876886636E+01  0.00000000000E+00 0.  1.
         21   -1    0    0  501  503 -0.00000000000E+00 -0.00000000000E+00 -0.27402560539E+03  0.27402560539E+03  0.00000000000E+00 0. -1.
          2    1    1    2  501    0  0.18088553884E+02 -0.15636150132E+02 -0.24843802552E+03  0.24958593209E+03  0.00000000000E+00 0. -1.
         -2    1    1    2    0  502 -0.18088553884E+02  0.15636150132E+02 -0.19299891200E+02  0.30727361958E+02  0.00000000000E+00 0.  1.
</event>
<event>
 4    1  0.1776638E+004  0.2199215E+02  0.7546771E-02  0.1505557E+00
         21   -1    0    0  503  502  0.00000000000E+00  0.00000000000E+00  0.10908201841E+02  0.10908201841E+02  0.00000000000E+00 0. -1.
         21   -1    0    0  501  503 -0.00000000000E+00 -0.00000000000E+00 -0.53729541096E+02  0.53729541096E+02  0.00000000000E+00 0.  1.
          2    1    1    2  501    0 -0.17955274385E+02 -0.12698931893E+02 -0.34922165574E+02  0.41269993916E+02  0.00000000000E+00 0.  1.
         -2    1    1    2    0  502  0.17955274385E+02  0.12698931893E+02 -0.78991736802E+01  0.23367749021E+02  0.00000000000E+00 0. -1.
</event>
<event>
 4    1  0.1776638E+004  0.2101548E+02  0.7546771E-02  0.1519044E+00
         21   -1    0    0  503  502  0.00000000000E+00  0.00000000000E+00  0.12087371186E+02  0.12087371186E+02  0.00000000000E+00 0.  1.
         21   -1    0    0  501  503 -0.00000000000E+00 -0.00000000000E+00 -0.46236735869E+02  0.46236735869E+02  0.00000000000E+00 0. -1.
          2    1    1    2  501    0 -0.50785992166E+01 -0.20392606081E+02 -0.30430732434E+02  0.36982158255E+02  0.00000000000E+00 0. -1.
         -2    1    1    2    0  502  0.50785992166E+01  0.20392606081E+02 -0.37186322486E+01  0.21341948800E+02  0.00000000000E+00 0.  1.
</event>
<event>
 4    1  0.1776638E+004  0.2951940E+02  0.7546771E-02  0.1423819E+00
         21   -1    0    0  501  502  0.00000000000E+00  0.00000000000E+00  0.82292386516E+01  0.82292386516E+01  0.00000000000E+00 0. -1.
         21   -1    0    0  502  503 -0.00000000000E+00 -0.00000000000E+00 -0.12691725729E+03  0.12691725729E+03  0.00000000000E+00 0.  1.
          2    1    1    2  501    0  0.13555043497E+02  0.26223189417E+02 -0.31839444219E+02  0.43418257399E+02  0.00000000000E+00 0. -1.
         -2    1    1    2    0  503 -0.13555043497E+02 -0.26223189417E+02 -0.86848574419E+02  0.91728238542E+02  0.00000000000E+00 0.  1.
</event>
<event>
 4    1  0.1776638E+004  0.2550230E+02  0.7546771E-02  0.1463262E+00
         21   -1    0    0  501  502  0.00000000000E+00  0.00000000000E+00  0.17587910182E+03  0.17587910182E+03  0.00000000000E+00 0.  1.
         21   -1    0    0  502  503 -0.00000000000E+00 -0.00000000000E+00 -0.37662216833E+01  0.37662216833E+01  0.00000000000E+00 0. -1.
          2    1    1    2  501    0 -0.76295044710E+01  0.24334296881E+02  0.98162448616E+02  0.10142107109E+03  0.00000000000E+00 0. -1.
         -2    1    1    2    0  503  0.76295044710E+01 -0.24334296881E+02  0.73950431520E+02  0.78224252410E+02  0.00000000000E+00 0.  1.
</event>
<event>
 4    1  0.1776638E+004  0.6596704E+02  0.7546771E-02  0.1240804E+00
         21   -1    0    0  503  502  0.00000000000E+00  0.00000000000E+00  0.28151318388E+02  0.28151318388E+02  0.00000000000E+00 0. -1.
         21   -1    0    0  501  503 -0.00000000000E+00 -0.00000000000E+00 -0.19393196991E+03  0.19393196991E+03  0.00000000000E+00 0.  1.
          2    1    1    2  501    0  0.53306169000E+02 -0.38860034847E+02 -0.13290997721E+03  0.14838029520E+03  0.00000000000E+00 0.  1.
         -2    1    1    2    0  502 -0.53306169000E+02  0.38860034847E+02 -0.32870674312E+02  0.73702993097E+02  0.00000000000E+00 0. -1.
</event>
<event>
 4    1  0.1776638E+004  0.2096952E+02  0.7546771E-02  0.1519700E+00
         21   -1    0    0  503  502  0.00000000000E+00  0.00000000000E+00  0.18243657804E+02  0.18243657804E+02  0.00000000000E+00 0. -1.
         21   -1    0    0  501  503 -0.00000000000E+00 -0.00000000000E+00 -0.25080522346E+02  0.25080522346E+02  0.00000000000E+00 0.  1.
          2    1    1    2  501    0 -0.33635182503E+01  0.20698011364E+02 -0.76957145099E+01  0.22337075710E+02  0.00000000000E+00 0. -1.
         -2    1    1    2    0  502  0.33635182503E+01 -0.20698011364E+02  0.85884996804E+00  0.20987104439E+02  0.00000000000E+00 0.  1.
</event>
<event>
 4    1  0.1776638E+004  0.5057488E+02  0.7546771E-02  0.1295699E+00
         21   -1    0    0  503  502  0.00000000000E+00  0.00000000000E+00  0.38309233365E+02  0.38309233365E+02  0.00000000000E+00 0.  1.
         21   -1    0    0  501  503 -0.00000000000E+00 -0.00000000000E+00 -0.72820090320E+02  0.72820090320E+02  0.00000000000E+00 0. -1.
          2    1    1    2  501    0 -0.22206194555E+02  0.45439008012E+02 -0.12363565158E+01  0.50589990147E+02  0.00000000000E+00 0.  1.
         -2    1    1    2    0  502  0.22206194555E+02 -0.45439008012E+02 -0.33274500439E+02  0.60539333537E+02  0.00000000000E+00 0. -1.
</event>
<event>
 4    1  0.1776638E+004  0.3120139E+02  0.7546771E-02  0.1409436E+00
         21   -1    0    0  503  502  0.00000000000E+00  0.00000000000E+00  0.63771528642E+02  0.63771528642E+02  0.00000000000E+00 0.  1.
         21   -1    0    0  501  503 -0.00000000000E+00 -0.00000000000E+00 -0.15270476597E+02  0.15270476597E+02  0.00000000000E+00 0. -1.
          2    1    1    2  501    0  0.80295500856E+01  0.30150511999E+02  0.23563148556E+02  0.39099220174E+02  0.00000000000E+00 0. -1.
         -2    1    1    2    0  502 -0.80295500856E+01 -0.30150511999E+02  0.24937903489E+02  0.39942785065E+02  0.00000000000E+00 0.  1.
</event>
<event>
 4    1  0.1776638E+004  0.3174597E+02  0.7546771E-02  0.1405007E+00
         21   -1    0    0  503  502  0.00000000000E+00  0.00000000000E+00  0.79650690785E+02  0.79650690785E+02  0.00000000000E+00 0.  1.
         21   -1    0    0  501  503 -0.00000000000E+00 -0.00000000000E+00 -0.25783387976E+02  0.25783387976E+02  0.00000000000E+00 0. -1.
          2    1    1    2  501    0  0.51645089904E+01 -0.31323070820E+02 -0.10686674643E+02  0.33496446582E+02  0.00000000000E+00 0. -1.
         -2    1    1    2    0  502 -0.51645089904E+01  0.31323070820E+02  0.64553977451E+02  0.71937632179E+02  0.00000000000E+00 0.  1.
</event>
<event>
 4    1  0.1776638E+004  0.2216092E+02  0.7546771E-02  0.1503312E+00
         21   -1    0    0  501  502  0.00000000000E+00  0.00000000000E+00  0.11980164277E+03  0.11980164277E+03  0.00000000000E+00 0.  1.
         21   -1    0    0  502  503 -0.00000000000E+00 -0.00000000000E+00 -0.52693960415E+01  0.52693960415E+01  0.00000000000E+00 0. -1.
          2    1    1    2  501    0 -0.57311176425E+01 -0.21407025064E+02  0.86734186075E+02  0.89520530973E+02  0.00000000000E+00 0.  1.
         -2    1    1    2    0  503  0.57311176425E+01  0.21407025064E+02  0.27798060655E+02  0.35550507841E+02  0.00000000000E+00 0. -1.
</event>
<event>
 4    1  0.1776638E+004  0.2219546E+02  0.7546771E-02  0.1502856E+00
         21   -1    0    0  501  502  0.00000000000E+00  0.00000000000E+00  0.14413940792E+02  0.14413940792E+02  0.00000000000E+00 0.  1.
         21   -1    0    0  502  503 -0.00000000000E+00 -0.00000000000E+00 -0.40659991291E+02  0.40659991291E+02  0.00000000000E+00 0. -1.
          2    1    1    2  501    0  0.19205887631E+02 -0.11125293185E+02 -0.21281596637E+01  0.22297249420E+02  0.00000000000E+00 0.  1.
         -2    1    1    2    0  503 -0.19205887631E+02  0.11125293185E+02 -0.24117890835E+02  0.32776682664E+02  0.00000000000E+00 0. -1.
</event>
<event>
 4    1  0.1776638E+004  0.3536326E+02  0.7546771E-02  0.1378027E+00
         21   -1    0    0  501  502  0.00000000000E+00  0.00000000000E+00  0.11284854408E+02  0.11284854408E+02  0.00000000000E+00 0. -1.
         21   -1    0    0  502  503 -0.00000000000E+00 -0.00000000000E+00 -0.25620343093E+03  0.25620343093E+03  0.00000000000E+00 0.  1.
          2    1    1    2  501    0 -0.26055792669E+02  0.23909327101E+02 -0.21709678614E+02  0.41495426249E+02  0.00000000000E+00 0. -1.
         -2    1    1    2    0  503  0.26055792669E+02 -0.23909327101E+02 -0.22320889790E+03  0.22599285908E+03  0.00000000000E+00 0.  1.
</event>
<event>
 4    1  0.1776638E+004  0.2102656E+02  0.7546771E-02  0.1518886E+00
         21   -1    0    0  501  502  0.00000000000E+00  0.00000000000E+00  0.33629996076E+03  0.33629996076E+03  0.00000000000E+00 0. -1.
         21   -1    0    0  502  503 -0.00000000000E+00 -0.00000000000E+00 -0.24146222726E+01  0.24146222726E+01  0.00000000000E+00 0.  1.
          2    1    1    2  501    0 -0.16216462190E+02  0.13384415481E+02  0.28124904956E+03  0.28203394140E+03  0.00000000000E+00 0. -1.
         -2    1    1    2    0  503  0.16216462190E+02 -0.13384415481E+02  0.52636288928E+02  0.56680641632E+02  0.00000000000E+00 0.  1.
</event>
<event>
 4    1  0.1776638E+004  0.2538982E+02  0.7546771E-02  0.1464489E+00
         21   -1    0    0  503  502  0.00000000000E+00  0.00000000000E+00  0.14495645920E+03  0.14495645920E+03  0.00000000000E+00 0. -1.
         21   -1    0    0  501  503 -0.00000000000E+00 -0.00000000000E+00 -0.46391236515E+01  0.46391236515E+01  0.00000000000E+00 0.  1.
          2    1    1    2  501    0  0.14252701366E+02 -0.21011986280E+02  0.54942964391E+02  0.60525799456E+02  0.00000000000E+00 0.  1.
         -2    1    1    2    0  502 -0.14252701366E+02  0.21011986280E+02  0.85374371161E+02  0.89069783399E+02  0.00000000000E+00 0. -1.
</event>
<event>
 4    1  0.1776638E+004  0.2547630E+02  0.7546771E-02  0.1463545E+00
         21   -1    0    0  501  502  0.00000000000E+00  0.00000000000E+00  0.89599679268E+02  0.89599679268E+02  0.00000000000E+00 0. -1.
         21   -1    0    0  502  503 -0.00000000000E+00 -0.00000000000E+00 -0.79531995949E+01  0.79531995949E+01  0.00000000000E+00 0.  1.
          2    1    1    2  501    0  0.25459406015E+02  0.92766461901E+00  0.55390753804E+02  0.60968660172E+02  0.00000000000E+00 0. -1.
         -2    1    1    2    0  503 -0.25459406015E+02 -0.92766461901E+00  0.26255725870E+02  0.36584218691E+02  0.00000000000E+00 0.  1.
</event>
<event>
 4    1  0.1776638E+004  0.2007995E+02  0.7546771E-02  0.1532817E+00
         21   -1    0    0  503  502  0.00000000000E+00  0.00000000000E+00  0.20891896031E+01  0.20891896031E+01  0.00000000000E+00 0.  1.
         21   -1    0    0  501  503 -0.00000000000E+00 -0.00000000000E+00 -0.27484307217E+03  0.27484307217E+03  0.00000000000E+00 0. -1.
          2    1    1    2  501    0  0.17669877082E+02  0.95383254613E+01 -0.60814837761E+02  0.64044115269E+02  0.00000000000E+00 0.  1.
         -2    1    1    2    0  502 -0.17669877082E+02 -0.95383254613E+01 -0.21193904480E+03  0.21288814650E+03  0.00000000000E+00 0. -1.
</event>
<event>
 4    1  0.1776638E+004  0.2234475E+02  0.7546771E-02  0.1500894E+00
         21   -1    0    0  503  502  0.00000000000E+00  0.00000000000E+00  0.15593332553E+03  0.15593332553E+03  0.00000000000E+00 0.  1.
         21   -1    0    0  501  503 -0.00000000000E+00 -0.00000000000E+00 -0.44748393841E+01  0.44748393841E+01  0.00000000000E+00 0. -1.
          2    1    1    2  501    0  0.18059441412E+02  0.13158428478E+02  0.32952628051E+02  0.39814110057E+02  0.00000000000E+00 0. -1.
         -2    1    1    2    0  502 -0.18059441412E+02 -0.13158428478E+02  0.11850585809E+03  0.12059405485E+03  0.00000000000E+00 0.  1.
</event>
<event>
 4    1  0.1776638E+004  0.2179663E+02  0.7546771E-02  0.1508188E+00
         21   -1    0    0  501  502  0.00000000000E+00  0.00000000000E+00  0.15019344637E+01  0.15019344637E+01  0.00000000000E+00 0.  1.
         21   -1    0    0  502  503 -0.00000000000E+00 -0.00000000000E+00 -0.39273891378E+03  0.39273891378E+03  0.00000000000E+00 0. -1.
          2    1    1    2  501    0 -0.59543880922E+01  0.20967553840E+02 -0.28257015959E+03  0.28340957666E+03  0.00000000000E+00 0. -1.
         -2    1    1    2    0  503  0.59543880922E+01 -0.20967553840E+02 -0.10866681973E+03  0.11083127159E+03  0.00000000000E+00 0.  1.
</event>
<event>
 4    1  0.1776638E+004  0.2226625E+02  0.7546771E-02  0.1501923E+00
         21   -1    0    0  503  502  0.00000000000E+00  0.00000000000E+00  0.11791476595E+03  0.11791476595E+03  0.00000000000E+00 0. -1.
         21   -1    0    0  501  503 -0.00000000000E+00 -0.00000000000E+00 -0.43145023955E+01  0.43145023955E+01  0.00000000000E+00 0.  1.
          2    1    1    2  501    0 -0.13617635509E+02  0.17616643101E+02  0.47046750899E+02  0.52049811538E+02  0.00000000000E+00 0.  1.
         -2    1    1    2    0  502  0.13617635509E+02 -0.17616643101E+02  0.66553512653E+02  0.70179456805E+02  0.00000000000E+00 0. -1.
</event>
<event>
 4    1  0.1776638E+004  0.2011612E+02  0.7546771E-02  0.1532268E+00
         21   -1    0    0  503  502  0.00000000000E+00  0.00000000000E+00  0.14835559844E+02  0.14835559844E+02  0.00000000000E+00 0.  1.
         21   -1    0    0  501  503 -0.00000000000E+00 -0.00000000000E+00 -0.67243818499E+02  0.67243818499E+02  0.00000000000E+00 0. -1.
          2    1    1    2  501    0  0.18760056161E+02 -0.72607437873E+01 -0.57843793461E+02  0.61241836594E+02  0.00000000000E+00 0. -1.
         -2    1    1    2    0  502 -0.18760056161E+02  0.72607437873E+01  0.54355348062E+01  0.20837541749E+02  0.00000000000E+00 0.  1.
</event>
<event>
 4    1  0.1776638E+004  0.2106163E+02  0.7546771E-02  0.1518387E+00
         21   -1    0    0  501  502  0.00000000000E+00  0.00000000000E+00  0.65617481634E+02  0.65617481634E+02  0.00000000000E+00 0.  1.
         21   -1    0    0  502  503 -0.00000000000E+00 -0.00000000000E+00 -0.68119503188E+01  0.68119503188E+01  0.00000000000E+00 0. -1.
          2    1    1    2  501    0 -0.80935128374E+01 -0.19444470372E+02  0.32556904784E+02  0.38775564822E+02  0.00000000000E+00 0.  1.
         -2    1    1    2    0  503  0.80935128374E+01  0.19444470372E+02  0.26248626531E+02  0.33653867131E+02  0.00000000000E+00 0. -1.
</event>
<event>
 4    1  0.1776638E+004  0.2190221E+02  0.7546771E-02  0.1506763E+00
         21   -1    0    0  503  502  0.00000000000E+00  0.00000000000E+00  0.62196726269E+01  0.62196726269E+01  0.00000000000E+00 0.  1.
         21   -1    0    0  501  503 -0.00000000000E+00 -0.00000000000E+00 -0.77301916492E+02  0.77301916492E+02  0.00000000000E+00 0. -1.
          2    1    1    2  501    0  0.10928502381E+02  0.18980898451E+02 -0.37525815748E+02  0.43449896638E+02  0.00000000000E+00 0.  1.
         -2    1    1    2    0  502 -0.10928502381E+02 -0.18980898451E+02 -0.33556428116E+02  0.40071692480E+02  0.00000000000E+00 0. -1.
</event>
<event>
 4    1  0.1776638E+004  0.3281999E+02  0.7546771E-02  0.1396573E+00
         21   -1    0    0  503  502  0.00000000000E+00  0.00000000000E+00  0.13393758034E+03  0.13393758034E+03  0.00000000000E+00 0.  1.
         21   -1    0    0  501  503 -0.00000000000E+00 -0.00000000000E+00 -0.11032540458E+02  0.11032540458E+02  0.00000000000E+00 0. -1.
          2    1    1    2  501    0  0.25367691149E+02 -0.20823828071E+02  0.23715141180E+02  0.40491474299E+02  0.00000000000E+00 0. -1.
         -2    1    1    2    0  502 -0.25367691149E+02  0.20823828071E+02  0.99189898704E+02  0.10447864650E+03  0.00000000000E+00 0.  1.
</event>
<event>
 4    1  0.1776638E+004  0.3069674E+02  0.7546771E-02  0.1413637E+00
         21   -1    0    0  503  502  0.00000000000E+00  0.00000000000E+00  0.61492494997E+03  0.61492494997E+03  0.00000000000E+00 0.  1.
         21   -1    0    0  501  503 -0.00000000000E+00 -0.00000000000E+00 -0.24263224110E+01  0.24263224110E+01  0.00000000000E+00 0. -1.
          2    1    1    2  501    0 -0.30384095970E+02 -0.43699792517E+01  0.11888524882E+03  0.12278433285E+03  0.00000000000E+00 0. -1.
         -2    1    1    2    0  502  0.30384095970E+02  0.43699792517E+01  0.49361337873E+03  0.49456693953E+03  0.00000000000E+00 0.  1.
</event>
<event>
 4    1  0.1776638E+004  0.2031200E+02  0.7546771E-02  0.1529318E+00
         21   -1    0    0  501  502  0.00000000000E+00  0.00000000000E+00  0.25472175381E+04  0.25472175381E+04  0.00000000000E+00 0. -1.
         21   -1    0    0  502  503 -0.00000000000E+00 -0.00000000000E+00 -0.16197242457E+00  0.16197242457E+00  0.00000000000E+00 0.  1.
          2    1    1    2  501    0 -0.20226983704E+02 -0.18564830348E+01  0.12710183464E+04  0.12711806379E+04  0.00000000000E+00 0.  1.
         -2    1    1    2    0  503  0.20226983704E+02  0.18564830348E+01  0.12760372193E+04  0.12761988726E+04  0.00000000000E+00 0. -1.
</event>
<event>
 4    1  0.1776638E+004  0.2047778E+02  0.7546771E-02  0.1526853E+00
         21   -1    0    0  503  502  0.00000000000E+00  0.00000000000E+00  0.21005677125E+02  0.21005677125E+02  0.00000000000E+00 0. -1.
         21   -1    0    0  501  503 -0.00000000000E+00 -0.00000000000E+00 -0.21016027166E+02  0.21016027166E+02  0.00000000000E+00 0.  1.
          2    1    1    2  501    0 -0.19118993384E+02  0.73350971219E+01 -0.47079746799E+01  0.21012010456E+02  0.00000000000E+00 0.  1.
         -2    1    1    2    0  502  0.19118993384E+02 -0.73350971219E+01  0.46976246385E+01  0.21009693835E+02  0.00000000000E+00 0. -1.
</event>
<event>
 4    1  0.1776638E+004  0.2647766E+02  0.7546771E-02  0.1452927E+00
         21   -1    0    0  503  502  0.00000000000E+00  0.00000000000E+00  0.12967611728E+03  0.12967611728E+03  0.00000000000E+00 0.  1.
         21   -1    0    0  501  503 -0.00000000000E+00 -0.00000000000E+00 -0.57665152455E+01  0.57665152455E+01  0.00000000000E+00 0. -1.
          2    1    1    2  501    0 -0.21419331778E+02  0.15565297502E+02  0.45028667284E+02  0.52236454106E+02  0.00000000000E+00 0. -1.
         -2    1    1    2    0  502  0.21419331778E+02 -0.15565297502E+02  0.78880934752E+02  0.83206178421E+02  0.00000000000E+00 0.  1.
</event>
<event>
 4    1  0.1776638E+004  0.4819010E+02  0.7546771E-02  0.1306216E+00
         21   -1    0    0  501  502  0.00000000000E+00  0.00000000000E+00  0.54033926247E+03  0.54033926247E+03  0.00000000000E+00 0. -1.
         21   -1    0    0  502  503 -0.00000000000E+00 -0.00000000000E+00 -0.48010360164E+01  0.48010360164E+01  0.00000000000E+00 0.  1.
          2    1    1    2  501    0  0.34708101626E+02 -0.33431020186E+02  0.35601295594E+03  0.35925966964E+03  0.00000000000E+00 0. -1.
         -2    1    1    2    0  503 -0.34708101626E+02  0.33431020186E+02  0.17952527051E+03  0.18588062885E+03  0.00000000000E+00 0.  1.
</event>
<event>
 4    1  0.1776638E+004  0.2402204E+02  0.7546771E-02  0.1480048E+00
         21   -1    0    0  503  502  0.00000000000E+00  0.00000000000E+00  0.23880544345E+02  0.23880544345E+02  0.00000000000E+00 0. -1.
         21   -1    0    0  501  503 -0.00000000000E+00 -0.00000000000E+00 -0.26654870576E+02  0.26654870576E+02  0.00000000000E+00 0.  1.
          2    1    1    2  501    0 -0.11007900846E+02 -0.21351453218E+02 -0.91107744922E+01  0.25691723325E+02  0.00000000000E+00 0. -1.
         -2    1    1    2    0  502  0.11007900846E+02  0.21351453218E+02  0.63364482606E+01  0.24843691596E+02  0.00000000000E+00 0.  1.
</event>
<event>
 4    1  0.1776638E+004  0.2979908E+02  0.7546771E-02  0.1421351E+00
         21   -1    0    0  501  502  0.00000000000E+00  0.00000000000E+00  0.87450244090E+01  0.87450244090E+01  0.00000000000E+00 0.  1.
         21   -1    0    0  502  503 -0.00000000000E+00 -0.00000000000E+00 -0.10705521414E+03  0.10705521414E+03  0.00000000000E+00 0. -1.
          2    1    1    2  501    0  0.16952824905E+02  0.24506879045E+02 -0.62294824361E+02  0.69055271594E+02  0.00000000000E+00 0. -1.
         -2    1    1    2    0  503 -0.16952824905E+02 -0.24506879045E+02 -0.36015365365E+02  0.46744966950E+02  0.00000000000E+00 0.  1.
</event>
<event>
 4    1  0.1776638E+004  0.2295528E+02  0.7546771E-02  0.1493060E+00
         21   -1    0    0  501  502  0.00000000000E+00  0.00000000000E+00  0.22813477077E+02  0.22813477077E+02  0.00000000000E+00 0.  1.
         21   -1    0    0  502  503 -0.00000000000E+00 -0.00000000000E+00 -0.24019900413E+02  0.24019900413E+02  0.00000000000E+00 0. -1.
          2    1    1    2  501    0  0.22186887144E+02  0.58895642607E+01  0.39844331552E+01  0.23298511452E+02  0.00000000000E+00 0.  1.
         -2    1    1    2    0  503 -0.22186887144E+02 -0.58895642607E+01 -0.51908564909E+01  0.23534866038E+02  0.00000000000E+00 0. -1.
</event>
<event>
 4    1  0.1776638E+004  0.2193925E+02  0.7546771E-02  0.1506266E+00
         21   -1    0    0  501  502  0.00000000000E+00  0.00000000000E+00  0.39756257649E+02  0.39756257649E+02  0.00000000000E+00 0. -1.
         21   -1    0    0  502  503 -0.00000000000E+00 -0.00000000000E+00 -0.47083299897E+02  0.47083299897E+02  0.00000000000E+00 0.  1.
          2    1    1    2  501    0 -0.19706711790E+02  0.96424087967E+01  0.33759673091E+02  0.40262216335E+02  0.00000000000E+00 0. -1.
         -2    1    1    2    0  503  0.19706711790E+02 -0.96424087967E+01 -0.41086715338E+02  0.46577341211E+02  0.00000000000E+00 0.  1.
</event>
<event>
 4    1  0.1776638E+004  0.2532974E+02  0.7546771E-02  0.1465148E+00
         21   -1    0    0  501  502  0.00000000000E+00  0.00000000000E+00  0.67797198129E+01  0.67797198129E+01  0.00000000000E+00 0. -1.
         21   -1    0    0  502  503 -0.00000000000E+00 -0.00000000000E+00 -0.12086915449E+03  0.12086915449E+03  0.00000000000E+00 0.  1.
          2    1    1    2  501    0 -0.13523221314E+02 -0.21417708199E+02 -0.27309815763E+02  0.37248111042E+02  0.00000000000E+00 0.  1.
         -2    1    1    2    0  503  0.13523221314E+02  0.21417708199E+02 -0.86779618915E+02  0.90400763261E+02  0.00000000000E+00 0. -1.
</event>
<event>
 4    1  0.1776638E+004  0.3481614E+02  0.7546771E-02  0.1381860E+00
         21   -1    0    0  501  502  0.00000000000E+00  0.00000000000E+00  0.19288725753E+03  0.19288725753E+03  0.00000000000E+00 0.  1.
         21   -1    0    0  502  503 -0.00000000000E+00 -0.00000000000E+00 -0.72066870051E+01  0.72066870051E+01  0.00000000000E+00 0. -1.
          2    1    1    2  501    0 -0.34532760237E+02  0.44330936680E+01  0.12863259372E+03  0.13326105214E+03  0.00000000000E+00 0.  1.
         -2    1    1    2    0  503  0.34532760237E+02 -0.44330936680E+01  0.57047976805E+02  0.66832892400E+02  0.00000000000E+00 0. -1.
</event>
<event>
 4    1  0.1776638E+004  0.2233430E+02  0.7546771E-02  0.1501031E+00
         21   -1    0    0  503  502  0.00000000000E+00  0.00000000000E+00  0.41523611846E+01  0.41523611846E+01  0.00000000000E+00 0. -1.
         21   -1    0    0  501  503 -0.00000000000E+00 -0.00000000000E+00 -0.12730827415E+03  0.12730827415E+03  0.00000000000E+00 0.  1.
          2    1    1    2  501    0  0.22239216234E+02 -0.20586839888E+01 -0.77186546955E+02  0.80352871444E+02  0.00000000000E+00 0.  1.
         -2    1    1    2    0  502 -0.22239216234E+02  0.20586839888E+01 -0.45969366010E+02  0.51107763890E+02  0.00000000000E+00 0. -1.
</event>
<event>
 4    1  0.1776638E+004  0.2297030E+02  0.7546771E-02  0.1492871E+00
         21   -1    0    0  501  502  0.00000000000E+00  0.00000000000E+00  0.12255991281E+03  0.12255991281E+03  0.00000000000E+00 0. -1.
         21   -1    0    0  502  503 -0.00000000000E+00 -0.00000000000E+00 -0.46364894668E+01  0.46364894668E+01  0.00000000000E+00 0.  1.
          2    1    1    2  501    0  0.17664720869E+02 -0.14683063287E+02  0.75964051350E+02  0.79361021971E+02  0.00000000000E+00 0. -1.
         -2    1    1    2    0  503 -0.17664720869E+02  0.14683063287E+02  0.41959371992E+02  0.47835380304E+02  0.00000000000E+00 0.  1.
</event>
<event>
 4    1  0.1776638E+004  0.2068537E+02  0.7546771E-02  0.1523805E+00
         21   -1    0    0  501  502  0.00000000000E+00  0.00000000000E+00  0.75899764423E+02  0.75899764423E+02  0.00000000000E+00 0. -1.
         21   -1    0    0  502  503 -0.00000000000E+00 -0.00000000000E+00 -0.15255099907E+02  0.15255099907E+02  0.00000000000E+00 0.  1.
          2    1    1    2  501    0  0.16019236130E+02  0.13086969601E+02  0.66511262436E+02  0.69653662720E+02  0.00000000000E+00 0. -1.
         -2    1    1    2    0  503 -0.16019236130E+02 -0.13086969601E+02 -0.58665979193E+01  0.21501201610E+02  0.00000000000E+00 0.  1.
</event>
<event>
 4    1  0.1776638E+004  0.3271700E+02  0.7546771E-02  0.1397365E+00
         21   -1    0    0  501  502  0.00000000000E+00  0.00000000000E+00  0.29331596916E+01  0.29331596916E+01  0.00000000000E+00 0. -1.
         21   -1    0    0  502  503 -0.00000000000E+00 -0.00000000000E+00 -0.57162362472E+03  0.57162362472E+03  0.00000000000E+00 0.  1.
          2    1    1    2  501    0 -0.26900895641E+02 -0.18621065129E+02 -0.45709198121E+03  0.45826136815E+03  0.00000000000E+00 0.  1.
         -2    1    1    2    0  503  0.26900895641E+02  0.18621065129E+02 -0.11159848382E+03  0.11629541627E+03  0.00000000000E+00 0. -1.
</event>
<event>
 4    1  0.1776638E+004  0.2183951E+02  0.7546771E-02  0.1507608E+00
         21   -1    0    0  503  502  0.00000000000E+00  0.00000000000E+00  0.19920461628E+03  0.19920461628E+03  0.00000000000E+00 0. -1.
         21   -1    0    0  501  503 -0.00000000000E+00 -0.00000000000E+00 -0.38133233988E+01  0.38133233988E+01  0.00000000000E+00 0.  1.
          2    1    1    2  501    0  0.94747128780E+01  0.19677246604E+02  0.15961704675E+03  0.16110420799E+03  0.00000000000E+00 0. -1.
         -2    1    1    2    0  502 -0.94747128780E+01 -0.19677246604E+02  0.35774246130E+02  0.41913731690E+02  0.00000000000E+00 0.  1.
</event>
<event>
 4    1  0.1776638E+004  0.3165245E+02  0.7546771E-02  0.1405760E+00
         21   -1    0    0  501  502  0.00000000000E+00  0.00000000000E+00  0.83081007617E+02  0.83081007617E+02  0.00000000000E+00 0.  1.
         21   -1    0    0  502  503 -0.00000000000E+00 -0.00000000000E+00 -0.12061809782E+02  0.12061809782E+02  0.00000000000E+00 0. -1.
          2    1    1    2  501    0 -0.26544924786E+02 -0.17240774691E+02  0.36230243734E+02  0.48109332825E+02  0.00000000000E+00 0. -1.
         -2    1    1    2    0  503  0.26544924786E+02  0.17240774691E+02  0.34788954101E+02  0.47033484575E+02  0.00000000000E+00 0.  1.
</event>
<event>
 4    1  0.1776638E+004  0.2061503E+02  0.7546771E-02  0.1524833E+00
         21   -1    0    0  501  502  0.00000000000E+00  0.00000000000E+00  0.11549161284E+03  0.11549161284E+03  0.00000000000E+00 0.  1.
         21   -1    0    0  502  503 -0.00000000000E+00 -0.00000000000E+00 -0.15031324299E+02  0.15031324299E+02  0.00000000000E+00 0. -1.
          2    1    1    2  501    0 -0.17967090713E+02 -0.10107568866E+02  0.10694364139E+03  0.10891244984E+03  0.00000000000E+00 0.  1.
         -2    1    1    2    0  503  0.17967090713E+02  0.10107568866E+02 -0.64833528480E+01  0.21610487297E+02  0.00000000000E+00 0. -1.
</event>
<event>
 4    1  0.1776638E+004  0.2416576E+02  0.7546771E-02  0.1478356E+00
         21   -1    0    0  501  502  0.00000000000E+00  0.00000000000E+00  0.48239004242E+01  0.48239004242E+01  0.00000000000E+00 0. -1.
         21   -1    0    0  502  503 -0.00000000000E+00 -0.00000000000E+00 -0.12160553508E+03  0.12160553508E+03  0.00000000000E+00 0.  1.
          2    1    1    2  501    0  0.11676457945E+02 -0.21157609158E+02 -0.54158978335E+02  0.59305809410E+02  0.00000000000E+00 0.  1.
         -2    1    1    2    0  503 -0.11676457945E+02  0.21157609158E+02 -0.62622656321E+02  0.67123626095E+02  0.00000000000E+00 0. -1.
</event>
<event>
 4    1  0.1776638E+004  0.2118957E+02  0.7546771E-02  0.1516575E+00
         21   -1    0    0  503  502  0.00000000000E+00  0.00000000000E+00  0.68955620710E+02  0.68955620710E+02  0.00000000000E+00 0. -1.
         21   -1    0    0  501  503 -0.00000000000E+00 -0.00000000000E+00 -0.15860721380E+03  0.15860721380E+03  0.00000000000E+00 0.  1.
          2    1    1    2  501    0  0.81759191045E-01 -0.21189416114E+02 -0.15624716624E+03  0.15767743973E+03  0.00000000000E+00 0.  1.
         -2    1    1    2    0  502 -0.81759191045E-01  0.21189416114E+02  0.66595573155E+02  0.69885394781E+02  0.00000000000E+00 0. -1.
</event>
<event>
 4    1  0.1776638E+004  0.4447545E+02  0.7546771E-02  0.1324083E+00
         21   -1    0    0  501  502  0.00000000000E+00  0.00000000000E+00  0.25678350056E+02  0.25678350056E+02  0.00000000000E+00 0. -1.
         21   -1    0    0  502  503 -0.00000000000E+00 -0.00000000000E+00 -0.79067528748E+02  0.79067528748E+02  0.00000000000E+00 0.  1.
          2    1    1    2  501    0  0.42394951882E+02 -0.13443730248E+02 -0.18292252438E+02  0.48090251895E+02  0.00000000000E+00 0. -1.
         -2    1    1    2    0  503 -0.42394951882E+02  0.13443730248E+02 -0.35096926253E+02  0.56655626909E+02  0.00000000000E+00 0.  1.
</event>
<event>
 4    1  0.1776638E+004  0.4007117E+02  0.7546771E-02  0.1348069E+00
         21   -1    0    0  501  502  0.00000000000E+00  0.00000000000E+00  0.11955553777E+04  0.11955553777E+04  0.00000000000E+00 0. -1.
         21   -1    0    0  502  503 -0.00000000000E+00 -0.00000000000E+00 -0.16562733416E+01  0.16562733416E+01  0.00000000000E+00 0.  1.
          2    1    1    2  501    0 -0.10424687298E+02  0.38691400821E+02  0.85726346538E+03  0.85819948012E+03  0.00000000000E+00 0. -1.
         -2    1    1    2    0  503  0.10424687298E+02 -0.38691400821E+02  0.33663563900E+03  0.33901217094E+03  0.00000000000E+00 0.  1.
</event>
<event>
 4    1  0.1776638E+004  0.2498005E+02  0.7546771E-02  0.1469027E+00
         21   -1    0    0  501  502  0.00000000000E+00  0.00000000000E+00  0.44254727398E+03  0.44254727398E+03  0.00000000000E+00 0.  1.
         21   -1    0    0  502  503 -0.00000000000E+00 -0.00000000000E+00 -0.13556652901E+02  0.13556652901E+02  0.00000000000E+00 0. -1.
          2    1    1    2  501    0 -0.55772473964E+01 -0.24349477239E+02  0.43036190531E+03  0.43108627010E+03  0.00000000000E+00 0.  1.
         -2    1    1    2    0  503  0.55772473964E+01  0.24349477239E+02 -0.13712842289E+01  0.25017656780E+02  0.00000000000E+00 0. -1.
</event>
<event>
 4    1  0.1776638E+004  0.2033238E+02  0.7546771E-02  0.1529014E+00
         21   -1    0    0  501  502  0.00000000000E+00  0.00000000000E+00  0.22688331139E+02  0.22688331139E+02  0.00000000000E+00 0. -1.
         21   -1    0    0  502  503 -0.00000000000E+00 -0.00000000000E+00 -0.18431574572E+02  0.18431574572E+02  0.00000000000E+00 0.  1.
          2    1    1    2  501    0 -0.40833347093E+01  0.19918135778E+02  0.43255691281E+01  0.20787407330E+02  0.00000000000E+00 0. -1.
         -2    1    1    2    0  503  0.40833347093E+01 -0.19918135778E+02 -0.68812560629E-01  0.20332498380E+02  0.00000000000E+00 0.  1.
</event>
<event>
 4    1  0.1776638E+004  0.2058028E+02  0.7546771E-02  0.1525343E+00
         21   -1    0    0  501  502  0.00000000000E+00  0.00000000000E+00  0.11542618271E+02  0.11542618271E+02  0.00000000000E+00 0.  1.
         21   -1    0    0  502  503 -0.00000000000E+00 -0.00000000000E+00 -0.10085867576E+03  0.10085867576E+03  0.00000000000E+00 0. -1.
          2    1    1    2  501    0 -0.20395245225E+02 -0.27534928795E+01  0.16816167459E+00  0.20580962785E+02  0.00000000000E+00 0.  1.
         -2    1    1    2    0  503  0.20395245225E+02  0.27534928795E+01 -0.89484219159E+02  0.91820331241E+02  0.00000000000E+00 0. -1.
</event>
<event>
 4    1  0.1776638E+004  0.2125388E+02  0.7546771E-02  0.1515671E+00
         21   -1    0    0  503  502  0.00000000000E+00  0.00000000000E+00  0.20051154596E+03  0.20051154596E+03  0.00000000000E+00 0.  1.
         21   -1    0    0  501  503 -0.00000000000E+00 -0.00000000000E+00 -0.64460979260E+01  0.64460979260E+01  0.00000000000E+00 0. -1.
          2    1    1    2  501    0 -0.19335275418E+02 -0.88246647570E+01  0.13572995536E+02  0.25218124264E+02  0.00000000000E+00 0. -1.
         -2    1    1    2    0  502  0.19335275418E+02  0.88246647570E+01  0.18049245250E+03  0.18173951962E+03  0.00000000000E+00 0.  1.
</event>
<event>
 4    1  0.1776638E+004  0.5385795E+02  0.7546771E-02  0.1282260E+00
         21   -1    0    0  503  502  0.00000000000E+00  0.00000000000E+00  0.59044543991E+02  0.59044543991E+02  0.00000000000E+00 0. -1.
         21   -1    0    0  501  503 -0.00000000000E+00 -0.00000000000E+00 -0.14478122421E+03  0.14478122421E+03  0.00000000000E+00 0.  1.
          2    1    1    2  501    0 -0.53311083524E+02  0.76555140962E+01 -0.12570549114E+03  0.13675726316E+03  0.00000000000E+00 0.  1.
         -2    1    1    2    0  502  0.53311083524E+02 -0.76555140962E+01  0.39968810922E+02  0.67068505046E+02  0.00000000000E+00 0. -1.
</event>
<event>
 4    1  0.1776638E+004  0.2293392E+02  0.7546771E-02  0.1493330E+00
         21   -1    0    0  503  502  0.00000000000E+00  0.00000000000E+00  0.53054901627E+03  0.53054901627E+03  0.00000000000E+00 0.  1.
         21   -1    0    0  501  503 -0.00000000000E+00 -0.00000000000E+00 -0.17280419076E+01  0.17280419076E+01  0.00000000000E+00 0. -1.
          2    1    1    2  501    0  0.11282516272E+02  0.19966713174E+02  0.90642101765E+02  0.93498424697E+02  0.00000000000E+00 0. -1.
         -2    1    1    2    0  502 -0.11282516272E+02 -0.19966713174E+02  0.43817887259E+03  0.43877863348E+03  0.00000000000E+00 0.  1.
</event>
<event>
 4    1  0.1776638E+004  0.4781799E+02  0.7546771E-02  0.1307921E+00
         21   -1    0    0  501  502  0.00000000000E+00  0.00000000000E+00  0.23678191322E+02  0.23678191322E+02  0.00000000000E+00 0.  1.
         21   -1    0    0  502  503 -0.00000000000E+00 -0.00000000000E+00 -0.13631951929E+03  0.13631951929E+03  0.00000000000E+00 0. -1.
          2    1    1    2  501    0 -0.15959442156E+01 -0.47791348989E+02 -0.13120979153E+02  0.49585483461E+02  0.00000000000E+00 0.  1.
         -2    1    1    2    0  503  0.15959442156E+01  0.47791348989E+02 -0.99520348820E+02  0.11041222715E+03  0.00000000000E+00 0. -1.
</event>
<event>
 4    1  0.1776638E+004  0.2022912E+02  0.7546771E-02  0.1530562E+00
         21   -1    0    0  503  502  0.00000000000E+00  0.00000000000E+00  0.14703318130E+03  0.14703318130E+03  0.00000000000E+00 0.  1.
         21   -1    0    0  501  503 -0.00000000000E+00 -0.00000000000E+00 -0.43145403180E+01  0.43145403180E+01  0.00000000000E+00 0. -1.
          2    1    1    2  501    0 -0.55995097590E+01 -0.19438697332E+02  0.26275617186E+02  0.33160601955E+02  0.00000000000E+00 0. -1.
         -2    1    1    2    0  502  0.55995097590E+01  0.19438697332E+02  0.11644302380E+03  0.11818711967E+03  0.00000000000E+00 0.  1.
</event>
<event>
 4    1  0.1776638E+004  0.2539853E+02  0.7546771E-02  0.1464394E+00
         21   -1    0    0  503  502  0.00000000000E+00  0.00000000000E+00  0.71334422439E+02  0.71334422439E+02  0.00000000000E+00 0. -1.
         21   -1    0    0  501  503 -0.00000000000E+00 -0.00000000000E+00 -0.23017017325E+02  0.23017017325E+02  0.00000000000E+00 0.  1.
          2    1    1    2  501    0  0.10155859656E+02  0.23279684333E+02 -0.12599385043E+02  0.28351890439E+02  0.00000000000E+00 0.  1.
         -2    1    1    2    0  502 -0.10155859656E+02 -0.23279684333E+02  0.60916790158E+02  0.65999549325E+02  0.00000000000E+00 0. -1.
</event>
<event>
 4    1  0.1776638E+004  0.2540740E+02  0.7546771E-02  0.1464297E+00
         21   -1    0    0  501  502  0.00000000000E+00  0.00000000000E+00  0.62176221379E+02  0.62176221379E+02  0.00000000000E+00 0.  1.
         21   -1    0    0  502  503 -0.00000000000E+00 -0.00000000000E+00 -0.45521611217E+02  0.45521611217E+02  0.00000000000E+00 0. -1.
          2    1    1    2  501    0 -0.14443716229E+02  0.20902514349E+02  0.55638551898E+02  0.61165222978E+02  0.00000000000E+00 0.  1.
         -2    1    1    2    0  503  0.14443716229E+02 -0.20902514349E+02 -0.38983941736E+02  0.46532609618E+02  0.00000000000E+00 0. -1.
</event>
<event>
 4    1  0.1776638E+004  0.2151265E+02  0.7546771E-02  0.1512070E+00
         21   -1    0    0  503  502  0.00000000000E+00  0.00000000000E+00  0.22159723615E+03  0.22159723615E+03  0.00000000000E+00 0.  1.
         21   -1    0    0  501  503 -0.00000000000E+00 -0.00000000000E+00 -0.34511377745E+01  0.34511377745E+01  0.00000000000E+00 0. -1.
          2    1    1    2  501    0 -0.21119204436E+02 -0.40955367845E+01  0.38365905100E+02  0.43985644154E+02  0.00000000000E+00 0. -1.
         -2    1    1    2    0  502  0.21119204436E+02  0.40955367845E+01  0.17978019327E+03  0.18106272977E+03  0.00000000000E+00 0.  1.
</event>
<event>
 4    1  0.1776638E+004  0.3482117E+02  0.7546771E-02  0.1381825E+00
         21   -1    0    0  501  502  0.00000000000E+00  0.00000000000E+00  0.61015310822E+02  0.61015310822E+02  0.00000000000E+00 0. -1.
         21   -1    0    0  502  503 -0.00000000000E+00 -0.00000000000E+00 -0.36062857291E+02  0.36062857291E+02  0.00000000000E+00 0.  1.
          2    1    1    2  501    0 -0.32761002251E+02  0.11799592232E+02  0.44999377384E+02  0.56898660883E+02  0.00000000000E+00 0. -1.
         -2    1    1    2    0  503  0.32761002251E+02 -0.11799592232E+02 -0.20046923853E+02  0.40179507230E+02  0.00000000000E+00 0.  1.
</event>
<event>
 4    1  0.1776638E+004  0.2004608E+02  0.7546771E-02  0.1533332E+00
         21   -1    0    0  501  502  0.00000000000E+00  0.00000000000E+00  0.10246597802E+04  0.10246597802E+04  0.00000000000E+00 0.  1.
         21   -1    0    0  502  503 -0.00000000000E+00 -0.00000000000E+00 -0.44085611105E+00  0.44085611105E+00  0.00000000000E+00 0. -1.
          2    1    1    2  501    0  0.15655831145E+02 -0.12519587888E+02  0.68243190724E+03  0.68272626516E+03  0.00000000000E+00 0.  1.
         -2    1    1    2    0  503 -0.15655831145E+02  0.12519587888E+02  0.34178701684E+03  0.34237437113E+03  0.00000000000E+00 0. -1.
</event>
<event>
 4    1  0.1776638E+004  0.2000261E+02  0.7546771E-02  0.1533996E+00
         21   -1    0    0  503  502  0.00000000000E+00  0.00000000000E+00  0.87764838431E+01  0.87764838431E+01  0.00000000000E+00 0. -1.
         21   -1    0    0  501  503 -0.00000000000E+00 -0.00000000000E+00 -0.92522297203E+02  0.92522297203E+02  0.00000000000E+00 0.  1.
          2    1    1    2  501    0 -0.11379707451E+02  0.16450126001E+02 -0.77946973336E+02  0.80472573212E+02  0.00000000000E+00 0.  1.
         -2    1    1    2    0  502  0.11379707451E+02 -0.16450126001E+02 -0.57988400242E+01  0.20826207834E+02  0.00000000000E+00 0. -1.
</event>
<event>
 4    1  0.1776638E+004  0.2757264E+02  0.7546771E-02  0.1441939E+00
         21   -1    0    0  501  502  0.00000000000E+00  0.00000000000E+00  0.67237298799E+02  0.67237298799E+02  0.00000000000E+00 0.  1.
         21   -1    0    0  502  503 -0.00000000000E+00 -0.00000000000E+00 -0.13266109599E+02  0.13266109599E+02  0.00000000000E+00 0. -1.
          2    1    1    2  501    0  0.26911341741E+02 -0.60025217784E+01  0.42453959639E+02  0.50622023577E+02  0.00000000000E+00 0.  1.
         -2    1    1    2    0  503 -0.26911341741E+02  0.60025217784E+01  0.11517229562E+02  0.29881384821E+02  0.00000000000E+00 0. -1.
</event>
<event>
 4    1  0.1776638E+004  0.4208250E+02  0.7546771E-02  0.1336696E+00
         21   -1    0    0  501  502  0.00000000000E+00  0.00000000000E+00  0.31822779536E+02  0.31822779536E+02  0.00000000000E+00 0. -1.
         21   -1    0    0  502  503 -0.00000000000E+00 -0.00000000000E+00 -0.60452357824E+02  0.60452357824E+02  0.00000000000E+00 0.  1.
          2    1    1    2  501    0  0.32812077955E+02 -0.26349654059E+02 -0.13107971334E+01  0.42102908662E+02  0.00000000000E+00 0. -1.
         -2    1    1    2    0  503 -0.32812077955E+02  0.26349654059E+02 -0.27318781154E+02  0.50172228697E+02  0.00000000000E+00 0.  1.
</event>
<event>
 4    1  0.1776638E+004  0.2013343E+02  0.7546771E-02  0.1532006E+00
         21   -1    0    0  501  502  0.00000000000E+00  0.00000000000E+00  0.85647577864E+02  0.85647577864E+02  0.00000000000E+00 0.  1.
         21   -1    0    0  502  503 -0.00000000000E+00 -0.00000000000E+00 -0.23933435597E+02  0.23933435597E+02  0.00000000000E+00 0. -1.
          2    1    1    2  501    0 -0.75847165061E+01  0.18650122730E+02  0.79932071754E+02  0.82428703115E+02  0.00000000000E+00 0.  1.
         -2    1    1    2    0  503  0.75847165061E+01 -0.18650122730E+02 -0.18217929487E+02  0.27152310346E+02  0.00000000000E+00 0. -1.
</event>
<event>
 4    1  0.1776638E+004  0.3111443E+02  0.7546771E-02  0.1410153E+00
         21   -1    0    0  501  502  0.00000000000E+00  0.00000000000E+00  0.10675950382E+04  0.10675950382E+04  0.00000000000E+00 0.  1.
         21   -1    0    0  502  503 -0.00000000000E+00 -0.00000000000E+00 -0.90747681572E+00  0.90747681572E+00  0.00000000000E+00 0. -1.
          2    1    1    2  501    0 -0.68668012588E+01  0.30347232549E+02  0.51887826055E+03  0.51981030843E+03  0.00000000000E+00 0.  1.
         -2    1    1    2    0  503  0.68668012588E+01 -0.30347232549E+02  0.54780930084E+03  0.54869220659E+03  0.00000000000E+00 0. -1.
</event>
<event>
 4    1  0.1776638E+004  0.2401100E+02  0.7546771E-02  0.1480179E+00
         21   -1    0    0  503  502  0.00000000000E+00  0.00000000000E+00  0.39582107329E+02  0.39582107329E+02  0.00000000000E+00 0. -1.
         21   -1    0    0  501  503 -0.00000000000E+00 -0.00000000000E+00 -0.14978048356E+02  0.14978048356E+02  0.00000000000E+00 0.  1.
          2    1    1    2  501    0 -0.22750821672E+02  0.76764674049E+01  0.16830211107E+02  0.29322074355E+02  0.00000000000E+00 0.  1.
         -2    1    1    2    0  502  0.22750821672E+02 -0.76764674049E+01  0.77738478656E+01  0.25238081330E+02  0.00000000000E+00 0. -1.
</event>
