<event>
 4    1  0.1842931E+004  0.2657345E+02  0.7546771E-02  0.1451941E+00
         21   -1    0    0  503  502  0.00000000000E+00  0.00000000000E+00  0.41182755350E+01  0.41182755350E+01  0.00000000000E+00 0.  1.
         21   -1    0    0  501  503 -0.00000000000E+00 -0.00000000000E+00 -0.34187130735E+03  0.34187130735E+03  0.00000000000E+00 0. -1.
          2    1    1    2  501    0  0.71675650122E+01 -0.25588552776E+02 -0.29101206447E+03  0.29222280830E+03  0.00000000000E+00 0. -1.
         -2    1    1    2    0  502 -0.71675650122E+01  0.25588552776E+02 -0.46740967345E+02  0.53766774589E+02  0.00000000000E+00 0.  1.
</event>
<event>
 4    1  0.1842931E+004  0.5271975E+02  0.7546771E-02  0.1286792E+00
         21   -1    0    0  503  502  0.00000000000E+00  0.00000000000E+00  0.92175994476E+02  0.92175994476E+02  0.00000000000E+00 0. -1.
         21   -1    0    0  501  503 -0.00000000000E+00 -0.00000000000E+00 -0.11804565287E+03  0.11804565287E+03  0.00000000000E+00 0.  1.
          2    1    1    2  501    0 -0.29629064734E+02  0.43606079141E+02 -0.10363310381E+03  0.11627205950E+03  0.00000000000E+00 0.  1.
         -2    1    1    2    0  502  0.29629064734E+02 -0.43606079141E+02  0.77763445411E+02  0.93949587851E+02  0.00000000000E+00 0. -1.
</event>
<event>
 4    1  0.1842931E+004  0.2019309E+02  0.7546771E-02  0.1531104E+00
         21   -1    0    0  503  502  0.00000000000E+00  0.00000000000E+00  0.14618450381E+02  0.14618450381E+02  0.00000000000E+00 0.  1.
         21   -1    0    0  501  503 -0.00000000000E+00 -0.00000000000E+00 -0.49315855484E+02  0.49315855484E+02  0.00000000000E+00 0. -1.
          2    1    1    2  501    0  0.17872441538E+02  0.93987554114E+01 -0.38417685607E+02  0.43401374831E+02  0.00000000000E+00 0. -1.
         -2    1    1    2    0  502 -0.17872441538E+02 -0.93987554114E+01  0.37202805043E+01  0.20532931034E+02  0.00000000000E+00 0.  1.
</event>
<event>
 4    1  0.1842931E+004  0.2403337E+02  0.7546771E-02  0.1479914E+00
         21   -1    0    0  501  502  0.00000000000E+00  0.00000000000E+00  0.28110210429E+02  0.28110210429E+02  0.00000000000E+00 0.  1.
         21   -1    0    0  502  503 -0.00000000000E+00 -0.00000000000E+00 -0.24415369496E+02  0.24415369496E+02  0.00000000000E+00 0. -1.
          2    1    1    2  501    0 -0.88973638335E+01  0.22325760675E+02  0.12300130190E+02  0.26998071702E+02  0.00000000000E+00 0. -1.
         -2    1    1    2    0  503  0.88973638335E+01 -0.22325760675E+02 -0.86052892569E+01  0.25527508224E+02  0.00000000000E+00 0.  1.
</event>
<event>
 4    1  0.1842931E+004  0.2356544E+02  0.7546771E-02  0.1485517E+00
         21   -1    0    0  501  502  0.00000000000E+00  0.00000000000E+00  0.48205566338E+02  0.48205566338E+02  0.00000000000E+00 0.  1.
         21   -1    0    0  502  503 -0.00000000000E+00 -0.00000000000E+00 -0.14083877289E+02  0.14083877289E+02  0.00000000000E+00 0. -1.
          2    1    1    2  501    0  0.11653985727E+02  0.20482052494E+02  0.30349128846E+02  0.38423944089E+02  0.00000000000E+00 0.  1.
         -2    1    1    2    0  503 -0.11653985727E+02 -0.20482052494E+02  0.37725602035E+01  0.23865499538E+02  0.00000000000E+00 0. -1.
</event>
<event>
 4    1  0.1842931E+004  0.2359682E+02  0.7546771E-02  0.1485137E+00
         21   -1    0    0  503  502  0.00000000000E+00  0.00000000000E+00  0.86114395249E+01  0.86114395249E+01  0.00000000000E+00 0. -1.
         21   -1    0    0  501  503 -0.00000000000E+00 -0.00000000000E+00 -0.86858438141E+02  0.86858438141E+02  0.00000000000E+00 0.  1.
          2    1    1    2  501    0 -0.19300487479E+02  0.13575751248E+02 -0.63255771035E+02  0.67513720147E+02  0.00000000000E+00 0. -1.
         -2    1    1    2    0  502  0.19300487479E+02 -0.13575751248E+02 -0.14991227582E+02  0.27956157520E+02  0.00000000000E+00 0.  1.
</event>
<event>
 4    1  0.1842931E+004  0.3623958E+02  0.7546771E-02  0.1372052E+00
         21   -1    0    0  501  502  0.00000000000E+00  0.00000000000E+00  0.65360437784E+03  0.65360437784E+03  0.00000000000E+00 0.  1.
         21   -1    0    0  502  503 -0.00000000000E+00 -0.00000000000E+00 -0.22632551523E+01  0.22632551523E+01  0.00000000000E+00 0. -1.
          2    1    1    2  501    0  0.24694955181E+02  0.26522946257E+02  0.43551334079E+03  0.43701850933E+03  0.00000000000E+00 0. -1.
         -2    1    1    2    0  503 -0.24694955181E+02 -0.26522946257E+02  0.21582778190E+03  0.21884912366E+03  0.00000000000E+00 0.  1.
</event>
<event>
 4    1  0.1842931E+004  0.2667658E+02  0.7546771E-02  0.1450884E+00
         21   -1    0    0  501  502  0.00000000000E+00  0.00000000000E+00  0.27466286458E+01  0.27466286458E+01  0.00000000000E+00 0. -1.
         21   -1    0    0  502  503 -0.00000000000E+00 -0.00000000000E+00 -0.30257529461E+03  0.30257529461E+03  0.00000000000E+00 0.  1.
          2    1    1    2  501    0  0.26637889681E+02 -0.14361942268E+01 -0.92044299495E+02  0.95832107825E+02  0.00000000000E+00 0. -1.
         -2    1    1    2    0  503 -0.26637889681E+02  0.14361942268E+01 -0.20778436647E+03  0.20948981544E+03  0.00000000000E+00 0.  1.
</event>
<event>
 4    1  0.1842931E+004  0.2206138E+02  0.7546771E-02  0.1504633E+00
         21   -1    0    0  501  502  0.00000000000E+00  0.00000000000E+00  0.49641950822E+02  0.49641950822E+02  0.00000000000E+00 0.  1.
         21   -1    0    0  502  503 -0.00000000000E+00 -0.00000000000E+00 -0.99665688790E+01  0.99665688790E+01  0.00000000000E+00 0. -1.
          2    1    1    2  501    0 -0.13221048384E+02  0.17660921902E+02  0.16034649226E+02  0.27272958376E+02  0.00000000000E+00 0.  1.
         -2    1    1    2    0  503  0.13221048384E+02 -0.17660921902E+02  0.23640732717E+02  0.32335561325E+02  0.00000000000E+00 0. -1.
</event>
<event>
 4    1  0.1842931E+004  0.2037018E+02  0.7546771E-02  0.1528450E+00
         21   -1    0    0  503  502  0.00000000000E+00  0.00000000000E+00  0.28869549989E+01  0.28869549989E+01  0.00000000000E+00 0.  1.
         21   -1    0    0  501  503 -0.00000000000E+00 -0.00000000000E+00 -0.16124127989E+03  0.16124127989E+03  0.00000000000E+00 0. -1.
          2    1    1    2  501    0  0.15162831275E+02  0.13602681951E+02 -0.10622072886E+03  0.10815631118E+03  0.00000000000E+00 0. -1.
         -2    1    1    2    0  502 -0.15162831275E+02 -0.13602681951E+02 -0.52133596028E+02  0.55971923706E+02  0.00000000000E+00 0.  1.
</event>
<event>
 4    1  0.1842931E+004  0.5253093E+02  0.7546771E-02  0.1287557E+00
         21   -1    0    0  503  502  0.00000000000E+00  0.00000000000E+00  0.16482196145E+03  0.16482196145E+03  0.00000000000E+00 0. -1.
         21   -1    0    0  501  503 -0.00000000000E+00 -0.00000000000E+00 -0.56116554886E+02  0.56116554886E+02  0.00000000000E+00 0.  1.
          2    1    1    2  501    0 -0.52200650620E+02 -0.58813640683E+01 -0.38181464462E+02  0.64940916200E+02  0.00000000000E+00 0.  1.
         -2    1    1    2    0  502  0.52200650620E+02  0.58813640683E+01  0.14688687103E+03  0.15599760014E+03  0.00000000000E+00 0. -1.
</event>
<event>
 4    1  0.1842931E+004  0.2222750E+02  0.7546771E-02  0.1502433E+00
         21   -1    0    0  501  502  0.00000000000E+00  0.00000000000E+00  0.11845209960E+02  0.11845209960E+02  0.00000000000E+00 0. -1.
         21   -1    0    0  502  503 -0.00000000000E+00 -0.00000000000E+00 -0.43516310757E+02  0.43516310757E+02  0.00000000000E+00 0.  1.
          2    1    1    2  501    0 -0.21551137882E+02 -0.54415464208E+01 -0.10195722744E+02  0.24454339773E+02  0.00000000000E+00 0. -1.
         -2    1    1    2    0  503  0.21551137882E+02  0.54415464208E+01 -0.21475378052E+02  0.30907180944E+02  0.00000000000E+00 0.  1.
</event>
<event>
 4    1  0.1842931E+004  0.2237743E+02  0.7546771E-02  0.1500467E+00
         21   -1    0    0  501  502  0.00000000000E+00  0.00000000000E+00  0.10363172223E+02  0.10363172223E+02  0.00000000000E+00 0. -1.
         21   -1    0    0  502  503 -0.00000000000E+00 -0.00000000000E+00 -0.18652089894E+03  0.18652089894E+03  0.00000000000E+00 0.  1.
          2    1    1    2  501    0 -0.51877477175E+00 -0.22371411247E+02 -0.33420426568E+01  0.22625614192E+02  0.00000000000E+00 0. -1.
         -2    1    1    2    0  503  0.51877477175E+00  0.22371411247E+02 -0.17281568406E+03  0.17425845697E+03  0.00000000000E+00 0.  1.
</event>
<event>
 4    1  0.1842931E+004  0.4055715E+02  0.7546771E-02  0.1345251E+00
         21   -1    0    0  503  502  0.00000000000E+00  0.00000000000E+00  0.30967193292E+02  0.30967193292E+02  0.00000000000E+00 0.  1.
         21   -1    0    0  501  503 -0.00000000000E+00 -0.00000000000E+00 -0.89279610974E+02  0.89279610974E+02  0.00000000000E+00 0. -1.
          2    1    1    2  501    0 -0.50401810096E+01  0.40242751580E+02 -0.67420851878E+02  0.78679436623E+02  0.00000000000E+00 0. -1.
         -2    1    1    2    0  502  0.50401810096E+01 -0.40242751580E+02  0.91084341951E+01  0.41567367644E+02  0.00000000000E+00 0.  1.
</event>
<event>
 4    1  0.1842931E+004  0.2055898E+02  0.7546771E-02  0.1525656E+00
         21   -1    0    0  501  502  0.00000000000E+00  0.00000000000E+00  0.14172939134E+03  0.14172939134E+03  0.00000000000E+00 0. -1.
         21   -1    0    0  502  503 -0.00000000000E+00 -0.00000000000E+00 -0.23745973787E+02  0.23745973787E+02  0.00000000000E+00 0.  1.
          2    1    1    2  501    0  0.19744626491E+02  0.57290084624E+01  0.13635964831E+03  0.13790078136E+03  0.00000000000E+00 0. -1.
         -2    1    1    2    0  503 -0.19744626491E+02 -0.57290084624E+01 -0.18376230753E+02  0.27574583767E+02  0.00000000000E+00 0.  1.
</event>
<event>
 4    1  0.1842931E+004  0.2063855E+02  0.7546771E-02  0.1524488E+00
         21   -1    0    0  503  502  0.00000000000E+00  0.00000000000E+00  0.11050454801E+02  0.11050454801E+02  0.00000000000E+00 0. -1.
         21   -1    0    0  501  503 -0.00000000000E+00 -0.00000000000E+00 -0.79887895980E+02  0.79887895980E+02  0.00000000000E+00 0.  1.
          2    1    1    2  501    0  0.31457019741E+01  0.20397409344E+02 -0.67128099343E+02  0.70229135480E+02  0.00000000000E+00 0.  1.
         -2    1    1    2    0  502 -0.31457019741E+01 -0.20397409344E+02 -0.17093418359E+01  0.20709215300E+02  0.00000000000E+00 0. -1.
</event>
<event>
 4    1  0.1842931E+004  0.3155879E+02  0.7546771E-02  0.1406517E+00
         21   -1    0    0  501  502  0.00000000000E+00  0.00000000000E+00  0.33678554047E+01  0.33678554047E+01  0.00000000000E+00 0. -1.
         21   -1    0    0  502  503 -0.00000000000E+00 -0.00000000000E+00 -0.58696472171E+03  0.58696472171E+03  0.00000000000E+00 0.  1.
          2    1    1    2  501    0  0.12834437404E+02  0.28831133552E+02 -0.83883108930E+02  0.89623283856E+02  0.00000000000E+00 0. -1.
         -2    1    1    2    0  503 -0.12834437404E+02 -0.28831133552E+02 -0.49971375737E+03  0.50070929325E+03  0.00000000000E+00 0.  1.
</event>
<event>
 4    1  0.1842931E+004  0.2222655E+02  0.7546771E-02  0.1502446E+00
         21   -1    0    0  501  502  0.00000000000E+00  0.00000000000E+00  0.27616590967E+02  0.27616590967E+02  0.00000000000E+00 0. -1.
         21   -1    0    0  502  503 -0.00000000000E+00 -0.00000000000E+00 -0.96495050904E+02  0.96495050904E+02  0.00000000000E+00 0.  1.
          2    1    1    2  501    0 -0.72985587683E+01  0.20994057348E+02  0.21569970635E+02  0.30972294671E+02  0.00000000000E+00 0. -1.
         -2    1    1    2    0  503  0.72985587683E+01 -0.20994057348E+02 -0.90448430571E+02  0.93139347200E+02  0.00000000000E+00 0.  1.
</event>
<event>
 4    1  0.1842931E+004  0.2388802E+02  0.7546771E-02  0.1481638E+00
         21   -1    0    0  503  502  0.00000000000E+00  0.00000000000E+00  0.18661612230E+03  0.18661612230E+03  0.00000000000E+00 0. -1.
         21   -1    0    0  501  503 -0.00000000000E+00 -0.00000000000E+00 -0.33816602117E+01  0.33816602117E+01  0.00000000000E+00 0.  1.
          2    1    1    2  501    0  0.22423911072E+02  0.82344279422E+01  0.62218929177E+02  0.66647075999E+02  0.00000000000E+00 0.  1.
         -2    1    1    2    0  502 -0.22423911072E+02 -0.82344279422E+01  0.12101553291E+03  0.12335070651E+03  0.00000000000E+00 0. -1.
</event>
<event>
 4    1  0.1842931E+004  0.2082004E+02  0.7546771E-02  0.1521850E+00
         21   -1    0    0  503  502  0.00000000000E+00  0.00000000000E+00  0.48513421302E+01  0.48513421302E+01  0.00000000000E+00 0.  1.
         21   -1    0    0  501  503 -0.00000000000E+00 -0.00000000000E+00 -0.10532719238E+03  0.10532719238E+03  0.00000000000E+00 0. -1.
          2    1    1    2  501    0 -0.62344396660E+01  0.19864688684E+02 -0.71692912987E+02  0.74654858294E+02  0.00000000000E+00 0. -1.
         -2    1    1    2    0  502  0.62344396660E+01 -0.19864688684E+02 -0.28782937267E+02  0.35523676220E+02  0.00000000000E+00 0.  1.
</event>
<event>
 4    1  0.1842931E+004  0.2475151E+02  0.7546771E-02  0.1471603E+00
         21   -1    0    0  501  502  0.00000000000E+00  0.00000000000E+00  0.24647050917E+03  0.24647050917E+03  0.00000000000E+00 0. -1.
         21   -1    0    0  502  503 -0.00000000000E+00 -0.00000000000E+00 -0.24867775510E+01  0.24867775510E+01  0.00000000000E+00 0.  1.
          2    1    1    2  501    0 -0.23556701084E+02  0.75972977652E+01  0.12465351693E+03  0.12708712123E+03  0.00000000000E+00 0.  1.
         -2    1    1    2    0  503  0.23556701084E+02 -0.75972977652E+01  0.11933021469E+03  0.12187016549E+03  0.00000000000E+00 0. -1.
</event>
<event>
 4    1  0.1842931E+004  0.2409119E+02  0.7546771E-02  0.1479232E+00
         21   -1    0    0  501  502  0.00000000000E+00  0.00000000000E+00  0.17550674618E+03  0.17550674618E+03  0.00000000000E+00 0.  1.
         21   -1    0    0  502  503 -0.00000000000E+00 -0.00000000000E+00 -0.33652203609E+01  0.33652203609E+01  0.00000000000E+00 0. -1.
          2    1    1    2  501    0 -0.17284846099E+02  0.16781525176E+02  0.97843250900E+02  0.10076550619E+03  0.00000000000E+00 0.  1.
         -2    1    1    2    0  503  0.17284846099E+02 -0.16781525176E+02  0.74298274918E+02  0.78106460346E+02  0.00000000000E+00 0. -1.
</event>
<event>
 4    1  0.1842931E+004  0.3088759E+02  0.7546771E-02  0.1412037E+00
         21   -1    0    0  501  502  0.00000000000E+00  0.00000000000E+00  0.29937383647E+02  0.29937383647E+02  0.00000000000E+00 0. -1.
         21   -1    0    0  502  503 -0.00000000000E+00 -0.00000000000E+00 -0.41587499078E+02  0.41587499078E+02  0.00000000000E+00 0.  1.
          2    1    1    2  501    0  0.30657440859E+02 -0.37636006374E+01  0.11463890476E+02  0.32946383028E+02  0.00000000000E+00 0. -1.
         -2    1    1    2    0  503 -0.30657440859E+02  0.37636006374E+01 -0.23114005907E+02  0.38578499697E+02  0.00000000000E+00 0.  1.
</event>
<event>
 4    1  0.1842931E+004  0.3606567E+02  0.7546771E-02  0.1373222E+00
         21   -1    0    0  503  502  0.00000000000E+00  0.00000000000E+00  0.40396136852E+01  0.40396136852E+01  0.00000000000E+00 0.  1.
         21   -1    0    0  501  503 -0.00000000000E+00 -0.00000000000E+00 -0.35979045530E+03  0.35979045530E+03  0.00000000000E+00 0. -1.
          2    1    1    2  501    0 -0.32589085307E+02 -0.15449406341E+02 -0.11891405896E+03  0.12426297138E+03  0.00000000000E+00 0.  1.
         -2    1    1    2    0  502  0.32589085307E+02  0.15449406341E+02 -0.23683678266E+03  0.23956709761E+03  0.00000000000E+00 0. -1.
</event>
<event>
 4    1  0.1842931E+004  0.2423058E+02  0.7546771E-02  0.1477598E+00
         21   -1    0    0  503  502  0.00000000000E+00  0.00000000000E+00  0.31641725649E+02  0.31641725649E+02  0.00000000000E+00 0. -1.
         21   -1    0    0  501  503 -0.00000000000E+00 -0.00000000000E+00 -0.21324908893E+02  0.21324908893E+02  0.00000000000E+00 0.  1.
          2    1    1    2  501    0 -0.28809837097E+00 -0.24228870139E+02 -0.43857889272E+01  0.24624302902E+02  0.00000000000E+00 0. -1.
         -2    1    1    2    0  502  0.28809837097E+00  0.24228870139E+02  0.14702605684E+02  0.28342331640E+02  0.00000000000E+00 0.  1.
</event>
<event>
 4    1  0.1842931E+004  0.2307226E+02  0.7546771E-02  0.1491593E+00
         21   -1    0    0  501  502  0.00000000000E+00  0.00000000000E+00  0.48102290804E+01  0.48102290804E+01  0.00000000000E+00 0. -1.
         21   -1    0    0  502  503 -0.00000000000E+00 -0.00000000000E+00 -0.12131117085E+03  0.12131117085E+03  0.00000000000E+00 0.  1.
          2    1    1    2  501    0  0.12688023822E+02 -0.19270271668E+02 -0.39570226368E+02  0.45805372321E+02  0.00000000000E+00 0. -1.
         -2    1    1    2    0  503 -0.12688023822E+02  0.19270271668E+02 -0.76930715399E+02  0.80316027606E+02  0.00000000000E+00 0.  1.
</event>
<event>
 4    1  0.1842931E+004  0.3921710E+02  0.7546771E-02  0.1353136E+00
         21   -1    0    0  501  502  0.00000000000E+00  0.00000000000E+00  0.91758702757E+02  0.91758702757E+02  0.00000000000E+00 0.  1.
         21   -1    0    0  502  503 -0.00000000000E+00 -0.00000000000E+00 -0.25146867328E+02  0.25146867328E+02  0.00000000000E+00 0. -1.
          2    1    1    2  501    0  0.31720767322E+02  0.23060226507E+02  0.67060554908E+02  0.77685900591E+02  0.00000000000E+00 0.  1.
         -2    1    1    2    0  503 -0.31720767322E+02 -0.23060226507E+02 -0.44871947882E+00  0.39219669494E+02  0.00000000000E+00 0. -1.
</event>
<event>
 4    1  0.1842931E+004  0.2165480E+02  0.7546771E-02  0.1510118E+00
         21   -1    0    0  503  502  0.00000000000E+00  0.00000000000E+00  0.33520423743E+02  0.33520423743E+02  0.00000000000E+00 0. -1.
         21   -1    0    0  501  503 -0.00000000000E+00 -0.00000000000E+00 -0.18867468125E+02  0.18867468125E+02  0.00000000000E+00 0.  1.
          2    1    1    2  501    0 -0.95581291081E+01 -0.19431220493E+02 -0.59924310735E+01  0.22468631290E+02  0.00000000000E+00 0.  1.
         -2    1    1    2    0  502  0.95581291081E+01  0.19431220493E+02  0.20645386691E+02  0.29919260578E+02  0.00000000000E+00 0. -1.
</event>
<event>
 4    1  0.1842931E+004  0.2026494E+02  0.7546771E-02  0.1530023E+00
         21   -1    0    0  501  502  0.00000000000E+00  0.00000000000E+00  0.68359457299E+02  0.68359457299E+02  0.00000000000E+00 0.  1.
         21   -1    0    0  502  503 -0.00000000000E+00 -0.00000000000E+00 -0.67269731811E+01  0.67269731811E+01  0.00000000000E+00 0. -1.
          2    1    1    2  501    0  0.60668828711E+01 -0.19335483230E+02  0.18538023294E+02  0.27465001131E+02  0.00000000000E+00 0. -1.
         -2    1    1    2    0  503 -0.60668828711E+01  0.19335483230E+02  0.43094460824E+02  0.47621429349E+02  0.00000000000E+00 0.  1.
</event>
<event>
 4    1  0.1842931E+004  0.2745262E+02  0.7546771E-02  0.1443114E+00
         21   -1    0    0  501  502  0.00000000000E+00  0.00000000000E+00  0.84663904003E+00  0.84663904003E+00  0.00000000000E+00 0.  1.
         21   -1    0    0  502  503 -0.00000000000E+00 -0.00000000000E+00 -0.10358223210E+04  0.10358223210E+04  0.00000000000E+00 0. -1.
          2    1    1    2  501    0 -0.73699856070E+01 -0.26444840879E+02 -0.32311418603E+03  0.32427831181E+03  0.00000000000E+00 0.  1.
         -2    1    1    2    0  503  0.73699856070E+01  0.26444840879E+02 -0.71186149594E+03  0.71239064824E+03  0.00000000000E+00 0. -1.
</event>
<event>
 4    1  0.1842931E+004  0.2287990E+02  0.7546771E-02  0.1494012E+00
         21   -1    0    0  501  502  0.00000000000E+00  0.00000000000E+00  0.71970261674E+02  0.71970261674E+02  0.00000000000E+00 0.  1.
         21   -1    0    0  502  503 -0.00000000000E+00 -0.00000000000E+00 -0.72763008728E+01  0.72763008728E+01  0.00000000000E+00 0. -1.
          2    1    1    2  501    0 -0.58139222402E+01 -0.22128902340E+02  0.31597691141E+02  0.39011589253E+02  0.00000000000E+00 0. -1.
         -2    1    1    2    0  503  0.58139222402E+01  0.22128902340E+02  0.33096269660E+02  0.40234973294E+02  0.00000000000E+00 0.  1.
</event>
<event>
 4    1  0.1842931E+004  0.2033836E+02  0.7546771E-02  0.1528925E+00
         21   -1    0    0  503  502  0.00000000000E+00  0.00000000000E+00  0.19155501659E+03  0.19155501659E+03  0.00000000000E+00 0.  1.
         21   -1    0    0  501  503 -0.00000000000E+00 -0.00000000000E+00 -0.21816649523E+01  0.21816649523E+01  0.00000000000E+00 0. -1.
          2    1    1    2  501    0 -0.72521709022E+01 -0.19001443922E+02  0.10446684779E+03  0.10642824409E+03  0.00000000000E+00 0. -1.
         -2    1    1    2    0  502  0.72521709022E+01  0.19001443922E+02  0.84906503853E+02  0.87308437452E+02  0.00000000000E+00 0.  1.
</event>
<event>
 4    1  0.1842931E+004  0.2206487E+02  0.7546771E-02  0.1504587E+00
         21   -1    0    0  503  502  0.00000000000E+00  0.00000000000E+00  0.52525906518E+01  0.52525906518E+01  0.00000000000E+00 0. -1.
         21   -1    0    0  501  503 -0.00000000000E+00 -0.00000000000E+00 -0.10896597327E+03  0.10896597327E+03  0.00000000000E+00 0.  1.
          2    1    1    2  501    0 -0.18648404040E+02 -0.11793884230E+02 -0.73928847618E+02  0.77151365435E+02  0.00000000000E+00 0.  1.
         -2    1    1    2    0  502  0.18648404040E+02  0.11793884230E+02 -0.29784535002E+02  0.37067198488E+02  0.00000000000E+00 0. -1.
</event>
<event>
 4    1  0.1842931E+004  0.2028794E+02  0.7546771E-02  0.1529679E+00
         21   -1    0    0  503  502  0.00000000000E+00  0.00000000000E+00  0.47233477571E+02  0.47233477571E+02  0.00000000000E+00 0. -1.
         21   -1    0    0  501  503 -0.00000000000E+00 -0.00000000000E+00 -0.10342435189E+02  0.10342435189E+02  0.00000000000E+00 0.  1.
          2    1    1    2  501    0 -0.86554122391E+01  0.18348957468E+02  0.70229879557E+01  0.21469111789E+02  0.00000000000E+00 0.  1.
         -2    1    1    2    0  502  0.86554122391E+01 -0.18348957468E+02  0.29868054426E+02  0.36106800971E+02  0.00000000000E+00 0. -1.
</event>
<event>
 4    1  0.1842931E+004  0.2398825E+02  0.7546771E-02  0.1480448E+00
         21   -1    0    0  501  502  0.00000000000E+00  0.00000000000E+00  0.10685217755E+04  0.10685217755E+04  0.00000000000E+00 0. -1.
         21   -1    0    0  502  503 -0.00000000000E+00 -0.00000000000E+00 -0.11053263565E+01  0.11053263565E+01  0.00000000000E+00 0.  1.
          2    1    1    2  501    0 -0.23946999445E+02  0.14062077490E+01  0.91668180114E+03  0.91699561653E+03  0.00000000000E+00 0. -1.
         -2    1    1    2    0  503  0.23946999445E+02 -0.14062077490E+01  0.15073464796E+03  0.15263148528E+03  0.00000000000E+00 0.  1.
</event>
<event>
 4    1  0.1842931E+004  0.2319212E+02  0.7546771E-02  0.1490100E+00
         21   -1    0    0  503  502  0.00000000000E+00  0.00000000000E+00  0.12817481997E+02  0.12817481997E+02  0.00000000000E+00 0. -1.
         21   -1    0    0  501  503 -0.00000000000E+00 -0.00000000000E+00 -0.47220554339E+02  0.47220554339E+02  0.00000000000E+00 0.  1.
          2    1    1    2  501    0  0.49338526847E+01  0.22661238415E+02 -0.27217106269E+02  0.35758152951E+02  0.00000000000E+00 0.  1.
         -2    1    1    2    0  502 -0.49338526847E+01 -0.22661238415E+02 -0.71859660733E+01  0.24279883385E+02  0.00000000000E+00 0. -1.
</event>
<event>
 4    1  0.1842931E+004  0.1070898E+03  0.7546771E-02  0.1152059E+00
         21   -1    0    0  501  502  0.00000000000E+00  0.00000000000E+00  0.74761088355E+02  0.74761088355E+02  0.00000000000E+00 0.  1.
         21   -1    0    0  502  503 -0.00000000000E+00 -0.00000000000E+00 -0.28336361632E+03  0.28336361632E+03  0.00000000000E+00 0. -1.
          2    1    1    2  501    0  0.10627969747E+03 -0.13147307483E+02  0.16966657329E+02  0.10842551937E+03  0.00000000000E+00 0.  1.
         -2    1    1    2    0  503 -0.10627969747E+03  0.13147307483E+02 -0.22556918529E+03  0.24969918530E+03  0.00000000000E+00 0. -1.
</event>
<event>
 4    1  0.1842931E+004  0.3709651E+02  0.7546771E-02  0.1366395E+00
         21   -1    0    0  503  502  0.00000000000E+00  0.00000000000E+00  0.25698830936E+02  0.25698830936E+02  0.00000000000E+00 0. -1.
         21   -1    0    0  501  503 -0.00000000000E+00 -0.00000000000E+00 -0.23169393532E+03  0.23169393532E+03  0.00000000000E+00 0.  1.
          2    1    1    2  501    0  0.13174234699E+02 -0.34678388498E+02 -0.21584598712E+03  0.21901059619E+03  0.00000000000E+00 0.  1.
         -2    1    1    2    0  502 -0.13174234699E+02  0.34678388498E+02  0.98508827307E+01  0.38382170070E+02  0.00000000000E+00 0. -1.
</event>
<event>
 4    1  0.1842931E+004  0.2883706E+02  0.7546771E-02  0.1429979E+00
         21   -1    0    0  503  502  0.00000000000E+00  0.00000000000E+00  0.43450308520E+01  0.43450308520E+01  0.00000000000E+00 0.  1.
         21   -1    0    0  501  503 -0.00000000000E+00 -0.00000000000E+00 -0.19532260003E+03  0.19532260003E+03  0.00000000000E+00 0. -1.
          2    1    1    2  501    0  0.18507719137E+01 -0.28777603003E+02 -0.81314829493E+02  0.86276748239E+02  0.00000000000E+00 0.  1.
         -2    1    1    2    0  502 -0.18507719137E+01  0.28777603003E+02 -0.10966273968E+03  0.11339088264E+03  0.00000000000E+00 0. -1.
</event>
<event>
 4    1  0.1842931E+004  0.2600142E+02  0.7546771E-02  0.1457905E+00
         21   -1    0    0  501  502  0.00000000000E+00  0.00000000000E+00  0.73460278413E+02  0.73460278413E+02  0.00000000000E+00 0.  1.
         21   -1    0    0  502  503 -0.00000000000E+00 -0.00000000000E+00 -0.96803518083E+01  0.96803518083E+01  0.00000000000E+00 0. -1.
          2    1    1    2  501    0  0.16978602348E+02  0.19692654814E+02  0.41118684324E+02  0.48649972167E+02  0.00000000000E+00 0.  1.
         -2    1    1    2    0  503 -0.16978602348E+02 -0.19692654814E+02  0.22661242281E+02  0.34490658055E+02  0.00000000000E+00 0. -1.
</event>
<event>
 4    1  0.1842931E+004  0.2884226E+02  0.7546771E-02  0.1429931E+00
         21   -1    0    0  501  502  0.00000000000E+00  0.00000000000E+00  0.51307995721E+03  0.51307995721E+03  0.00000000000E+00 0. -1.
         21   -1    0    0  502  503 -0.00000000000E+00 -0.00000000000E+00 -0.27214828192E+01  0.27214828192E+01  0.00000000000E+00 0.  1.
          2    1    1    2  501    0 -0.15049888003E+01 -0.28802971207E+02  0.41915310572E+03  0.42014426353E+03  0.00000000000E+00 0. -1.
         -2    1    1    2    0  503  0.15049888003E+01  0.28802971207E+02  0.91205368677E+02  0.95657176506E+02  0.00000000000E+00 0.  1.
</event>
<event>
 4    1  0.1842931E+004  0.2200867E+02  0.7546771E-02  0.1505336E+00
         21   -1    0    0  501  502  0.00000000000E+00  0.00000000000E+00  0.86291470052E+03  0.86291470052E+03  0.00000000000E+00 0. -1.
         21   -1    0    0  502  503 -0.00000000000E+00 -0.00000000000E+00 -0.60984442363E+00  0.60984442363E+00  0.00000000000E+00 0.  1.
          2    1    1    2  501    0  0.21322416032E+02 -0.54530744740E+01  0.55292868575E+03  0.55336652679E+03  0.00000000000E+00 0.  1.
         -2    1    1    2    0  503 -0.21322416032E+02  0.54530744740E+01  0.30937617035E+03  0.31015801816E+03  0.00000000000E+00 0. -1.
</event>
<event>
 4    1  0.1842931E+004  0.2366878E+02  0.7546771E-02  0.1484267E+00
         21   -1    0    0  501  502  0.00000000000E+00  0.00000000000E+00  0.16620598109E+02  0.16620598109E+02  0.00000000000E+00 0.  1.
         21   -1    0    0  502  503 -0.00000000000E+00 -0.00000000000E+00 -0.34139237016E+02  0.34139237016E+02  0.00000000000E+00 0. -1.
          2    1    1    2  501    0  0.16034239703E+02  0.17410177770E+02 -0.58996956379E+01  0.24392981397E+02  0.00000000000E+00 0.  1.
         -2    1    1    2    0  503 -0.16034239703E+02 -0.17410177770E+02 -0.11618943270E+02  0.26366853728E+02  0.00000000000E+00 0. -1.
</event>
<event>
 4    1  0.1842931E+004  0.4551501E+02  0.7546771E-02  0.1318884E+00
         21   -1    0    0  503  502  0.00000000000E+00  0.00000000000E+00  0.47520577411E+03  0.47520577411E+03  0.00000000000E+00 0. -1.
         21   -1    0    0  501  503 -0.00000000000E+00 -0.00000000000E+00 -0.65671392801E+01  0.65671392801E+01  0.00000000000E+00 0.  1.
          2    1    1    2  501    0  0.38946826408E+02 -0.23553352453E+02  0.94651158854E+02  0.10502598522E+03  0.00000000000E+00 0.  1.
         -2    1    1    2    0  502 -0.38946826408E+02  0.23553352453E+02  0.37398747598E+03  0.37674692817E+03  0.00000000000E+00 0. -1.
</event>
<event>
 4    1  0.1842931E+004  0.2254037E+02  0.7546771E-02  0.1498352E+00
         21   -1    0    0  503  502  0.00000000000E+00  0.00000000000E+00  0.30404842256E+02  0.30404842256E+02  0.00000000000E+00 0. -1.
         21   -1    0    0  501  503 -0.00000000000E+00 -0.00000000000E+00 -0.17087304741E+02  0.17087304741E+02  0.00000000000E+00 0.  1.
          2    1    1    2  501    0  0.11172027907E+02  0.19576872659E+02  0.31306768932E+01  0.22756741604E+02  0.00000000000E+00 0. -1.
         -2    1    1    2    0  502 -0.11172027907E+02 -0.19576872659E+02  0.10186860622E+02  0.24735405393E+02  0.00000000000E+00 0.  1.
</event>
<event>
 4    1  0.1842931E+004  0.2609639E+02  0.7546771E-02  0.1456902E+00
         21   -1    0    0  503  502  0.00000000000E+00  0.00000000000E+00  0.11679949290E+02  0.11679949290E+02  0.00000000000E+00 0.  1.
         21   -1    0    0  501  503 -0.00000000000E+00 -0.00000000000E+00 -0.11662700191E+03  0.11662700191E+03  0.00000000000E+00 0. -1.
          2    1    1    2  501    0  0.25235609341E+02 -0.66472420374E+01 -0.97839445710E+02  0.10125995725E+03  0.00000000000E+00 0. -1.
         -2    1    1    2    0  502 -0.25235609341E+02  0.66472420374E+01 -0.71076069054E+01  0.27046993944E+02  0.00000000000E+00 0.  1.
</event>
<event>
 4    1  0.1842931E+004  0.2162945E+02  0.7546771E-02  0.1510465E+00
         21   -1    0    0  503  502  0.00000000000E+00  0.00000000000E+00  0.78028970926E+02  0.78028970926E+02  0.00000000000E+00 0. -1.
         21   -1    0    0  501  503 -0.00000000000E+00 -0.00000000000E+00 -0.11843035519E+02  0.11843035519E+02  0.00000000000E+00 0.  1.
          2    1    1    2  501    0  0.14249848467E+02  0.16271909008E+02  0.15178950173E+01  0.21682647656E+02  0.00000000000E+00 0.  1.
         -2    1    1    2    0  502 -0.14249848467E+02 -0.16271909008E+02  0.64668040390E+02  0.68189358789E+02  0.00000000000E+00 0. -1.
</event>
<event>
 4    1  0.1842931E+004  0.5089830E+02  0.7546771E-02  0.1294324E+00
         21   -1    0    0  503  502  0.00000000000E+00  0.00000000000E+00  0.14267329882E+04  0.14267329882E+04  0.00000000000E+00 0. -1.
         21   -1    0    0  501  503 -0.00000000000E+00 -0.00000000000E+00 -0.30320559451E+01  0.30320559451E+01  0.00000000000E+00 0.  1.
          2    1    1    2  501    0 -0.43315567727E+02  0.26728229831E+02  0.25907623585E+03  0.26402865878E+03  0.00000000000E+00 0.  1.
         -2    1    1    2    0  502  0.43315567727E+02 -0.26728229831E+02  0.11646246964E+04  0.11657363854E+04  0.00000000000E+00 0. -1.
</event>
<event>
 4    1  0.1842931E+004  0.2394779E+02  0.7546771E-02  0.1480928E+00
         21   -1    0    0  503  502  0.00000000000E+00  0.00000000000E+00  0.17250879995E+03  0.17250879995E+03  0.00000000000E+00 0.  1.
         21   -1    0    0  501  503 -0.00000000000E+00 -0.00000000000E+00 -0.22387223357E+02  0.22387223357E+02  0.00000000000E+00 0. -1.
          2    1    1    2  501    0 -0.67657599595E+01  0.22972179672E+02 -0.14861206019E+02  0.28184250763E+02  0.00000000000E+00 0. -1.
         -2    1    1    2    0  502  0.67657599595E+01 -0.22972179672E+02  0.16498278261E+03  0.16671177255E+03  0.00000000000E+00 0.  1.
</event>
<event>
 4    1  0.1842931E+004  0.2677739E+02  0.7546771E-02  0.1449857E+00
         21   -1    0    0  503  502  0.00000000000E+00  0.00000000000E+00  0.34906644708E+03  0.34906644708E+03  0.00000000000E+00 0.  1.
         21   -1    0    0  501  503 -0.00000000000E+00 -0.00000000000E+00 -0.23767085553E+01  0.23767085553E+01  0.00000000000E+00 0. -1.
          2    1    1    2  501    0 -0.67140644150E+01 -0.25922001912E+02  0.23808193038E+03  0.23958304284E+03  0.00000000000E+00 0.  1.
         -2    1    1    2    0  502  0.67140644150E+01  0.25922001912E+02  0.10860780814E+03  0.11186011279E+03  0.00000000000E+00 0. -1.
</event>
<event>
 4    1  0.1842931E+004  0.2584455E+02  0.7546771E-02  0.1459573E+00
         21   -1    0    0  501  502  0.00000000000E+00  0.00000000000E+00  0.33254259032E+02  0.33254259032E+02  0.00000000000E+00 0.  1.
         21   -1    0    0  502  503 -0.00000000000E+00 -0.00000000000E+00 -0.23827046853E+02  0.23827046853E+02  0.00000000000E+00 0. -1.
          2    1    1    2  501    0 -0.16857521740E+01 -0.25789518332E+02  0.16022819622E+02  0.30408416020E+02  0.00000000000E+00 0.  1.
         -2    1    1    2    0  503  0.16857521740E+01  0.25789518332E+02 -0.65956074431E+01  0.26672889865E+02  0.00000000000E+00 0. -1.
</event>
<event>
 4    1  0.1842931E+004  0.2119978E+02  0.7546771E-02  0.1516432E+00
         21   -1    0    0  501  502  0.00000000000E+00  0.00000000000E+00  0.57676533011E+02  0.57676533011E+02  0.00000000000E+00 0.  1.
         21   -1    0    0  502  503 -0.00000000000E+00 -0.00000000000E+00 -0.82729932438E+01  0.82729932438E+01  0.00000000000E+00 0. -1.
          2    1    1    2  501    0  0.20409380416E+02 -0.57347846477E+01  0.16752957457E+02  0.27020217384E+02  0.00000000000E+00 0. -1.
         -2    1    1    2    0  503 -0.20409380416E+02  0.57347846477E+01  0.32650582311E+02  0.38929308871E+02  0.00000000000E+00 0.  1.
</event>
<event>
 4    1  0.1842931E+004  0.6953674E+02  0.7546771E-02  0.1230473E+00
         21   -1    0    0  501  502  0.00000000000E+00  0.00000000000E+00  0.62439647910E+02  0.62439647910E+02  0.00000000000E+00 0. -1.
         21   -1    0    0  502  503 -0.00000000000E+00 -0.00000000000E+00 -0.12316723830E+03  0.12316723830E+03  0.00000000000E+00 0.  1.
          2    1    1    2  501    0  0.36712146008E+02  0.59055704330E+02  0.26182163925E+02  0.74302513997E+02  0.00000000000E+00 0.  1.
         -2    1    1    2    0  503 -0.36712146008E+02 -0.59055704330E+02 -0.86909754314E+02  0.11130437221E+03  0.00000000000E+00 0. -1.
</event>
<event>
 4    1  0.1842931E+004  0.2182027E+02  0.7546771E-02  0.1507868E+00
         21   -1    0    0  501  502  0.00000000000E+00  0.00000000000E+00  0.48784859973E+01  0.48784859973E+01  0.00000000000E+00 0.  1.
         21   -1    0    0  502  503 -0.00000000000E+00 -0.00000000000E+00 -0.50816877296E+03  0.50816877296E+03  0.00000000000E+00 0. -1.
          2    1    1    2  501    0 -0.21699798755E+02 -0.22897671751E+01 -0.21067034180E+02  0.30330582403E+02  0.00000000000E+00 0.  1.
         -2    1    1    2    0  503  0.21699798755E+02  0.22897671751E+01 -0.48222325278E+03  0.48271667656E+03  0.00000000000E+00 0. -1.
</event>
<event>
 4    1  0.1842931E+004  0.6643145E+02  0.7546771E-02  0.1239419E+00
         21   -1    0    0  503  502  0.00000000000E+00  0.00000000000E+00  0.87277761628E+01  0.87277761628E+01  0.00000000000E+00 0.  1.
         21   -1    0    0  501  503 -0.00000000000E+00 -0.00000000000E+00 -0.57565222121E+03  0.57565222121E+03  0.00000000000E+00 0. -1.
          2    1    1    2  501    0 -0.42018595955E+02  0.51454596198E+02 -0.38535965689E+03  0.39104373545E+03  0.00000000000E+00 0. -1.
         -2    1    1    2    0  502  0.42018595955E+02 -0.51454596198E+02 -0.18156478816E+03  0.19333626193E+03  0.00000000000E+00 0.  1.
</event>
<event>
 4    1  0.1842931E+004  0.2253352E+02  0.7546771E-02  0.1498440E+00
         21   -1    0    0  501  502  0.00000000000E+00  0.00000000000E+00  0.15015269396E+03  0.15015269396E+03  0.00000000000E+00 0.  1.
         21   -1    0    0  502  503 -0.00000000000E+00 -0.00000000000E+00 -0.87776870428E+01  0.87776870428E+01  0.00000000000E+00 0. -1.
          2    1    1    2  501    0  0.78109476000E+01  0.21136430848E+02  0.13299287379E+03  0.13488833934E+03  0.00000000000E+00 0.  1.
         -2    1    1    2    0  503 -0.78109476000E+01 -0.21136430848E+02  0.83821331254E+01  0.24042041659E+02  0.00000000000E+00 0. -1.
</event>
<event>
 4    1  0.1842931E+004  0.2133288E+02  0.7546771E-02  0.1514565E+00
         21   -1    0    0  501  502  0.00000000000E+00  0.00000000000E+00  0.12567383615E+02  0.12567383615E+02  0.00000000000E+00 0. -1.
         21   -1    0    0  502  503 -0.00000000000E+00 -0.00000000000E+00 -0.37811399652E+02  0.37811399652E+02  0.00000000000E+00 0.  1.
          2    1    1    2  501    0  0.23044039571E+01  0.21208050996E+02 -0.74415588627E+01  0.22593550030E+02  0.00000000000E+00 0.  1.
         -2    1    1    2    0  503 -0.23044039571E+01 -0.21208050996E+02 -0.17802457174E+02  0.27785233238E+02  0.00000000000E+00 0. -1.
</event>
<event>
 4    1  0.1842931E+004  0.2417996E+02  0.7546771E-02  0.1478190E+00
         21   -1    0    0  501  502  0.00000000000E+00  0.00000000000E+00  0.24709954811E+02  0.24709954811E+02  0.00000000000E+00 0. -1.
         21   -1    0    0  502  503 -0.00000000000E+00 -0.00000000000E+00 -0.81581778471E+02  0.81581778471E+02  0.00000000000E+00 0.  1.
          2    1    1    2  501    0  0.24022986309E+02  0.27507452992E+01  0.16344579624E+02  0.29185882786E+02  0.00000000000E+00 0. -1.
         -2    1    1    2    0  503 -0.24022986309E+02 -0.27507452992E+01 -0.73216403284E+02  0.77105850496E+02  0.00000000000E+00 0.  1.
</event>
<event>
 4    1  0.1842931E+004  0.2005352E+02  0.7546771E-02  0.1533219E+00
         21   -1    0    0  501  502  0.00000000000E+00  0.00000000000E+00  0.96000138706E+03  0.96000138706E+03  0.00000000000E+00 0.  1.
         21   -1    0    0  502  503 -0.00000000000E+00 -0.00000000000E+00 -0.17141170514E+01  0.17141170514E+01  0.00000000000E+00 0. -1.
          2    1    1    2  501    0 -0.11906520794E+02 -0.16136248963E+02  0.89713547430E+03  0.89735957287E+03  0.00000000000E+00 0.  1.
         -2    1    1    2    0  503  0.11906520794E+02  0.16136248963E+02  0.61151795707E+02  0.64355931243E+02  0.00000000000E+00 0. -1.
</event>
<event>
 4    1  0.1842931E+004  0.3077390E+02  0.7546771E-02  0.1412988E+00
         21   -1    0    0  501  502  0.00000000000E+00  0.00000000000E+00  0.18302646101E+02  0.18302646101E+02  0.00000000000E+00 0.  1.
         21   -1    0    0  502  503 -0.00000000000E+00 -0.00000000000E+00 -0.10933313786E+03  0.10933313786E+03  0.00000000000E+00 0. -1.
          2    1    1    2  501    0 -0.30747719732E+02  0.12690472785E+01  0.80179735266E+00  0.30784340641E+02  0.00000000000E+00 0.  1.
         -2    1    1    2    0  503  0.30747719732E+02 -0.12690472785E+01 -0.91832289111E+02  0.96851443319E+02  0.00000000000E+00 0. -1.
</event>
<event>
 4    1  0.1842931E+004  0.2099732E+02  0.7546771E-02  0.1519303E+00
         21   -1    0    0  501  502  0.00000000000E+00  0.00000000000E+00  0.12333440077E+03  0.12333440077E+03  0.00000000000E+00 0.  1.
         21   -1    0    0  502  503 -0.00000000000E+00 -0.00000000000E+00 -0.36205950431E+01  0.36205950431E+01  0.00000000000E+00 0. -1.
          2    1    1    2  501    0 -0.15160973166E+02 -0.14526956454E+02  0.52712666652E+02  0.56740750759E+02  0.00000000000E+00 0. -1.
         -2    1    1    2    0  503  0.15160973166E+02  0.14526956454E+02  0.67001139071E+02  0.70214245050E+02  0.00000000000E+00 0.  1.
</event>
<event>
 4    1  0.1842931E+004  0.2408821E+02  0.7546771E-02  0.1479268E+00
         21   -1    0    0  501  502  0.00000000000E+00  0.00000000000E+00  0.14849162830E+03  0.14849162830E+03  0.00000000000E+00 0. -1.
         21   -1    0    0  502  503 -0.00000000000E+00 -0.00000000000E+00 -0.51056891601E+01  0.51056891601E+01  0.00000000000E+00 0.  1.
          2    1    1    2  501    0 -0.18298289509E+02 -0.15665715098E+02  0.10889577821E+03  0.11152816927E+03  0.00000000000E+00 0. -1.
         -2    1    1    2    0  503  0.18298289509E+02  0.15665715098E+02  0.34490160925E+02  0.42069148186E+02  0.00000000000E+00 0.  1.
</event>
<event>
 4    1  0.1842931E+004  0.2000097E+02  0.7546771E-02  0.1534021E+00
         21   -1    0    0  501  502  0.00000000000E+00  0.00000000000E+00  0.96595606847E+01  0.96595606847E+01  0.00000000000E+00 0.  1.
         21   -1    0    0  502  503 -0.00000000000E+00 -0.00000000000E+00 -0.41782723912E+02  0.41782723912E+02  0.00000000000E+00 0. -1.
          2    1    1    2  501    0 -0.15687864026E+02  0.12406846279E+02 -0.13644604224E+02  0.24211859423E+02  0.00000000000E+00 0. -1.
         -2    1    1    2    0  503  0.15687864026E+02 -0.12406846279E+02 -0.18478559003E+02  0.27230425173E+02  0.00000000000E+00 0.  1.
</event>
<event>
 4    1  0.1842931E+004  0.2907884E+02  0.7546771E-02  0.1427774E+00
         21   -1    0    0  503  502  0.00000000000E+00  0.00000000000E+00  0.27356728506E+03  0.27356728506E+03  0.00000000000E+00 0. -1.
         21   -1    0    0  501  503 -0.00000000000E+00 -0.00000000000E+00 -0.42430644032E+01  0.42430644032E+01  0.00000000000E+00 0.  1.
          2    1    1    2  501    0 -0.39594135911E+01 -0.28808016600E+02  0.62280342133E+02  0.68734414907E+02  0.00000000000E+00 0.  1.
         -2    1    1    2    0  502  0.39594135911E+01  0.28808016600E+02  0.20704387853E+03  0.20907593456E+03  0.00000000000E+00 0. -1.
</event>
<event>
 4    1  0.1842931E+004  0.2208209E+02  0.7546771E-02  0.1504358E+00
         21   -1    0    0  503  502  0.00000000000E+00  0.00000000000E+00  0.68733907282E+01  0.68733907282E+01  0.00000000000E+00 0.  1.
         21   -1    0    0  501  503 -0.00000000000E+00 -0.00000000000E+00 -0.86874769968E+02  0.86874769968E+02  0.00000000000E+00 0. -1.
          2    1    1    2  501    0 -0.83139392428E+01  0.20457203211E+02 -0.60073970206E+02  0.64003911171E+02  0.00000000000E+00 0.  1.
         -2    1    1    2    0  502  0.83139392428E+01 -0.20457203211E+02 -0.19927409034E+02  0.29744249524E+02  0.00000000000E+00 0. -1.
</event>
<event>
 4    1  0.1842931E+004  0.3276120E+02  0.7546771E-02  0.1397025E+00
         21   -1    0    0  501  502  0.00000000000E+00  0.00000000000E+00  0.10220237528E+02  0.10220237528E+02  0.00000000000E+00 0.  1.
         21   -1    0    0  502  503 -0.00000000000E+00 -0.00000000000E+00 -0.10756744773E+03  0.10756744773E+03  0.00000000000E+00 0. -1.
          2    1    1    2  501    0 -0.28666126061E+02  0.15860313204E+02 -0.57742562964E+02  0.66389004330E+02  0.00000000000E+00 0.  1.
         -2    1    1    2    0  503  0.28666126061E+02 -0.15860313204E+02 -0.39604647238E+02  0.51398680928E+02  0.00000000000E+00 0. -1.
</event>
<event>
 4    1  0.1842931E+004  0.4357264E+02  0.7546771E-02  0.1328733E+00
         21   -1    0    0  503  502  0.00000000000E+00  0.00000000000E+00  0.18035293285E+03  0.18035293285E+03  0.00000000000E+00 0.  1.
         21   -1    0    0  501  503 -0.00000000000E+00 -0.00000000000E+00 -0.14056545542E+02  0.14056545542E+02  0.00000000000E+00 0. -1.
          2    1    1    2  501    0  0.42383601956E+02  0.10109670207E+02  0.34439375413E+02  0.55539587011E+02  0.00000000000E+00 0. -1.
         -2    1    1    2    0  502 -0.42383601956E+02 -0.10109670207E+02  0.13185701190E+03  0.13886989138E+03  0.00000000000E+00 0.  1.
</event>
<event>
 4    1  0.1842931E+004  0.2949525E+02  0.7546771E-02  0.1424034E+00
         21   -1    0    0  503  502  0.00000000000E+00  0.00000000000E+00  0.55172626228E+03  0.55172626228E+03  0.00000000000E+00 0.  1.
         21   -1    0    0  501  503 -0.00000000000E+00 -0.00000000000E+00 -0.20195127098E+01  0.20195127098E+01  0.00000000000E+00 0. -1.
          2    1    1    2  501    0 -0.16306369406E+02 -0.24577879043E+02  0.14522169464E+03  0.14818674170E+03  0.00000000000E+00 0. -1.
         -2    1    1    2    0  502  0.16306369406E+02  0.24577879043E+02  0.40448505492E+03  0.40555903328E+03  0.00000000000E+00 0.  1.
</event>
<event>
 4    1  0.1842931E+004  0.2519974E+02  0.7546771E-02  0.1466581E+00
         21   -1    0    0  501  502  0.00000000000E+00  0.00000000000E+00  0.19102580294E+03  0.19102580294E+03  0.00000000000E+00 0.  1.
         21   -1    0    0  502  503 -0.00000000000E+00 -0.00000000000E+00 -0.33790128710E+01  0.33790128710E+01  0.00000000000E+00 0. -1.
          2    1    1    2  501    0  0.17687573959E+02 -0.17949278260E+02  0.10619230137E+03  0.10914133833E+03  0.00000000000E+00 0. -1.
         -2    1    1    2    0  503 -0.17687573959E+02  0.17949278260E+02  0.81454488701E+02  0.85263477481E+02  0.00000000000E+00 0.  1.
</event>
<event>
 4    1  0.1842931E+004  0.2151090E+02  0.7546771E-02  0.1512094E+00
         21   -1    0    0  503  502  0.00000000000E+00  0.00000000000E+00  0.14006639563E+03  0.14006639563E+03  0.00000000000E+00 0. -1.
         21   -1    0    0  501  503 -0.00000000000E+00 -0.00000000000E+00 -0.33266925437E+01  0.33266925437E+01  0.00000000000E+00 0.  1.
          2    1    1    2  501    0 -0.27222987167E+01  0.21337945307E+02  0.74347512895E+02  0.77396844211E+02  0.00000000000E+00 0. -1.
         -2    1    1    2    0  502  0.27222987167E+01 -0.21337945307E+02  0.62392190190E+02  0.65996243961E+02  0.00000000000E+00 0.  1.
</event>
<event>
 4    1  0.1842931E+004  0.6378293E+02  0.7546771E-02  0.1247494E+00
         21   -1    0    0  503  502  0.00000000000E+00  0.00000000000E+00  0.70460741514E+02  0.70460741514E+02  0.00000000000E+00 0.  1.
         21   -1    0    0  501  503 -0.00000000000E+00 -0.00000000000E+00 -0.87257841632E+02  0.87257841632E+02  0.00000000000E+00 0. -1.
          2    1    1    2  501    0 -0.63260849909E+02 -0.81441588984E+01 -0.54266320775E+02  0.83744229806E+02  0.00000000000E+00 0. -1.
         -2    1    1    2    0  502  0.63260849909E+02  0.81441588984E+01  0.37469220657E+02  0.73974353340E+02  0.00000000000E+00 0.  1.
</event>
<event>
 4    1  0.1842931E+004  0.2091756E+02  0.7546771E-02  0.1520445E+00
         21   -1    0    0  503  502  0.00000000000E+00  0.00000000000E+00  0.29060620592E+03  0.29060620592E+03  0.00000000000E+00 0.  1.
         21   -1    0    0  501  503 -0.00000000000E+00 -0.00000000000E+00 -0.16806257138E+01  0.16806257138E+01  0.00000000000E+00 0. -1.
          2    1    1    2  501    0 -0.20687164896E+02  0.30960363316E+01  0.97304012811E+02  0.99526956858E+02  0.00000000000E+00 0.  1.
         -2    1    1    2    0  502  0.20687164896E+02 -0.30960363316E+01  0.19162156740E+03  0.19275987478E+03  0.00000000000E+00 0. -1.
</event>
<event>
 4    1  0.1842931E+004  0.2364876E+02  0.7546771E-02  0.1484508E+00
         21   -1    0    0  501  502  0.00000000000E+00  0.00000000000E+00  0.16024709659E+02  0.16024709659E+02  0.00000000000E+00 0. -1.
         21   -1    0    0  502  503 -0.00000000000E+00 -0.00000000000E+00 -0.57953236531E+02  0.57953236531E+02  0.00000000000E+00 0.  1.
          2    1    1    2  501    0  0.12373614935E+02 -0.20153353648E+02  0.23648596429E+01  0.23766711404E+02  0.00000000000E+00 0. -1.
         -2    1    1    2    0  503 -0.12373614935E+02  0.20153353648E+02 -0.44293386515E+02  0.50211234786E+02  0.00000000000E+00 0.  1.
</event>
<event>
 4    1  0.1842931E+004  0.2159490E+02  0.7546771E-02  0.1510938E+00
         21   -1    0    0  503  502  0.00000000000E+00  0.00000000000E+00  0.18304124065E+03  0.18304124065E+03  0.00000000000E+00 0.  1.
         21   -1    0    0  501  503 -0.00000000000E+00 -0.00000000000E+00 -0.25557362215E+01  0.25557362215E+01  0.00000000000E+00 0. -1.
          2    1    1    2  501    0 -0.18045265321E+02 -0.11862042526E+02  0.95436701156E+02  0.97849392338E+02  0.00000000000E+00 0. -1.
         -2    1    1    2    0  502  0.18045265321E+02  0.11862042526E+02  0.85048803273E+02  0.87747584534E+02  0.00000000000E+00 0.  1.
</event>
<event>
 4    1  0.1842931E+004  0.2190443E+02  0.7546771E-02  0.1506733E+00
         21   -1    0    0  503  502  0.00000000000E+00  0.00000000000E+00  0.38233456118E+01  0.38233456118E+01  0.00000000000E+00 0.  1.
         21   -1    0    0  501  503 -0.00000000000E+00 -0.00000000000E+00 -0.28579498819E+03  0.28579498819E+03  0.00000000000E+00 0. -1.
          2    1    1    2  501    0 -0.18681766361E+02  0.11436589698E+02 -0.24943790430E+03  0.25039782763E+03  0.00000000000E+00 0. -1.
         -2    1    1    2    0  502  0.18681766361E+02 -0.11436589698E+02 -0.32533738275E+02  0.39220506172E+02  0.00000000000E+00 0.  1.
</event>
<event>
 4    1  0.1842931E+004  0.2070854E+02  0.7546771E-02  0.1523467E+00
         21   -1    0    0  501  502  0.00000000000E+00  0.00000000000E+00  0.41658281804E+01  0.41658281804E+01  0.00000000000E+00 0. -1.
         21   -1    0    0  502  503 -0.00000000000E+00 -0.00000000000E+00 -0.21778578158E+03  0.21778578158E+03  0.00000000000E+00 0.  1.
          2    1    1    2  501    0  0.18273906967E+02 -0.97420765601E+01 -0.26222975783E+02  0.33413892177E+02  0.00000000000E+00 0. -1.
         -2    1    1    2    0  503 -0.18273906967E+02  0.97420765601E+01 -0.18739697761E+03  0.18853771758E+03  0.00000000000E+00 0.  1.
</event>
<event>
 4    1  0.1842931E+004  0.2181388E+02  0.7546771E-02  0.1507955E+00
         21   -1    0    0  501  502  0.00000000000E+00  0.00000000000E+00  0.47680896056E+02  0.47680896056E+02  0.00000000000E+00 0. -1.
         21   -1    0    0  502  503 -0.00000000000E+00 -0.00000000000E+00 -0.66870816890E+02  0.66870816890E+02  0.00000000000E+00 0.  1.
          2    1    1    2  501    0 -0.74819986634E+01  0.20490607192E+02  0.43234377473E+02  0.48425785307E+02  0.00000000000E+00 0. -1.
         -2    1    1    2    0  503  0.74819986634E+01 -0.20490607192E+02 -0.62424298307E+02  0.66125927640E+02  0.00000000000E+00 0.  1.
</event>
<event>
 4    1  0.1842931E+004  0.3583975E+02  0.7546771E-02  0.1374754E+00
         21   -1    0    0  501  502  0.00000000000E+00  0.00000000000E+00  0.78009369204E+01  0.78009369204E+01  0.00000000000E+00 0.  1.
         21   -1    0    0  502  503 -0.00000000000E+00 -0.00000000000E+00 -0.17375855331E+03  0.17375855331E+03  0.00000000000E+00 0. -1.
          2    1    1    2  501    0  0.19654884052E+02 -0.29969532137E+02 -0.62203486023E+02  0.71789699798E+02  0.00000000000E+00 0.  1.
         -2    1    1    2    0  503 -0.19654884052E+02  0.29969532137E+02 -0.10375413037E+03  0.10976979043E+03  0.00000000000E+00 0. -1.
</event>
<event>
 4    1  0.1842931E+004  0.3009876E+02  0.7546771E-02  0.1418740E+00
         21   -1    0    0  501  502  0.00000000000E+00  0.00000000000E+00  0.13247721931E+02  0.13247721931E+02  0.00000000000E+00 0.  1.
         21   -1    0    0  502  503 -0.00000000000E+00 -0.00000000000E+00 -0.46709262782E+03  0.46709262782E+03  0.00000000000E+00 0. -1.
          2    1    1    2  501    0  0.25805549209E+02  0.15492228698E+02 -0.50286114352E+01  0.30515937688E+02  0.00000000000E+00 0.  1.
         -2    1    1    2    0  503 -0.25805549209E+02 -0.15492228698E+02 -0.44881629446E+03  0.44982441207E+03  0.00000000000E+00 0. -1.
</event>
<event>
 4    1  0.1842931E+004  0.2778485E+02  0.7546771E-02  0.1439880E+00
         21   -1    0    0  503  502  0.00000000000E+00  0.00000000000E+00  0.22880631006E+03  0.22880631006E+03  0.00000000000E+00 0.  1.
         21   -1    0    0  501  503 -0.00000000000E+00 -0.00000000000E+00 -0.21982910470E+02  0.21982910470E+02  0.00000000000E+00 0. -1.
          2    1    1    2  501    0 -0.19344552384E+02 -0.19944578649E+02 -0.11959250658E+02  0.30249323971E+02  0.00000000000E+00 0. -1.
         -2    1    1    2    0  502  0.19344552384E+02  0.19944578649E+02  0.21878265025E+03  0.22053989656E+03  0.00000000000E+00 0.  1.
</event>
<event>
 4    1  0.1842931E+004  0.2086045E+02  0.7546771E-02  0.1521267E+00
         21   -1    0    0  501  502  0.00000000000E+00  0.00000000000E+00  0.82736762482E+02  0.82736762482E+02  0.00000000000E+00 0. -1.
         21   -1    0    0  502  503 -0.00000000000E+00 -0.00000000000E+00 -0.28382694323E+02  0.28382694323E+02  0.00000000000E+00 0.  1.
          2    1    1    2  501    0 -0.12685404789E+02  0.16560165609E+02  0.77325389939E+02  0.80089790291E+02  0.00000000000E+00 0. -1.
         -2    1    1    2    0  503  0.12685404789E+02 -0.16560165609E+02 -0.22971321780E+02  0.31029666514E+02  0.00000000000E+00 0.  1.
</event>
<event>
 4    1  0.1842931E+004  0.2115325E+02  0.7546771E-02  0.1517088E+00
         21   -1    0    0  503  502  0.00000000000E+00  0.00000000000E+00  0.28542186844E+02  0.28542186844E+02  0.00000000000E+00 0. -1.
         21   -1    0    0  501  503 -0.00000000000E+00 -0.00000000000E+00 -0.23676939434E+02  0.23676939434E+02  0.00000000000E+00 0.  1.
          2    1    1    2  501    0  0.33761834373E+01  0.20882085934E+02 -0.12744033252E+02  0.24695556505E+02  0.00000000000E+00 0.  1.
         -2    1    1    2    0  502 -0.33761834373E+01 -0.20882085934E+02  0.17609280663E+02  0.27523569772E+02  0.00000000000E+00 0. -1.
</event>
<event>
 4    1  0.1842931E+004  0.3562350E+02  0.7546771E-02  0.1376232E+00
         21   -1    0    0  501  502  0.00000000000E+00  0.00000000000E+00  0.19521991515E+03  0.19521991515E+03  0.00000000000E+00 0. -1.
         21   -1    0    0  502  503 -0.00000000000E+00 -0.00000000000E+00 -0.66033793911E+01  0.66033793911E+01  0.00000000000E+00 0.  1.
          2    1    1    2  501    0 -0.23118171299E+02 -0.27103210773E+02  0.10690183072E+03  0.11268112216E+03  0.00000000000E+00 0.  1.
         -2    1    1    2    0  503  0.23118171299E+02  0.27103210773E+02  0.81714705032E+02  0.89142172381E+02  0.00000000000E+00 0. -1.
</event>
<event>
 4    1  0.1842931E+004  0.2403547E+02  0.7546771E-02  0.1479889E+00
         21   -1    0    0  503  502  0.00000000000E+00  0.00000000000E+00  0.18985515972E+02  0.18985515972E+02  0.00000000000E+00 0. -1.
         21   -1    0    0  501  503 -0.00000000000E+00 -0.00000000000E+00 -0.61584084015E+02  0.61584084015E+02  0.00000000000E+00 0.  1.
          2    1    1    2  501    0  0.14297000275E+02  0.19320966694E+02 -0.49952524381E+02  0.55434273359E+02  0.00000000000E+00 0.  1.
         -2    1    1    2    0  502 -0.14297000275E+02 -0.19320966694E+02  0.73539563376E+01  0.25135326627E+02  0.00000000000E+00 0. -1.
</event>
<event>
 4    1  0.1842931E+004  0.3661653E+02  0.7546771E-02  0.1369541E+00
         21   -1    0    0  501  502  0.00000000000E+00  0.00000000000E+00  0.14445062996E+02  0.14445062996E+02  0.00000000000E+00 0. -1.
         21   -1    0    0  502  503 -0.00000000000E+00 -0.00000000000E+00 -0.92818671183E+02  0.92818671183E+02  0.00000000000E+00 0.  1.
          2    1    1    2  501    0 -0.81768516409E+01  0.35691863070E+02 -0.39244659272E+02  0.53674139710E+02  0.00000000000E+00 0.  1.
         -2    1    1    2    0  503  0.81768516409E+01 -0.35691863070E+02 -0.39128948915E+02  0.53589594469E+02  0.00000000000E+00 0. -1.
</event>
<event>
 4    1  0.1842931E+004  0.2905550E+02  0.7546771E-02  0.1427985E+00
         21   -1    0    0  503  502  0.00000000000E+00  0.00000000000E+00  0.19595642128E+02  0.19595642128E+02  0.00000000000E+00 0.  1.
         21   -1    0    0  501  503 -0.00000000000E+00 -0.00000000000E+00 -0.44096289173E+02  0.44096289173E+02  0.00000000000E+00 0. -1.
          2    1    1    2  501    0 -0.61658002875E+01 -0.28393746522E+02 -0.74207676722E+01  0.29988159790E+02  0.00000000000E+00 0. -1.
         -2    1    1    2    0  502  0.61658002875E+01  0.28393746522E+02 -0.17079879373E+02  0.33703771512E+02  0.00000000000E+00 0.  1.
</event>
<event>
 4    1  0.1842931E+004  0.2238723E+02  0.7546771E-02  0.1500340E+00
         21   -1    0    0  501  502  0.00000000000E+00  0.00000000000E+00  0.21086582372E+02  0.21086582372E+02  0.00000000000E+00 0. -1.
         21   -1    0    0  502  503 -0.00000000000E+00 -0.00000000000E+00 -0.44494188663E+02  0.44494188663E+02  0.00000000000E+00 0.  1.
          2    1    1    2  501    0  0.41755158013E+01  0.21994384839E+02  0.10675862980E+02  0.24802458487E+02  0.00000000000E+00 0. -1.
         -2    1    1    2    0  503 -0.41755158013E+01 -0.21994384839E+02 -0.34083469271E+02  0.40778312547E+02  0.00000000000E+00 0.  1.
</event>
<event>
 4    1  0.1842931E+004  0.3531791E+02  0.7546771E-02  0.1378342E+00
         21   -1    0    0  501  502  0.00000000000E+00  0.00000000000E+00  0.47768841048E+02  0.47768841048E+02  0.00000000000E+00 0. -1.
         21   -1    0    0  502  503 -0.00000000000E+00 -0.00000000000E+00 -0.50447118449E+02  0.50447118449E+02  0.00000000000E+00 0.  1.
          2    1    1    2  501    0  0.98074784830E+01  0.33928871344E+02  0.32768199080E+02  0.48177897586E+02  0.00000000000E+00 0. -1.
         -2    1    1    2    0  503 -0.98074784830E+01 -0.33928871344E+02 -0.35446476482E+02  0.50038061911E+02  0.00000000000E+00 0.  1.
</event>
<event>
 4    1  0.1842931E+004  0.2534750E+02  0.7546771E-02  0.1464953E+00
         21   -1    0    0  503  502  0.00000000000E+00  0.00000000000E+00  0.58503157901E+01  0.58503157901E+01  0.00000000000E+00 0. -1.
         21   -1    0    0  501  503 -0.00000000000E+00 -0.00000000000E+00 -0.18449105517E+03  0.18449105517E+03  0.00000000000E+00 0.  1.
          2    1    1    2  501    0  0.24047420173E+02 -0.80135786874E+01 -0.14986625521E+03  0.15199470488E+03  0.00000000000E+00 0.  1.
         -2    1    1    2    0  502 -0.24047420173E+02  0.80135786874E+01 -0.28774484172E+02  0.38346666083E+02  0.00000000000E+00 0. -1.
</event>
<event>
 4    1  0.1842931E+004  0.2138591E+02  0.7546771E-02  0.1513826E+00
         21   -1    0    0  501  502  0.00000000000E+00  0.00000000000E+00  0.58051015406E+02  0.58051015406E+02  0.00000000000E+00 0.  1.
         21   -1    0    0  502  503 -0.00000000000E+00 -0.00000000000E+00 -0.82316381456E+01  0.82316381456E+01  0.00000000000E+00 0. -1.
          2    1    1    2  501    0  0.12641187523E+02  0.17249858968E+02  0.18045734485E+02  0.27982240608E+02  0.00000000000E+00 0.  1.
         -2    1    1    2    0  503 -0.12641187523E+02 -0.17249858968E+02  0.31773642776E+02  0.38300412943E+02  0.00000000000E+00 0. -1.
</event>
<event>
 4    1  0.1842931E+004  0.2074265E+02  0.7546771E-02  0.1522971E+00
         21   -1    0    0  503  502  0.00000000000E+00  0.00000000000E+00  0.14316870224E+03  0.14316870224E+03  0.00000000000E+00 0.  1.
         21   -1    0    0  501  503 -0.00000000000E+00 -0.00000000000E+00 -0.33578057041E+01  0.33578057041E+01  0.00000000000E+00 0. -1.
          2    1    1    2  501    0 -0.29149233647E+01  0.20536816129E+02  0.93645022731E+02  0.95914794881E+02  0.00000000000E+00 0. -1.
         -2    1    1    2    0  502  0.29149233647E+01 -0.20536816129E+02  0.46165873809E+02  0.50611713066E+02  0.00000000000E+00 0.  1.
</event>
<event>
 4    1  0.1842931E+004  0.3721524E+02  0.7546771E-02  0.1365625E+00
         21   -1    0    0  501  502  0.00000000000E+00  0.00000000000E+00  0.85025016021E+02  0.85025016021E+02  0.00000000000E+00 0. -1.
         21   -1    0    0  502  503 -0.00000000000E+00 -0.00000000000E+00 -0.21005512657E+02  0.21005512657E+02  0.00000000000E+00 0.  1.
          2    1    1    2  501    0  0.32354366378E+02 -0.18389379628E+02  0.57131149715E+02  0.68183154624E+02  0.00000000000E+00 0. -1.
         -2    1    1    2    0  503 -0.32354366378E+02  0.18389379628E+02  0.68883536494E+01  0.37847374054E+02  0.00000000000E+00 0.  1.
</event>
<event>
 4    1  0.1842931E+004  0.3225043E+02  0.7546771E-02  0.1400998E+00
         21   -1    0    0  501  502  0.00000000000E+00  0.00000000000E+00  0.75949465987E+01  0.75949465987E+01  0.00000000000E+00 0.  1.
         21   -1    0    0  502  503 -0.00000000000E+00 -0.00000000000E+00 -0.39886379645E+03  0.39886379645E+03  0.00000000000E+00 0. -1.
          2    1    1    2  501    0 -0.10191677275E+02 -0.30597706630E+02 -0.30948114152E+02  0.44697602914E+02  0.00000000000E+00 0.  1.
         -2    1    1    2    0  503  0.10191677275E+02  0.30597706630E+02 -0.36032073569E+03  0.36176114013E+03  0.00000000000E+00 0. -1.
</event>
<event>
 4    1  0.1842931E+004  0.2193816E+02  0.7546771E-02  0.1506280E+00
         21   -1    0    0  503  502  0.00000000000E+00  0.00000000000E+00  0.57993389337E+01  0.57993389337E+01  0.00000000000E+00 0. -1.
         21   -1    0    0  501  503 -0.00000000000E+00 -0.00000000000E+00 -0.92087098411E+02  0.92087098411E+02  0.00000000000E+00 0.  1.
          2    1    1    2  501    0 -0.12169528511E+01 -0.21904384095E+02 -0.58527605917E+02  0.62504109234E+02  0.00000000000E+00 0.  1.
         -2    1    1    2    0  502  0.12169528511E+01  0.21904384095E+02 -0.27760153560E+02  0.35382328110E+02  0.00000000000E+00 0. -1.
</event>
<event>
 4    1  0.1842931E+004  0.2176620E+02  0.7546771E-02  0.1508601E+00
         21   -1    0    0  503  502  0.00000000000E+00  0.00000000000E+00  0.23675903483E+03  0.23675903483E+03  0.00000000000E+00 0. -1.
         21   -1    0    0  501  503 -0.00000000000E+00 -0.00000000000E+00 -0.21789954637E+01  0.21789954637E+01  0.00000000000E+00 0.  1.
          2    1    1    2  501    0 -0.15595279540E+01 -0.21710263623E+02  0.83149872526E+02  0.85951550162E+02  0.00000000000E+00 0.  1.
         -2    1    1    2    0  502  0.15595279540E+01  0.21710263623E+02  0.15143016684E+03  0.15298648013E+03  0.00000000000E+00 0. -1.
</event>
<event>
 4    1  0.1842931E+004  0.3758738E+02  0.7546771E-02  0.1363235E+00
         21   -1    0    0  503  502  0.00000000000E+00  0.00000000000E+00  0.14150504200E+02  0.14150504200E+02  0.00000000000E+00 0.  1.
         21   -1    0    0  501  503 -0.00000000000E+00 -0.00000000000E+00 -0.19278234974E+03  0.19278234974E+03  0.00000000000E+00 0. -1.
          2    1    1    2  501    0 -0.19966637644E+02 -0.31845635135E+02 -0.16115629162E+03  0.16548160449E+03  0.00000000000E+00 0. -1.
         -2    1    1    2    0  502  0.19966637644E+02  0.31845635135E+02 -0.17475553916E+02  0.41451249446E+02  0.00000000000E+00 0.  1.
</event>
<event>
 4    1  0.1842931E+004  0.2164044E+02  0.7546771E-02  0.1510314E+00
         21   -1    0    0  503  502  0.00000000000E+00  0.00000000000E+00  0.41739672378E+02  0.41739672378E+02  0.00000000000E+00 0. -1.
         21   -1    0    0  501  503 -0.00000000000E+00 -0.00000000000E+00 -0.15714832616E+02  0.15714832616E+02  0.00000000000E+00 0.  1.
          2    1    1    2  501    0  0.18987754939E+02 -0.10381414509E+02 -0.23517163217E+01  0.21767847263E+02  0.00000000000E+00 0. -1.
         -2    1    1    2    0  502 -0.18987754939E+02  0.10381414509E+02  0.28376556083E+02  0.35686657730E+02  0.00000000000E+00 0.  1.
</event>
<event>
 4    1  0.1842931E+004  0.2590129E+02  0.7546771E-02  0.1458968E+00
         21   -1    0    0  503  502  0.00000000000E+00  0.00000000000E+00  0.19913333607E+02  0.19913333607E+02  0.00000000000E+00 0.  1.
         21   -1    0    0  501  503 -0.00000000000E+00 -0.00000000000E+00 -0.10305561500E+03  0.10305561500E+03  0.00000000000E+00 0. -1.
          2    1    1    2  501    0  0.24989160098E+02  0.68131316421E+01 -0.92014299831E+02  0.95590314669E+02  0.00000000000E+00 0. -1.
         -2    1    1    2    0  502 -0.24989160098E+02 -0.68131316421E+01  0.88720184371E+01  0.27378633938E+02  0.00000000000E+00 0.  1.
</event>
<event>
 4    1  0.1842931E+004  0.3024656E+02  0.7546771E-02  0.1417466E+00
         21   -1    0    0  501  502  0.00000000000E+00  0.00000000000E+00  0.31063405788E+01  0.31063405788E+01  0.00000000000E+00 0.  1.
         21   -1    0    0  502  503 -0.00000000000E+00 -0.00000000000E+00 -0.37938928102E+03  0.37938928102E+03  0.00000000000E+00 0. -1.
          2    1    1    2  501    0  0.15126566968E+02 -0.26192394042E+02 -0.97682902132E+02  0.10225851506E+03  0.00000000000E+00 0.  1.
         -2    1    1    2    0  503 -0.15126566968E+02  0.26192394042E+02 -0.27860003830E+03  0.28023710653E+03  0.00000000000E+00 0. -1.
</event>
<event>
 4    1  0.1842931E+004  0.2297502E+02  0.7546771E-02  0.1492812E+00
         21   -1    0    0  501  502  0.00000000000E+00  0.00000000000E+00  0.12776380465E+03  0.12776380465E+03  0.00000000000E+00 0.  1.
         21   -1    0    0  502  503 -0.00000000000E+00 -0.00000000000E+00 -0.87074392919E+01  0.87074392919E+01  0.00000000000E+00 0. -1.
          2    1    1    2  501    0 -0.10294605131E+02 -0.20539537030E+02  0.10899429658E+03  0.11138944368E+03  0.00000000000E+00 0.  1.
         -2    1    1    2    0  503  0.10294605131E+02  0.20539537030E+02  0.10062068775E+02  0.25081800260E+02  0.00000000000E+00 0. -1.
</event>
<event>
 4    1  0.1842931E+004  0.2385288E+02  0.7546771E-02  0.1482057E+00
         21   -1    0    0  503  502  0.00000000000E+00  0.00000000000E+00  0.35391235236E+02  0.35391235236E+02  0.00000000000E+00 0.  1.
         21   -1    0    0  501  503 -0.00000000000E+00 -0.00000000000E+00 -0.39631624139E+02  0.39631624139E+02  0.00000000000E+00 0. -1.
          2    1    1    2  501    0  0.23529932596E+02 -0.39118095012E+01 -0.31039459979E+02  0.39145983924E+02  0.00000000000E+00 0. -1.
         -2    1    1    2    0  502 -0.23529932596E+02  0.39118095012E+01  0.26799071077E+02  0.35876875451E+02  0.00000000000E+00 0.  1.
</event>
<event>
 4    1  0.1842931E+004  0.2685379E+02  0.7546771E-02  0.1449082E+00
         21   -1    0    0  503  502  0.00000000000E+00  0.00000000000E+00  0.82083653151E+03  0.82083653151E+03  0.00000000000E+00 0. -1.
         21   -1    0    0  501  503 -0.00000000000E+00 -0.00000000000E+00 -0.22550804142E+01  0.22550804142E+01  0.00000000000E+00 0.  1.
          2    1    1    2  501    0  0.14283938345E+02 -0.22739728333E+02  0.87751564937E+02  0.91768531035E+02  0.00000000000E+00 0.  1.
         -2    1    1    2    0  502 -0.14283938345E+02  0.22739728333E+02  0.73082988616E+03  0.73132308089E+03  0.00000000000E+00 0. -1.
</event>
<event>
 4    1  0.1842931E+004  0.2976063E+02  0.7546771E-02  0.1421688E+00
         21   -1    0    0  503  502  0.00000000000E+00  0.00000000000E+00  0.51812522021E+02  0.51812522021E+02  0.00000000000E+00 0.  1.
         21   -1    0    0  501  503 -0.00000000000E+00 -0.00000000000E+00 -0.17218330326E+02  0.17218330326E+02  0.00000000000E+00 0. -1.
          2    1    1    2  501    0 -0.28477440440E+02  0.86446693000E+01  0.20227398809E+02  0.35983921186E+02  0.00000000000E+00 0.  1.
         -2    1    1    2    0  502  0.28477440440E+02 -0.86446693000E+01  0.14366792887E+02  0.33046931161E+02  0.00000000000E+00 0. -1.
</event>
<event>
 4    1  0.1842931E+004  0.2211374E+02  0.7546771E-02  0.1503937E+00
         21   -1    0    0  503  502  0.00000000000E+00  0.00000000000E+00  0.71779219728E+01  0.71779219728E+01  0.00000000000E+00 0.  1.
         21   -1    0    0  501  503 -0.00000000000E+00 -0.00000000000E+00 -0.69655807768E+02  0.69655807768E+02  0.00000000000E+00 0. -1.
          2    1    1    2  501    0 -0.69425106364E+01  0.20995691209E+02 -0.25549406037E+02  0.33790378099E+02  0.00000000000E+00 0.  1.
         -2    1    1    2    0  502  0.69425106364E+01 -0.20995691209E+02 -0.36928479758E+02  0.43043351641E+02  0.00000000000E+00 0. -1.
</event>
<event>
 4    1  0.1842931E+004  0.2193518E+02  0.7546771E-02  0.1506320E+00
         21   -1    0    0  503  502  0.00000000000E+00  0.00000000000E+00  0.98189703039E+01  0.98189703039E+01  0.00000000000E+00 0.  1.
         21   -1    0    0  501  503 -0.00000000000E+00 -0.00000000000E+00 -0.68636872112E+02  0.68636872112E+02  0.00000000000E+00 0. -1.
          2    1    1    2  501    0 -0.26449685420E+01 -0.21775127801E+02 -0.50390007836E+02  0.54957301053E+02  0.00000000000E+00 0. -1.
         -2    1    1    2    0  502  0.26449685420E+01  0.21775127801E+02 -0.84278939720E+01  0.23498541362E+02  0.00000000000E+00 0.  1.
</event>
<event>
 4    1  0.1842931E+004  0.3089010E+02  0.7546771E-02  0.1412016E+00
         21   -1    0    0  501  502  0.00000000000E+00  0.00000000000E+00  0.61034993173E+03  0.61034993173E+03  0.00000000000E+00 0.  1.
         21   -1    0    0  502  503 -0.00000000000E+00 -0.00000000000E+00 -0.30388166410E+01  0.30388166410E+01  0.00000000000E+00 0. -1.
          2    1    1    2  501    0 -0.13160284245E+02 -0.27946467592E+02  0.51736141929E+03  0.51828277639E+03  0.00000000000E+00 0.  1.
         -2    1    1    2    0  503  0.13160284245E+02  0.27946467592E+02  0.89949695804E+02  0.95105971987E+02  0.00000000000E+00 0. -1.
</event>
<event>
 4    1  0.1842931E+004  0.2577090E+02  0.7546771E-02  0.1460361E+00
         21   -1    0    0  501  502  0.00000000000E+00  0.00000000000E+00  0.11839937006E+02  0.11839937006E+02  0.00000000000E+00 0.  1.
         21   -1    0    0  502  503 -0.00000000000E+00 -0.00000000000E+00 -0.59038133669E+03  0.59038133669E+03  0.00000000000E+00 0. -1.
          2    1    1    2  501    0  0.23777518668E+02 -0.99382613613E+01 -0.28215280395E+01  0.25924900258E+02  0.00000000000E+00 0.  1.
         -2    1    1    2    0  503 -0.23777518668E+02  0.99382613613E+01 -0.57571987165E+03  0.57629637344E+03  0.00000000000E+00 0. -1.
</event>
<event>
 4    1  0.1842931E+004  0.2603316E+02  0.7546771E-02  0.1457570E+00
         21   -1    0    0  501  502  0.00000000000E+00  0.00000000000E+00  0.62243481043E+02  0.62243481043E+02  0.00000000000E+00 0.  1.
         21   -1    0    0  502  503 -0.00000000000E+00 -0.00000000000E+00 -0.18610183529E+02  0.18610183529E+02  0.00000000000E+00 0. -1.
          2    1    1    2  501    0  0.99824286011E+01 -0.24043223303E+02  0.47857556006E+02  0.54480006741E+02  0.00000000000E+00 0.  1.
         -2    1    1    2    0  503 -0.99824286011E+01  0.24043223303E+02 -0.42242584925E+01  0.26373657831E+02  0.00000000000E+00 0. -1.
</event>
<event>
 4    1  0.1842931E+004  0.2432105E+02  0.7546771E-02  0.1476544E+00
         21   -1    0    0  501  502  0.00000000000E+00  0.00000000000E+00  0.16483622017E+02  0.16483622017E+02  0.00000000000E+00 0. -1.
         21   -1    0    0  502  503 -0.00000000000E+00 -0.00000000000E+00 -0.37391331920E+02  0.37391331920E+02  0.00000000000E+00 0.  1.
          2    1    1    2  501    0 -0.23478180435E+02  0.63473319992E+01 -0.50470307692E+01  0.24839204891E+02  0.00000000000E+00 0. -1.
         -2    1    1    2    0  503  0.23478180435E+02 -0.63473319992E+01 -0.15860679134E+02  0.29035749046E+02  0.00000000000E+00 0.  1.
</event>
<event>
 4    1  0.1842931E+004  0.2478004E+02  0.7546771E-02  0.1471279E+00
         21   -1    0    0  501  502  0.00000000000E+00  0.00000000000E+00  0.95914890086E+01  0.95914890086E+01  0.00000000000E+00 0.  1.
         21   -1    0    0  502  503 -0.00000000000E+00 -0.00000000000E+00 -0.12498011402E+03  0.12498011402E+03  0.00000000000E+00 0. -1.
          2    1    1    2  501    0 -0.20820473766E+02 -0.13437199736E+02 -0.10702238039E+02  0.26992376028E+02  0.00000000000E+00 0.  1.
         -2    1    1    2    0  503  0.20820473766E+02  0.13437199736E+02 -0.10468638697E+03  0.10757922700E+03  0.00000000000E+00 0. -1.
</event>
<event>
 4    1  0.1842931E+004  0.2135894E+02  0.7546771E-02  0.1514201E+00
         21   -1    0    0  501  502  0.00000000000E+00  0.00000000000E+00  0.10615223673E+02  0.10615223673E+02  0.00000000000E+00 0. -1.
         21   -1    0    0  502  503 -0.00000000000E+00 -0.00000000000E+00 -0.43149246177E+02  0.43149246177E+02  0.00000000000E+00 0.  1.
          2    1    1    2  501    0 -0.34020849838E+01  0.21086251658E+02 -0.17968377067E+02  0.27911767512E+02  0.00000000000E+00 0.  1.
         -2    1    1    2    0  503  0.34020849838E+01 -0.21086251658E+02 -0.14565645437E+02  0.25852702338E+02  0.00000000000E+00 0. -1.
</event>
<event>
 4    1  0.1842931E+004  0.2174886E+02  0.7546771E-02  0.1508836E+00
         21   -1    0    0  503  502  0.00000000000E+00  0.00000000000E+00  0.51252774244E+00  0.51252774244E+00  0.00000000000E+00 0. -1.
         21   -1    0    0  501  503 -0.00000000000E+00 -0.00000000000E+00 -0.98366359303E+03  0.98366359303E+03  0.00000000000E+00 0.  1.
          2    1    1    2  501    0  0.17877950273E+02 -0.12385145552E+02 -0.36927349240E+03  0.36991340220E+03  0.00000000000E+00 0. -1.
         -2    1    1    2    0  502 -0.17877950273E+02  0.12385145552E+02 -0.61387757289E+03  0.61426271858E+03  0.00000000000E+00 0.  1.
</event>
<event>
 4    1  0.1842931E+004  0.2592980E+02  0.7546771E-02  0.1458665E+00
         21   -1    0    0  503  502  0.00000000000E+00  0.00000000000E+00  0.51453249172E+01  0.51453249172E+01  0.00000000000E+00 0.  1.
         21   -1    0    0  501  503 -0.00000000000E+00 -0.00000000000E+00 -0.25162039413E+03  0.25162039413E+03  0.00000000000E+00 0. -1.
          2    1    1    2  501    0 -0.16646278129E+02  0.19881051035E+02 -0.21224623912E+03  0.21382427548E+03  0.00000000000E+00 0. -1.
         -2    1    1    2    0  502  0.16646278129E+02 -0.19881051035E+02 -0.34228830096E+02  0.42941443566E+02  0.00000000000E+00 0.  1.
</event>
<event>
 4    1  0.1842931E+004  0.2427777E+02  0.7546771E-02  0.1477048E+00
         21   -1    0    0  503  502  0.00000000000E+00  0.00000000000E+00  0.76014226383E+01  0.76014226383E+01  0.00000000000E+00 0.  1.
         21   -1    0    0  501  503 -0.00000000000E+00 -0.00000000000E+00 -0.98993230077E+02  0.98993230077E+02  0.00000000000E+00 0. -1.
          2    1    1    2  501    0 -0.14292172842E+02 -0.19625081086E+02 -0.70507502263E+02  0.74570221185E+02  0.00000000000E+00 0. -1.
         -2    1    1    2    0  502  0.14292172842E+02  0.19625081086E+02 -0.20884305176E+02  0.32024431530E+02  0.00000000000E+00 0.  1.
</event>
<event>
 4    1  0.1842931E+004  0.2264869E+02  0.7546771E-02  0.1496957E+00
         21   -1    0    0  501  502  0.00000000000E+00  0.00000000000E+00  0.23649482985E+03  0.23649482985E+03  0.00000000000E+00 0.  1.
         21   -1    0    0  502  503 -0.00000000000E+00 -0.00000000000E+00 -0.26866765256E+01  0.26866765256E+01  0.00000000000E+00 0. -1.
          2    1    1    2  501    0 -0.22647142211E+02 -0.26476042153E+00  0.16939796564E+03  0.17090533611E+03  0.00000000000E+00 0.  1.
         -2    1    1    2    0  503  0.22647142211E+02  0.26476042153E+00  0.64410187683E+02  0.68276170262E+02  0.00000000000E+00 0. -1.
</event>
<event>
 4    1  0.1842931E+004  0.2081719E+02  0.7546771E-02  0.1521891E+00
         21   -1    0    0  503  502  0.00000000000E+00  0.00000000000E+00  0.14326302583E+02  0.14326302583E+02  0.00000000000E+00 0.  1.
         21   -1    0    0  501  503 -0.00000000000E+00 -0.00000000000E+00 -0.13597587889E+03  0.13597587889E+03  0.00000000000E+00 0. -1.
          2    1    1    2  501    0 -0.35148783757E+01 -0.20518307282E+02 -0.12709177192E+03  0.12878537881E+03  0.00000000000E+00 0. -1.
         -2    1    1    2    0  502  0.35148783757E+01  0.20518307282E+02  0.54421956187E+01  0.21516802664E+02  0.00000000000E+00 0.  1.
</event>
<event>
 4    1  0.1842931E+004  0.3142329E+02  0.7546771E-02  0.1407619E+00
         21   -1    0    0  503  502  0.00000000000E+00  0.00000000000E+00  0.21670965104E+01  0.21670965104E+01  0.00000000000E+00 0. -1.
         21   -1    0    0  501  503 -0.00000000000E+00 -0.00000000000E+00 -0.63814364062E+03  0.63814364062E+03  0.00000000000E+00 0.  1.
          2    1    1    2  501    0 -0.30131879454E+02 -0.89158679979E+01 -0.48919998982E+03  0.49020817302E+03  0.00000000000E+00 0. -1.
         -2    1    1    2    0  502  0.30131879454E+02  0.89158679979E+01 -0.14677655429E+03  0.15010256411E+03  0.00000000000E+00 0.  1.
</event>
<event>
 4    1  0.1842931E+004  0.2020809E+02  0.7546771E-02  0.1530878E+00
         21   -1    0    0  503  502  0.00000000000E+00  0.00000000000E+00  0.23247771798E+03  0.23247771798E+03  0.00000000000E+00 0. -1.
         21   -1    0    0  501  503 -0.00000000000E+00 -0.00000000000E+00 -0.19585276791E+01  0.19585276791E+01  0.00000000000E+00 0.  1.
          2    1    1    2  501    0 -0.10224263644E+02 -0.17430758309E+02  0.77620097093E+02  0.80207520688E+02  0.00000000000E+00 0. -1.
         -2    1    1    2    0  502  0.10224263644E+02  0.17430758309E+02  0.15289909321E+03  0.15422872497E+03  0.00000000000E+00 0.  1.
</event>
<event>
 4    1  0.1842931E+004  0.2454983E+02  0.7546771E-02  0.1473903E+00
         21   -1    0    0  501  502  0.00000000000E+00  0.00000000000E+00  0.18437477181E+03  0.18437477181E+03  0.00000000000E+00 0. -1.
         21   -1    0    0  502  503 -0.00000000000E+00 -0.00000000000E+00 -0.11994652358E+02  0.11994652358E+02  0.00000000000E+00 0.  1.
          2    1    1    2  501    0  0.12605091706E+02 -0.21066704194E+02  0.16993384823E+03  0.17169801145E+03  0.00000000000E+00 0. -1.
         -2    1    1    2    0  503 -0.12605091706E+02  0.21066704194E+02  0.24462712215E+01  0.24671412716E+02  0.00000000000E+00 0.  1.
</event>
<event>
 4    1  0.1842931E+004  0.2093060E+02  0.7546771E-02  0.1520258E+00
         21   -1    0    0  501  502  0.00000000000E+00  0.00000000000E+00  0.10704608470E+02  0.10704608470E+02  0.00000000000E+00 0. -1.
         21   -1    0    0  502  503 -0.00000000000E+00 -0.00000000000E+00 -0.13958194453E+03  0.13958194453E+03  0.00000000000E+00 0.  1.
          2    1    1    2  501    0 -0.20861859715E+02 -0.16949285826E+01 -0.12646441778E+01  0.20968769601E+02  0.00000000000E+00 0. -1.
         -2    1    1    2    0  503  0.20861859715E+02  0.16949285826E+01 -0.12761269189E+03  0.12931778340E+03  0.00000000000E+00 0.  1.
</event>
<event>
 4    1  0.1842931E+004  0.2048219E+02  0.7546771E-02  0.1526788E+00
         21   -1    0    0  501  502  0.00000000000E+00  0.00000000000E+00  0.28970159966E+02  0.28970159966E+02  0.00000000000E+00 0. -1.
         21   -1    0    0  502  503 -0.00000000000E+00 -0.00000000000E+00 -0.29860559958E+02  0.29860559958E+02  0.00000000000E+00 0.  1.
          2    1    1    2  501    0  0.19275911502E+02 -0.69252730993E+01  0.20665155515E+02  0.29095855791E+02  0.00000000000E+00 0. -1.
         -2    1    1    2    0  503 -0.19275911502E+02  0.69252730993E+01 -0.21555555507E+02  0.29734864132E+02  0.00000000000E+00 0.  1.
</event>
<event>
 4    1  0.1842931E+004  0.3061859E+02  0.7546771E-02  0.1414296E+00
         21   -1    0    0  501  502  0.00000000000E+00  0.00000000000E+00  0.29240873656E+01  0.29240873656E+01  0.00000000000E+00 0. -1.
         21   -1    0    0  502  503 -0.00000000000E+00 -0.00000000000E+00 -0.11176261547E+04  0.11176261547E+04  0.00000000000E+00 0.  1.
          2    1    1    2  501    0 -0.66016288807E+01  0.29898436793E+02 -0.84214996786E+02  0.89608390847E+02  0.00000000000E+00 0. -1.
         -2    1    1    2    0  503  0.66016288807E+01 -0.29898436793E+02 -0.10304870705E+04  0.10309418512E+04  0.00000000000E+00 0.  1.
</event>
<event>
 4    1  0.1842931E+004  0.2470654E+02  0.7546771E-02  0.1472113E+00
         21   -1    0    0  501  502  0.00000000000E+00  0.00000000000E+00  0.90633170236E+00  0.90633170236E+00  0.00000000000E+00 0. -1.
         21   -1    0    0  502  503 -0.00000000000E+00 -0.00000000000E+00 -0.67564155095E+03  0.67564155095E+03  0.00000000000E+00 0.  1.
          2    1    1    2  501    0 -0.23592618242E+02 -0.73349555007E+01 -0.31831703433E+03  0.31927440792E+03  0.00000000000E+00 0. -1.
         -2    1    1    2    0  503  0.23592618242E+02  0.73349555007E+01 -0.35641818492E+03  0.35727347473E+03  0.00000000000E+00 0.  1.
</event>
<event>
 4    1  0.1842931E+004  0.2572762E+02  0.7546771E-02  0.1460826E+00
         21   -1    0    0  501  502  0.00000000000E+00  0.00000000000E+00  0.16326196704E+02  0.16326196704E+02  0.00000000000E+00 0.  1.
         21   -1    0    0  502  503 -0.00000000000E+00 -0.00000000000E+00 -0.77123303608E+02  0.77123303608E+02  0.00000000000E+00 0. -1.
          2    1    1    2  501    0  0.25047219337E+02 -0.58776969240E+01 -0.62578011710E+02  0.67660313827E+02  0.00000000000E+00 0. -1.
         -2    1    1    2    0  503 -0.25047219337E+02  0.58776969240E+01  0.17809048058E+01  0.25789186485E+02  0.00000000000E+00 0.  1.
</event>
<event>
 4    1  0.1842931E+004  0.2374955E+02  0.7546771E-02  0.1483295E+00
         21   -1    0    0  501  502  0.00000000000E+00  0.00000000000E+00  0.14284085185E+03  0.14284085185E+03  0.00000000000E+00 0. -1.
         21   -1    0    0  502  503 -0.00000000000E+00 -0.00000000000E+00 -0.88925633419E+01  0.88925633419E+01  0.00000000000E+00 0.  1.
          2    1    1    2  501    0 -0.21001676513E+02 -0.11089220347E+02  0.12354194246E+03  0.12580402526E+03  0.00000000000E+00 0. -1.
         -2    1    1    2    0  503  0.21001676513E+02  0.11089220347E+02  0.10406346047E+02  0.25929389933E+02  0.00000000000E+00 0.  1.
</event>
<event>
 4    1  0.1842931E+004  0.2230383E+02  0.7546771E-02  0.1501430E+00
         21   -1    0    0  501  502  0.00000000000E+00  0.00000000000E+00  0.64185129469E+01  0.64185129469E+01  0.00000000000E+00 0. -1.
         21   -1    0    0  502  503 -0.00000000000E+00 -0.00000000000E+00 -0.18470349187E+03  0.18470349187E+03  0.00000000000E+00 0.  1.
          2    1    1    2  501    0 -0.10603138399E+02 -0.19622292223E+02 -0.16341151784E+02  0.27649487113E+02  0.00000000000E+00 0. -1.
         -2    1    1    2    0  503  0.10603138399E+02  0.19622292223E+02 -0.16194382714E+03  0.16347251770E+03  0.00000000000E+00 0.  1.
</event>
<event>
 4    1  0.1842931E+004  0.2321676E+02  0.7546771E-02  0.1489794E+00
         21   -1    0    0  501  502  0.00000000000E+00  0.00000000000E+00  0.10623543489E+01  0.10623543489E+01  0.00000000000E+00 0. -1.
         21   -1    0    0  502  503 -0.00000000000E+00 -0.00000000000E+00 -0.54801759064E+03  0.54801759064E+03  0.00000000000E+00 0.  1.
          2    1    1    2  501    0  0.13906748874E+02  0.18590863366E+02 -0.19871754470E+03  0.20006918913E+03  0.00000000000E+00 0.  1.
         -2    1    1    2    0  503 -0.13906748874E+02 -0.18590863366E+02 -0.34823769159E+03  0.34901075586E+03  0.00000000000E+00 0. -1.
</event>
<event>
 4    1  0.1842931E+004  0.3372957E+02  0.7546771E-02  0.1389721E+00
         21   -1    0    0  503  502  0.00000000000E+00  0.00000000000E+00  0.15571437713E+02  0.15571437713E+02  0.00000000000E+00 0.  1.
         21   -1    0    0  501  503 -0.00000000000E+00 -0.00000000000E+00 -0.75292721107E+02  0.75292721107E+02  0.00000000000E+00 0. -1.
          2    1    1    2  501    0  0.13852845841E+02  0.30753583358E+02 -0.37680244940E+02  0.50571583780E+02  0.00000000000E+00 0. -1.
         -2    1    1    2    0  502 -0.13852845841E+02 -0.30753583358E+02 -0.22041038455E+02  0.40292575041E+02  0.00000000000E+00 0.  1.
</event>
<event>
 4    1  0.1842931E+004  0.2201131E+02  0.7546771E-02  0.1505301E+00
         21   -1    0    0  501  502  0.00000000000E+00  0.00000000000E+00  0.94330673608E+00  0.94330673608E+00  0.00000000000E+00 0.  1.
         21   -1    0    0  502  503 -0.00000000000E+00 -0.00000000000E+00 -0.54270855668E+03  0.54270855668E+03  0.00000000000E+00 0. -1.
          2    1    1    2  501    0 -0.29517713647E+01 -0.21812489687E+02 -0.20794697941E+03  0.20910868921E+03  0.00000000000E+00 0.  1.
         -2    1    1    2    0  503  0.29517713647E+01  0.21812489687E+02 -0.33381827054E+03  0.33454317420E+03  0.00000000000E+00 0. -1.
</event>
<event>
 4    1  0.1842931E+004  0.2139924E+02  0.7546771E-02  0.1513640E+00
         21   -1    0    0  501  502  0.00000000000E+00  0.00000000000E+00  0.45067994003E+02  0.45067994003E+02  0.00000000000E+00 0.  1.
         21   -1    0    0  502  503 -0.00000000000E+00 -0.00000000000E+00 -0.16921320229E+02  0.16921320229E+02  0.00000000000E+00 0. -1.
          2    1    1    2  501    0  0.15813157381E+02 -0.14417755763E+02  0.33664455539E+02  0.39890139061E+02  0.00000000000E+00 0.  1.
         -2    1    1    2    0  503 -0.15813157381E+02  0.14417755763E+02 -0.55177817651E+01  0.22099175170E+02  0.00000000000E+00 0. -1.
</event>
<event>
 4    1  0.1842931E+004  0.2801339E+02  0.7546771E-02  0.1437686E+00
         21   -1    0    0  503  502  0.00000000000E+00  0.00000000000E+00  0.20228609323E+02  0.20228609323E+02  0.00000000000E+00 0. -1.
         21   -1    0    0  501  503 -0.00000000000E+00 -0.00000000000E+00 -0.42136704542E+02  0.42136704542E+02  0.00000000000E+00 0.  1.
          2    1    1    2  501    0 -0.27924583814E+02 -0.22288107254E+01 -0.19736739095E+02  0.34267898222E+02  0.00000000000E+00 0.  1.
         -2    1    1    2    0  502  0.27924583814E+02  0.22288107254E+01 -0.21713561242E+01  0.28097415644E+02  0.00000000000E+00 0. -1.
</event>
<event>
 4    1  0.1842931E+004  0.2152097E+02  0.7546771E-02  0.1511955E+00
         21   -1    0    0  501  502  0.00000000000E+00  0.00000000000E+00  0.40314186336E+02  0.40314186336E+02  0.00000000000E+00 0. -1.
         21   -1    0    0  502  503 -0.00000000000E+00 -0.00000000000E+00 -0.11925731043E+02  0.11925731043E+02  0.00000000000E+00 0.  1.
          2    1    1    2  501    0  0.88580374953E+01  0.19613444144E+02  0.91932512938E+01  0.23402305203E+02  0.00000000000E+00 0. -1.
         -2    1    1    2    0  503 -0.88580374953E+01 -0.19613444144E+02  0.19195203999E+02  0.28837612177E+02  0.00000000000E+00 0.  1.
</event>
<event>
 4    1  0.1842931E+004  0.2977864E+02  0.7546771E-02  0.1421530E+00
         21   -1    0    0  501  502  0.00000000000E+00  0.00000000000E+00  0.44325508876E+01  0.44325508876E+01  0.00000000000E+00 0.  1.
         21   -1    0    0  502  503 -0.00000000000E+00 -0.00000000000E+00 -0.22367385527E+03  0.22367385527E+03  0.00000000000E+00 0. -1.
          2    1    1    2  501    0 -0.26185571632E+02 -0.14180389167E+02 -0.72561026970E+02  0.78433858975E+02  0.00000000000E+00 0.  1.
         -2    1    1    2    0  503  0.26185571632E+02  0.14180389167E+02 -0.14668027742E+03  0.14967254719E+03  0.00000000000E+00 0. -1.
</event>
<event>
 4    1  0.1842931E+004  0.2687119E+02  0.7546771E-02  0.1448906E+00
         21   -1    0    0  503  502  0.00000000000E+00  0.00000000000E+00  0.43947950758E+02  0.43947950758E+02  0.00000000000E+00 0.  1.
         21   -1    0    0  501  503 -0.00000000000E+00 -0.00000000000E+00 -0.22764682915E+02  0.22764682915E+02  0.00000000000E+00 0. -1.
          2    1    1    2  501    0  0.26780354194E+02 -0.22076279218E+01 -0.70043162150E+01  0.27769073399E+02  0.00000000000E+00 0. -1.
         -2    1    1    2    0  502 -0.26780354194E+02  0.22076279218E+01  0.28187584059E+02  0.38943560274E+02  0.00000000000E+00 0.  1.
</event>
<event>
 4    1  0.1842931E+004  0.2026349E+02  0.7546771E-02  0.1530045E+00
         21   -1    0    0  501  502  0.00000000000E+00  0.00000000000E+00  0.15773569228E+02  0.15773569228E+02  0.00000000000E+00 0.  1.
         21   -1    0    0  502  503 -0.00000000000E+00 -0.00000000000E+00 -0.35249411093E+02  0.35249411093E+02  0.00000000000E+00 0. -1.
          2    1    1    2  501    0 -0.17302098049E+02  0.10547339126E+02  0.33080741005E+01  0.20531739181E+02  0.00000000000E+00 0.  1.
         -2    1    1    2    0  503  0.17302098049E+02 -0.10547339126E+02 -0.22783915966E+02  0.30491241141E+02  0.00000000000E+00 0. -1.
</event>
<event>
 4    1  0.1842931E+004  0.2117486E+02  0.7546771E-02  0.1516783E+00
         21   -1    0    0  503  502  0.00000000000E+00  0.00000000000E+00  0.15498607140E+02  0.15498607140E+02  0.00000000000E+00 0. -1.
         21   -1    0    0  501  503 -0.00000000000E+00 -0.00000000000E+00 -0.55554273565E+02  0.55554273565E+02  0.00000000000E+00 0.  1.
          2    1    1    2  501    0 -0.11236133181E+02 -0.17947809672E+02 -0.44621988859E+02  0.49391258849E+02  0.00000000000E+00 0.  1.
         -2    1    1    2    0  502  0.11236133181E+02  0.17947809672E+02  0.45663224344E+01  0.21661621857E+02  0.00000000000E+00 0. -1.
</event>
<event>
 4    1  0.1842931E+004  0.2521743E+02  0.7546771E-02  0.1466386E+00
         21   -1    0    0  503  502  0.00000000000E+00  0.00000000000E+00  0.68078192991E+01  0.68078192991E+01  0.00000000000E+00 0. -1.
         21   -1    0    0  501  503 -0.00000000000E+00 -0.00000000000E+00 -0.11820817239E+03  0.11820817239E+03  0.00000000000E+00 0.  1.
          2    1    1    2  501    0  0.15869758637E+02  0.19597697619E+02 -0.84330147080E+02  0.88019842636E+02  0.00000000000E+00 0.  1.
         -2    1    1    2    0  502 -0.15869758637E+02 -0.19597697619E+02 -0.27070206007E+02  0.36996149049E+02  0.00000000000E+00 0. -1.
</event>
<event>
 4    1  0.1842931E+004  0.2089561E+02  0.7546771E-02  0.1520760E+00
         21   -1    0    0  503  502  0.00000000000E+00  0.00000000000E+00  0.22239545971E+01  0.22239545971E+01  0.00000000000E+00 0.  1.
         21   -1    0    0  501  503 -0.00000000000E+00 -0.00000000000E+00 -0.29527760851E+03  0.29527760851E+03  0.00000000000E+00 0. -1.
          2    1    1    2  501    0  0.20893024575E+02  0.32901062294E+00 -0.23263589757E+03  0.23357244607E+03  0.00000000000E+00 0.  1.
         -2    1    1    2    0  502 -0.20893024575E+02 -0.32901062294E+00 -0.60417756338E+02  0.63929117035E+02  0.00000000000E+00 0. -1.
</event>
<event>
 4    1  0.1842931E+004  0.2158821E+02  0.7546771E-02  0.1511030E+00
         21   -1    0    0  503  502  0.00000000000E+00  0.00000000000E+00  0.14139694658E+03  0.14139694658E+03  0.00000000000E+00 0.  1.
         21   -1    0    0  501  503 -0.00000000000E+00 -0.00000000000E+00 -0.33948475072E+01  0.33948475072E+01  0.00000000000E+00 0. -1.
          2    1    1    2  501    0 -0.19355502535E+02  0.95611396661E+01  0.81351566548E+02  0.84167263529E+02  0.00000000000E+00 0.  1.
         -2    1    1    2    0  502  0.19355502535E+02 -0.95611396661E+01  0.56650532521E+02  0.60624530555E+02  0.00000000000E+00 0. -1.
</event>
<event>
 4    1  0.1842931E+004  0.2235323E+02  0.7546771E-02  0.1500783E+00
         21   -1    0    0  501  502  0.00000000000E+00  0.00000000000E+00  0.30370040046E+03  0.30370040046E+03  0.00000000000E+00 0.  1.
         21   -1    0    0  502  503 -0.00000000000E+00 -0.00000000000E+00 -0.99500854215E+01  0.99500854215E+01  0.00000000000E+00 0. -1.
          2    1    1    2  501    0  0.10966034528E+02  0.19478526048E+02  0.29014927824E+03  0.29100905580E+03  0.00000000000E+00 0.  1.
         -2    1    1    2    0  503 -0.10966034528E+02 -0.19478526048E+02  0.36010367947E+01  0.22641430085E+02  0.00000000000E+00 0. -1.
</event>
<event>
 4    1  0.1842931E+004  0.3416828E+02  0.7546771E-02  0.1386507E+00
         21   -1    0    0  503  502  0.00000000000E+00  0.00000000000E+00  0.49007687867E+03  0.49007687867E+03  0.00000000000E+00 0. -1.
         21   -1    0    0  501  503 -0.00000000000E+00 -0.00000000000E+00 -0.29380014172E+01  0.29380014172E+01  0.00000000000E+00 0.  1.
          2    1    1    2  501    0 -0.25517666321E+02  0.22722671808E+02  0.35078452732E+03  0.35244468462E+03  0.00000000000E+00 0. -1.
         -2    1    1    2    0  502  0.25517666321E+02 -0.22722671808E+02  0.13635434993E+03  0.14057019547E+03  0.00000000000E+00 0.  1.
</event>
<event>
 4    1  0.1842931E+004  0.2915070E+02  0.7546771E-02  0.1427123E+00
         21   -1    0    0  503  502  0.00000000000E+00  0.00000000000E+00  0.17895869633E+02  0.17895869633E+02  0.00000000000E+00 0. -1.
         21   -1    0    0  501  503 -0.00000000000E+00 -0.00000000000E+00 -0.78420213097E+02  0.78420213097E+02  0.00000000000E+00 0.  1.
          2    1    1    2  501    0  0.29148279301E+02  0.37548194657E+00 -0.60509712345E+02  0.67165381418E+02  0.00000000000E+00 0.  1.
         -2    1    1    2    0  502 -0.29148279301E+02 -0.37548194657E+00 -0.14631118720E-01  0.29150701312E+02  0.00000000000E+00 0. -1.
</event>
<event>
 4    1  0.1842931E+004  0.3044989E+02  0.7546771E-02  0.1415726E+00
         21   -1    0    0  503  502  0.00000000000E+00  0.00000000000E+00  0.18994035452E+02  0.18994035452E+02  0.00000000000E+00 0. -1.
         21   -1    0    0  501  503 -0.00000000000E+00 -0.00000000000E+00 -0.57708576091E+02  0.57708576091E+02  0.00000000000E+00 0.  1.
          2    1    1    2  501    0 -0.28647268942E+02  0.10321317246E+02 -0.34412795763E+02  0.45950365828E+02  0.00000000000E+00 0.  1.
         -2    1    1    2    0  502  0.28647268942E+02 -0.10321317246E+02 -0.43017448763E+01  0.30752245715E+02  0.00000000000E+00 0. -1.
</event>
<event>
 4    1  0.1842931E+004  0.2610383E+02  0.7546771E-02  0.1456824E+00
         21   -1    0    0  501  502  0.00000000000E+00  0.00000000000E+00  0.22499803259E+03  0.22499803259E+03  0.00000000000E+00 0. -1.
         21   -1    0    0  502  503 -0.00000000000E+00 -0.00000000000E+00 -0.77835008429E+01  0.77835008429E+01  0.00000000000E+00 0.  1.
          2    1    1    2  501    0 -0.19215417216E+02 -0.17668553635E+02  0.19957882301E+03  0.20127870389E+03  0.00000000000E+00 0. -1.
         -2    1    1    2    0  503  0.19215417216E+02  0.17668553635E+02  0.17635708735E+02  0.31502829539E+02  0.00000000000E+00 0.  1.
</event>
<event>
 4    1  0.1842931E+004  0.2789360E+02  0.7546771E-02  0.1438833E+00
         21   -1    0    0  501  502  0.00000000000E+00  0.00000000000E+00  0.11020642277E+04  0.11020642277E+04  0.00000000000E+00 0. -1.
         21   -1    0    0  502  503 -0.00000000000E+00 -0.00000000000E+00 -0.79580142042E+00  0.79580142042E+00  0.00000000000E+00 0.  1.
          2    1    1    2  501    0  0.69582639400E+01 -0.27011762527E+02  0.73587632631E+03  0.73640479383E+03  0.00000000000E+00 0. -1.
         -2    1    1    2    0  503 -0.69582639400E+01  0.27011762527E+02  0.36539210000E+03  0.36645523532E+03  0.00000000000E+00 0.  1.
</event>
<event>
 4    1  0.1842931E+004  0.2037970E+02  0.7546771E-02  0.1528308E+00
         21   -1    0    0  503  502  0.00000000000E+00  0.00000000000E+00  0.51791055979E+03  0.51791055979E+03  0.00000000000E+00 0.  1.
         21   -1    0    0  501  503 -0.00000000000E+00 -0.00000000000E+00 -0.10749977402E+01  0.10749977402E+01  0.00000000000E+00 0. -1.
          2    1    1    2  501    0 -0.13195012820E+02 -0.15531385457E+02  0.12763513378E+03  0.12925192328E+03  0.00000000000E+00 0.  1.
         -2    1    1    2    0  502  0.13195012820E+02  0.15531385457E+02  0.38920042827E+03  0.38973363425E+03  0.00000000000E+00 0. -1.
</event>
<event>
 4    1  0.1842931E+004  0.2063374E+02  0.7546771E-02  0.1524559E+00
         21   -1    0    0  503  502  0.00000000000E+00  0.00000000000E+00  0.67427085972E+01  0.67427085972E+01  0.00000000000E+00 0. -1.
         21   -1    0    0  501  503 -0.00000000000E+00 -0.00000000000E+00 -0.86353855219E+02  0.86353855219E+02  0.00000000000E+00 0.  1.
          2    1    1    2  501    0 -0.20537437963E+02 -0.19912336811E+01 -0.63938677562E+02  0.67185607521E+02  0.00000000000E+00 0.  1.
         -2    1    1    2    0  502  0.20537437963E+02  0.19912336811E+01 -0.15672469060E+02  0.25910956295E+02  0.00000000000E+00 0. -1.
</event>
<event>
 4    1  0.1842931E+004  0.2823288E+02  0.7546771E-02  0.1435602E+00
         21   -1    0    0  501  502  0.00000000000E+00  0.00000000000E+00  0.44413036020E+02  0.44413036020E+02  0.00000000000E+00 0. -1.
         21   -1    0    0  502  503 -0.00000000000E+00 -0.00000000000E+00 -0.57723519422E+02  0.57723519422E+02  0.00000000000E+00 0.  1.
          2    1    1    2  501    0  0.15365869006E+02 -0.23685128921E+02  0.35737003309E+02  0.45543700638E+02  0.00000000000E+00 0. -1.
         -2    1    1    2    0  503 -0.15365869006E+02  0.23685128921E+02 -0.49047486711E+02  0.56592854805E+02  0.00000000000E+00 0.  1.
</event>
<event>
 4    1  0.1842931E+004  0.2482817E+02  0.7546771E-02  0.1470735E+00
         21   -1    0    0  501  502  0.00000000000E+00  0.00000000000E+00  0.59080335351E+02  0.59080335351E+02  0.00000000000E+00 0. -1.
         21   -1    0    0  502  503 -0.00000000000E+00 -0.00000000000E+00 -0.66364849090E+02  0.66364849090E+02  0.00000000000E+00 0.  1.
          2    1    1    2  501    0  0.21101222989E+02  0.13083448632E+02  0.53938987000E+02  0.59378889838E+02  0.00000000000E+00 0. -1.
         -2    1    1    2    0  503 -0.21101222989E+02 -0.13083448632E+02 -0.61223500740E+02  0.66066294603E+02  0.00000000000E+00 0.  1.
</event>
<event>
 4    1  0.1842931E+004  0.2023534E+02  0.7546771E-02  0.1530468E+00
         21   -1    0    0  501  502  0.00000000000E+00  0.00000000000E+00  0.40841620189E+00  0.40841620189E+00  0.00000000000E+00 0.  1.
         21   -1    0    0  502  503 -0.00000000000E+00 -0.00000000000E+00 -0.16897452241E+04  0.16897452241E+04  0.00000000000E+00 0. -1.
          2    1    1    2  501    0 -0.16686715639E+02  0.11446514114E+02 -0.13835790257E+04  0.13837269925E+04  0.00000000000E+00 0. -1.
         -2    1    1    2    0  503  0.16686715639E+02 -0.11446514114E+02 -0.30575778219E+03  0.30642664788E+03  0.00000000000E+00 0.  1.
</event>
<event>
 4    1  0.1842931E+004  0.4916184E+02  0.7546771E-02  0.1301848E+00
         21   -1    0    0  501  502  0.00000000000E+00  0.00000000000E+00  0.19956968389E+03  0.19956968389E+03  0.00000000000E+00 0. -1.
         21   -1    0    0  502  503 -0.00000000000E+00 -0.00000000000E+00 -0.32230904036E+02  0.32230904036E+02  0.00000000000E+00 0.  1.
          2    1    1    2  501    0 -0.45270182718E+02  0.19170203757E+02  0.17524224987E+03  0.18200750615E+03  0.00000000000E+00 0. -1.
         -2    1    1    2    0  503  0.45270182718E+02 -0.19170203757E+02 -0.79034700074E+01  0.49793081785E+02  0.00000000000E+00 0.  1.
</event>
<event>
 4    1  0.1842931E+004  0.3108941E+02  0.7546771E-02  0.1410360E+00
         21   -1    0    0  501  502  0.00000000000E+00  0.00000000000E+00  0.86282430562E+02  0.86282430562E+02  0.00000000000E+00 0. -1.
         21   -1    0    0  502  503 -0.00000000000E+00 -0.00000000000E+00 -0.15031706842E+02  0.15031706842E+02  0.00000000000E+00 0.  1.
          2    1    1    2  501    0 -0.25304717689E+02  0.18061628256E+02  0.61194057560E+02  0.68638646790E+02  0.00000000000E+00 0. -1.
         -2    1    1    2    0  503  0.25304717689E+02 -0.18061628256E+02  0.10056666161E+02  0.32675490614E+02  0.00000000000E+00 0.  1.
</event>
<event>
 4    1  0.1842931E+004  0.2321220E+02  0.7546771E-02  0.1489851E+00
         21   -1    0    0  501  502  0.00000000000E+00  0.00000000000E+00  0.19619683720E+03  0.19619683720E+03  0.00000000000E+00 0.  1.
         21   -1    0    0  502  503 -0.00000000000E+00 -0.00000000000E+00 -0.28926241948E+01  0.28926241948E+01  0.00000000000E+00 0. -1.
          2    1    1    2  501    0 -0.13414103264E+02  0.18943808934E+02  0.11904451219E+03  0.12128644585E+03  0.00000000000E+00 0. -1.
         -2    1    1    2    0  503  0.13414103264E+02 -0.18943808934E+02  0.74259700809E+02  0.77803015543E+02  0.00000000000E+00 0.  1.
</event>
<event>
 4    1  0.1842931E+004  0.2405729E+02  0.7546771E-02  0.1479632E+00
         21   -1    0    0  503  502  0.00000000000E+00  0.00000000000E+00  0.36452155396E+02  0.36452155396E+02  0.00000000000E+00 0.  1.
         21   -1    0    0  501  503 -0.00000000000E+00 -0.00000000000E+00 -0.22686757929E+02  0.22686757929E+02  0.00000000000E+00 0. -1.
          2    1    1    2  501    0 -0.16691272763E+02  0.17324976088E+02 -0.93175157993E+01  0.25798633366E+02  0.00000000000E+00 0. -1.
         -2    1    1    2    0  502  0.16691272763E+02 -0.17324976088E+02  0.23082913266E+02  0.33340279959E+02  0.00000000000E+00 0.  1.
</event>
<event>
 4    1  0.1842931E+004  0.2144534E+02  0.7546771E-02  0.1513001E+00
         21   -1    0    0  503  502  0.00000000000E+00  0.00000000000E+00  0.12774479110E+03  0.12774479110E+03  0.00000000000E+00 0. -1.
         21   -1    0    0  501  503 -0.00000000000E+00 -0.00000000000E+00 -0.51015731050E+01  0.51015731050E+01  0.00000000000E+00 0.  1.
          2    1    1    2  501    0 -0.19176827761E+02 -0.95995814437E+01  0.25287267559E+02  0.33156426036E+02  0.00000000000E+00 0. -1.
         -2    1    1    2    0  502  0.19176827761E+02  0.95995814437E+01  0.97355950436E+02  0.99689938170E+02  0.00000000000E+00 0.  1.
</event>
<event>
 4    1  0.1842931E+004  0.2283786E+02  0.7546771E-02  0.1494544E+00
         21   -1    0    0  503  502  0.00000000000E+00  0.00000000000E+00  0.37814961236E+01  0.37814961236E+01  0.00000000000E+00 0.  1.
         21   -1    0    0  501  503 -0.00000000000E+00 -0.00000000000E+00 -0.15334849976E+03  0.15334849976E+03  0.00000000000E+00 0. -1.
          2    1    1    2  501    0  0.16318178922E+02  0.15977633836E+02 -0.99698598879E+02  0.10228087976E+03  0.00000000000E+00 0. -1.
         -2    1    1    2    0  502 -0.16318178922E+02 -0.15977633836E+02 -0.49868404756E+02  0.54849116120E+02  0.00000000000E+00 0.  1.
</event>
<event>
 4    1  0.1842931E+004  0.2308913E+02  0.7546771E-02  0.1491382E+00
         21   -1    0    0  503  502  0.00000000000E+00  0.00000000000E+00  0.20996033948E+02  0.20996033948E+02  0.00000000000E+00 0.  1.
         21   -1    0    0  501  503 -0.00000000000E+00 -0.00000000000E+00 -0.64087763564E+02  0.64087763564E+02  0.00000000000E+00 0. -1.
          2    1    1    2  501    0 -0.15125204633E+02 -0.17445229748E+02 -0.54603157725E+02  0.59284168963E+02  0.00000000000E+00 0. -1.
         -2    1    1    2    0  502  0.15125204633E+02  0.17445229748E+02  0.11511428109E+02  0.25799628549E+02  0.00000000000E+00 0.  1.
</event>
<event>
 4    1  0.1842931E+004  0.2786420E+02  0.7546771E-02  0.1439115E+00
         21   -1    0    0  503  502  0.00000000000E+00  0.00000000000E+00  0.14072587895E+03  0.14072587895E+03  0.00000000000E+00 0. -1.
         21   -1    0    0  501  503 -0.00000000000E+00 -0.00000000000E+00 -0.10830568137E+02  0.10830568137E+02  0.00000000000E+00 0.  1.
          2    1    1    2  501    0 -0.22226185385E+02 -0.16805066116E+02  0.11871001277E+02  0.30287526067E+02  0.00000000000E+00 0.  1.
         -2    1    1    2    0  502  0.22226185385E+02  0.16805066116E+02  0.11802430953E+03  0.12126892102E+03  0.00000000000E+00 0. -1.
</event>
<event>
 4    1  0.1842931E+004  0.2167465E+02  0.7546771E-02  0.1509847E+00
         21   -1    0    0  501  502  0.00000000000E+00  0.00000000000E+00  0.98643494585E+01  0.98643494585E+01  0.00000000000E+00 0.  1.
         21   -1    0    0  502  503 -0.00000000000E+00 -0.00000000000E+00 -0.71803182593E+02  0.71803182593E+02  0.00000000000E+00 0. -1.
          2    1    1    2  501    0  0.21409361966E+02 -0.33807494546E+01 -0.72742991168E+01  0.22862757364E+02  0.00000000000E+00 0.  1.
         -2    1    1    2    0  503 -0.21409361966E+02  0.33807494546E+01 -0.54664534018E+02  0.58804774688E+02  0.00000000000E+00 0. -1.
</event>
<event>
 4    1  0.1842931E+004  0.2328107E+02  0.7546771E-02  0.1488999E+00
         21   -1    0    0  501  502  0.00000000000E+00  0.00000000000E+00  0.37038360335E+03  0.37038360335E+03  0.00000000000E+00 0.  1.
         21   -1    0    0  502  503 -0.00000000000E+00 -0.00000000000E+00 -0.15585888550E+02  0.15585888550E+02  0.00000000000E+00 0. -1.
          2    1    1    2  501    0 -0.26448463547E+01  0.23130349819E+02  0.36110059936E+03  0.36185031595E+03  0.00000000000E+00 0.  1.
         -2    1    1    2    0  503  0.26448463547E+01 -0.23130349819E+02 -0.63028845557E+01  0.24119175954E+02  0.00000000000E+00 0. -1.
</event>
<event>
 4    1  0.1842931E+004  0.2122380E+02  0.7546771E-02  0.1516093E+00
         21   -1    0    0  501  502  0.00000000000E+00  0.00000000000E+00  0.42039800178E+01  0.42039800178E+01  0.00000000000E+00 0.  1.
         21   -1    0    0  502  503 -0.00000000000E+00 -0.00000000000E+00 -0.19128917576E+03  0.19128917576E+03  0.00000000000E+00 0. -1.
          2    1    1    2  501    0  0.12353596074E+02 -0.17257995750E+02 -0.28715048152E+02  0.35707194564E+02  0.00000000000E+00 0.  1.
         -2    1    1    2    0  503 -0.12353596074E+02  0.17257995750E+02 -0.15837014759E+03  0.15978596121E+03  0.00000000000E+00 0. -1.
</event>
<event>
 4    1  0.1842931E+004  0.2374578E+02  0.7546771E-02  0.1483340E+00
         21   -1    0    0  503  502  0.00000000000E+00  0.00000000000E+00  0.82063440049E+00  0.82063440049E+00  0.00000000000E+00 0. -1.
         21   -1    0    0  501  503 -0.00000000000E+00 -0.00000000000E+00 -0.73667840904E+03  0.73667840904E+03  0.00000000000E+00 0.  1.
          2    1    1    2  501    0  0.18209768359E+02  0.15240290991E+02 -0.46358575936E+03  0.46419351397E+03  0.00000000000E+00 0. -1.
         -2    1    1    2    0  502 -0.18209768359E+02 -0.15240290991E+02 -0.27227201528E+03  0.27330552947E+03  0.00000000000E+00 0.  1.
</event>
<event>
 4    1  0.1842931E+004  0.3810138E+02  0.7546771E-02  0.1359986E+00
         21   -1    0    0  503  502  0.00000000000E+00  0.00000000000E+00  0.13429808147E+03  0.13429808147E+03  0.00000000000E+00 0. -1.
         21   -1    0    0  501  503 -0.00000000000E+00 -0.00000000000E+00 -0.12299532910E+02  0.12299532910E+02  0.00000000000E+00 0.  1.
          2    1    1    2  501    0 -0.14747745626E+02  0.35131450503E+02  0.35488176602E+02  0.52068469288E+02  0.00000000000E+00 0.  1.
         -2    1    1    2    0  502  0.14747745626E+02 -0.35131450503E+02  0.86510371956E+02  0.94529145090E+02  0.00000000000E+00 0. -1.
</event>
<event>
 4    1  0.1842931E+004  0.2576733E+02  0.7546771E-02  0.1460399E+00
         21   -1    0    0  501  502  0.00000000000E+00  0.00000000000E+00  0.12143363568E+02  0.12143363568E+02  0.00000000000E+00 0.  1.
         21   -1    0    0  502  503 -0.00000000000E+00 -0.00000000000E+00 -0.37379569150E+03  0.37379569150E+03  0.00000000000E+00 0. -1.
          2    1    1    2  501    0 -0.26049690618E+01  0.25635318511E+02 -0.25274886360E+01  0.25890994916E+02  0.00000000000E+00 0.  1.
         -2    1    1    2    0  503  0.26049690618E+01 -0.25635318511E+02 -0.35912483929E+03  0.36004806015E+03  0.00000000000E+00 0. -1.
</event>
<event>
 4    1  0.1842931E+004  0.4399518E+02  0.7546771E-02  0.1326541E+00
         21   -1    0    0  501  502  0.00000000000E+00  0.00000000000E+00  0.53219810679E+01  0.53219810679E+01  0.00000000000E+00 0. -1.
         21   -1    0    0  502  503 -0.00000000000E+00 -0.00000000000E+00 -0.53152057363E+03  0.53152057363E+03  0.00000000000E+00 0.  1.
          2    1    1    2  501    0  0.66488661052E+01  0.43489868548E+02 -0.11226975472E+03  0.12058222883E+03  0.00000000000E+00 0. -1.
         -2    1    1    2    0  503 -0.66488661052E+01 -0.43489868548E+02 -0.41392883785E+03  0.41626032587E+03  0.00000000000E+00 0.  1.
</event>
<event>
 4    1  0.1842931E+004  0.2709332E+02  0.7546771E-02  0.1446673E+00
         21   -1    0    0  501  502  0.00000000000E+00  0.00000000000E+00  0.31598426855E+02  0.31598426855E+02  0.00000000000E+00 0. -1.
         21   -1    0    0  502  503 -0.00000000000E+00 -0.00000000000E+00 -0.67169673760E+02  0.67169673760E+02  0.00000000000E+00 0.  1.
          2    1    1    2  501    0  0.22390313497E+02  0.15255227084E+02  0.22156017107E+02  0.34999102645E+02  0.00000000000E+00 0. -1.
         -2    1    1    2    0  503 -0.22390313497E+02 -0.15255227084E+02 -0.57727264012E+02  0.63768997971E+02  0.00000000000E+00 0.  1.
</event>
<event>
 4    1  0.1842931E+004  0.2098124E+02  0.7546771E-02  0.1519533E+00
         21   -1    0    0  503  502  0.00000000000E+00  0.00000000000E+00  0.27016278177E+02  0.27016278177E+02  0.00000000000E+00 0.  1.
         21   -1    0    0  501  503 -0.00000000000E+00 -0.00000000000E+00 -0.24781397266E+02  0.24781397266E+02  0.00000000000E+00 0. -1.
          2    1    1    2  501    0 -0.15159456029E+02 -0.14505293176E+02 -0.14038948506E+02  0.25244894778E+02  0.00000000000E+00 0. -1.
         -2    1    1    2    0  502  0.15159456029E+02  0.14505293176E+02  0.16273829416E+02  0.26552780665E+02  0.00000000000E+00 0.  1.
</event>
<event>
 4    1  0.1842931E+004  0.2188236E+02  0.7546771E-02  0.1507030E+00
         21   -1    0    0  503  502  0.00000000000E+00  0.00000000000E+00  0.10983185874E+02  0.10983185874E+02  0.00000000000E+00 0. -1.
         21   -1    0    0  501  503 -0.00000000000E+00 -0.00000000000E+00 -0.76995136868E+02  0.76995136868E+02  0.00000000000E+00 0.  1.
          2    1    1    2  501    0  0.13648743020E+02  0.17104077020E+02 -0.61977608496E+02  0.65727175443E+02  0.00000000000E+00 0.  1.
         -2    1    1    2    0  502 -0.13648743020E+02 -0.17104077020E+02 -0.40343424984E+01  0.22251147299E+02  0.00000000000E+00 0. -1.
</event>
<event>
 4    1  0.1842931E+004  0.2959606E+02  0.7546771E-02  0.1423140E+00
         21   -1    0    0  503  502  0.00000000000E+00  0.00000000000E+00  0.80994137311E+02  0.80994137311E+02  0.00000000000E+00 0. -1.
         21   -1    0    0  501  503 -0.00000000000E+00 -0.00000000000E+00 -0.27117371415E+02  0.27117371415E+02  0.00000000000E+00 0.  1.
          2    1    1    2  501    0  0.24885540161E+02  0.16019875078E+02 -0.14974511656E+02  0.33168697682E+02  0.00000000000E+00 0.  1.
         -2    1    1    2    0  502 -0.24885540161E+02 -0.16019875078E+02  0.68851277552E+02  0.74942811044E+02  0.00000000000E+00 0. -1.
</event>
<event>
 4    1  0.1842931E+004  0.2262157E+02  0.7546771E-02  0.1497306E+00
         21   -1    0    0  501  502  0.00000000000E+00  0.00000000000E+00  0.29181371813E+03  0.29181371813E+03  0.00000000000E+00 0.  1.
         21   -1    0    0  502  503 -0.00000000000E+00 -0.00000000000E+00 -0.57915179751E+01  0.57915179751E+01  0.00000000000E+00 0. -1.
          2    1    1    2  501    0  0.16932800864E+02 -0.15000517368E+02  0.26725959506E+03  0.26821526134E+03  0.00000000000E+00 0.  1.
         -2    1    1    2    0  503 -0.16932800864E+02  0.15000517368E+02  0.18762605092E+02  0.29389974758E+02  0.00000000000E+00 0. -1.
</event>
<event>
 4    1  0.1842931E+004  0.2006479E+02  0.7546771E-02  0.1533048E+00
         21   -1    0    0  501  502  0.00000000000E+00  0.00000000000E+00  0.41997659437E+01  0.41997659437E+01  0.00000000000E+00 0. -1.
         21   -1    0    0  502  503 -0.00000000000E+00 -0.00000000000E+00 -0.11067287159E+03  0.11067287159E+03  0.00000000000E+00 0.  1.
          2    1    1    2  501    0 -0.86200804731E+01  0.18118769607E+02 -0.32224689515E+02  0.37960851068E+02  0.00000000000E+00 0. -1.
         -2    1    1    2    0  503  0.86200804731E+01 -0.18118769607E+02 -0.74248416134E+02  0.76911786469E+02  0.00000000000E+00 0.  1.
</event>
<event>
 4    1  0.1842931E+004  0.3368384E+02  0.7546771E-02  0.1390060E+00
         21   -1    0    0  503  502  0.00000000000E+00  0.00000000000E+00  0.15498371285E+02  0.15498371285E+02  0.00000000000E+00 0. -1.
         21   -1    0    0  501  503 -0.00000000000E+00 -0.00000000000E+00 -0.12673885609E+03  0.12673885609E+03  0.00000000000E+00 0.  1.
          2    1    1    2  501    0 -0.22039188499E+02  0.25473035773E+02 -0.10184039457E+03  0.10726633837E+03  0.00000000000E+00 0.  1.
         -2    1    1    2    0  502  0.22039188499E+02 -0.25473035773E+02 -0.94000902312E+01  0.34970889001E+02  0.00000000000E+00 0. -1.
</event>
<event>
 4    1  0.1842931E+004  0.2388286E+02  0.7546771E-02  0.1481700E+00
         21   -1    0    0  501  502  0.00000000000E+00  0.00000000000E+00  0.28737655215E+02  0.28737655215E+02  0.00000000000E+00 0. -1.
         21   -1    0    0  502  503 -0.00000000000E+00 -0.00000000000E+00 -0.79749197004E+02  0.79749197004E+02  0.00000000000E+00 0.  1.
          2    1    1    2  501    0 -0.23122490432E+02  0.59784257125E+01  0.21505384708E+02  0.32138337064E+02  0.00000000000E+00 0. -1.
         -2    1    1    2    0  503  0.23122490432E+02 -0.59784257125E+01 -0.72516926497E+02  0.76348515155E+02  0.00000000000E+00 0.  1.
</event>
<event>
 4    1  0.1842931E+004  0.2263113E+02  0.7546771E-02  0.1497183E+00
         21   -1    0    0  503  502  0.00000000000E+00  0.00000000000E+00  0.13666695027E+02  0.13666695027E+02  0.00000000000E+00 0.  1.
         21   -1    0    0  501  503 -0.00000000000E+00 -0.00000000000E+00 -0.53425712803E+02  0.53425712803E+02  0.00000000000E+00 0. -1.
          2    1    1    2  501    0 -0.18834293586E+02  0.12547413314E+02 -0.38208961780E+02  0.44408253242E+02  0.00000000000E+00 0. -1.
         -2    1    1    2    0  502  0.18834293586E+02 -0.12547413314E+02 -0.15500559959E+01  0.22684154587E+02  0.00000000000E+00 0.  1.
</event>
<event>
 4    1  0.1842931E+004  0.3313938E+02  0.7546771E-02  0.1394138E+00
         21   -1    0    0  501  502  0.00000000000E+00  0.00000000000E+00  0.81220866510E+01  0.81220866510E+01  0.00000000000E+00 0.  1.
         21   -1    0    0  502  503 -0.00000000000E+00 -0.00000000000E+00 -0.16311334531E+03  0.16311334531E+03  0.00000000000E+00 0. -1.
          2    1    1    2  501    0 -0.23669010409E+02 -0.23194748573E+02 -0.42086337003E+02  0.53567510465E+02  0.00000000000E+00 0.  1.
         -2    1    1    2    0  503  0.23669010409E+02  0.23194748573E+02 -0.11290492166E+03  0.11766792150E+03  0.00000000000E+00 0. -1.
</event>
<event>
 4    1  0.1842931E+004  0.5891277E+02  0.7546771E-02  0.1263572E+00
         21   -1    0    0  501  502  0.00000000000E+00  0.00000000000E+00  0.33778835687E+03  0.33778835687E+03  0.00000000000E+00 0. -1.
         21   -1    0    0  502  503 -0.00000000000E+00 -0.00000000000E+00 -0.11682722626E+03  0.11682722626E+03  0.00000000000E+00 0.  1.
          2    1    1    2  501    0  0.49157717353E+02  0.32468965962E+02  0.32756261743E+03  0.33281824359E+03  0.00000000000E+00 0. -1.
         -2    1    1    2    0  503 -0.49157717353E+02 -0.32468965962E+02 -0.10660148682E+03  0.12179733954E+03  0.00000000000E+00 0.  1.
</event>
<event>
 4    1  0.1842931E+004  0.2795115E+02  0.7546771E-02  0.1438281E+00
         21   -1    0    0  503  502  0.00000000000E+00  0.00000000000E+00  0.23319269685E+02  0.23319269685E+02  0.00000000000E+00 0. -1.
         21   -1    0    0  501  503 -0.00000000000E+00 -0.00000000000E+00 -0.63904533023E+02  0.63904533023E+02  0.00000000000E+00 0.  1.
          2    1    1    2  501    0 -0.27901895199E+02  0.16585989328E+01 -0.50373236085E+02  0.57608416224E+02  0.00000000000E+00 0.  1.
         -2    1    1    2    0  502  0.27901895199E+02 -0.16585989328E+01  0.97879727481E+01  0.29615386484E+02  0.00000000000E+00 0. -1.
</event>
<event>
 4    1  0.1842931E+004  0.2365958E+02  0.7546771E-02  0.1484378E+00
         21   -1    0    0  503  502  0.00000000000E+00  0.00000000000E+00  0.60374966531E+00  0.60374966531E+00  0.00000000000E+00 0. -1.
         21   -1    0    0  501  503 -0.00000000000E+00 -0.00000000000E+00 -0.93556341782E+03  0.93556341782E+03  0.00000000000E+00 0.  1.
          2    1    1    2  501    0 -0.19862503544E+02 -0.12855213569E+02 -0.51182898808E+03  0.51237553475E+03  0.00000000000E+00 0. -1.
         -2    1    1    2    0  502  0.19862503544E+02  0.12855213569E+02 -0.42313068007E+03  0.42379163274E+03  0.00000000000E+00 0.  1.
</event>
<event>
 4    1  0.1842931E+004  0.2123018E+02  0.7546771E-02  0.1516004E+00
         21   -1    0    0  503  502  0.00000000000E+00  0.00000000000E+00  0.44045438791E+01  0.44045438791E+01  0.00000000000E+00 0. -1.
         21   -1    0    0  501  503 -0.00000000000E+00 -0.00000000000E+00 -0.11304962700E+03  0.11304962700E+03  0.00000000000E+00 0.  1.
          2    1    1    2  501    0  0.16996640050E+02 -0.12721426844E+02 -0.72405839001E+02  0.75454131732E+02  0.00000000000E+00 0. -1.
         -2    1    1    2    0  502 -0.16996640050E+02  0.12721426844E+02 -0.36239244115E+02  0.42000039143E+02  0.00000000000E+00 0.  1.
</event>
<event>
 4    1  0.1842931E+004  0.2494941E+02  0.7546771E-02  0.1469370E+00
         21   -1    0    0  503  502  0.00000000000E+00  0.00000000000E+00  0.15415061693E+04  0.15415061693E+04  0.00000000000E+00 0.  1.
         21   -1    0    0  501  503 -0.00000000000E+00 -0.00000000000E+00 -0.63916677481E+00  0.63916677481E+00  0.00000000000E+00 0. -1.
          2    1    1    2  501    0  0.19456650810E+02  0.15617672664E+02  0.30253338923E+03  0.30356041336E+03  0.00000000000E+00 0. -1.
         -2    1    1    2    0  502 -0.19456650810E+02 -0.15617672664E+02  0.12383336133E+04  0.12385849227E+04  0.00000000000E+00 0.  1.
</event>
<event>
 4    1  0.1842931E+004  0.2197241E+02  0.7546771E-02  0.1505821E+00
         21   -1    0    0  501  502  0.00000000000E+00  0.00000000000E+00  0.48899959656E+01  0.48899959656E+01  0.00000000000E+00 0. -1.
         21   -1    0    0  502  503 -0.00000000000E+00 -0.00000000000E+00 -0.61286343609E+03  0.61286343609E+03  0.00000000000E+00 0.  1.
          2    1    1    2  501    0  0.77084067330E+01  0.20575894593E+02 -0.21081187421E+02  0.30450015365E+02  0.00000000000E+00 0. -1.
         -2    1    1    2    0  503 -0.77084067330E+01 -0.20575894593E+02 -0.58689225270E+03  0.58730341669E+03  0.00000000000E+00 0.  1.
</event>
<event>
 4    1  0.1842931E+004  0.3118166E+02  0.7546771E-02  0.1409598E+00
         21   -1    0    0  503  502  0.00000000000E+00  0.00000000000E+00  0.25587892236E+02  0.25587892236E+02  0.00000000000E+00 0.  1.
         21   -1    0    0  501  503 -0.00000000000E+00 -0.00000000000E+00 -0.93718874160E+02  0.93718874160E+02  0.00000000000E+00 0. -1.
          2    1    1    2  501    0 -0.61127070300E+01 -0.30576637180E+02 -0.80062480889E+02  0.85920293148E+02  0.00000000000E+00 0. -1.
         -2    1    1    2    0  502  0.61127070300E+01  0.30576637180E+02  0.11931498965E+02  0.33386473249E+02  0.00000000000E+00 0.  1.
</event>
<event>
 4    1  0.1842931E+004  0.2107540E+02  0.7546771E-02  0.1518191E+00
         21   -1    0    0  503  502  0.00000000000E+00  0.00000000000E+00  0.17965825762E+03  0.17965825762E+03  0.00000000000E+00 0.  1.
         21   -1    0    0  501  503 -0.00000000000E+00 -0.00000000000E+00 -0.32085790815E+01  0.32085790815E+01  0.00000000000E+00 0. -1.
          2    1    1    2  501    0  0.17373602148E+02  0.11930227325E+02  0.44425813208E+02  0.49171386546E+02  0.00000000000E+00 0. -1.
         -2    1    1    2    0  502 -0.17373602148E+02 -0.11930227325E+02  0.13202386533E+03  0.13369545016E+03  0.00000000000E+00 0.  1.
</event>
<event>
 4    1  0.1842931E+004  0.2302831E+02  0.7546771E-02  0.1492143E+00
         21   -1    0    0  503  502  0.00000000000E+00  0.00000000000E+00  0.22213718836E+03  0.22213718836E+03  0.00000000000E+00 0.  1.
         21   -1    0    0  501  503 -0.00000000000E+00 -0.00000000000E+00 -0.25083991438E+01  0.25083991438E+01  0.00000000000E+00 0. -1.
          2    1    1    2  501    0  0.14934193070E+02 -0.17529196606E+02  0.85132271502E+02  0.88191873251E+02  0.00000000000E+00 0. -1.
         -2    1    1    2    0  502 -0.14934193070E+02  0.17529196606E+02  0.13449651772E+03  0.13645371426E+03  0.00000000000E+00 0.  1.
</event>
<event>
 4    1  0.1842931E+004  0.2221195E+02  0.7546771E-02  0.1502638E+00
         21   -1    0    0  501  502  0.00000000000E+00  0.00000000000E+00  0.60895916414E+03  0.60895916414E+03  0.00000000000E+00 0. -1.
         21   -1    0    0  502  503 -0.00000000000E+00 -0.00000000000E+00 -0.92101801030E+00  0.92101801030E+00  0.00000000000E+00 0.  1.
          2    1    1    2  501    0 -0.79651476201E+00 -0.22197665492E+02  0.40980091871E+03  0.41040244122E+03  0.00000000000E+00 0. -1.
         -2    1    1    2    0  503  0.79651476201E+00  0.22197665492E+02  0.19823722743E+03  0.19947774093E+03  0.00000000000E+00 0.  1.
</event>
<event>
 4    1  0.1842931E+004  0.2405168E+02  0.7546771E-02  0.1479698E+00
         21   -1    0    0  503  502  0.00000000000E+00  0.00000000000E+00  0.11550689186E+02  0.11550689186E+02  0.00000000000E+00 0.  1.
         21   -1    0    0  501  503 -0.00000000000E+00 -0.00000000000E+00 -0.50082201100E+02  0.50082201100E+02  0.00000000000E+00 0. -1.
          2    1    1    2  501    0 -0.72300454748E+01 -0.22939258543E+02 -0.19229548814E+02  0.30793809243E+02  0.00000000000E+00 0.  1.
         -2    1    1    2    0  502  0.72300454748E+01  0.22939258543E+02 -0.19301963100E+02  0.30839081043E+02  0.00000000000E+00 0. -1.
</event>
<event>
 4    1  0.1842931E+004  0.2351676E+02  0.7546771E-02  0.1486109E+00
         21   -1    0    0  503  502  0.00000000000E+00  0.00000000000E+00  0.31998835348E+01  0.31998835348E+01  0.00000000000E+00 0.  1.
         21   -1    0    0  501  503 -0.00000000000E+00 -0.00000000000E+00 -0.67968646939E+03  0.67968646939E+03  0.00000000000E+00 0. -1.
          2    1    1    2  501    0  0.12167061429E+02 -0.20124630426E+02 -0.63309681506E+03  0.63353343667E+03  0.00000000000E+00 0. -1.
         -2    1    1    2    0  502 -0.12167061429E+02  0.20124630426E+02 -0.43389770791E+02  0.49352916255E+02  0.00000000000E+00 0.  1.
</event>
<event>
 4    1  0.1842931E+004  0.2162044E+02  0.7546771E-02  0.1510588E+00
         21   -1    0    0  501  502  0.00000000000E+00  0.00000000000E+00  0.22518668343E+02  0.22518668343E+02  0.00000000000E+00 0.  1.
         21   -1    0    0  502  503 -0.00000000000E+00 -0.00000000000E+00 -0.22316979442E+02  0.22316979442E+02  0.00000000000E+00 0. -1.
          2    1    1    2  501    0  0.12564768963E+02  0.17594597739E+02  0.60258828604E+01  0.22444477115E+02  0.00000000000E+00 0. -1.
         -2    1    1    2    0  503 -0.12564768963E+02 -0.17594597739E+02 -0.58241939599E+01  0.22391170670E+02  0.00000000000E+00 0.  1.
</event>
<event>
 4    1  0.1842931E+004  0.2180094E+02  0.7546771E-02  0.1508130E+00
         21   -1    0    0  501  502  0.00000000000E+00  0.00000000000E+00  0.22354255226E+01  0.22354255226E+01  0.00000000000E+00 0. -1.
         21   -1    0    0  502  503 -0.00000000000E+00 -0.00000000000E+00 -0.31813671699E+03  0.31813671699E+03  0.00000000000E+00 0.  1.
          2    1    1    2  501    0  0.43828091074E+00 -0.21796533619E+02 -0.65695099113E+02  0.69217967432E+02  0.00000000000E+00 0. -1.
         -2    1    1    2    0  503 -0.43828091074E+00  0.21796533619E+02 -0.25020619235E+03  0.25115417508E+03  0.00000000000E+00 0.  1.
</event>
<event>
 4    1  0.1842931E+004  0.2183595E+02  0.7546771E-02  0.1507656E+00
         21   -1    0    0  503  502  0.00000000000E+00  0.00000000000E+00  0.91295399950E+02  0.91295399950E+02  0.00000000000E+00 0.  1.
         21   -1    0    0  501  503 -0.00000000000E+00 -0.00000000000E+00 -0.80539279909E+01  0.80539279909E+01  0.00000000000E+00 0. -1.
          2    1    1    2  501    0  0.10241738380E+01  0.21811922679E+02  0.12168509084E+02  0.24997630214E+02  0.00000000000E+00 0. -1.
         -2    1    1    2    0  502 -0.10241738380E+01 -0.21811922679E+02  0.71072962875E+02  0.74351697727E+02  0.00000000000E+00 0.  1.
</event>
<event>
 4    1  0.1842931E+004  0.2024693E+02  0.7546771E-02  0.1530294E+00
         21   -1    0    0  501  502  0.00000000000E+00  0.00000000000E+00  0.11031034710E+03  0.11031034710E+03  0.00000000000E+00 0.  1.
         21   -1    0    0  502  503 -0.00000000000E+00 -0.00000000000E+00 -0.48551353659E+01  0.48551353659E+01  0.00000000000E+00 0. -1.
          2    1    1    2  501    0 -0.48211686796E+01 -0.19664546610E+02  0.80616831272E+02  0.83120464058E+02  0.00000000000E+00 0. -1.
         -2    1    1    2    0  503  0.48211686796E+01  0.19664546610E+02  0.24838380462E+02  0.32045018408E+02  0.00000000000E+00 0.  1.
</event>
<event>
 4    1  0.1842931E+004  0.2331028E+02  0.7546771E-02  0.1488638E+00
         21   -1    0    0  503  502  0.00000000000E+00  0.00000000000E+00  0.34347730108E+03  0.34347730108E+03  0.00000000000E+00 0. -1.
         21   -1    0    0  501  503 -0.00000000000E+00 -0.00000000000E+00 -0.30672921376E+01  0.30672921376E+01  0.00000000000E+00 0.  1.
          2    1    1    2  501    0  0.18461494977E+02 -0.14231743074E+02  0.49628547829E+02  0.54830302455E+02  0.00000000000E+00 0.  1.
         -2    1    1    2    0  502 -0.18461494977E+02  0.14231743074E+02  0.29078146112E+03  0.29171429077E+03  0.00000000000E+00 0. -1.
</event>
<event>
 4    1  0.1842931E+004  0.2031059E+02  0.7546771E-02  0.1529340E+00
         21   -1    0    0  503  502  0.00000000000E+00  0.00000000000E+00  0.58220871552E+01  0.58220871552E+01  0.00000000000E+00 0.  1.
         21   -1    0    0  501  503 -0.00000000000E+00 -0.00000000000E+00 -0.26616439164E+03  0.26616439164E+03  0.00000000000E+00 0. -1.
          2    1    1    2  501    0 -0.10433381415E+01 -0.20283771634E+02 -0.24666545250E+03  0.24750023314E+03  0.00000000000E+00 0. -1.
         -2    1    1    2    0  502  0.10433381415E+01  0.20283771634E+02 -0.13676851984E+02  0.24486245656E+02  0.00000000000E+00 0.  1.
</event>
<event>
 4    1  0.1842931E+004  0.4053082E+02  0.7546771E-02  0.1345403E+00
         21   -1    0    0  501  502  0.00000000000E+00  0.00000000000E+00  0.73628444817E+01  0.73628444817E+01  0.00000000000E+00 0. -1.
         21   -1    0    0  502  503 -0.00000000000E+00 -0.00000000000E+00 -0.35856208044E+03  0.35856208044E+03  0.00000000000E+00 0.  1.
          2    1    1    2  501    0 -0.35926675991E+02  0.18762225491E+02 -0.63147493034E+02  0.75035678378E+02  0.00000000000E+00 0. -1.
         -2    1    1    2    0  503  0.35926675991E+02 -0.18762225491E+02 -0.28805174292E+03  0.29088924654E+03  0.00000000000E+00 0.  1.
</event>
<event>
 4    1  0.1842931E+004  0.3936433E+02  0.7546771E-02  0.1352252E+00
         21   -1    0    0  503  502  0.00000000000E+00  0.00000000000E+00  0.26479435241E+03  0.26479435241E+03  0.00000000000E+00 0. -1.
         21   -1    0    0  501  503 -0.00000000000E+00 -0.00000000000E+00 -0.72014784937E+01  0.72014784937E+01  0.00000000000E+00 0.  1.
          2    1    1    2  501    0  0.10358323112E+01  0.39350699222E+02  0.69922884143E+02  0.80241885600E+02  0.00000000000E+00 0. -1.
         -2    1    1    2    0  502 -0.10358323112E+01 -0.39350699222E+02  0.18766998977E+03  0.19175394530E+03  0.00000000000E+00 0.  1.
</event>
<event>
 4    1  0.1842931E+004  0.3429762E+02  0.7546771E-02  0.1385569E+00
         21   -1    0    0  501  502  0.00000000000E+00  0.00000000000E+00  0.55503576743E+02  0.55503576743E+02  0.00000000000E+00 0. -1.
         21   -1    0    0  502  503 -0.00000000000E+00 -0.00000000000E+00 -0.23534632580E+02  0.23534632580E+02  0.00000000000E+00 0.  1.
          2    1    1    2  501    0 -0.25633927989E+02 -0.22786587659E+02  0.28448163571E+02  0.44560350670E+02  0.00000000000E+00 0. -1.
         -2    1    1    2    0  503  0.25633927989E+02  0.22786587659E+02  0.35207805915E+01  0.34477858652E+02  0.00000000000E+00 0.  1.
</event>
<event>
 4    1  0.1842931E+004  0.2019037E+02  0.7546771E-02  0.1531145E+00
         21   -1    0    0  503  502  0.00000000000E+00  0.00000000000E+00  0.99050458514E+01  0.99050458514E+01  0.00000000000E+00 0. -1.
         21   -1    0    0  501  503 -0.00000000000E+00 -0.00000000000E+00 -0.53829328763E+02  0.53829328763E+02  0.00000000000E+00 0.  1.
          2    1    1    2  501    0  0.74100238232E+01 -0.18781438310E+02 -0.37424710729E+02  0.42523638734E+02  0.00000000000E+00 0.  1.
         -2    1    1    2    0  502 -0.74100238232E+01  0.18781438310E+02 -0.64995721830E+01  0.21210735881E+02  0.00000000000E+00 0. -1.
</event>
<event>
 4    1  0.1842931E+004  0.2189012E+02  0.7546771E-02  0.1506926E+00
         21   -1    0    0  501  502  0.00000000000E+00  0.00000000000E+00  0.72849726361E+01  0.72849726361E+01  0.00000000000E+00 0.  1.
         21   -1    0    0  502  503 -0.00000000000E+00 -0.00000000000E+00 -0.84830821681E+02  0.84830821681E+02  0.00000000000E+00 0. -1.
          2    1    1    2  501    0  0.21718156445E+02 -0.27384330188E+01 -0.60601640430E+02  0.64433967420E+02  0.00000000000E+00 0.  1.
         -2    1    1    2    0  503 -0.21718156445E+02  0.27384330188E+01 -0.16944208616E+02  0.27681826897E+02  0.00000000000E+00 0. -1.
</event>
<event>
 4    1  0.1842931E+004  0.2703840E+02  0.7546771E-02  0.1447223E+00
         21   -1    0    0  503  502  0.00000000000E+00  0.00000000000E+00  0.13439402101E+02  0.13439402101E+02  0.00000000000E+00 0.  1.
         21   -1    0    0  501  503 -0.00000000000E+00 -0.00000000000E+00 -0.54485585423E+02  0.54485585423E+02  0.00000000000E+00 0. -1.
          2    1    1    2  501    0 -0.44257306407E+01 -0.26673735934E+02 -0.19160652396E+02  0.33139189498E+02  0.00000000000E+00 0.  1.
         -2    1    1    2    0  502  0.44257306407E+01  0.26673735934E+02 -0.21885530927E+02  0.34785798026E+02  0.00000000000E+00 0. -1.
</event>
<event>
 4    1  0.1842931E+004  0.2628728E+02  0.7546771E-02  0.1454902E+00
         21   -1    0    0  503  502  0.00000000000E+00  0.00000000000E+00  0.33117155120E+02  0.33117155120E+02  0.00000000000E+00 0. -1.
         21   -1    0    0  501  503 -0.00000000000E+00 -0.00000000000E+00 -0.66565375246E+02  0.66565375246E+02  0.00000000000E+00 0.  1.
          2    1    1    2  501    0  0.24648744759E+02 -0.91356609998E+01 -0.58021274436E+02  0.63698423899E+02  0.00000000000E+00 0.  1.
         -2    1    1    2    0  502 -0.24648744759E+02  0.91356609998E+01  0.24573054310E+02  0.35984106467E+02  0.00000000000E+00 0. -1.
</event>
<event>
 4    1  0.1842931E+004  0.2014170E+02  0.7546771E-02  0.1531881E+00
         21   -1    0    0  501  502  0.00000000000E+00  0.00000000000E+00  0.15821726521E+01  0.15821726521E+01  0.00000000000E+00 0. -1.
         21   -1    0    0  502  503 -0.00000000000E+00 -0.00000000000E+00 -0.64924683279E+03  0.64924683279E+03  0.00000000000E+00 0.  1.
          2    1    1    2  501    0 -0.13057566548E+02 -0.15335837975E+02 -0.70706183095E+02  0.73519060783E+02  0.00000000000E+00 0. -1.
         -2    1    1    2    0  503  0.13057566548E+02  0.15335837975E+02 -0.57695847705E+03  0.57730994466E+03  0.00000000000E+00 0.  1.
</event>
<event>
 4    1  0.1842931E+004  0.3742085E+02  0.7546771E-02  0.1364300E+00
         21   -1    0    0  501  502  0.00000000000E+00  0.00000000000E+00  0.47968715351E+03  0.47968715351E+03  0.00000000000E+00 0. -1.
         21   -1    0    0  502  503 -0.00000000000E+00 -0.00000000000E+00 -0.37251912375E+01  0.37251912375E+01  0.00000000000E+00 0.  1.
          2    1    1    2  501    0 -0.24522467816E+02  0.28266027346E+02  0.35040757972E+03  0.35240004491E+03  0.00000000000E+00 0. -1.
         -2    1    1    2    0  503  0.24522467816E+02 -0.28266027346E+02  0.12555438255E+03  0.13101229984E+03  0.00000000000E+00 0.  1.
</event>
<event>
 4    1  0.1842931E+004  0.2482764E+02  0.7546771E-02  0.1470741E+00
         21   -1    0    0  501  502  0.00000000000E+00  0.00000000000E+00  0.51207818686E+02  0.51207818686E+02  0.00000000000E+00 0.  1.
         21   -1    0    0  502  503 -0.00000000000E+00 -0.00000000000E+00 -0.22920577755E+02  0.22920577755E+02  0.00000000000E+00 0. -1.
          2    1    1    2  501    0  0.23973920481E+01 -0.24711624541E+02  0.39683483791E+02  0.46810156611E+02  0.00000000000E+00 0.  1.
         -2    1    1    2    0  503 -0.23973920481E+01  0.24711624541E+02 -0.11396242861E+02  0.27318239831E+02  0.00000000000E+00 0. -1.
</event>
<event>
 4    1  0.1842931E+004  0.2508942E+02  0.7546771E-02  0.1467805E+00
         21   -1    0    0  503  502  0.00000000000E+00  0.00000000000E+00  0.41774272072E+01  0.41774272072E+01  0.00000000000E+00 0. -1.
         21   -1    0    0  501  503 -0.00000000000E+00 -0.00000000000E+00 -0.15371984299E+03  0.15371984299E+03  0.00000000000E+00 0.  1.
          2    1    1    2  501    0  0.23952263628E+02  0.74678005005E+01 -0.85862706830E+02  0.89453247015E+02  0.00000000000E+00 0.  1.
         -2    1    1    2    0  502 -0.23952263628E+02 -0.74678005005E+01 -0.63679708957E+02  0.68444023187E+02  0.00000000000E+00 0. -1.
</event>
<event>
 4    1  0.1842931E+004  0.2121474E+02  0.7546771E-02  0.1516221E+00
         21   -1    0    0  503  502  0.00000000000E+00  0.00000000000E+00  0.66175529261E+01  0.66175529261E+01  0.00000000000E+00 0. -1.
         21   -1    0    0  501  503 -0.00000000000E+00 -0.00000000000E+00 -0.17706921741E+03  0.17706921741E+03  0.00000000000E+00 0.  1.
          2    1    1    2  501    0  0.86785514366E+00  0.21196979252E+02 -0.15730436445E+03  0.15872847311E+03  0.00000000000E+00 0.  1.
         -2    1    1    2    0  502 -0.86785514366E+00 -0.21196979252E+02 -0.13147300029E+02  0.24958297218E+02  0.00000000000E+00 0. -1.
</event>
<event>
 4    1  0.1842931E+004  0.2587652E+02  0.7546771E-02  0.1459232E+00
         21   -1    0    0  501  502  0.00000000000E+00  0.00000000000E+00  0.48729244240E+03  0.48729244240E+03  0.00000000000E+00 0.  1.
         21   -1    0    0  502  503 -0.00000000000E+00 -0.00000000000E+00 -0.22896025748E+01  0.22896025748E+01  0.00000000000E+00 0. -1.
          2    1    1    2  501    0 -0.25279334488E+02 -0.55271582991E+01  0.39729125993E+03  0.39813306752E+03  0.00000000000E+00 0.  1.
         -2    1    1    2    0  503  0.25279334488E+02  0.55271582991E+01  0.87711579895E+02  0.91448977461E+02  0.00000000000E+00 0. -1.
</event>
<event>
 4    1  0.1842931E+004  0.2192088E+02  0.7546771E-02  0.1506512E+00
         21   -1    0    0  503  502  0.00000000000E+00  0.00000000000E+00  0.10814319410E+02  0.10814319410E+02  0.00000000000E+00 0.  1.
         21   -1    0    0  501  503 -0.00000000000E+00 -0.00000000000E+00 -0.63836620221E+02  0.63836620221E+02  0.00000000000E+00 0. -1.
          2    1    1    2  501    0  0.68861557910E+01 -0.20811190088E+02 -0.47088961700E+02  0.51941265757E+02  0.00000000000E+00 0. -1.
         -2    1    1    2    0  502 -0.68861557910E+01  0.20811190088E+02 -0.59333391111E+01  0.22709673874E+02  0.00000000000E+00 0.  1.
</event>
<event>
 4    1  0.1842931E+004  0.2040997E+02  0.7546771E-02  0.1527858E+00
         21   -1    0    0  503  502  0.00000000000E+00  0.00000000000E+00  0.61828105863E+03  0.61828105863E+03  0.00000000000E+00 0. -1.
         21   -1    0    0  501  503 -0.00000000000E+00 -0.00000000000E+00 -0.80181810370E+00  0.80181810370E+00  0.00000000000E+00 0.  1.
          2    1    1    2  501    0 -0.53362371923E+01 -0.19700031674E+02  0.18503045616E+03  0.18615272328E+03  0.00000000000E+00 0.  1.
         -2    1    1    2    0  502  0.53362371923E+01  0.19700031674E+02  0.43244878437E+03  0.43293015346E+03  0.00000000000E+00 0. -1.
</event>
<event>
 4    1  0.1842931E+004  0.4728865E+02  0.7546771E-02  0.1310376E+00
         21   -1    0    0  501  502  0.00000000000E+00  0.00000000000E+00  0.11043476038E+02  0.11043476038E+02  0.00000000000E+00 0.  1.
         21   -1    0    0  502  503 -0.00000000000E+00 -0.00000000000E+00 -0.50979065147E+03  0.50979065147E+03  0.00000000000E+00 0. -1.
          2    1    1    2  501    0  0.43705336029E+02  0.18057125570E+02 -0.47186325727E+02  0.66803933394E+02  0.00000000000E+00 0.  1.
         -2    1    1    2    0  503 -0.43705336029E+02 -0.18057125570E+02 -0.45156084971E+03  0.45403019412E+03  0.00000000000E+00 0. -1.
</event>
<event>
 4    1  0.1842931E+004  0.3114460E+02  0.7546771E-02  0.1409904E+00
         21   -1    0    0  501  502  0.00000000000E+00  0.00000000000E+00  0.15460542084E+03  0.15460542084E+03  0.00000000000E+00 0. -1.
         21   -1    0    0  502  503 -0.00000000000E+00 -0.00000000000E+00 -0.63014592065E+01  0.63014592065E+01  0.00000000000E+00 0.  1.
          2    1    1    2  501    0 -0.76384839300E+01  0.30193372658E+02  0.68835941972E+02  0.75553776189E+02  0.00000000000E+00 0.  1.
         -2    1    1    2    0  503  0.76384839300E+01 -0.30193372658E+02  0.79468019657E+02  0.85353103853E+02  0.00000000000E+00 0. -1.
</event>
<event>
 4    1  0.1842931E+004  0.2046782E+02  0.7546771E-02  0.1527000E+00
         21   -1    0    0  501  502  0.00000000000E+00  0.00000000000E+00  0.44703388137E+01  0.44703388137E+01  0.00000000000E+00 0. -1.
         21   -1    0    0  502  503 -0.00000000000E+00 -0.00000000000E+00 -0.12542036239E+03  0.12542036239E+03  0.00000000000E+00 0.  1.
          2    1    1    2  501    0  0.49818730762E+01  0.19852265322E+02 -0.27820735801E+02  0.34538744017E+02  0.00000000000E+00 0. -1.
         -2    1    1    2    0  503 -0.49818730762E+01 -0.19852265322E+02 -0.93129287780E+02  0.95351957191E+02  0.00000000000E+00 0.  1.
</event>
<event>
 4    1  0.1842931E+004  0.2675053E+02  0.7546771E-02  0.1450130E+00
         21   -1    0    0  503  502  0.00000000000E+00  0.00000000000E+00  0.75397490040E+02  0.75397490040E+02  0.00000000000E+00 0. -1.
         21   -1    0    0  501  503 -0.00000000000E+00 -0.00000000000E+00 -0.10872857160E+02  0.10872857160E+02  0.00000000000E+00 0.  1.
          2    1    1    2  501    0  0.57794704299E+01  0.26118740322E+02  0.16884125238E+02  0.31633282465E+02  0.00000000000E+00 0. -1.
         -2    1    1    2    0  502 -0.57794704299E+01 -0.26118740322E+02  0.47640507643E+02  0.54637064735E+02  0.00000000000E+00 0.  1.
</event>
<event>
 4    1  0.1842931E+004  0.2149655E+02  0.7546771E-02  0.1512292E+00
         21   -1    0    0  503  502  0.00000000000E+00  0.00000000000E+00  0.97527291311E+03  0.97527291311E+03  0.00000000000E+00 0.  1.
         21   -1    0    0  501  503 -0.00000000000E+00 -0.00000000000E+00 -0.11467242980E+01  0.11467242980E+01  0.00000000000E+00 0. -1.
          2    1    1    2  501    0 -0.14054613448E+02  0.16265593492E+02  0.11307794684E+03  0.11510310053E+03  0.00000000000E+00 0. -1.
         -2    1    1    2    0  502  0.14054613448E+02 -0.16265593492E+02  0.86104824197E+03  0.86131653688E+03  0.00000000000E+00 0.  1.
</event>
<event>
 4    1  0.1842931E+004  0.2489126E+02  0.7546771E-02  0.1470024E+00
         21   -1    0    0  503  502  0.00000000000E+00  0.00000000000E+00  0.52729880504E+03  0.52729880504E+03  0.00000000000E+00 0.  1.
         21   -1    0    0  501  503 -0.00000000000E+00 -0.00000000000E+00 -0.13965779555E+01  0.13965779555E+01  0.00000000000E+00 0. -1.
          2    1    1    2  501    0  0.22490626396E+02  0.10665191736E+02  0.15765580919E+03  0.15960867383E+03  0.00000000000E+00 0. -1.
         -2    1    1    2    0  502 -0.22490626396E+02 -0.10665191736E+02  0.36824641789E+03  0.36908670916E+03  0.00000000000E+00 0.  1.
</event>
<event>
 4    1  0.1842931E+004  0.4807454E+02  0.7546771E-02  0.1306744E+00
         21   -1    0    0  501  502  0.00000000000E+00  0.00000000000E+00  0.46566165487E+03  0.46566165487E+03  0.00000000000E+00 0.  1.
         21   -1    0    0  502  503 -0.00000000000E+00 -0.00000000000E+00 -0.12711490145E+02  0.12711490145E+02  0.00000000000E+00 0. -1.
          2    1    1    2  501    0  0.14381373346E+02  0.45873054039E+02  0.41321714820E+03  0.41600429391E+03  0.00000000000E+00 0.  1.
         -2    1    1    2    0  503 -0.14381373346E+02 -0.45873054039E+02  0.39733016532E+02  0.62368851111E+02  0.00000000000E+00 0. -1.
</event>
<event>
 4    1  0.1842931E+004  0.2046501E+02  0.7546771E-02  0.1527042E+00
         21   -1    0    0  501  502  0.00000000000E+00  0.00000000000E+00  0.24368585343E+01  0.24368585343E+01  0.00000000000E+00 0. -1.
         21   -1    0    0  502  503 -0.00000000000E+00 -0.00000000000E+00 -0.17985594321E+03  0.17985594321E+03  0.00000000000E+00 0.  1.
          2    1    1    2  501    0 -0.15449304574E+02  0.13421455778E+02 -0.69500243270E+02  0.72450674956E+02  0.00000000000E+00 0. -1.
         -2    1    1    2    0  503  0.15449304574E+02 -0.13421455778E+02 -0.10791884141E+03  0.10984212679E+03  0.00000000000E+00 0.  1.
</event>
<event>
 4    1  0.1842931E+004  0.4124746E+02  0.7546771E-02  0.1341327E+00
         21   -1    0    0  503  502  0.00000000000E+00  0.00000000000E+00  0.17140157449E+03  0.17140157449E+03  0.00000000000E+00 0.  1.
         21   -1    0    0  501  503 -0.00000000000E+00 -0.00000000000E+00 -0.11616762167E+02  0.11616762167E+02  0.00000000000E+00 0. -1.
          2    1    1    2  501    0  0.57550948732E+01  0.40843997010E+02  0.44982599071E+02  0.61031036595E+02  0.00000000000E+00 0. -1.
         -2    1    1    2    0  502 -0.57550948732E+01 -0.40843997010E+02  0.11480221325E+03  0.12198730006E+03  0.00000000000E+00 0.  1.
</event>
<event>
 4    1  0.1842931E+004  0.3973694E+02  0.7546771E-02  0.1350034E+00
         21   -1    0    0  503  502  0.00000000000E+00  0.00000000000E+00  0.97571756711E+01  0.97571756711E+01  0.00000000000E+00 0. -1.
         21   -1    0    0  501  503 -0.00000000000E+00 -0.00000000000E+00 -0.26800909464E+03  0.26800909464E+03  0.00000000000E+00 0.  1.
          2    1    1    2  501    0 -0.35915900785E+02 -0.17002122700E+02 -0.21654176945E+03  0.22015758452E+03  0.00000000000E+00 0. -1.
         -2    1    1    2    0  502  0.35915900785E+02  0.17002122700E+02 -0.41710149516E+02  0.57608685787E+02  0.00000000000E+00 0.  1.
</event>
<event>
 4    1  0.1842931E+004  0.2716374E+02  0.7546771E-02  0.1445970E+00
         21   -1    0    0  501  502  0.00000000000E+00  0.00000000000E+00  0.68279755467E+03  0.68279755467E+03  0.00000000000E+00 0. -1.
         21   -1    0    0  502  503 -0.00000000000E+00 -0.00000000000E+00 -0.12724414146E+01  0.12724414146E+01  0.00000000000E+00 0.  1.
          2    1    1    2  501    0  0.18339875205E+02 -0.20037905088E+02  0.47355105213E+03  0.47432949269E+03  0.00000000000E+00 0.  1.
         -2    1    1    2    0  503 -0.18339875205E+02  0.20037905088E+02  0.20797406112E+03  0.20974050339E+03  0.00000000000E+00 0. -1.
</event>
<event>
 4    1  0.1842931E+004  0.3074850E+02  0.7546771E-02  0.1413201E+00
         21   -1    0    0  501  502  0.00000000000E+00  0.00000000000E+00  0.62184421104E+01  0.62184421104E+01  0.00000000000E+00 0. -1.
         21   -1    0    0  502  503 -0.00000000000E+00 -0.00000000000E+00 -0.23566657887E+03  0.23566657887E+03  0.00000000000E+00 0.  1.
          2    1    1    2  501    0 -0.17163353442E+02 -0.25512537732E+02 -0.42680621100E+02  0.52603286022E+02  0.00000000000E+00 0. -1.
         -2    1    1    2    0  503  0.17163353442E+02  0.25512537732E+02 -0.18676751566E+03  0.18928173496E+03  0.00000000000E+00 0.  1.
</event>
<event>
 4    1  0.1842931E+004  0.2123659E+02  0.7546771E-02  0.1515914E+00
         21   -1    0    0  503  502  0.00000000000E+00  0.00000000000E+00  0.56916034821E+02  0.56916034821E+02  0.00000000000E+00 0.  1.
         21   -1    0    0  501  503 -0.00000000000E+00 -0.00000000000E+00 -0.10693009079E+02  0.10693009079E+02  0.00000000000E+00 0. -1.
          2    1    1    2  501    0  0.15180427819E+02 -0.14850842015E+02  0.59086601379E+01  0.22043256609E+02  0.00000000000E+00 0. -1.
         -2    1    1    2    0  502 -0.15180427819E+02  0.14850842015E+02  0.40314365604E+02  0.45565787290E+02  0.00000000000E+00 0.  1.
</event>
<event>
 4    1  0.1842931E+004  0.2195282E+02  0.7546771E-02  0.1506084E+00
         21   -1    0    0  501  502  0.00000000000E+00  0.00000000000E+00  0.10748852728E+01  0.10748852728E+01  0.00000000000E+00 0. -1.
         21   -1    0    0  502  503 -0.00000000000E+00 -0.00000000000E+00 -0.15956661550E+04  0.15956661550E+04  0.00000000000E+00 0.  1.
          2    1    1    2  501    0 -0.21736639071E+02 -0.30732639852E+01 -0.12031733937E+03  0.12230367362E+03  0.00000000000E+00 0. -1.
         -2    1    1    2    0  503  0.21736639071E+02  0.30732639852E+01 -0.14742739304E+04  0.14744373667E+04  0.00000000000E+00 0.  1.
</event>
<event>
 4    1  0.1842931E+004  0.2142706E+02  0.7546771E-02  0.1513254E+00
         21   -1    0    0  503  502  0.00000000000E+00  0.00000000000E+00  0.27736616006E+02  0.27736616006E+02  0.00000000000E+00 0. -1.
         21   -1    0    0  501  503 -0.00000000000E+00 -0.00000000000E+00 -0.18884335766E+02  0.18884335766E+02  0.00000000000E+00 0.  1.
          2    1    1    2  501    0  0.13693957297E+02  0.16480123668E+02  0.12616827808E+02  0.24865705027E+02  0.00000000000E+00 0.  1.
         -2    1    1    2    0  502 -0.13693957297E+02 -0.16480123668E+02 -0.37645475671E+01  0.21755246745E+02  0.00000000000E+00 0. -1.
</event>
<event>
 4    1  0.1842931E+004  0.2007663E+02  0.7546771E-02  0.1532868E+00
         21   -1    0    0  503  502  0.00000000000E+00  0.00000000000E+00  0.27889070649E+02  0.27889070649E+02  0.00000000000E+00 0.  1.
         21   -1    0    0  501  503 -0.00000000000E+00 -0.00000000000E+00 -0.33397069317E+02  0.33397069317E+02  0.00000000000E+00 0. -1.
          2    1    1    2  501    0  0.60719132214E+01  0.19136426466E+02 -0.25833093271E+02  0.32717268468E+02  0.00000000000E+00 0. -1.
         -2    1    1    2    0  502 -0.60719132214E+01 -0.19136426466E+02  0.20325094602E+02  0.28568871498E+02  0.00000000000E+00 0.  1.
</event>
<event>
 4    1  0.1842931E+004  0.4988810E+02  0.7546771E-02  0.1298658E+00
         21   -1    0    0  503  502  0.00000000000E+00  0.00000000000E+00  0.11657895215E+03  0.11657895215E+03  0.00000000000E+00 0.  1.
         21   -1    0    0  501  503 -0.00000000000E+00 -0.00000000000E+00 -0.24328816993E+02  0.24328816993E+02  0.00000000000E+00 0. -1.
          2    1    1    2  501    0  0.39580606420E+02  0.30367722587E+02  0.21467376109E+02  0.54310875676E+02  0.00000000000E+00 0. -1.
         -2    1    1    2    0  502 -0.39580606420E+02 -0.30367722587E+02  0.70782759051E+02  0.86596893469E+02  0.00000000000E+00 0.  1.
</event>
<event>
 4    1  0.1842931E+004  0.2036089E+02  0.7546771E-02  0.1528589E+00
         21   -1    0    0  503  502  0.00000000000E+00  0.00000000000E+00  0.38962961977E+02  0.38962961977E+02  0.00000000000E+00 0.  1.
         21   -1    0    0  501  503 -0.00000000000E+00 -0.00000000000E+00 -0.17658956893E+02  0.17658956893E+02  0.00000000000E+00 0. -1.
          2    1    1    2  501    0  0.39683816444E+01 -0.19970419583E+02 -0.71967765337E+01  0.21595353752E+02  0.00000000000E+00 0. -1.
         -2    1    1    2    0  502 -0.39683816444E+01  0.19970419583E+02  0.28500781617E+02  0.35026565118E+02  0.00000000000E+00 0.  1.
</event>
<event>
 4    1  0.1842931E+004  0.3600566E+02  0.7546771E-02  0.1373628E+00
         21   -1    0    0  501  502  0.00000000000E+00  0.00000000000E+00  0.85161175633E+02  0.85161175633E+02  0.00000000000E+00 0. -1.
         21   -1    0    0  502  503 -0.00000000000E+00 -0.00000000000E+00 -0.17729518929E+02  0.17729518929E+02  0.00000000000E+00 0.  1.
          2    1    1    2  501    0  0.27007663720E+02 -0.23811630375E+02  0.53059284530E+02  0.64122502412E+02  0.00000000000E+00 0.  1.
         -2    1    1    2    0  503 -0.27007663720E+02  0.23811630375E+02  0.14372372175E+02  0.38768192151E+02  0.00000000000E+00 0. -1.
</event>
<event>
 4    1  0.1842931E+004  0.2138118E+02  0.7546771E-02  0.1513892E+00
         21   -1    0    0  501  502  0.00000000000E+00  0.00000000000E+00  0.10167835279E+02  0.10167835279E+02  0.00000000000E+00 0.  1.
         21   -1    0    0  502  503 -0.00000000000E+00 -0.00000000000E+00 -0.45626562432E+02  0.45626562432E+02  0.00000000000E+00 0. -1.
          2    1    1    2  501    0 -0.10753388569E+02  0.18480248642E+02 -0.14359743172E+02  0.25755721298E+02  0.00000000000E+00 0.  1.
         -2    1    1    2    0  503  0.10753388569E+02 -0.18480248642E+02 -0.21098983982E+02  0.30038676413E+02  0.00000000000E+00 0. -1.
</event>
<event>
 4    1  0.1842931E+004  0.2025897E+02  0.7546771E-02  0.1530113E+00
         21   -1    0    0  503  502  0.00000000000E+00  0.00000000000E+00  0.11425714522E+01  0.11425714522E+01  0.00000000000E+00 0. -1.
         21   -1    0    0  501  503 -0.00000000000E+00 -0.00000000000E+00 -0.38032909150E+03  0.38032909150E+03  0.00000000000E+00 0.  1.
          2    1    1    2  501    0  0.19364381577E+02  0.59537187816E+01 -0.23453641769E+03  0.23540976459E+03  0.00000000000E+00 0. -1.
         -2    1    1    2    0  502 -0.19364381577E+02 -0.59537187816E+01 -0.14465010236E+03  0.14606189836E+03  0.00000000000E+00 0.  1.
</event>
<event>
 4    1  0.1842931E+004  0.6687055E+02  0.7546771E-02  0.1238121E+00
         21   -1    0    0  503  502  0.00000000000E+00  0.00000000000E+00  0.10191707650E+02  0.10191707650E+02  0.00000000000E+00 0.  1.
         21   -1    0    0  501  503 -0.00000000000E+00 -0.00000000000E+00 -0.63725164065E+03  0.63725164065E+03  0.00000000000E+00 0. -1.
          2    1    1    2  501    0  0.29783969110E+01 -0.66804191071E+02 -0.13285748588E+03  0.14873729306E+03  0.00000000000E+00 0.  1.
         -2    1    1    2    0  502 -0.29783969110E+01  0.66804191071E+02 -0.49420244712E+03  0.49870605524E+03  0.00000000000E+00 0. -1.
</event>
<event>
 4    1  0.1842931E+004  0.2616813E+02  0.7546771E-02  0.1456148E+00
         21   -1    0    0  501  502  0.00000000000E+00  0.00000000000E+00  0.28702970034E+03  0.28702970034E+03  0.00000000000E+00 0.  1.
         21   -1    0    0  502  503 -0.00000000000E+00 -0.00000000000E+00 -0.25863970322E+01  0.25863970322E+01  0.00000000000E+00 0. -1.
          2    1    1    2  501    0 -0.61766301098E+01  0.25428733940E+02  0.18255818462E+03  0.18442413627E+03  0.00000000000E+00 0. -1.
         -2    1    1    2    0  503  0.61766301098E+01 -0.25428733940E+02  0.10188511869E+03  0.10519196110E+03  0.00000000000E+00 0.  1.
</event>
<event>
 4    1  0.1842931E+004  0.2052287E+02  0.7546771E-02  0.1526187E+00
         21   -1    0    0  503  502  0.00000000000E+00  0.00000000000E+00  0.25112499962E+02  0.25112499962E+02  0.00000000000E+00 0.  1.
         21   -1    0    0  501  503 -0.00000000000E+00 -0.00000000000E+00 -0.17588241459E+02  0.17588241459E+02  0.00000000000E+00 0. -1.
          2    1    1    2  501    0  0.13165704401E+02 -0.15743328376E+02 -0.83714855668E+00  0.20539936184E+02  0.00000000000E+00 0.  1.
         -2    1    1    2    0  502 -0.13165704401E+02  0.15743328376E+02  0.83614070595E+01  0.22160805237E+02  0.00000000000E+00 0. -1.
</event>
<event>
 4    1  0.1842931E+004  0.2761657E+02  0.7546771E-02  0.1441511E+00
         21   -1    0    0  503  502  0.00000000000E+00  0.00000000000E+00  0.23780962761E+01  0.23780962761E+01  0.00000000000E+00 0. -1.
         21   -1    0    0  501  503 -0.00000000000E+00 -0.00000000000E+00 -0.33306899117E+03  0.33306899117E+03  0.00000000000E+00 0.  1.
          2    1    1    2  501    0  0.24618677699E+02  0.12513810260E+02 -0.19765655287E+03  0.19957652074E+03  0.00000000000E+00 0. -1.
         -2    1    1    2    0  502 -0.24618677699E+02 -0.12513810260E+02 -0.13303434202E+03  0.13587056670E+03  0.00000000000E+00 0.  1.
</event>
<event>
 4    1  0.1842931E+004  0.2005361E+02  0.7546771E-02  0.1533218E+00
         21   -1    0    0  501  502  0.00000000000E+00  0.00000000000E+00  0.29288926463E+01  0.29288926463E+01  0.00000000000E+00 0. -1.
         21   -1    0    0  502  503 -0.00000000000E+00 -0.00000000000E+00 -0.17692161430E+03  0.17692161430E+03  0.00000000000E+00 0.  1.
          2    1    1    2  501    0 -0.61873765407E+01 -0.19075211287E+02 -0.12955012007E+03  0.13109302394E+03  0.00000000000E+00 0.  1.
         -2    1    1    2    0  503  0.61873765407E+01  0.19075211287E+02 -0.44442601578E+02  0.48757483007E+02  0.00000000000E+00 0. -1.
</event>
<event>
 4    1  0.1842931E+004  0.2297740E+02  0.7546771E-02  0.1492782E+00
         21   -1    0    0  501  502  0.00000000000E+00  0.00000000000E+00  0.85858668287E+00  0.85858668287E+00  0.00000000000E+00 0.  1.
         21   -1    0    0  502  503 -0.00000000000E+00 -0.00000000000E+00 -0.63437661475E+03  0.63437661475E+03  0.00000000000E+00 0. -1.
          2    1    1    2  501    0 -0.15868311851E+02 -0.16617987320E+02 -0.37238548509E+03  0.37309370181E+03  0.00000000000E+00 0.  1.
         -2    1    1    2    0  503  0.15868311851E+02  0.16617987320E+02 -0.26113254298E+03  0.26214149963E+03  0.00000000000E+00 0. -1.
</event>
<event>
 4    1  0.1842931E+004  0.4228103E+02  0.7546771E-02  0.1335614E+00
         21   -1    0    0  503  502  0.00000000000E+00  0.00000000000E+00  0.13069065268E+02  0.13069065268E+02  0.00000000000E+00 0. -1.
         21   -1    0    0  501  503 -0.00000000000E+00 -0.00000000000E+00 -0.36843965457E+03  0.36843965457E+03  0.00000000000E+00 0.  1.
          2    1    1    2  501    0  0.21813425660E+02  0.36219612337E+02 -0.32894017050E+03  0.33164638039E+03  0.00000000000E+00 0.  1.
         -2    1    1    2    0  502 -0.21813425660E+02 -0.36219612337E+02 -0.26430418796E+02  0.49862339442E+02  0.00000000000E+00 0. -1.
</event>
<event>
 4    1  0.1842931E+004  0.2028257E+02  0.7546771E-02  0.1529759E+00
         21   -1    0    0  503  502  0.00000000000E+00  0.00000000000E+00  0.13755543355E+02  0.13755543355E+02  0.00000000000E+00 0. -1.
         21   -1    0    0  501  503 -0.00000000000E+00 -0.00000000000E+00 -0.46429319451E+02  0.46429319451E+02  0.00000000000E+00 0.  1.
          2    1    1    2  501    0  0.20109494018E+02 -0.26440271950E+01 -0.34288391915E+02  0.39838128088E+02  0.00000000000E+00 0.  1.
         -2    1    1    2    0  502 -0.20109494018E+02  0.26440271950E+01  0.16146158188E+01  0.20346734718E+02  0.00000000000E+00 0. -1.
</event>
<event>
 4    1  0.1842931E+004  0.2183783E+02  0.7546771E-02  0.1507631E+00
         21   -1    0    0  503  502  0.00000000000E+00  0.00000000000E+00  0.24536138038E+02  0.24536138038E+02  0.00000000000E+00 0. -1.
         21   -1    0    0  501  503 -0.00000000000E+00 -0.00000000000E+00 -0.20734044771E+02  0.20734044771E+02  0.00000000000E+00 0.  1.
          2    1    1    2  501    0 -0.14028517879E+02  0.16735934451E+02 -0.37618832074E+01  0.22159480614E+02  0.00000000000E+00 0. -1.
         -2    1    1    2    0  502  0.14028517879E+02 -0.16735934451E+02  0.75639764739E+01  0.23110702194E+02  0.00000000000E+00 0.  1.
</event>
<event>
 4    1  0.1842931E+004  0.2930684E+02  0.7546771E-02  0.1425717E+00
         21   -1    0    0  503  502  0.00000000000E+00  0.00000000000E+00  0.13633250156E+02  0.13633250156E+02  0.00000000000E+00 0.  1.
         21   -1    0    0  501  503 -0.00000000000E+00 -0.00000000000E+00 -0.91621241803E+02  0.91621241803E+02  0.00000000000E+00 0. -1.
          2    1    1    2  501    0  0.29189738957E+02 -0.26172208330E+01 -0.68408331856E+02  0.74421707671E+02  0.00000000000E+00 0. -1.
         -2    1    1    2    0  502 -0.29189738957E+02  0.26172208330E+01 -0.95796597905E+01  0.30832784288E+02  0.00000000000E+00 0.  1.
</event>
<event>
 4    1  0.1842931E+004  0.3499444E+02  0.7546771E-02  0.1380602E+00
         21   -1    0    0  503  502  0.00000000000E+00  0.00000000000E+00  0.14871869639E+03  0.14871869639E+03  0.00000000000E+00 0.  1.
         21   -1    0    0  501  503 -0.00000000000E+00 -0.00000000000E+00 -0.47500834803E+02  0.47500834803E+02  0.00000000000E+00 0. -1.
          2    1    1    2  501    0  0.34729856341E+02 -0.42951014042E+01 -0.38592597196E+02  0.52096059120E+02  0.00000000000E+00 0. -1.
         -2    1    1    2    0  502 -0.34729856341E+02  0.42951014042E+01  0.13981045878E+03  0.14412347207E+03  0.00000000000E+00 0.  1.
</event>
<event>
 4    1  0.1842931E+004  0.2212558E+02  0.7546771E-02  0.1503780E+00
         21   -1    0    0  503  502  0.00000000000E+00  0.00000000000E+00  0.11884365208E+04  0.11884365208E+04  0.00000000000E+00 0.  1.
         21   -1    0    0  501  503 -0.00000000000E+00 -0.00000000000E+00 -0.55517152292E+00  0.55517152292E+00  0.00000000000E+00 0. -1.
          2    1    1    2  501    0  0.50237156224E+01  0.21547705033E+02  0.29195651013E+03  0.29279369036E+03  0.00000000000E+00 0. -1.
         -2    1    1    2    0  502 -0.50237156224E+01 -0.21547705033E+02  0.89592483915E+03  0.89619800196E+03  0.00000000000E+00 0.  1.
</event>
<event>
 4    1  0.1842931E+004  0.3991989E+02  0.7546771E-02  0.1348956E+00
         21   -1    0    0  501  502  0.00000000000E+00  0.00000000000E+00  0.25787397997E+02  0.25787397997E+02  0.00000000000E+00 0. -1.
         21   -1    0    0  502  503 -0.00000000000E+00 -0.00000000000E+00 -0.62341996941E+02  0.62341996941E+02  0.00000000000E+00 0.  1.
          2    1    1    2  501    0  0.39909384264E+02  0.91573928446E+00 -0.14159305179E+02  0.42356622315E+02  0.00000000000E+00 0. -1.
         -2    1    1    2    0  503 -0.39909384264E+02 -0.91573928446E+00 -0.22395293766E+02  0.45772772623E+02  0.00000000000E+00 0.  1.
</event>
<event>
 4    1  0.1842931E+004  0.2147562E+02  0.7546771E-02  0.1512581E+00
         21   -1    0    0  503  502  0.00000000000E+00  0.00000000000E+00  0.16434160960E+03  0.16434160960E+03  0.00000000000E+00 0.  1.
         21   -1    0    0  501  503 -0.00000000000E+00 -0.00000000000E+00 -0.61101177342E+01  0.61101177342E+01  0.00000000000E+00 0. -1.
          2    1    1    2  501    0 -0.58109435261E+01 -0.20674509664E+02  0.16447081377E+02  0.27050118305E+02  0.00000000000E+00 0. -1.
         -2    1    1    2    0  502  0.58109435261E+01  0.20674509664E+02  0.14178441049E+03  0.14340160903E+03  0.00000000000E+00 0.  1.
</event>
<event>
 4    1  0.1842931E+004  0.2112474E+02  0.7546771E-02  0.1517491E+00
         21   -1    0    0  501  502  0.00000000000E+00  0.00000000000E+00  0.79577010512E+01  0.79577010512E+01  0.00000000000E+00 0.  1.
         21   -1    0    0  502  503 -0.00000000000E+00 -0.00000000000E+00 -0.10650677355E+03  0.10650677355E+03  0.00000000000E+00 0. -1.
          2    1    1    2  501    0  0.16161662893E+02 -0.13603506660E+02 -0.98932581198E+01  0.23326622069E+02  0.00000000000E+00 0.  1.
         -2    1    1    2    0  503 -0.16161662893E+02  0.13603506660E+02 -0.88655814379E+02  0.91137852532E+02  0.00000000000E+00 0. -1.
</event>
<event>
 4    1  0.1842931E+004  0.2031561E+02  0.7546771E-02  0.1529265E+00
         21   -1    0    0  501  502  0.00000000000E+00  0.00000000000E+00  0.78648614382E+02  0.78648614382E+02  0.00000000000E+00 0. -1.
         21   -1    0    0  502  503 -0.00000000000E+00 -0.00000000000E+00 -0.12411977549E+02  0.12411977549E+02  0.00000000000E+00 0.  1.
          2    1    1    2  501    0  0.20307140202E+02  0.58644822869E+00  0.67709577063E+02  0.70691659273E+02  0.00000000000E+00 0. -1.
         -2    1    1    2    0  503 -0.20307140202E+02 -0.58644822869E+00 -0.14729402307E+01  0.20368932658E+02  0.00000000000E+00 0.  1.
</event>
<event>
 4    1  0.1842931E+004  0.2476487E+02  0.7546771E-02  0.1471451E+00
         21   -1    0    0  501  502  0.00000000000E+00  0.00000000000E+00  0.56951417766E+01  0.56951417766E+01  0.00000000000E+00 0.  1.
         21   -1    0    0  502  503 -0.00000000000E+00 -0.00000000000E+00 -0.20341368468E+03  0.20341368468E+03  0.00000000000E+00 0. -1.
          2    1    1    2  501    0 -0.68090365169E+01  0.23810416416E+02 -0.27134968725E+02  0.36736976412E+02  0.00000000000E+00 0.  1.
         -2    1    1    2    0  503  0.68090365169E+01 -0.23810416416E+02 -0.17058357418E+03  0.17237185004E+03  0.00000000000E+00 0. -1.
</event>
<event>
 4    1  0.1842931E+004  0.2891543E+02  0.7546771E-02  0.1429261E+00
         21   -1    0    0  501  502  0.00000000000E+00  0.00000000000E+00  0.47678622677E+03  0.47678622677E+03  0.00000000000E+00 0. -1.
         21   -1    0    0  502  503 -0.00000000000E+00 -0.00000000000E+00 -0.56788783440E+01  0.56788783440E+01  0.00000000000E+00 0.  1.
          2    1    1    2  501    0  0.28906998265E+02  0.69825614323E+00  0.43611108941E+03  0.43706862667E+03  0.00000000000E+00 0. -1.
         -2    1    1    2    0  503 -0.28906998265E+02 -0.69825614323E+00  0.34996259020E+02  0.45396478451E+02  0.00000000000E+00 0.  1.
</event>
<event>
 4    1  0.1842931E+004  0.3003699E+02  0.7546771E-02  0.1419275E+00
         21   -1    0    0  503  502  0.00000000000E+00  0.00000000000E+00  0.20642034949E+02  0.20642034949E+02  0.00000000000E+00 0.  1.
         21   -1    0    0  501  503 -0.00000000000E+00 -0.00000000000E+00 -0.43760934938E+02  0.43760934938E+02  0.00000000000E+00 0. -1.
          2    1    1    2  501    0 -0.25993582100E+02  0.15051716582E+02 -0.10438676652E+02  0.31799158050E+02  0.00000000000E+00 0.  1.
         -2    1    1    2    0  502  0.25993582100E+02 -0.15051716582E+02 -0.12680223337E+02  0.32603811837E+02  0.00000000000E+00 0. -1.
</event>
<event>
 4    1  0.1842931E+004  0.2905199E+02  0.7546771E-02  0.1428017E+00
         21   -1    0    0  503  502  0.00000000000E+00  0.00000000000E+00  0.44910402374E+02  0.44910402374E+02  0.00000000000E+00 0.  1.
         21   -1    0    0  501  503 -0.00000000000E+00 -0.00000000000E+00 -0.27356032889E+02  0.27356032889E+02  0.00000000000E+00 0. -1.
          2    1    1    2  501    0 -0.44524116225E+01  0.28708784903E+02 -0.11438302995E+02  0.31222637225E+02  0.00000000000E+00 0. -1.
         -2    1    1    2    0  502  0.44524116225E+01 -0.28708784903E+02  0.28992672480E+02  0.41043798038E+02  0.00000000000E+00 0.  1.
</event>
<event>
 4    1  0.1842931E+004  0.3376085E+02  0.7546771E-02  0.1389490E+00
         21   -1    0    0  501  502  0.00000000000E+00  0.00000000000E+00  0.11491839117E+02  0.11491839117E+02  0.00000000000E+00 0. -1.
         21   -1    0    0  502  503 -0.00000000000E+00 -0.00000000000E+00 -0.24100172460E+03  0.24100172460E+03  0.00000000000E+00 0.  1.
          2    1    1    2  501    0 -0.28836705315E+02 -0.17556744617E+02 -0.17909975018E+02  0.38217300535E+02  0.00000000000E+00 0. -1.
         -2    1    1    2    0  503  0.28836705315E+02  0.17556744617E+02 -0.21159991046E+03  0.21427626318E+03  0.00000000000E+00 0.  1.
</event>
<event>
 4    1  0.1842931E+004  0.3721111E+02  0.7546771E-02  0.1365652E+00
         21   -1    0    0  501  502  0.00000000000E+00  0.00000000000E+00  0.52548520324E+01  0.52548520324E+01  0.00000000000E+00 0.  1.
         21   -1    0    0  502  503 -0.00000000000E+00 -0.00000000000E+00 -0.41647688776E+03  0.41647688776E+03  0.00000000000E+00 0. -1.
          2    1    1    2  501    0 -0.30670971115E+02 -0.21070324122E+02 -0.77814182843E+02  0.86253777188E+02  0.00000000000E+00 0.  1.
         -2    1    1    2    0  503  0.30670971115E+02  0.21070324122E+02 -0.33340785288E+03  0.33547796260E+03  0.00000000000E+00 0. -1.
</event>
<event>
 4    1  0.1842931E+004  0.2269659E+02  0.7546771E-02  0.1496344E+00
         21   -1    0    0  503  502  0.00000000000E+00  0.00000000000E+00  0.43767854739E+01  0.43767854739E+01  0.00000000000E+00 0. -1.
         21   -1    0    0  501  503 -0.00000000000E+00 -0.00000000000E+00 -0.49865547885E+03  0.49865547885E+03  0.00000000000E+00 0.  1.
          2    1    1    2  501    0 -0.22301681425E+02 -0.42154961637E+01 -0.46697810140E+03  0.46752933874E+03  0.00000000000E+00 0.  1.
         -2    1    1    2    0  502  0.22301681425E+02  0.42154961637E+01 -0.27300591979E+02  0.35502925580E+02  0.00000000000E+00 0. -1.
</event>
<event>
 4    1  0.1842931E+004  0.2004701E+02  0.7546771E-02  0.1533318E+00
         21   -1    0    0  501  502  0.00000000000E+00  0.00000000000E+00  0.39323963466E+03  0.39323963466E+03  0.00000000000E+00 0. -1.
         21   -1    0    0  502  503 -0.00000000000E+00 -0.00000000000E+00 -0.16301960033E+01  0.16301960033E+01  0.00000000000E+00 0.  1.
          2    1    1    2  501    0 -0.18697769650E+02  0.72302108495E+01  0.75208574678E+02  0.77834518332E+02  0.00000000000E+00 0.  1.
         -2    1    1    2    0  503  0.18697769650E+02 -0.72302108495E+01  0.31640086398E+03  0.31703531233E+03  0.00000000000E+00 0. -1.
</event>
<event>
 4    1  0.1842931E+004  0.2120577E+02  0.7546771E-02  0.1516347E+00
         21   -1    0    0  501  502  0.00000000000E+00  0.00000000000E+00  0.22944103679E+01  0.22944103679E+01  0.00000000000E+00 0.  1.
         21   -1    0    0  502  503 -0.00000000000E+00 -0.00000000000E+00 -0.34573583770E+03  0.34573583770E+03  0.00000000000E+00 0. -1.
          2    1    1    2  501    0  0.40135955567E+01  0.20822483397E+02 -0.57198402190E+02  0.61002803027E+02  0.00000000000E+00 0.  1.
         -2    1    1    2    0  503 -0.40135955567E+01 -0.20822483397E+02 -0.28624302514E+03  0.28702744504E+03  0.00000000000E+00 0. -1.
</event>
<event>
 4    1  0.1842931E+004  0.2496754E+02  0.7546771E-02  0.1469167E+00
         21   -1    0    0  503  502  0.00000000000E+00  0.00000000000E+00  0.13859308752E+02  0.13859308752E+02  0.00000000000E+00 0.  1.
         21   -1    0    0  501  503 -0.00000000000E+00 -0.00000000000E+00 -0.45652276605E+02  0.45652276605E+02  0.00000000000E+00 0. -1.
          2    1    1    2  501    0  0.11741690772E+02 -0.22034307510E+02 -0.19510027639E+02  0.31686261819E+02  0.00000000000E+00 0. -1.
         -2    1    1    2    0  502 -0.11741690772E+02  0.22034307510E+02 -0.12282940215E+02  0.27825323537E+02  0.00000000000E+00 0.  1.
</event>
<event>
 4    1  0.1842931E+004  0.2252955E+02  0.7546771E-02  0.1498492E+00
         21   -1    0    0  501  502  0.00000000000E+00  0.00000000000E+00  0.84112210184E+02  0.84112210184E+02  0.00000000000E+00 0. -1.
         21   -1    0    0  502  503 -0.00000000000E+00 -0.00000000000E+00 -0.21975154114E+02  0.21975154114E+02  0.00000000000E+00 0.  1.
          2    1    1    2  501    0 -0.65510759843E+01  0.21556071694E+02  0.76245783803E+02  0.79504719176E+02  0.00000000000E+00 0. -1.
         -2    1    1    2    0  503  0.65510759843E+01 -0.21556071694E+02 -0.14108727733E+02  0.26582645122E+02  0.00000000000E+00 0.  1.
</event>
<event>
 4    1  0.1842931E+004  0.3552508E+02  0.7546771E-02  0.1376909E+00
         21   -1    0    0  501  502  0.00000000000E+00  0.00000000000E+00  0.14677132909E+01  0.14677132909E+01  0.00000000000E+00 0. -1.
         21   -1    0    0  502  503 -0.00000000000E+00 -0.00000000000E+00 -0.11225053034E+04  0.11225053034E+04  0.00000000000E+00 0.  1.
          2    1    1    2  501    0  0.16776691562E+02 -0.31314113131E+02 -0.28867792212E+03  0.29085558922E+03  0.00000000000E+00 0. -1.
         -2    1    1    2    0  503 -0.16776691562E+02  0.31314113131E+02 -0.83235966804E+03  0.83311742752E+03  0.00000000000E+00 0.  1.
</event>
<event>
 4    1  0.1842931E+004  0.3027597E+02  0.7546771E-02  0.1417213E+00
         21   -1    0    0  501  502  0.00000000000E+00  0.00000000000E+00  0.13305774474E+02  0.13305774474E+02  0.00000000000E+00 0. -1.
         21   -1    0    0  502  503 -0.00000000000E+00 -0.00000000000E+00 -0.68954410234E+02  0.68954410234E+02  0.00000000000E+00 0.  1.
          2    1    1    2  501    0 -0.24518674527E+02 -0.17761440875E+02 -0.29081833484E+02  0.41980795864E+02  0.00000000000E+00 0. -1.
         -2    1    1    2    0  503  0.24518674527E+02  0.17761440875E+02 -0.26566802276E+02  0.40279388845E+02  0.00000000000E+00 0.  1.
</event>
<event>
 4    1  0.1842931E+004  0.2453492E+02  0.7546771E-02  0.1474074E+00
         21   -1    0    0  503  502  0.00000000000E+00  0.00000000000E+00  0.11714846930E+02  0.11714846930E+02  0.00000000000E+00 0. -1.
         21   -1    0    0  501  503 -0.00000000000E+00 -0.00000000000E+00 -0.52406257178E+02  0.52406257178E+02  0.00000000000E+00 0.  1.
          2    1    1    2  501    0  0.14115599648E+02  0.20067689568E+02 -0.15869197004E+02  0.29219749000E+02  0.00000000000E+00 0.  1.
         -2    1    1    2    0  502 -0.14115599648E+02 -0.20067689568E+02 -0.24822213244E+02  0.34901355108E+02  0.00000000000E+00 0. -1.
</event>
<event>
 4    1  0.1842931E+004  0.2225595E+02  0.7546771E-02  0.1502059E+00
         21   -1    0    0  501  502  0.00000000000E+00  0.00000000000E+00  0.36006987637E+03  0.36006987637E+03  0.00000000000E+00 0.  1.
         21   -1    0    0  502  503 -0.00000000000E+00 -0.00000000000E+00 -0.16625499289E+01  0.16625499289E+01  0.00000000000E+00 0. -1.
          2    1    1    2  501    0  0.15977712591E+02  0.15493217918E+02  0.25433855667E+03  0.25531045515E+03  0.00000000000E+00 0. -1.
         -2    1    1    2    0  503 -0.15977712591E+02 -0.15493217918E+02  0.10406876978E+03  0.10642197115E+03  0.00000000000E+00 0.  1.
</event>
<event>
 4    1  0.1842931E+004  0.2946764E+02  0.7546771E-02  0.1424280E+00
         21   -1    0    0  503  502  0.00000000000E+00  0.00000000000E+00  0.29056400117E+01  0.29056400117E+01  0.00000000000E+00 0.  1.
         21   -1    0    0  501  503 -0.00000000000E+00 -0.00000000000E+00 -0.83623491114E+03  0.83623491114E+03  0.00000000000E+00 0. -1.
          2    1    1    2  501    0 -0.17436057514E+02 -0.23755543535E+02 -0.75300926013E+03  0.75358562075E+03  0.00000000000E+00 0. -1.
         -2    1    1    2    0  502  0.17436057514E+02  0.23755543535E+02 -0.80320010993E+02  0.85554930402E+02  0.00000000000E+00 0.  1.
</event>
<event>
 4    1  0.1842931E+004  0.3144872E+02  0.7546771E-02  0.1407411E+00
         21   -1    0    0  503  502  0.00000000000E+00  0.00000000000E+00  0.12521962712E+02  0.12521962712E+02  0.00000000000E+00 0.  1.
         21   -1    0    0  501  503 -0.00000000000E+00 -0.00000000000E+00 -0.89225696609E+02  0.89225696609E+02  0.00000000000E+00 0. -1.
          2    1    1    2  501    0  0.20137374440E+02  0.24155913573E+02 -0.21115056654E+02  0.37879646612E+02  0.00000000000E+00 0.  1.
         -2    1    1    2    0  502 -0.20137374440E+02 -0.24155913573E+02 -0.55588677243E+02  0.63868012710E+02  0.00000000000E+00 0. -1.
</event>
<event>
 4    1  0.1842931E+004  0.2510457E+02  0.7546771E-02  0.1467637E+00
         21   -1    0    0  503  502  0.00000000000E+00  0.00000000000E+00  0.35809494246E+03  0.35809494246E+03  0.00000000000E+00 0.  1.
         21   -1    0    0  501  503 -0.00000000000E+00 -0.00000000000E+00 -0.35882104732E+01  0.35882104732E+01  0.00000000000E+00 0. -1.
          2    1    1    2  501    0 -0.23943295669E+02 -0.75470648994E+01  0.48168623019E+02  0.54318098638E+02  0.00000000000E+00 0. -1.
         -2    1    1    2    0  502  0.23943295669E+02  0.75470648994E+01  0.30633810897E+03  0.30736505430E+03  0.00000000000E+00 0.  1.
</event>
<event>
 4    1  0.1842931E+004  0.2059250E+02  0.7546771E-02  0.1525163E+00
         21   -1    0    0  501  502  0.00000000000E+00  0.00000000000E+00  0.15217489320E+02  0.15217489320E+02  0.00000000000E+00 0. -1.
         21   -1    0    0  502  503 -0.00000000000E+00 -0.00000000000E+00 -0.69308620367E+02  0.69308620367E+02  0.00000000000E+00 0.  1.
          2    1    1    2  501    0 -0.16229495454E+02 -0.12674962211E+02  0.56350813593E+01  0.21349597927E+02  0.00000000000E+00 0. -1.
         -2    1    1    2    0  503  0.16229495454E+02  0.12674962211E+02 -0.59726212406E+02  0.63176511760E+02  0.00000000000E+00 0.  1.
</event>
<event>
 4    1  0.1842931E+004  0.5460657E+02  0.7546771E-02  0.1279347E+00
         21   -1    0    0  503  502  0.00000000000E+00  0.00000000000E+00  0.15463178902E+01  0.15463178902E+01  0.00000000000E+00 0.  1.
         21   -1    0    0  501  503 -0.00000000000E+00 -0.00000000000E+00 -0.23595247206E+04  0.23595247206E+04  0.00000000000E+00 0. -1.
          2    1    1    2  501    0 -0.24946710693E+02 -0.48575092927E+02 -0.16836292780E+04  0.16845145959E+04  0.00000000000E+00 0. -1.
         -2    1    1    2    0  502  0.24946710693E+02  0.48575092927E+02 -0.67434912474E+03  0.67655644263E+03  0.00000000000E+00 0.  1.
</event>
<event>
 4    1  0.1842931E+004  0.2628874E+02  0.7546771E-02  0.1454887E+00
         21   -1    0    0  501  502  0.00000000000E+00  0.00000000000E+00  0.27889290496E+03  0.27889290496E+03  0.00000000000E+00 0. -1.
         21   -1    0    0  502  503 -0.00000000000E+00 -0.00000000000E+00 -0.84341159651E+01  0.84341159651E+01  0.00000000000E+00 0.  1.
          2    1    1    2  501    0 -0.56721262283E+01  0.25669535936E+02  0.25595741232E+03  0.25730389623E+03  0.00000000000E+00 0. -1.
         -2    1    1    2    0  503  0.56721262283E+01 -0.25669535936E+02  0.14501376670E+02  0.30023124695E+02  0.00000000000E+00 0.  1.
</event>
<event>
 4    1  0.1842931E+004  0.2417444E+02  0.7546771E-02  0.1478255E+00
         21   -1    0    0  501  502  0.00000000000E+00  0.00000000000E+00  0.74771617780E+01  0.74771617780E+01  0.00000000000E+00 0.  1.
         21   -1    0    0  502  503 -0.00000000000E+00 -0.00000000000E+00 -0.63722142023E+03  0.63722142023E+03  0.00000000000E+00 0. -1.
          2    1    1    2  501    0  0.33441993475E+01  0.23942007236E+02 -0.12938213208E+02  0.27418985043E+02  0.00000000000E+00 0.  1.
         -2    1    1    2    0  503 -0.33441993475E+01 -0.23942007236E+02 -0.61680604524E+03  0.61727959696E+03  0.00000000000E+00 0. -1.
</event>
<event>
 4    1  0.1842931E+004  0.2440663E+02  0.7546771E-02  0.1475552E+00
         21   -1    0    0  503  502  0.00000000000E+00  0.00000000000E+00  0.24005994164E+02  0.24005994164E+02  0.00000000000E+00 0.  1.
         21   -1    0    0  501  503 -0.00000000000E+00 -0.00000000000E+00 -0.37835033749E+02  0.37835033749E+02  0.00000000000E+00 0. -1.
          2    1    1    2  501    0 -0.24251814550E+01 -0.24285845244E+02 -0.25053924769E+02  0.34976891380E+02  0.00000000000E+00 0.  1.
         -2    1    1    2    0  502  0.24251814550E+01  0.24285845244E+02  0.11224885184E+02  0.26864136533E+02  0.00000000000E+00 0. -1.
</event>
<event>
 4    1  0.1842931E+004  0.2064089E+02  0.7546771E-02  0.1524454E+00
         21   -1    0    0  501  502  0.00000000000E+00  0.00000000000E+00  0.54800729748E+01  0.54800729748E+01  0.00000000000E+00 0. -1.
         21   -1    0    0  502  503 -0.00000000000E+00 -0.00000000000E+00 -0.58322680708E+03  0.58322680708E+03  0.00000000000E+00 0.  1.
          2    1    1    2  501    0  0.12541036613E+02  0.16394164774E+02 -0.14840091940E+02  0.25421930823E+02  0.00000000000E+00 0. -1.
         -2    1    1    2    0  503 -0.12541036613E+02 -0.16394164774E+02 -0.56290664216E+03  0.56328494923E+03  0.00000000000E+00 0.  1.
</event>
<event>
 4    1  0.1842931E+004  0.2425270E+02  0.7546771E-02  0.1477340E+00
         21   -1    0    0  503  502  0.00000000000E+00  0.00000000000E+00  0.45137684040E+02  0.45137684040E+02  0.00000000000E+00 0. -1.
         21   -1    0    0  501  503 -0.00000000000E+00 -0.00000000000E+00 -0.23914973274E+02  0.23914973274E+02  0.00000000000E+00 0.  1.
          2    1    1    2  501    0  0.23653861202E+02  0.53561465682E+01 -0.12680671636E+02  0.27367734450E+02  0.00000000000E+00 0. -1.
         -2    1    1    2    0  502 -0.23653861202E+02 -0.53561465682E+01  0.33903382402E+02  0.41684922863E+02  0.00000000000E+00 0.  1.
</event>
<event>
 4    1  0.1842931E+004  0.2437396E+02  0.7546771E-02  0.1475930E+00
         21   -1    0    0  501  502  0.00000000000E+00  0.00000000000E+00  0.19866480138E+02  0.19866480138E+02  0.00000000000E+00 0. -1.
         21   -1    0    0  502  503 -0.00000000000E+00 -0.00000000000E+00 -0.54798269782E+02  0.54798269782E+02  0.00000000000E+00 0.  1.
          2    1    1    2  501    0  0.24065260960E+02 -0.38669533502E+01  0.76964217789E+01  0.25560223424E+02  0.00000000000E+00 0. -1.
         -2    1    1    2    0  503 -0.24065260960E+02  0.38669533502E+01 -0.42628211423E+02  0.49104526496E+02  0.00000000000E+00 0.  1.
</event>
<event>
 4    1  0.1842931E+004  0.2161899E+02  0.7546771E-02  0.1510608E+00
         21   -1    0    0  501  502  0.00000000000E+00  0.00000000000E+00  0.19926385698E+02  0.19926385698E+02  0.00000000000E+00 0.  1.
         21   -1    0    0  502  503 -0.00000000000E+00 -0.00000000000E+00 -0.30780526453E+02  0.30780526453E+02  0.00000000000E+00 0. -1.
          2    1    1    2  501    0  0.10859734409E+02  0.18693498368E+02  0.69411625070E+01  0.22705956259E+02  0.00000000000E+00 0. -1.
         -2    1    1    2    0  503 -0.10859734409E+02 -0.18693498368E+02 -0.17795303262E+02  0.28000955892E+02  0.00000000000E+00 0.  1.
</event>
<event>
 4    1  0.1842931E+004  0.2464508E+02  0.7546771E-02  0.1472813E+00
         21   -1    0    0  501  502  0.00000000000E+00  0.00000000000E+00  0.78301208094E+02  0.78301208094E+02  0.00000000000E+00 0.  1.
         21   -1    0    0  502  503 -0.00000000000E+00 -0.00000000000E+00 -0.88125598318E+01  0.88125598318E+01  0.00000000000E+00 0. -1.
          2    1    1    2  501    0 -0.16340162708E+01  0.24590853774E+02  0.49819188896E+02  0.55581756726E+02  0.00000000000E+00 0.  1.
         -2    1    1    2    0  503  0.16340162708E+01 -0.24590853774E+02  0.19669459366E+02  0.31532011200E+02  0.00000000000E+00 0. -1.
</event>
<event>
 4    1  0.1842931E+004  0.3875740E+02  0.7546771E-02  0.1355925E+00
         21   -1    0    0  503  502  0.00000000000E+00  0.00000000000E+00  0.16979858150E+02  0.16979858150E+02  0.00000000000E+00 0. -1.
         21   -1    0    0  501  503 -0.00000000000E+00 -0.00000000000E+00 -0.88582097720E+02  0.88582097720E+02  0.00000000000E+00 0.  1.
          2    1    1    2  501    0 -0.34415038789E+02 -0.17825304124E+02 -0.37713750298E+02  0.54078307329E+02  0.00000000000E+00 0. -1.
         -2    1    1    2    0  502  0.34415038789E+02  0.17825304124E+02 -0.33888489272E+02  0.51483648541E+02  0.00000000000E+00 0.  1.
</event>
<event>
 4    1  0.1842931E+004  0.2582067E+02  0.7546771E-02  0.1459828E+00
         21   -1    0    0  503  502  0.00000000000E+00  0.00000000000E+00  0.38075069788E+03  0.38075069788E+03  0.00000000000E+00 0.  1.
         21   -1    0    0  501  503 -0.00000000000E+00 -0.00000000000E+00 -0.39383834761E+01  0.39383834761E+01  0.00000000000E+00 0. -1.
          2    1    1    2  501    0 -0.14193106567E+02 -0.21569944447E+02  0.45061959241E+02  0.51935411311E+02  0.00000000000E+00 0. -1.
         -2    1    1    2    0  502  0.14193106567E+02  0.21569944447E+02  0.33175035517E+03  0.33275367005E+03  0.00000000000E+00 0.  1.
</event>
<event>
 4    1  0.1842931E+004  0.2090647E+02  0.7546771E-02  0.1520604E+00
         21   -1    0    0  503  502  0.00000000000E+00  0.00000000000E+00  0.27730587782E+02  0.27730587782E+02  0.00000000000E+00 0. -1.
         21   -1    0    0  501  503 -0.00000000000E+00 -0.00000000000E+00 -0.24409357344E+02  0.24409357344E+02  0.00000000000E+00 0.  1.
          2    1    1    2  501    0  0.20529970051E+02  0.39497912683E+01 -0.13856545461E+02  0.25081554446E+02  0.00000000000E+00 0.  1.
         -2    1    1    2    0  502 -0.20529970051E+02 -0.39497912683E+01  0.17177775898E+02  0.27058390679E+02  0.00000000000E+00 0. -1.
</event>
<event>
 4    1  0.1842931E+004  0.2035915E+02  0.7546771E-02  0.1528614E+00
         21   -1    0    0  503  502  0.00000000000E+00  0.00000000000E+00  0.10155955123E+03  0.10155955123E+03  0.00000000000E+00 0.  1.
         21   -1    0    0  501  503 -0.00000000000E+00 -0.00000000000E+00 -0.44556176630E+01  0.44556176630E+01  0.00000000000E+00 0. -1.
          2    1    1    2  501    0  0.19676776512E+02 -0.52268045104E+01  0.33187974324E+02  0.38935031257E+02  0.00000000000E+00 0. -1.
         -2    1    1    2    0  502 -0.19676776512E+02  0.52268045104E+01  0.63915959246E+02  0.67080137639E+02  0.00000000000E+00 0.  1.
</event>
<event>
 4    1  0.1842931E+004  0.4833726E+02  0.7546771E-02  0.1305547E+00
         21   -1    0    0  501  502  0.00000000000E+00  0.00000000000E+00  0.18287399320E+02  0.18287399320E+02  0.00000000000E+00 0. -1.
         21   -1    0    0  502  503 -0.00000000000E+00 -0.00000000000E+00 -0.25897634725E+03  0.25897634725E+03  0.00000000000E+00 0.  1.
          2    1    1    2  501    0  0.48330765937E+02 -0.79209403763E+00 -0.21666853451E+02  0.52971151465E+02  0.00000000000E+00 0. -1.
         -2    1    1    2    0  503 -0.48330765937E+02  0.79209403763E+00 -0.21902209448E+03  0.22429259510E+03  0.00000000000E+00 0.  1.
</event>
<event>
 4    1  0.1842931E+004  0.2295262E+02  0.7546771E-02  0.1493094E+00
         21   -1    0    0  501  502  0.00000000000E+00  0.00000000000E+00  0.36117861093E+02  0.36117861093E+02  0.00000000000E+00 0. -1.
         21   -1    0    0  502  503 -0.00000000000E+00 -0.00000000000E+00 -0.28256573365E+02  0.28256573365E+02  0.00000000000E+00 0.  1.
          2    1    1    2  501    0 -0.19900421507E+02  0.11436612695E+02  0.26318558079E+02  0.34921188203E+02  0.00000000000E+00 0. -1.
         -2    1    1    2    0  503  0.19900421507E+02 -0.11436612695E+02 -0.18457270352E+02  0.29453246255E+02  0.00000000000E+00 0.  1.
</event>
<event>
 4    1  0.1842931E+004  0.5135912E+02  0.7546771E-02  0.1292385E+00
         21   -1    0    0  503  502  0.00000000000E+00  0.00000000000E+00  0.27566841924E+03  0.27566841924E+03  0.00000000000E+00 0. -1.
         21   -1    0    0  501  503 -0.00000000000E+00 -0.00000000000E+00 -0.28855630576E+02  0.28855630576E+02  0.00000000000E+00 0.  1.
          2    1    1    2  501    0 -0.31153834472E+02 -0.40831333117E+02 -0.10763256345E+01  0.51370396565E+02  0.00000000000E+00 0.  1.
         -2    1    1    2    0  502  0.31153834472E+02  0.40831333117E+02  0.24788911430E+03  0.25315365325E+03  0.00000000000E+00 0. -1.
</event>
<event>
 4    1  0.1842931E+004  0.3326232E+02  0.7546771E-02  0.1393209E+00
         21   -1    0    0  503  502  0.00000000000E+00  0.00000000000E+00  0.32134017935E+01  0.32134017935E+01  0.00000000000E+00 0. -1.
         21   -1    0    0  501  503 -0.00000000000E+00 -0.00000000000E+00 -0.48794667034E+03  0.48794667034E+03  0.00000000000E+00 0.  1.
          2    1    1    2  501    0  0.29338702271E+02  0.15672350087E+02 -0.37561166020E+03  0.37708155787E+03  0.00000000000E+00 0. -1.
         -2    1    1    2    0  502 -0.29338702271E+02 -0.15672350087E+02 -0.10912160834E+03  0.11407851426E+03  0.00000000000E+00 0.  1.
</event>
<event>
 4    1  0.1842931E+004  0.2690130E+02  0.7546771E-02  0.1448602E+00
         21   -1    0    0  503  502  0.00000000000E+00  0.00000000000E+00  0.11941042812E+02  0.11941042812E+02  0.00000000000E+00 0. -1.
         21   -1    0    0  501  503 -0.00000000000E+00 -0.00000000000E+00 -0.46757813749E+03  0.46757813749E+03  0.00000000000E+00 0.  1.
          2    1    1    2  501    0  0.71354920382E+01  0.25937709879E+02 -0.45150107815E+03  0.45230178379E+03  0.00000000000E+00 0.  1.
         -2    1    1    2    0  502 -0.71354920382E+01 -0.25937709879E+02 -0.41360165206E+01  0.27217396515E+02  0.00000000000E+00 0. -1.
</event>
<event>
 4    1  0.1842931E+004  0.2427787E+02  0.7546771E-02  0.1477046E+00
         21   -1    0    0  501  502  0.00000000000E+00  0.00000000000E+00  0.55490679312E+02  0.55490679312E+02  0.00000000000E+00 0.  1.
         21   -1    0    0  502  503 -0.00000000000E+00 -0.00000000000E+00 -0.11163585105E+02  0.11163585105E+02  0.00000000000E+00 0. -1.
          2    1    1    2  501    0  0.23791857717E+02  0.48334659975E+01  0.29504979645E+02  0.38209406054E+02  0.00000000000E+00 0.  1.
         -2    1    1    2    0  503 -0.23791857717E+02 -0.48334659975E+01  0.14822114563E+02  0.28444858363E+02  0.00000000000E+00 0. -1.
</event>
<event>
 4    1  0.1842931E+004  0.2279228E+02  0.7546771E-02  0.1495123E+00
         21   -1    0    0  503  502  0.00000000000E+00  0.00000000000E+00  0.48853973935E+02  0.48853973935E+02  0.00000000000E+00 0. -1.
         21   -1    0    0  501  503 -0.00000000000E+00 -0.00000000000E+00 -0.24112070922E+02  0.24112070922E+02  0.00000000000E+00 0.  1.
          2    1    1    2  501    0 -0.16720436090E+02  0.15489197758E+02  0.39647891198E+02  0.45732302661E+02  0.00000000000E+00 0. -1.
         -2    1    1    2    0  502  0.16720436090E+02 -0.15489197758E+02 -0.14905988184E+02  0.27233742196E+02  0.00000000000E+00 0.  1.
</event>
<event>
 4    1  0.1842931E+004  0.5375072E+02  0.7546771E-02  0.1282681E+00
         21   -1    0    0  503  502  0.00000000000E+00  0.00000000000E+00  0.66074889385E+01  0.66074889385E+01  0.00000000000E+00 0.  1.
         21   -1    0    0  501  503 -0.00000000000E+00 -0.00000000000E+00 -0.57912310102E+03  0.57912310102E+03  0.00000000000E+00 0. -1.
          2    1    1    2  501    0  0.53750535157E+02 -0.14076801648E+00 -0.43121138761E+03  0.43454850207E+03  0.00000000000E+00 0. -1.
         -2    1    1    2    0  502 -0.53750535157E+02  0.14076801648E+00 -0.14130422447E+03  0.15118208789E+03  0.00000000000E+00 0.  1.
</event>
<event>
 4    1  0.1842931E+004  0.2161200E+02  0.7546771E-02  0.1510704E+00
         21   -1    0    0  501  502  0.00000000000E+00  0.00000000000E+00  0.38331279738E+03  0.38331279738E+03  0.00000000000E+00 0.  1.
         21   -1    0    0  502  503 -0.00000000000E+00 -0.00000000000E+00 -0.24244431477E+01  0.24244431477E+01  0.00000000000E+00 0. -1.
          2    1    1    2  501    0 -0.21143001585E+02 -0.44779724197E+01  0.32646747494E+03  0.32718204558E+03  0.00000000000E+00 0.  1.
         -2    1    1    2    0  503  0.21143001585E+02  0.44779724197E+01  0.54420879295E+02  0.58555194955E+02  0.00000000000E+00 0. -1.
</event>
<event>
 4    1  0.1842931E+004  0.2190114E+02  0.7546771E-02  0.1506778E+00
         21   -1    0    0  503  502  0.00000000000E+00  0.00000000000E+00  0.13368608890E+03  0.13368608890E+03  0.00000000000E+00 0. -1.
         21   -1    0    0  501  503 -0.00000000000E+00 -0.00000000000E+00 -0.39638843609E+01  0.39638843609E+01  0.00000000000E+00 0.  1.
          2    1    1    2  501    0  0.81658713484E+01 -0.20321870542E+02  0.43665884639E+02  0.48850479614E+02  0.00000000000E+00 0.  1.
         -2    1    1    2    0  502 -0.81658713484E+01  0.20321870542E+02  0.86056319901E+02  0.88799493648E+02  0.00000000000E+00 0. -1.
</event>
<event>
 4    1  0.1842931E+004  0.2114049E+02  0.7546771E-02  0.1517268E+00
         21   -1    0    0  501  502  0.00000000000E+00  0.00000000000E+00  0.59134360469E+03  0.59134360469E+03  0.00000000000E+00 0.  1.
         21   -1    0    0  502  503 -0.00000000000E+00 -0.00000000000E+00 -0.75580288469E+00  0.75580288469E+00  0.00000000000E+00 0. -1.
          2    1    1    2  501    0  0.20855814270E+02 -0.34576427918E+01  0.29336771578E+03  0.29412843613E+03  0.00000000000E+00 0.  1.
         -2    1    1    2    0  503 -0.20855814270E+02  0.34576427918E+01  0.29722008603E+03  0.29797097144E+03  0.00000000000E+00 0. -1.
</event>
<event>
 4    1  0.1842931E+004  0.2135108E+02  0.7546771E-02  0.1514311E+00
         21   -1    0    0  503  502  0.00000000000E+00  0.00000000000E+00  0.19760274065E+02  0.19760274065E+02  0.00000000000E+00 0.  1.
         21   -1    0    0  501  503 -0.00000000000E+00 -0.00000000000E+00 -0.26003698985E+02  0.26003698985E+02  0.00000000000E+00 0. -1.
          2    1    1    2  501    0  0.20993468643E+02 -0.38914133947E+01 -0.10807467761E+02  0.23930528270E+02  0.00000000000E+00 0.  1.
         -2    1    1    2    0  502 -0.20993468643E+02  0.38914133947E+01  0.45640428412E+01  0.21833444780E+02  0.00000000000E+00 0. -1.
</event>
<event>
 4    1  0.1842931E+004  0.2294936E+02  0.7546771E-02  0.1493135E+00
         21   -1    0    0  503  502  0.00000000000E+00  0.00000000000E+00  0.10527594720E+03  0.10527594720E+03  0.00000000000E+00 0.  1.
         21   -1    0    0  501  503 -0.00000000000E+00 -0.00000000000E+00 -0.57450597554E+01  0.57450597554E+01  0.00000000000E+00 0. -1.
          2    1    1    2  501    0  0.99034739750E+01  0.20702520737E+02  0.29812379908E+02  0.37622482074E+02  0.00000000000E+00 0. -1.
         -2    1    1    2    0  502 -0.99034739750E+01 -0.20702520737E+02  0.69718507534E+02  0.73398524879E+02  0.00000000000E+00 0.  1.
</event>
<event>
 4    1  0.1842931E+004  0.3676398E+02  0.7546771E-02  0.1368569E+00
         21   -1    0    0  501  502  0.00000000000E+00  0.00000000000E+00  0.39800713700E+01  0.39800713700E+01  0.00000000000E+00 0. -1.
         21   -1    0    0  502  503 -0.00000000000E+00 -0.00000000000E+00 -0.41781321889E+03  0.41781321889E+03  0.00000000000E+00 0.  1.
          2    1    1    2  501    0 -0.69062952013E+01  0.36109463660E+02 -0.11566341023E+03  0.12136562423E+03  0.00000000000E+00 0. -1.
         -2    1    1    2    0  503  0.69062952013E+01 -0.36109463660E+02 -0.29816973729E+03  0.30042766603E+03  0.00000000000E+00 0.  1.
</event>
<event>
 4    1  0.1842931E+004  0.2059297E+02  0.7546771E-02  0.1525156E+00
         21   -1    0    0  503  502  0.00000000000E+00  0.00000000000E+00  0.35229584097E+00  0.35229584097E+00  0.00000000000E+00 0.  1.
         21   -1    0    0  501  503 -0.00000000000E+00 -0.00000000000E+00 -0.14480940845E+04  0.14480940845E+04  0.00000000000E+00 0. -1.
          2    1    1    2  501    0 -0.90205843599E+01  0.18512143709E+02 -0.10213725314E+04  0.10215801086E+04  0.00000000000E+00 0. -1.
         -2    1    1    2    0  502  0.90205843599E+01 -0.18512143709E+02 -0.42636925728E+03  0.42686627176E+03  0.00000000000E+00 0.  1.
</event>
<event>
 4    1  0.1842931E+004  0.2134815E+02  0.7546771E-02  0.1514352E+00
         21   -1    0    0  501  502  0.00000000000E+00  0.00000000000E+00  0.10581701192E+03  0.10581701192E+03  0.00000000000E+00 0. -1.
         21   -1    0    0  502  503 -0.00000000000E+00 -0.00000000000E+00 -0.49182705351E+01  0.49182705351E+01  0.00000000000E+00 0.  1.
          2    1    1    2  501    0 -0.19176666165E+01  0.21261849208E+02  0.69970312361E+02  0.73154550705E+02  0.00000000000E+00 0.  1.
         -2    1    1    2    0  503  0.19176666165E+01 -0.21261849208E+02  0.30928429027E+02  0.37580731753E+02  0.00000000000E+00 0. -1.
</event>
<event>
 4    1  0.1842931E+004  0.2257854E+02  0.7546771E-02  0.1497859E+00
         21   -1    0    0  503  502  0.00000000000E+00  0.00000000000E+00  0.65776848518E+02  0.65776848518E+02  0.00000000000E+00 0. -1.
         21   -1    0    0  501  503 -0.00000000000E+00 -0.00000000000E+00 -0.11587752196E+02  0.11587752196E+02  0.00000000000E+00 0.  1.
          2    1    1    2  501    0 -0.10430928517E+02  0.20024641137E+02  0.48340951170E+01  0.23090235988E+02  0.00000000000E+00 0.  1.
         -2    1    1    2    0  502  0.10430928517E+02 -0.20024641137E+02  0.49355001206E+02  0.54274364726E+02  0.00000000000E+00 0. -1.
</event>
<event>
 4    1  0.1842931E+004  0.5120834E+02  0.7546771E-02  0.1293017E+00
         21   -1    0    0  503  502  0.00000000000E+00  0.00000000000E+00  0.43571694222E+02  0.43571694222E+02  0.00000000000E+00 0.  1.
         21   -1    0    0  501  503 -0.00000000000E+00 -0.00000000000E+00 -0.60262400174E+02  0.60262400174E+02  0.00000000000E+00 0. -1.
          2    1    1    2  501    0 -0.47978574153E+01 -0.50983083654E+02 -0.10224682025E+02  0.52219138035E+02  0.00000000000E+00 0.  1.
         -2    1    1    2    0  502  0.47978574153E+01  0.50983083654E+02 -0.64660239268E+01  0.51614956360E+02  0.00000000000E+00 0. -1.
</event>
<event>
 4    1  0.1842931E+004  0.2087800E+02  0.7546771E-02  0.1521014E+00
         21   -1    0    0  501  502  0.00000000000E+00  0.00000000000E+00  0.13789492505E+02  0.13789492505E+02  0.00000000000E+00 0.  1.
         21   -1    0    0  502  503 -0.00000000000E+00 -0.00000000000E+00 -0.36569382096E+02  0.36569382096E+02  0.00000000000E+00 0. -1.
          2    1    1    2  501    0  0.17479452874E+02  0.11417504689E+02 -0.21176834608E+01  0.20985120188E+02  0.00000000000E+00 0.  1.
         -2    1    1    2    0  503 -0.17479452874E+02 -0.11417504689E+02 -0.20662206131E+02  0.29373754412E+02  0.00000000000E+00 0. -1.
</event>
<event>
 4    1  0.1842931E+004  0.2270107E+02  0.7546771E-02  0.1496286E+00
         21   -1    0    0  501  502  0.00000000000E+00  0.00000000000E+00  0.71458130948E+03  0.71458130948E+03  0.00000000000E+00 0. -1.
         21   -1    0    0  502  503 -0.00000000000E+00 -0.00000000000E+00 -0.80225197097E+00  0.80225197097E+00  0.00000000000E+00 0.  1.
          2    1    1    2  501    0  0.12937668199E+00 -0.22700697182E+02  0.47060027666E+03  0.47114749154E+03  0.00000000000E+00 0. -1.
         -2    1    1    2    0  503 -0.12937668199E+00  0.22700697182E+02  0.24317878085E+03  0.24423606991E+03  0.00000000000E+00 0.  1.
</event>
<event>
 4    1  0.1842931E+004  0.3868753E+02  0.7546771E-02  0.1356353E+00
         21   -1    0    0  503  502  0.00000000000E+00  0.00000000000E+00  0.15452830328E+02  0.15452830328E+02  0.00000000000E+00 0.  1.
         21   -1    0    0  501  503 -0.00000000000E+00 -0.00000000000E+00 -0.11894630541E+03  0.11894630541E+03  0.00000000000E+00 0. -1.
          2    1    1    2  501    0  0.28783010195E+02 -0.25850783072E+02 -0.80705216718E+02  0.89498919920E+02  0.00000000000E+00 0.  1.
         -2    1    1    2    0  502 -0.28783010195E+02  0.25850783072E+02 -0.22788258364E+02  0.44900215819E+02  0.00000000000E+00 0. -1.
</event>
<event>
 4    1  0.1842931E+004  0.2249716E+02  0.7546771E-02  0.1498911E+00
         21   -1    0    0  503  502  0.00000000000E+00  0.00000000000E+00  0.45241895124E+02  0.45241895124E+02  0.00000000000E+00 0.  1.
         21   -1    0    0  501  503 -0.00000000000E+00 -0.00000000000E+00 -0.17117084900E+02  0.17117084900E+02  0.00000000000E+00 0. -1.
          2    1    1    2  501    0  0.25279592881E+01 -0.22354673448E+02 -0.42896123599E+01  0.22902462254E+02  0.00000000000E+00 0. -1.
         -2    1    1    2    0  502 -0.25279592881E+01  0.22354673448E+02  0.32414422584E+02  0.39456517770E+02  0.00000000000E+00 0.  1.
</event>
<event>
 4    1  0.1842931E+004  0.2416657E+02  0.7546771E-02  0.1478347E+00
         21   -1    0    0  501  502  0.00000000000E+00  0.00000000000E+00  0.37389158713E+02  0.37389158713E+02  0.00000000000E+00 0. -1.
         21   -1    0    0  502  503 -0.00000000000E+00 -0.00000000000E+00 -0.15716982354E+02  0.15716982354E+02  0.00000000000E+00 0.  1.
          2    1    1    2  501    0 -0.15641042178E+02  0.18422288305E+02  0.87514916750E+01  0.25702363964E+02  0.00000000000E+00 0. -1.
         -2    1    1    2    0  503  0.15641042178E+02 -0.18422288305E+02  0.12920684684E+02  0.27403777103E+02  0.00000000000E+00 0.  1.
</event>
<event>
 4    1  0.1842931E+004  0.2536911E+02  0.7546771E-02  0.1464716E+00
         21   -1    0    0  503  502  0.00000000000E+00  0.00000000000E+00  0.55870808451E+01  0.55870808451E+01  0.00000000000E+00 0. -1.
         21   -1    0    0  501  503 -0.00000000000E+00 -0.00000000000E+00 -0.25789017383E+03  0.25789017383E+03  0.00000000000E+00 0.  1.
          2    1    1    2  501    0  0.25201492994E+02 -0.29114311318E+01 -0.22414649159E+03  0.22557757285E+03  0.00000000000E+00 0.  1.
         -2    1    1    2    0  502 -0.25201492994E+02  0.29114311318E+01 -0.28156601392E+02  0.37899681823E+02  0.00000000000E+00 0. -1.
</event>
<event>
 4    1  0.1842931E+004  0.2038294E+02  0.7546771E-02  0.1528260E+00
         21   -1    0    0  501  502  0.00000000000E+00  0.00000000000E+00  0.51785591518E+00  0.51785591518E+00  0.00000000000E+00 0.  1.
         21   -1    0    0  502  503 -0.00000000000E+00 -0.00000000000E+00 -0.11284849187E+04  0.11284849187E+04  0.00000000000E+00 0. -1.
          2    1    1    2  501    0 -0.83471874048E+00 -0.20365841812E+02 -0.26047989591E+03  0.26127617657E+03  0.00000000000E+00 0.  1.
         -2    1    1    2    0  503  0.83471874048E+00  0.20365841812E+02 -0.86748716687E+03  0.86772659804E+03  0.00000000000E+00 0. -1.
</event>
<event>
 4    1  0.1842931E+004  0.2353075E+02  0.7546771E-02  0.1485939E+00
         21   -1    0    0  503  502  0.00000000000E+00  0.00000000000E+00  0.40493918561E+01  0.40493918561E+01  0.00000000000E+00 0. -1.
         21   -1    0    0  501  503 -0.00000000000E+00 -0.00000000000E+00 -0.16020602906E+03  0.16020602906E+03  0.00000000000E+00 0.  1.
          2    1    1    2  501    0  0.20242769875E+02 -0.11996926976E+02 -0.10951313185E+03  0.11201259767E+03  0.00000000000E+00 0.  1.
         -2    1    1    2    0  502 -0.20242769875E+02  0.11996926976E+02 -0.46643505355E+02  0.52242823247E+02  0.00000000000E+00 0. -1.
</event>
<event>
 4    1  0.1842931E+004  0.3488128E+02  0.7546771E-02  0.1381400E+00
         21   -1    0    0  503  502  0.00000000000E+00  0.00000000000E+00  0.95459443105E+01  0.95459443105E+01  0.00000000000E+00 0.  1.
         21   -1    0    0  501  503 -0.00000000000E+00 -0.00000000000E+00 -0.13496223652E+03  0.13496223652E+03  0.00000000000E+00 0. -1.
          2    1    1    2  501    0 -0.31301238870E+02 -0.15392724295E+02 -0.79746201716E+02  0.87041140871E+02  0.00000000000E+00 0. -1.
         -2    1    1    2    0  502  0.31301238870E+02  0.15392724295E+02 -0.45670090493E+02  0.57467039959E+02  0.00000000000E+00 0.  1.
</event>
<event>
 4    1  0.1842931E+004  0.2197769E+02  0.7546771E-02  0.1505750E+00
         21   -1    0    0  503  502  0.00000000000E+00  0.00000000000E+00  0.37908805153E+03  0.37908805153E+03  0.00000000000E+00 0.  1.
         21   -1    0    0  501  503 -0.00000000000E+00 -0.00000000000E+00 -0.84549485079E+01  0.84549485079E+01  0.00000000000E+00 0. -1.
          2    1    1    2  501    0 -0.93344682254E+01  0.19896902273E+02  0.67416287868E+01  0.22988444397E+02  0.00000000000E+00 0. -1.
         -2    1    1    2    0  502  0.93344682254E+01 -0.19896902273E+02  0.36389147424E+03  0.36455455564E+03  0.00000000000E+00 0.  1.
</event>
<event>
 4    1  0.1842931E+004  0.2586387E+02  0.7546771E-02  0.1459367E+00
         21   -1    0    0  501  502  0.00000000000E+00  0.00000000000E+00  0.31965380957E+03  0.31965380957E+03  0.00000000000E+00 0. -1.
         21   -1    0    0  502  503 -0.00000000000E+00 -0.00000000000E+00 -0.25088707564E+01  0.25088707564E+01  0.00000000000E+00 0.  1.
          2    1    1    2  501    0  0.13282520600E+02  0.22192663396E+02  0.22417818084E+03  0.22566523087E+03  0.00000000000E+00 0.  1.
         -2    1    1    2    0  503 -0.13282520600E+02 -0.22192663396E+02  0.92966757979E+02  0.96497449454E+02  0.00000000000E+00 0. -1.
</event>
<event>
 4    1  0.1842931E+004  0.3286247E+02  0.7546771E-02  0.1396247E+00
         21   -1    0    0  501  502  0.00000000000E+00  0.00000000000E+00  0.62771064516E+02  0.62771064516E+02  0.00000000000E+00 0. -1.
         21   -1    0    0  502  503 -0.00000000000E+00 -0.00000000000E+00 -0.28603054010E+02  0.28603054010E+02  0.00000000000E+00 0.  1.
          2    1    1    2  501    0  0.37877221978E+01  0.32643452449E+02  0.45925168871E+02  0.56471789090E+02  0.00000000000E+00 0. -1.
         -2    1    1    2    0  503 -0.37877221978E+01 -0.32643452449E+02 -0.11757158365E+02  0.34902329436E+02  0.00000000000E+00 0.  1.
</event>
<event>
 4    1  0.1842931E+004  0.2279581E+02  0.7546771E-02  0.1495078E+00
         21   -1    0    0  503  502  0.00000000000E+00  0.00000000000E+00  0.87138087049E+03  0.87138087049E+03  0.00000000000E+00 0.  1.
         21   -1    0    0  501  503 -0.00000000000E+00 -0.00000000000E+00 -0.31280604716E+01  0.31280604716E+01  0.00000000000E+00 0. -1.
          2    1    1    2  501    0  0.20802240101E+02  0.93228626123E+01  0.40754258166E+02  0.46696450820E+02  0.00000000000E+00 0. -1.
         -2    1    1    2    0  502 -0.20802240101E+02 -0.93228626123E+01  0.82749855185E+03  0.82781248014E+03  0.00000000000E+00 0.  1.
</event>
<event>
 4    1  0.1842931E+004  0.2462355E+02  0.7546771E-02  0.1473059E+00
         21   -1    0    0  503  502  0.00000000000E+00  0.00000000000E+00  0.23472126833E+03  0.23472126833E+03  0.00000000000E+00 0.  1.
         21   -1    0    0  501  503 -0.00000000000E+00 -0.00000000000E+00 -0.28536279391E+01  0.28536279391E+01  0.00000000000E+00 0. -1.
          2    1    1    2  501    0  0.22240702660E+02 -0.10567426428E+02  0.79362482968E+02  0.83094663240E+02  0.00000000000E+00 0. -1.
         -2    1    1    2    0  502 -0.22240702660E+02  0.10567426428E+02  0.15250515742E+03  0.15448023303E+03  0.00000000000E+00 0.  1.
</event>
<event>
 4    1  0.1842931E+004  0.2081534E+02  0.7546771E-02  0.1521918E+00
         21   -1    0    0  501  502  0.00000000000E+00  0.00000000000E+00  0.15382110829E+03  0.15382110829E+03  0.00000000000E+00 0.  1.
         21   -1    0    0  502  503 -0.00000000000E+00 -0.00000000000E+00 -0.60276308227E+01  0.60276308227E+01  0.00000000000E+00 0. -1.
          2    1    1    2  501    0  0.14123538556E+02  0.15290648348E+02  0.13223007553E+03  0.13385839960E+03  0.00000000000E+00 0.  1.
         -2    1    1    2    0  503 -0.14123538556E+02 -0.15290648348E+02  0.15563401937E+02  0.25990339515E+02  0.00000000000E+00 0. -1.
</event>
<event>
 4    1  0.1842931E+004  0.2051749E+02  0.7546771E-02  0.1526267E+00
         21   -1    0    0  501  502  0.00000000000E+00  0.00000000000E+00  0.11057440200E+04  0.11057440200E+04  0.00000000000E+00 0. -1.
         21   -1    0    0  502  503 -0.00000000000E+00 -0.00000000000E+00 -0.46243217014E+00  0.46243217014E+00  0.00000000000E+00 0.  1.
          2    1    1    2  501    0 -0.14868603137E+02 -0.14138312160E+02  0.78515714630E+03  0.78542517888E+03  0.00000000000E+00 0. -1.
         -2    1    1    2    0  503  0.14868603137E+02  0.14138312160E+02  0.32012444152E+03  0.32078127329E+03  0.00000000000E+00 0.  1.
</event>
<event>
 4    1  0.1842931E+004  0.2482347E+02  0.7546771E-02  0.1470788E+00
         21   -1    0    0  501  502  0.00000000000E+00  0.00000000000E+00  0.11291775615E+03  0.11291775615E+03  0.00000000000E+00 0.  1.
         21   -1    0    0  502  503 -0.00000000000E+00 -0.00000000000E+00 -0.10956714250E+02  0.10956714250E+02  0.00000000000E+00 0. -1.
          2    1    1    2  501    0 -0.47626672193E+01  0.24362304918E+02  0.94861596886E+02  0.98055736516E+02  0.00000000000E+00 0.  1.
         -2    1    1    2    0  503  0.47626672193E+01 -0.24362304918E+02  0.70994450150E+01  0.25818733886E+02  0.00000000000E+00 0. -1.
</event>
<event>
 4    1  0.1842931E+004  0.3263700E+02  0.7546771E-02  0.1397983E+00
         21   -1    0    0  503  502  0.00000000000E+00  0.00000000000E+00  0.11504017954E+02  0.11504017954E+02  0.00000000000E+00 0. -1.
         21   -1    0    0  501  503 -0.00000000000E+00 -0.00000000000E+00 -0.95269328936E+02  0.95269328936E+02  0.00000000000E+00 0.  1.
          2    1    1    2  501    0 -0.32549560258E+02 -0.23875124305E+01 -0.32932119144E+02  0.46364841851E+02  0.00000000000E+00 0.  1.
         -2    1    1    2    0  502  0.32549560258E+02  0.23875124305E+01 -0.50833191838E+02  0.60408505039E+02  0.00000000000E+00 0. -1.
</event>
<event>
 4    1  0.1842931E+004  0.2448382E+02  0.7546771E-02  0.1474661E+00
         21   -1    0    0  501  502  0.00000000000E+00  0.00000000000E+00  0.72094443961E+01  0.72094443961E+01  0.00000000000E+00 0.  1.
         21   -1    0    0  502  503 -0.00000000000E+00 -0.00000000000E+00 -0.16135257188E+03  0.16135257188E+03  0.00000000000E+00 0. -1.
          2    1    1    2  501    0 -0.11239948665E+02 -0.21751346795E+02 -0.18396268214E+02  0.30624830082E+02  0.00000000000E+00 0.  1.
         -2    1    1    2    0  503  0.11239948665E+02  0.21751346795E+02 -0.13574685927E+03  0.13793718619E+03  0.00000000000E+00 0. -1.
</event>
<event>
 4    1  0.1842931E+004  0.2026281E+02  0.7546771E-02  0.1530055E+00
         21   -1    0    0  503  502  0.00000000000E+00  0.00000000000E+00  0.10001462231E+02  0.10001462231E+02  0.00000000000E+00 0.  1.
         21   -1    0    0  501  503 -0.00000000000E+00 -0.00000000000E+00 -0.47340749608E+02  0.47340749608E+02  0.00000000000E+00 0. -1.
          2    1    1    2  501    0  0.20245523196E+02  0.83672966786E+00 -0.29119361156E+02  0.35475604578E+02  0.00000000000E+00 0.  1.
         -2    1    1    2    0  502 -0.20245523196E+02 -0.83672966786E+00 -0.82199262213E+01  0.21866607261E+02  0.00000000000E+00 0. -1.
</event>
<event>
 4    1  0.1842931E+004  0.2091259E+02  0.7546771E-02  0.1520516E+00
         21   -1    0    0  501  502  0.00000000000E+00  0.00000000000E+00  0.10096618182E+03  0.10096618182E+03  0.00000000000E+00 0. -1.
         21   -1    0    0  502  503 -0.00000000000E+00 -0.00000000000E+00 -0.55145585860E+01  0.55145585860E+01  0.00000000000E+00 0.  1.
          2    1    1    2  501    0 -0.18312706156E+02 -0.10098578196E+02  0.72385417967E+02  0.75345771100E+02  0.00000000000E+00 0. -1.
         -2    1    1    2    0  503  0.18312706156E+02  0.10098578196E+02  0.23066205270E+02  0.31134969309E+02  0.00000000000E+00 0.  1.
</event>
<event>
 4    1  0.1842931E+004  0.2928797E+02  0.7546771E-02  0.1425886E+00
         21   -1    0    0  501  502  0.00000000000E+00  0.00000000000E+00  0.25144711420E+01  0.25144711420E+01  0.00000000000E+00 0. -1.
         21   -1    0    0  502  503 -0.00000000000E+00 -0.00000000000E+00 -0.53312103572E+03  0.53312103572E+03  0.00000000000E+00 0.  1.
          2    1    1    2  501    0  0.28853576857E+02  0.50255798186E+01 -0.10458835395E+03  0.10861173570E+03  0.00000000000E+00 0. -1.
         -2    1    1    2    0  503 -0.28853576857E+02 -0.50255798186E+01 -0.42601821064E+03  0.42702377117E+03  0.00000000000E+00 0.  1.
</event>
<event>
 4    1  0.1842931E+004  0.2188462E+02  0.7546771E-02  0.1507000E+00
         21   -1    0    0  503  502  0.00000000000E+00  0.00000000000E+00  0.69047890527E+00  0.69047890527E+00  0.00000000000E+00 0. -1.
         21   -1    0    0  501  503 -0.00000000000E+00 -0.00000000000E+00 -0.71455053101E+03  0.71455053101E+03  0.00000000000E+00 0.  1.
          2    1    1    2  501    0 -0.19868204556E+02  0.91755733552E+01 -0.29573796763E+03  0.29654659363E+03  0.00000000000E+00 0. -1.
         -2    1    1    2    0  502  0.19868204556E+02 -0.91755733552E+01 -0.41812208448E+03  0.41869441628E+03  0.00000000000E+00 0.  1.
</event>
<event>
 4    1  0.1842931E+004  0.2120146E+02  0.7546771E-02  0.1516408E+00
         21   -1    0    0  503  502  0.00000000000E+00  0.00000000000E+00  0.14966167115E+02  0.14966167115E+02  0.00000000000E+00 0. -1.
         21   -1    0    0  501  503 -0.00000000000E+00 -0.00000000000E+00 -0.38684736325E+02  0.38684736325E+02  0.00000000000E+00 0.  1.
          2    1    1    2  501    0  0.90821807665E+01 -0.19157659908E+02 -0.24544277043E+02  0.32433369794E+02  0.00000000000E+00 0.  1.
         -2    1    1    2    0  502 -0.90821807665E+01  0.19157659908E+02  0.82570783349E+00  0.21217533646E+02  0.00000000000E+00 0. -1.
</event>
<event>
 4    1  0.1842931E+004  0.2695384E+02  0.7546771E-02  0.1448072E+00
         21   -1    0    0  503  502  0.00000000000E+00  0.00000000000E+00  0.64441026950E+00  0.64441026950E+00  0.00000000000E+00 0.  1.
         21   -1    0    0  501  503 -0.00000000000E+00 -0.00000000000E+00 -0.13798596059E+04  0.13798596059E+04  0.00000000000E+00 0. -1.
          2    1    1    2  501    0 -0.10477374638E+02  0.24834131660E+02 -0.98485385024E+03  0.98522262246E+03  0.00000000000E+00 0. -1.
         -2    1    1    2    0  502  0.10477374638E+02 -0.24834131660E+02 -0.39436134537E+03  0.39528139369E+03  0.00000000000E+00 0.  1.
</event>
<event>
 4    1  0.1842931E+004  0.3802421E+02  0.7546771E-02  0.1360470E+00
         21   -1    0    0  501  502  0.00000000000E+00  0.00000000000E+00  0.47957651383E+02  0.47957651383E+02  0.00000000000E+00 0. -1.
         21   -1    0    0  502  503 -0.00000000000E+00 -0.00000000000E+00 -0.30554281906E+02  0.30554281906E+02  0.00000000000E+00 0.  1.
          2    1    1    2  501    0 -0.23596400038E+02 -0.29816953544E+02  0.13226828999E+02  0.40259034002E+02  0.00000000000E+00 0. -1.
         -2    1    1    2    0  503  0.23596400038E+02  0.29816953544E+02  0.41765404781E+01  0.38252899286E+02  0.00000000000E+00 0.  1.
</event>
<event>
 4    1  0.1842931E+004  0.2353364E+02  0.7546771E-02  0.1485904E+00
         21   -1    0    0  503  502  0.00000000000E+00  0.00000000000E+00  0.35655380447E+03  0.35655380447E+03  0.00000000000E+00 0. -1.
         21   -1    0    0  501  503 -0.00000000000E+00 -0.00000000000E+00 -0.10898645100E+03  0.10898645100E+03  0.00000000000E+00 0.  1.
          2    1    1    2  501    0  0.71857671578E+01 -0.22409755422E+02 -0.10732175952E+03  0.10987170907E+03  0.00000000000E+00 0.  1.
         -2    1    1    2    0  502 -0.71857671578E+01  0.22409755422E+02  0.35488911298E+03  0.35566854641E+03  0.00000000000E+00 0. -1.
</event>
<event>
 4    1  0.1842931E+004  0.2082038E+02  0.7546771E-02  0.1521845E+00
         21   -1    0    0  501  502  0.00000000000E+00  0.00000000000E+00  0.58489126500E+03  0.58489126500E+03  0.00000000000E+00 0. -1.
         21   -1    0    0  502  503 -0.00000000000E+00 -0.00000000000E+00 -0.74114914802E+00  0.74114914802E+00  0.00000000000E+00 0.  1.
          2    1    1    2  501    0 -0.18215119248E+02  0.10084530164E+02  0.29126167173E+03  0.29200487964E+03  0.00000000000E+00 0.  1.
         -2    1    1    2    0  503  0.18215119248E+02 -0.10084530164E+02  0.29288844412E+03  0.29362753450E+03  0.00000000000E+00 0. -1.
</event>
<event>
 4    1  0.1842931E+004  0.3061857E+02  0.7546771E-02  0.1414296E+00
         21   -1    0    0  501  502  0.00000000000E+00  0.00000000000E+00  0.13420200149E+02  0.13420200149E+02  0.00000000000E+00 0. -1.
         21   -1    0    0  502  503 -0.00000000000E+00 -0.00000000000E+00 -0.75456042562E+02  0.75456042562E+02  0.00000000000E+00 0.  1.
          2    1    1    2  501    0  0.12770669433E+02 -0.27828170459E+02 -0.18913072712E+02  0.35988906461E+02  0.00000000000E+00 0.  1.
         -2    1    1    2    0  503 -0.12770669433E+02  0.27828170459E+02 -0.43122769701E+02  0.52887336249E+02  0.00000000000E+00 0. -1.
</event>
<event>
 4    1  0.1842931E+004  0.2331098E+02  0.7546771E-02  0.1488630E+00
         21   -1    0    0  501  502  0.00000000000E+00  0.00000000000E+00  0.21545357018E+01  0.21545357018E+01  0.00000000000E+00 0. -1.
         21   -1    0    0  502  503 -0.00000000000E+00 -0.00000000000E+00 -0.25223577976E+03  0.25223577976E+03  0.00000000000E+00 0.  1.
          2    1    1    2  501    0 -0.11226635310E+02  0.20429495898E+02 -0.12625270643E+03  0.12838671085E+03  0.00000000000E+00 0. -1.
         -2    1    1    2    0  503  0.11226635310E+02 -0.20429495898E+02 -0.12382853763E+03  0.12600360461E+03  0.00000000000E+00 0.  1.
</event>
<event>
 4    1  0.1842931E+004  0.2069351E+02  0.7546771E-02  0.1523686E+00
         21   -1    0    0  501  502  0.00000000000E+00  0.00000000000E+00  0.11779986278E+01  0.11779986278E+01  0.00000000000E+00 0.  1.
         21   -1    0    0  502  503 -0.00000000000E+00 -0.00000000000E+00 -0.54768216929E+03  0.54768216929E+03  0.00000000000E+00 0. -1.
          2    1    1    2  501    0 -0.15475943210E+02 -0.13737407057E+02 -0.11411458821E+03  0.11597568888E+03  0.00000000000E+00 0.  1.
         -2    1    1    2    0  503  0.15475943210E+02  0.13737407057E+02 -0.43238958246E+03  0.43288447903E+03  0.00000000000E+00 0. -1.
</event>
<event>
 4    1  0.1842931E+004  0.2919900E+02  0.7546771E-02  0.1426687E+00
         21   -1    0    0  503  502  0.00000000000E+00  0.00000000000E+00  0.16390819644E+02  0.16390819644E+02  0.00000000000E+00 0. -1.
         21   -1    0    0  501  503 -0.00000000000E+00 -0.00000000000E+00 -0.73243884408E+02  0.73243884408E+02  0.00000000000E+00 0.  1.
          2    1    1    2  501    0  0.18328622784E+02  0.22729779962E+02 -0.52554241614E+02  0.60120958258E+02  0.00000000000E+00 0.  1.
         -2    1    1    2    0  502 -0.18328622784E+02 -0.22729779962E+02 -0.42988231506E+01  0.29513745794E+02  0.00000000000E+00 0. -1.
</event>
<event>
 4    1  0.1842931E+004  0.2025894E+02  0.7546771E-02  0.1530114E+00
         21   -1    0    0  503  502  0.00000000000E+00  0.00000000000E+00  0.99009596563E+02  0.99009596563E+02  0.00000000000E+00 0. -1.
         21   -1    0    0  501  503 -0.00000000000E+00 -0.00000000000E+00 -0.64211550061E+01  0.64211550061E+01  0.00000000000E+00 0.  1.
          2    1    1    2  501    0  0.18323106230E+02  0.86422406031E+01  0.14910606087E+02  0.25154536737E+02  0.00000000000E+00 0.  1.
         -2    1    1    2    0  502 -0.18323106230E+02 -0.86422406031E+01  0.77677835470E+02  0.80276214832E+02  0.00000000000E+00 0. -1.
</event>
<event>
 4    1  0.1842931E+004  0.3846665E+02  0.7546771E-02  0.1357713E+00
         21   -1    0    0  503  502  0.00000000000E+00  0.00000000000E+00  0.13804286252E+02  0.13804286252E+02  0.00000000000E+00 0. -1.
         21   -1    0    0  501  503 -0.00000000000E+00 -0.00000000000E+00 -0.12177967755E+03  0.12177967755E+03  0.00000000000E+00 0.  1.
          2    1    1    2  501    0  0.25524976291E+02  0.28777753623E+02 -0.77452207866E+02  0.86478482997E+02  0.00000000000E+00 0.  1.
         -2    1    1    2    0  502 -0.25524976291E+02 -0.28777753623E+02 -0.30523183431E+02  0.49105480803E+02  0.00000000000E+00 0. -1.
</event>
<event>
 4    1  0.1842931E+004  0.2637571E+02  0.7546771E-02  0.1453982E+00
         21   -1    0    0  501  502  0.00000000000E+00  0.00000000000E+00  0.74253478751E+01  0.74253478751E+01  0.00000000000E+00 0. -1.
         21   -1    0    0  502  503 -0.00000000000E+00 -0.00000000000E+00 -0.94933574757E+02  0.94933574757E+02  0.00000000000E+00 0.  1.
          2    1    1    2  501    0 -0.49979919289E+01 -0.25897839073E+02 -0.37895582032E+02  0.46170912158E+02  0.00000000000E+00 0. -1.
         -2    1    1    2    0  503  0.49979919289E+01  0.25897839073E+02 -0.49612644850E+02  0.56188010474E+02  0.00000000000E+00 0.  1.
</event>
<event>
 4    1  0.1842931E+004  0.3437027E+02  0.7546771E-02  0.1385045E+00
         21   -1    0    0  503  502  0.00000000000E+00  0.00000000000E+00  0.10305507864E+03  0.10305507864E+03  0.00000000000E+00 0. -1.
         21   -1    0    0  501  503 -0.00000000000E+00 -0.00000000000E+00 -0.11539815464E+02  0.11539815464E+02  0.00000000000E+00 0.  1.
          2    1    1    2  501    0  0.33312943030E+02  0.84595147419E+01  0.50433818795E+02  0.61031841208E+02  0.00000000000E+00 0.  1.
         -2    1    1    2    0  502 -0.33312943030E+02 -0.84595147419E+01  0.41081444379E+02  0.53563052893E+02  0.00000000000E+00 0. -1.
</event>
<event>
 4    1  0.1842931E+004  0.3536149E+02  0.7546771E-02  0.1378039E+00
         21   -1    0    0  501  502  0.00000000000E+00  0.00000000000E+00  0.43787262960E+01  0.43787262960E+01  0.00000000000E+00 0.  1.
         21   -1    0    0  502  503 -0.00000000000E+00 -0.00000000000E+00 -0.33342144544E+03  0.33342144544E+03  0.00000000000E+00 0. -1.
          2    1    1    2  501    0  0.30374349413E+02 -0.18106188032E+02 -0.10053634487E+03  0.10657387948E+03  0.00000000000E+00 0.  1.
         -2    1    1    2    0  503 -0.30374349413E+02  0.18106188032E+02 -0.22850637427E+03  0.23122629226E+03  0.00000000000E+00 0. -1.
</event>
<event>
 4    1  0.1842931E+004  0.2245375E+02  0.7546771E-02  0.1499474E+00
         21   -1    0    0  503  502  0.00000000000E+00  0.00000000000E+00  0.82795391758E+02  0.82795391758E+02  0.00000000000E+00 0.  1.
         21   -1    0    0  501  503 -0.00000000000E+00 -0.00000000000E+00 -0.13745095113E+02  0.13745095113E+02  0.00000000000E+00 0. -1.
          2    1    1    2  501    0  0.21098556613E+01  0.22354400600E+02 -0.14994496008E+01  0.22503756713E+02  0.00000000000E+00 0. -1.
         -2    1    1    2    0  502 -0.21098556613E+01 -0.22354400600E+02  0.70549746246E+02  0.74036730158E+02  0.00000000000E+00 0.  1.
</event>
<event>
 4    1  0.1842931E+004  0.2484725E+02  0.7546771E-02  0.1470520E+00
         21   -1    0    0  501  502  0.00000000000E+00  0.00000000000E+00  0.56417965328E+01  0.56417965328E+01  0.00000000000E+00 0.  1.
         21   -1    0    0  502  503 -0.00000000000E+00 -0.00000000000E+00 -0.17095205156E+03  0.17095205156E+03  0.00000000000E+00 0. -1.
          2    1    1    2  501    0  0.19563122135E+02 -0.15318938246E+02 -0.29686169522E+02  0.38712456362E+02  0.00000000000E+00 0.  1.
         -2    1    1    2    0  503 -0.19563122135E+02  0.15318938246E+02 -0.13562408550E+03  0.13788139173E+03  0.00000000000E+00 0. -1.
</event>
<event>
 4    1  0.1842931E+004  0.2099273E+02  0.7546771E-02  0.1519369E+00
         21   -1    0    0  501  502  0.00000000000E+00  0.00000000000E+00  0.21128338036E+02  0.21128338036E+02  0.00000000000E+00 0.  1.
         21   -1    0    0  502  503 -0.00000000000E+00 -0.00000000000E+00 -0.47882520091E+02  0.47882520091E+02  0.00000000000E+00 0. -1.
          2    1    1    2  501    0  0.18321616837E+02 -0.10247578545E+02 -0.39299661652E+02  0.44555110992E+02  0.00000000000E+00 0. -1.
         -2    1    1    2    0  503 -0.18321616837E+02  0.10247578545E+02  0.12545479597E+02  0.24455747134E+02  0.00000000000E+00 0.  1.
</event>
<event>
 4    1  0.1842931E+004  0.2274593E+02  0.7546771E-02  0.1495713E+00
         21   -1    0    0  501  502  0.00000000000E+00  0.00000000000E+00  0.82212591681E+02  0.82212591681E+02  0.00000000000E+00 0.  1.
         21   -1    0    0  502  503 -0.00000000000E+00 -0.00000000000E+00 -0.72189975377E+01  0.72189975377E+01  0.00000000000E+00 0. -1.
          2    1    1    2  501    0 -0.19121209529E+02 -0.12318951438E+02  0.53510407413E+02  0.58144139171E+02  0.00000000000E+00 0.  1.
         -2    1    1    2    0  503  0.19121209529E+02  0.12318951438E+02  0.21483186730E+02  0.31287450048E+02  0.00000000000E+00 0. -1.
</event>
<event>
 4    1  0.1842931E+004  0.2618508E+02  0.7546771E-02  0.1455970E+00
         21   -1    0    0  501  502  0.00000000000E+00  0.00000000000E+00  0.55509896241E+02  0.55509896241E+02  0.00000000000E+00 0.  1.
         21   -1    0    0  502  503 -0.00000000000E+00 -0.00000000000E+00 -0.16931085768E+02  0.16931085768E+02  0.00000000000E+00 0. -1.
          2    1    1    2  501    0 -0.26973976663E+00  0.26183695469E+02  0.38125937357E+02  0.46251981226E+02  0.00000000000E+00 0.  1.
         -2    1    1    2    0  503  0.26973976663E+00 -0.26183695469E+02  0.45287311592E+00  0.26189000784E+02  0.00000000000E+00 0. -1.
</event>
<event>
 4    1  0.1842931E+004  0.2008931E+02  0.7546771E-02  0.1532675E+00
         21   -1    0    0  503  502  0.00000000000E+00  0.00000000000E+00  0.10957315015E+02  0.10957315015E+02  0.00000000000E+00 0.  1.
         21   -1    0    0  501  503 -0.00000000000E+00 -0.00000000000E+00 -0.37738008370E+02  0.37738008370E+02  0.00000000000E+00 0. -1.
          2    1    1    2  501    0 -0.16774386123E+02  0.11054427114E+02 -0.17162780092E+02  0.26422365698E+02  0.00000000000E+00 0. -1.
         -2    1    1    2    0  502  0.16774386123E+02 -0.11054427114E+02 -0.96179132626E+01  0.22272957687E+02  0.00000000000E+00 0.  1.
</event>
<event>
 4    1  0.1842931E+004  0.2312537E+02  0.7546771E-02  0.1490930E+00
         21   -1    0    0  501  502  0.00000000000E+00  0.00000000000E+00  0.47300667421E+01  0.47300667421E+01  0.00000000000E+00 0. -1.
         21   -1    0    0  502  503 -0.00000000000E+00 -0.00000000000E+00 -0.12135734610E+03  0.12135734610E+03  0.00000000000E+00 0.  1.
          2    1    1    2  501    0 -0.22382855503E+02  0.58129516379E+01 -0.41829312869E+02  0.47796171838E+02  0.00000000000E+00 0. -1.
         -2    1    1    2    0  503  0.22382855503E+02 -0.58129516379E+01 -0.74797966488E+02  0.78291241004E+02  0.00000000000E+00 0.  1.
</event>
<event>
 4    1  0.1842931E+004  0.2754762E+02  0.7546771E-02  0.1442183E+00
         21   -1    0    0  503  502  0.00000000000E+00  0.00000000000E+00  0.30210514355E+02  0.30210514355E+02  0.00000000000E+00 0. -1.
         21   -1    0    0  501  503 -0.00000000000E+00 -0.00000000000E+00 -0.35507545755E+02  0.35507545755E+02  0.00000000000E+00 0.  1.
          2    1    1    2  501    0 -0.11070583462E+02  0.25225255597E+02 -0.20421587664E+02  0.34291581778E+02  0.00000000000E+00 0.  1.
         -2    1    1    2    0  502  0.11070583462E+02 -0.25225255597E+02  0.15124556265E+02  0.31426478332E+02  0.00000000000E+00 0. -1.
</event>
<event>
 4    1  0.1842931E+004  0.2258569E+02  0.7546771E-02  0.1497767E+00
         21   -1    0    0  503  502  0.00000000000E+00  0.00000000000E+00  0.17969638865E+02  0.17969638865E+02  0.00000000000E+00 0.  1.
         21   -1    0    0  501  503 -0.00000000000E+00 -0.00000000000E+00 -0.10556940246E+03  0.10556940246E+03  0.00000000000E+00 0. -1.
          2    1    1    2  501    0 -0.21977248760E+02 -0.52071085862E+01 -0.96615563430E+02  0.99220363534E+02  0.00000000000E+00 0. -1.
         -2    1    1    2    0  502  0.21977248760E+02  0.52071085862E+01  0.90157998350E+01  0.24318677792E+02  0.00000000000E+00 0.  1.
</event>
<event>
 4    1  0.1842931E+004  0.2070443E+02  0.7546771E-02  0.1523527E+00
         21   -1    0    0  501  502  0.00000000000E+00  0.00000000000E+00  0.53788011341E+01  0.53788011341E+01  0.00000000000E+00 0.  1.
         21   -1    0    0  502  503 -0.00000000000E+00 -0.00000000000E+00 -0.10007840039E+03  0.10007840039E+03  0.00000000000E+00 0. -1.
          2    1    1    2  501    0 -0.66339178368E+01  0.19612870777E+02 -0.23554314619E+02  0.31360473579E+02  0.00000000000E+00 0.  1.
         -2    1    1    2    0  503  0.66339178368E+01 -0.19612870777E+02 -0.71145284634E+02  0.74096727941E+02  0.00000000000E+00 0. -1.
</event>
<event>
 4    1  0.1842931E+004  0.3820166E+02  0.7546771E-02  0.1359359E+00
         21   -1    0    0  503  502  0.00000000000E+00  0.00000000000E+00  0.10613682589E+02  0.10613682589E+02  0.00000000000E+00 0. -1.
         21   -1    0    0  501  503 -0.00000000000E+00 -0.00000000000E+00 -0.14774488300E+03  0.14774488300E+03  0.00000000000E+00 0.  1.
          2    1    1    2  501    0 -0.32198733342E+02 -0.20557440805E+02 -0.47714071269E+02  0.61122822238E+02  0.00000000000E+00 0. -1.
         -2    1    1    2    0  502  0.32198733342E+02  0.20557440805E+02 -0.89417129146E+02  0.97235743356E+02  0.00000000000E+00 0.  1.
</event>
<event>
 4    1  0.1842931E+004  0.2380801E+02  0.7546771E-02  0.1482594E+00
         21   -1    0    0  501  502  0.00000000000E+00  0.00000000000E+00  0.62650876931E+02  0.62650876931E+02  0.00000000000E+00 0. -1.
         21   -1    0    0  502  503 -0.00000000000E+00 -0.00000000000E+00 -0.10663485620E+02  0.10663485620E+02  0.00000000000E+00 0.  1.
          2    1    1    2  501    0  0.73668748068E+01 -0.22639575788E+02  0.40264721211E+02  0.46776799917E+02  0.00000000000E+00 0. -1.
         -2    1    1    2    0  503 -0.73668748068E+01  0.22639575788E+02  0.11722670100E+02  0.26537562634E+02  0.00000000000E+00 0.  1.
</event>
<event>
 4    1  0.1842931E+004  0.2227527E+02  0.7546771E-02  0.1501805E+00
         21   -1    0    0  501  502  0.00000000000E+00  0.00000000000E+00  0.18649731455E+02  0.18649731455E+02  0.00000000000E+00 0.  1.
         21   -1    0    0  502  503 -0.00000000000E+00 -0.00000000000E+00 -0.30700597585E+02  0.30700597585E+02  0.00000000000E+00 0. -1.
          2    1    1    2  501    0 -0.12113302791E+02 -0.18693726170E+02  0.29863945905E+01  0.22474564629E+02  0.00000000000E+00 0.  1.
         -2    1    1    2    0  503  0.12113302791E+02  0.18693726170E+02 -0.15037260721E+02  0.26875764410E+02  0.00000000000E+00 0. -1.
</event>
<event>
 4    1  0.1842931E+004  0.2159524E+02  0.7546771E-02  0.1510934E+00
         21   -1    0    0  501  502  0.00000000000E+00  0.00000000000E+00  0.67830025824E+02  0.67830025824E+02  0.00000000000E+00 0. -1.
         21   -1    0    0  502  503 -0.00000000000E+00 -0.00000000000E+00 -0.68773071143E+01  0.68773071143E+01  0.00000000000E+00 0.  1.
          2    1    1    2  501    0 -0.34186596650E+01 -0.21322925375E+02  0.29844359967E+02  0.36838026580E+02  0.00000000000E+00 0. -1.
         -2    1    1    2    0  503  0.34186596650E+01  0.21322925375E+02  0.31108358743E+02  0.37869306359E+02  0.00000000000E+00 0.  1.
</event>
<event>
 4    1  0.1842931E+004  0.2015455E+02  0.7546771E-02  0.1531686E+00
         21   -1    0    0  503  502  0.00000000000E+00  0.00000000000E+00  0.25184114957E+02  0.25184114957E+02  0.00000000000E+00 0. -1.
         21   -1    0    0  501  503 -0.00000000000E+00 -0.00000000000E+00 -0.17154341046E+02  0.17154341046E+02  0.00000000000E+00 0.  1.
          2    1    1    2  501    0 -0.12447112546E+02  0.15851666302E+02 -0.11594743040E+01  0.20187875469E+02  0.00000000000E+00 0.  1.
         -2    1    1    2    0  502  0.12447112546E+02 -0.15851666302E+02  0.91892482148E+01  0.22150580535E+02  0.00000000000E+00 0. -1.
</event>
<event>
 4    1  0.1842931E+004  0.2016876E+02  0.7546771E-02  0.1531471E+00
         21   -1    0    0  503  502  0.00000000000E+00  0.00000000000E+00  0.26376710748E+01  0.26376710748E+01  0.00000000000E+00 0.  1.
         21   -1    0    0  501  503 -0.00000000000E+00 -0.00000000000E+00 -0.17289604208E+03  0.17289604208E+03  0.00000000000E+00 0. -1.
          2    1    1    2  501    0  0.12903804181E+01 -0.20127435704E+02 -0.11397568707E+03  0.11574642972E+03  0.00000000000E+00 0. -1.
         -2    1    1    2    0  502 -0.12903804181E+01  0.20127435704E+02 -0.56282683932E+02  0.59787283432E+02  0.00000000000E+00 0.  1.
</event>
<event>
 4    1  0.1842931E+004  0.3668811E+02  0.7546771E-02  0.1369068E+00
         21   -1    0    0  503  502  0.00000000000E+00  0.00000000000E+00  0.11375468425E+03  0.11375468425E+03  0.00000000000E+00 0. -1.
         21   -1    0    0  501  503 -0.00000000000E+00 -0.00000000000E+00 -0.25321063290E+02  0.25321063290E+02  0.00000000000E+00 0.  1.
          2    1    1    2  501    0 -0.20913397214E+02  0.30143771858E+02 -0.65361267692E+01  0.37265776767E+02  0.00000000000E+00 0.  1.
         -2    1    1    2    0  502  0.20913397214E+02 -0.30143771858E+02  0.94969747729E+02  0.10180997077E+03  0.00000000000E+00 0. -1.
</event>
<event>
 4    1  0.1842931E+004  0.2224508E+02  0.7546771E-02  0.1502202E+00
         21   -1    0    0  503  502  0.00000000000E+00  0.00000000000E+00  0.88297484072E+01  0.88297484072E+01  0.00000000000E+00 0.  1.
         21   -1    0    0  501  503 -0.00000000000E+00 -0.00000000000E+00 -0.10492807656E+03  0.10492807656E+03  0.00000000000E+00 0. -1.
          2    1    1    2  501    0 -0.22237934814E+02  0.56361946127E+00 -0.86872663071E+02  0.89675542935E+02  0.00000000000E+00 0. -1.
         -2    1    1    2    0  502  0.22237934814E+02 -0.56361946127E+00 -0.92256650832E+01  0.24082282033E+02  0.00000000000E+00 0.  1.
</event>
<event>
 4    1  0.1842931E+004  0.2007394E+02  0.7546771E-02  0.1532908E+00
         21   -1    0    0  503  502  0.00000000000E+00  0.00000000000E+00  0.76212671086E+02  0.76212671086E+02  0.00000000000E+00 0.  1.
         21   -1    0    0  501  503 -0.00000000000E+00 -0.00000000000E+00 -0.59346952717E+02  0.59346952717E+02  0.00000000000E+00 0. -1.
          2    1    1    2  501    0  0.14192469180E+02  0.14196364719E+02 -0.56257204407E+02  0.59731365298E+02  0.00000000000E+00 0. -1.
         -2    1    1    2    0  502 -0.14192469180E+02 -0.14196364719E+02  0.73122922775E+02  0.75828258505E+02  0.00000000000E+00 0.  1.
</event>
<event>
 4    1  0.1842931E+004  0.2634486E+02  0.7546771E-02  0.1454302E+00
         21   -1    0    0  501  502  0.00000000000E+00  0.00000000000E+00  0.26282624427E+02  0.26282624427E+02  0.00000000000E+00 0. -1.
         21   -1    0    0  502  503 -0.00000000000E+00 -0.00000000000E+00 -0.13823199363E+03  0.13823199363E+03  0.00000000000E+00 0.  1.
          2    1    1    2  501    0  0.29992433827E+01  0.26173578445E+02  0.18009549079E+02  0.31912309968E+02  0.00000000000E+00 0. -1.
         -2    1    1    2    0  503 -0.29992433827E+01 -0.26173578445E+02 -0.12995891828E+03  0.13260230808E+03  0.00000000000E+00 0.  1.
</event>
<event>
 4    1  0.1842931E+004  0.2475906E+02  0.7546771E-02  0.1471517E+00
         21   -1    0    0  501  502  0.00000000000E+00  0.00000000000E+00  0.25295043373E+02  0.25295043373E+02  0.00000000000E+00 0.  1.
         21   -1    0    0  502  503 -0.00000000000E+00 -0.00000000000E+00 -0.24509353729E+02  0.24509353729E+02  0.00000000000E+00 0. -1.
          2    1    1    2  501    0 -0.13197315808E+02 -0.20948548093E+02  0.30302839260E+01  0.24943805492E+02  0.00000000000E+00 0.  1.
         -2    1    1    2    0  503  0.13197315808E+02  0.20948548093E+02 -0.22445942828E+01  0.24860591611E+02  0.00000000000E+00 0. -1.
</event>
<event>
 4    1  0.1842931E+004  0.3203146E+02  0.7546771E-02  0.1402727E+00
         21   -1    0    0  501  502  0.00000000000E+00  0.00000000000E+00  0.17789239969E+02  0.17789239969E+02  0.00000000000E+00 0.  1.
         21   -1    0    0  502  503 -0.00000000000E+00 -0.00000000000E+00 -0.10824369086E+03  0.10824369086E+03  0.00000000000E+00 0. -1.
          2    1    1    2  501    0  0.82543100862E+00  0.32020823003E+02 -0.21558476122E+01  0.32103926879E+02  0.00000000000E+00 0.  1.
         -2    1    1    2    0  503 -0.82543100862E+00 -0.32020823003E+02 -0.88298603280E+02  0.93929003952E+02  0.00000000000E+00 0. -1.
</event>
<event>
 4    1  0.1842931E+004  0.2472653E+02  0.7546771E-02  0.1471886E+00
         21   -1    0    0  503  502  0.00000000000E+00  0.00000000000E+00  0.55432866120E+01  0.55432866120E+01  0.00000000000E+00 0. -1.
         21   -1    0    0  501  503 -0.00000000000E+00 -0.00000000000E+00 -0.32990854497E+03  0.32990854497E+03  0.00000000000E+00 0.  1.
          2    1    1    2  501    0  0.23807459666E+02 -0.66788009252E+01 -0.29902862957E+03  0.30004920066E+03  0.00000000000E+00 0.  1.
         -2    1    1    2    0  502 -0.23807459666E+02  0.66788009252E+01 -0.25336628791E+02  0.35402630919E+02  0.00000000000E+00 0. -1.
</event>
<event>
 4    1  0.1842931E+004  0.2255336E+02  0.7546771E-02  0.1498184E+00
         21   -1    0    0  501  502  0.00000000000E+00  0.00000000000E+00  0.10419924954E+02  0.10419924954E+02  0.00000000000E+00 0. -1.
         21   -1    0    0  502  503 -0.00000000000E+00 -0.00000000000E+00 -0.13717415000E+03  0.13717415000E+03  0.00000000000E+00 0.  1.
          2    1    1    2  501    0  0.14156878638E+02  0.17556679108E+02 -0.41490886396E+01  0.22931836616E+02  0.00000000000E+00 0. -1.
         -2    1    1    2    0  503 -0.14156878638E+02 -0.17556679108E+02 -0.12260513640E+03  0.12466223833E+03  0.00000000000E+00 0.  1.
</event>
<event>
 4    1  0.1842931E+004  0.2312082E+02  0.7546771E-02  0.1490987E+00
         21   -1    0    0  501  502  0.00000000000E+00  0.00000000000E+00  0.10969475408E+03  0.10969475408E+03  0.00000000000E+00 0.  1.
         21   -1    0    0  502  503 -0.00000000000E+00 -0.00000000000E+00 -0.69697934119E+01  0.69697934119E+01  0.00000000000E+00 0. -1.
          2    1    1    2  501    0  0.18469619256E+02 -0.13908470105E+02  0.83355011459E+02  0.86502198304E+02  0.00000000000E+00 0.  1.
         -2    1    1    2    0  503 -0.18469619256E+02  0.13908470105E+02  0.19369949206E+02  0.30162349185E+02  0.00000000000E+00 0. -1.
</event>
<event>
 4    1  0.1842931E+004  0.2368300E+02  0.7546771E-02  0.1484095E+00
         21   -1    0    0  503  502  0.00000000000E+00  0.00000000000E+00  0.44785487601E+02  0.44785487601E+02  0.00000000000E+00 0. -1.
         21   -1    0    0  501  503 -0.00000000000E+00 -0.00000000000E+00 -0.16264801396E+02  0.16264801396E+02  0.00000000000E+00 0.  1.
          2    1    1    2  501    0 -0.21497086498E+02 -0.99377976879E+01  0.28899875395E+02  0.37364252283E+02  0.00000000000E+00 0. -1.
         -2    1    1    2    0  502  0.21497086498E+02  0.99377976879E+01 -0.37918918952E+00  0.23686036714E+02  0.00000000000E+00 0.  1.
</event>
<event>
 4    1  0.1842931E+004  0.2906632E+02  0.7546771E-02  0.1427887E+00
         21   -1    0    0  501  502  0.00000000000E+00  0.00000000000E+00  0.18879518159E+03  0.18879518159E+03  0.00000000000E+00 0.  1.
         21   -1    0    0  502  503 -0.00000000000E+00 -0.00000000000E+00 -0.64752884883E+01  0.64752884883E+01  0.00000000000E+00 0. -1.
          2    1    1    2  501    0  0.10520819818E+02 -0.27095452876E+02  0.14542590590E+03  0.14830220943E+03  0.00000000000E+00 0.  1.
         -2    1    1    2    0  503 -0.10520819818E+02  0.27095452876E+02  0.36893987198E+02  0.46968260640E+02  0.00000000000E+00 0. -1.
</event>
<event>
 4    1  0.1842931E+004  0.5293165E+02  0.7546771E-02  0.1285939E+00
         21   -1    0    0  503  502  0.00000000000E+00  0.00000000000E+00  0.85022126974E+02  0.85022126974E+02  0.00000000000E+00 0. -1.
         21   -1    0    0  501  503 -0.00000000000E+00 -0.00000000000E+00 -0.13280045526E+03  0.13280045526E+03  0.00000000000E+00 0.  1.
          2    1    1    2  501    0 -0.25771115173E+02 -0.46234285608E+02 -0.11832590172E+03  0.12962553206E+03  0.00000000000E+00 0.  1.
         -2    1    1    2    0  502  0.25771115173E+02  0.46234285608E+02  0.70547573433E+02  0.88197050178E+02  0.00000000000E+00 0. -1.
</event>
<event>
 4    1  0.1842931E+004  0.3735740E+02  0.7546771E-02  0.1364708E+00
         21   -1    0    0  503  502  0.00000000000E+00  0.00000000000E+00  0.74238191718E+03  0.74238191718E+03  0.00000000000E+00 0. -1.
         21   -1    0    0  501  503 -0.00000000000E+00 -0.00000000000E+00 -0.20762111797E+01  0.20762111797E+01  0.00000000000E+00 0.  1.
          2    1    1    2  501    0  0.16780259849E+02  0.33376608411E+02  0.25568336827E+03  0.25839806486E+03  0.00000000000E+00 0.  1.
         -2    1    1    2    0  502 -0.16780259849E+02 -0.33376608411E+02  0.48462233773E+03  0.48606006351E+03  0.00000000000E+00 0. -1.
</event>
<event>
 4    1  0.1842931E+004  0.2075442E+02  0.7546771E-02  0.1522800E+00
         21   -1    0    0  501  502  0.00000000000E+00  0.00000000000E+00  0.69427668887E+01  0.69427668887E+01  0.00000000000E+00 0. -1.
         21   -1    0    0  502  503 -0.00000000000E+00 -0.00000000000E+00 -0.62628670641E+02  0.62628670641E+02  0.00000000000E+00 0.  1.
          2    1    1    2  501    0 -0.20728285131E+02 -0.10412424850E+01 -0.24477373374E+02  0.32091864976E+02  0.00000000000E+00 0.  1.
         -2    1    1    2    0  503  0.20728285131E+02  0.10412424850E+01 -0.31208530379E+02  0.37479572554E+02  0.00000000000E+00 0. -1.
</event>
<event>
 4    1  0.1842931E+004  0.2178473E+02  0.7546771E-02  0.1508349E+00
         21   -1    0    0  503  502  0.00000000000E+00  0.00000000000E+00  0.40467624577E+02  0.40467624577E+02  0.00000000000E+00 0.  1.
         21   -1    0    0  501  503 -0.00000000000E+00 -0.00000000000E+00 -0.22656381955E+02  0.22656381955E+02  0.00000000000E+00 0. -1.
          2    1    1    2  501    0 -0.21687156486E+02  0.20594953531E+01 -0.13015459128E+02  0.25376691153E+02  0.00000000000E+00 0. -1.
         -2    1    1    2    0  502  0.21687156486E+02 -0.20594953531E+01  0.30826701750E+02  0.37747315379E+02  0.00000000000E+00 0.  1.
</event>
<event>
 4    1  0.1842931E+004  0.2125228E+02  0.7546771E-02  0.1515693E+00
         21   -1    0    0  503  502  0.00000000000E+00  0.00000000000E+00  0.16210367023E+03  0.16210367023E+03  0.00000000000E+00 0.  1.
         21   -1    0    0  501  503 -0.00000000000E+00 -0.00000000000E+00 -0.28250359137E+01  0.28250359137E+01  0.00000000000E+00 0. -1.
          2    1    1    2  501    0  0.15587426813E+02 -0.14446152512E+02  0.89303511789E+02  0.91797474992E+02  0.00000000000E+00 0. -1.
         -2    1    1    2    0  502 -0.15587426813E+02  0.14446152512E+02  0.69975122525E+02  0.73131231150E+02  0.00000000000E+00 0.  1.
</event>
<event>
 4    1  0.1842931E+004  0.2940133E+02  0.7546771E-02  0.1424871E+00
         21   -1    0    0  503  502  0.00000000000E+00  0.00000000000E+00  0.63157028114E+02  0.63157028114E+02  0.00000000000E+00 0. -1.
         21   -1    0    0  501  503 -0.00000000000E+00 -0.00000000000E+00 -0.16183575762E+02  0.16183575762E+02  0.00000000000E+00 0.  1.
          2    1    1    2  501    0 -0.26044875724E+02 -0.13641941926E+02  0.79059253454E+01  0.30445718690E+02  0.00000000000E+00 0. -1.
         -2    1    1    2    0  502  0.26044875724E+02  0.13641941926E+02  0.39067527007E+02  0.48894885186E+02  0.00000000000E+00 0.  1.
</event>
<event>
 4    1  0.1842931E+004  0.1212135E+03  0.7546771E-02  0.1131411E+00
         21   -1    0    0  501  502  0.00000000000E+00  0.00000000000E+00  0.45005557042E+03  0.45005557042E+03  0.00000000000E+00 0. -1.
         21   -1    0    0  502  503 -0.00000000000E+00 -0.00000000000E+00 -0.11928359569E+03  0.11928359569E+03  0.00000000000E+00 0.  1.
          2    1    1    2  501    0  0.55097878600E+02  0.10796728072E+03  0.40799269809E+03  0.42561808189E+03  0.00000000000E+00 0. -1.
         -2    1    1    2    0  503 -0.55097878600E+02 -0.10796728072E+03 -0.77220723356E+02  0.14372108422E+03  0.00000000000E+00 0.  1.
</event>
<event>
 4    1  0.1842931E+004  0.2263644E+02  0.7546771E-02  0.1497115E+00
         21   -1    0    0  503  502  0.00000000000E+00  0.00000000000E+00  0.88378985944E+02  0.88378985944E+02  0.00000000000E+00 0. -1.
         21   -1    0    0  501  503 -0.00000000000E+00 -0.00000000000E+00 -0.10238325721E+02  0.10238325721E+02  0.00000000000E+00 0.  1.
          2    1    1    2  501    0 -0.15785979668E+02  0.16223785659E+02  0.65972643258E+01  0.23578216043E+02  0.00000000000E+00 0.  1.
         -2    1    1    2    0  502  0.15785979668E+02 -0.16223785659E+02  0.71543395897E+02  0.75039095621E+02  0.00000000000E+00 0. -1.
</event>
<event>
 4    1  0.1842931E+004  0.2056072E+02  0.7546771E-02  0.1525630E+00
         21   -1    0    0  501  502  0.00000000000E+00  0.00000000000E+00  0.36770164446E+02  0.36770164446E+02  0.00000000000E+00 0.  1.
         21   -1    0    0  502  503 -0.00000000000E+00 -0.00000000000E+00 -0.15232558585E+02  0.15232558585E+02  0.00000000000E+00 0. -1.
          2    1    1    2  501    0 -0.20334050928E+02 -0.30445989006E+01  0.23645152728E+02  0.31334269692E+02  0.00000000000E+00 0.  1.
         -2    1    1    2    0  503  0.20334050928E+02  0.30445989006E+01 -0.21075468669E+01  0.20668453339E+02  0.00000000000E+00 0. -1.
</event>
<event>
 4    1  0.1842931E+004  0.2109097E+02  0.7546771E-02  0.1517970E+00
         21   -1    0    0  501  502  0.00000000000E+00  0.00000000000E+00  0.71119098549E+01  0.71119098549E+01  0.00000000000E+00 0. -1.
         21   -1    0    0  502  503 -0.00000000000E+00 -0.00000000000E+00 -0.75045637914E+02  0.75045637914E+02  0.00000000000E+00 0.  1.
          2    1    1    2  501    0 -0.21005167144E+02  0.19005159472E+01 -0.17202574379E+02  0.27216861922E+02  0.00000000000E+00 0. -1.
         -2    1    1    2    0  503  0.21005167144E+02 -0.19005159472E+01 -0.50731153680E+02  0.54940685847E+02  0.00000000000E+00 0.  1.
</event>
<event>
 4    1  0.1842931E+004  0.2280411E+02  0.7546771E-02  0.1494973E+00
         21   -1    0    0  503  502  0.00000000000E+00  0.00000000000E+00  0.12936871733E+03  0.12936871733E+03  0.00000000000E+00 0. -1.
         21   -1    0    0  501  503 -0.00000000000E+00 -0.00000000000E+00 -0.17374498805E+02  0.17374498805E+02  0.00000000000E+00 0.  1.
          2    1    1    2  501    0 -0.18310801099E+02  0.13591988498E+02 -0.83294092784E+01  0.24277698556E+02  0.00000000000E+00 0.  1.
         -2    1    1    2    0  502  0.18310801099E+02 -0.13591988498E+02  0.12032362780E+03  0.12246551758E+03  0.00000000000E+00 0. -1.
</event>
<event>
 4    1  0.1842931E+004  0.2489330E+02  0.7546771E-02  0.1470001E+00
         21   -1    0    0  501  502  0.00000000000E+00  0.00000000000E+00  0.87308249239E+00  0.87308249239E+00  0.00000000000E+00 0.  1.
         21   -1    0    0  502  503 -0.00000000000E+00 -0.00000000000E+00 -0.14685315346E+04  0.14685315346E+04  0.00000000000E+00 0. -1.
          2    1    1    2  501    0  0.92735376768E+00  0.24876025345E+02 -0.20571718419E+03  0.20721784791E+03  0.00000000000E+00 0.  1.
         -2    1    1    2    0  503 -0.92735376768E+00 -0.24876025345E+02 -0.12619412679E+04  0.12621867691E+04  0.00000000000E+00 0. -1.
</event>
<event>
 4    1  0.1842931E+004  0.2251693E+02  0.7546771E-02  0.1498655E+00
         21   -1    0    0  501  502  0.00000000000E+00  0.00000000000E+00  0.24763120916E+03  0.24763120916E+03  0.00000000000E+00 0.  1.
         21   -1    0    0  502  503 -0.00000000000E+00 -0.00000000000E+00 -0.43439655288E+01  0.43439655288E+01  0.00000000000E+00 0. -1.
          2    1    1    2  501    0  0.63769514477E+01  0.21595059655E+02  0.21324867330E+03  0.21443415953E+03  0.00000000000E+00 0.  1.
         -2    1    1    2    0  503 -0.63769514477E+01 -0.21595059655E+02  0.30038570334E+02  0.37541015156E+02  0.00000000000E+00 0. -1.
</event>
<event>
 4    1  0.1842931E+004  0.2109554E+02  0.7546771E-02  0.1517905E+00
         21   -1    0    0  501  502  0.00000000000E+00  0.00000000000E+00  0.58805561627E+01  0.58805561627E+01  0.00000000000E+00 0. -1.
         21   -1    0    0  502  503 -0.00000000000E+00 -0.00000000000E+00 -0.75799874378E+02  0.75799874378E+02  0.00000000000E+00 0.  1.
          2    1    1    2  501    0 -0.15036462946E+02  0.14796161736E+02 -0.36605369383E+02  0.42248960788E+02  0.00000000000E+00 0. -1.
         -2    1    1    2    0  503  0.15036462946E+02 -0.14796161736E+02 -0.33313948832E+02  0.39431469752E+02  0.00000000000E+00 0.  1.
</event>
<event>
 4    1  0.1842931E+004  0.2339071E+02  0.7546771E-02  0.1487649E+00
         21   -1    0    0  501  502  0.00000000000E+00  0.00000000000E+00  0.97675195358E+02  0.97675195358E+02  0.00000000000E+00 0.  1.
         21   -1    0    0  502  503 -0.00000000000E+00 -0.00000000000E+00 -0.57963625662E+01  0.57963625662E+01  0.00000000000E+00 0. -1.
          2    1    1    2  501    0  0.21598145425E+02  0.89802747247E+01  0.36452945920E+02  0.43312151715E+02  0.00000000000E+00 0. -1.
         -2    1    1    2    0  503 -0.21598145425E+02 -0.89802747247E+01  0.55425886871E+02  0.60159406209E+02  0.00000000000E+00 0.  1.
</event>
<event>
 4    1  0.1842931E+004  0.2025094E+02  0.7546771E-02  0.1530234E+00
         21   -1    0    0  503  502  0.00000000000E+00  0.00000000000E+00  0.37656546100E+01  0.37656546100E+01  0.00000000000E+00 0.  1.
         21   -1    0    0  501  503 -0.00000000000E+00 -0.00000000000E+00 -0.19992630972E+03  0.19992630972E+03  0.00000000000E+00 0. -1.
          2    1    1    2  501    0  0.12809198098E+02  0.15685182849E+02 -0.16679971210E+03  0.16802453533E+03  0.00000000000E+00 0. -1.
         -2    1    1    2    0  502 -0.12809198098E+02 -0.15685182849E+02 -0.29360943012E+02  0.35667429000E+02  0.00000000000E+00 0.  1.
</event>
<event>
 4    1  0.1842931E+004  0.3391287E+02  0.7546771E-02  0.1388371E+00
         21   -1    0    0  503  502  0.00000000000E+00  0.00000000000E+00  0.36369754999E+03  0.36369754999E+03  0.00000000000E+00 0. -1.
         21   -1    0    0  501  503 -0.00000000000E+00 -0.00000000000E+00 -0.41021175496E+01  0.41021175496E+01  0.00000000000E+00 0.  1.
          2    1    1    2  501    0 -0.18335620492E+02  0.28528712912E+02  0.91769195030E+02  0.97834899681E+02  0.00000000000E+00 0.  1.
         -2    1    1    2    0  502  0.18335620492E+02 -0.28528712912E+02  0.26782623741E+03  0.26996476785E+03  0.00000000000E+00 0. -1.
</event>
<event>
 4    1  0.1842931E+004  0.2176916E+02  0.7546771E-02  0.1508561E+00
         21   -1    0    0  503  502  0.00000000000E+00  0.00000000000E+00  0.10472781436E+03  0.10472781436E+03  0.00000000000E+00 0. -1.
         21   -1    0    0  501  503 -0.00000000000E+00 -0.00000000000E+00 -0.49897172190E+01  0.49897172190E+01  0.00000000000E+00 0.  1.
          2    1    1    2  501    0  0.20461050435E+02 -0.74324712797E+01  0.33127727987E+02  0.39640163670E+02  0.00000000000E+00 0.  1.
         -2    1    1    2    0  502 -0.20461050435E+02  0.74324712797E+01  0.66610369154E+02  0.70077367909E+02  0.00000000000E+00 0. -1.
</event>
<event>
 4    1  0.1842931E+004  0.3135674E+02  0.7546771E-02  0.1408162E+00
         21   -1    0    0  503  502  0.00000000000E+00  0.00000000000E+00  0.83171228520E+01  0.83171228520E+01  0.00000000000E+00 0. -1.
         21   -1    0    0  501  503 -0.00000000000E+00 -0.00000000000E+00 -0.30119512646E+03  0.30119512646E+03  0.00000000000E+00 0.  1.
          2    1    1    2  501    0  0.27918061511E+02  0.14276794970E+02 -0.26705937001E+03  0.26889394218E+03  0.00000000000E+00 0.  1.
         -2    1    1    2    0  502 -0.27918061511E+02 -0.14276794970E+02 -0.25818633600E+02  0.40618307130E+02  0.00000000000E+00 0. -1.
</event>
<event>
 4    1  0.1842931E+004  0.2627412E+02  0.7546771E-02  0.1455039E+00
         21   -1    0    0  501  502  0.00000000000E+00  0.00000000000E+00  0.77757166756E+02  0.77757166756E+02  0.00000000000E+00 0. -1.
         21   -1    0    0  502  503 -0.00000000000E+00 -0.00000000000E+00 -0.38692935971E+02  0.38692935971E+02  0.00000000000E+00 0.  1.
          2    1    1    2  501    0 -0.24745386222E+01 -0.26157329328E+02  0.70642703256E+02  0.75370556203E+02  0.00000000000E+00 0. -1.
         -2    1    1    2    0  503  0.24745386222E+01  0.26157329328E+02 -0.31578472471E+02  0.41079546523E+02  0.00000000000E+00 0.  1.
</event>
<event>
 4    1  0.1842931E+004  0.2341054E+02  0.7546771E-02  0.1487406E+00
         21   -1    0    0  501  502  0.00000000000E+00  0.00000000000E+00  0.83584275776E+02  0.83584275776E+02  0.00000000000E+00 0. -1.
         21   -1    0    0  502  503 -0.00000000000E+00 -0.00000000000E+00 -0.10254650986E+02  0.10254650986E+02  0.00000000000E+00 0.  1.
          2    1    1    2  501    0 -0.21980418805E+02  0.80569473027E+01  0.64839674271E+02  0.68936467637E+02  0.00000000000E+00 0. -1.
         -2    1    1    2    0  503  0.21980418805E+02 -0.80569473027E+01  0.84899505197E+01  0.24902459126E+02  0.00000000000E+00 0.  1.
</event>
<event>
 4    1  0.1842931E+004  0.2067982E+02  0.7546771E-02  0.1523886E+00
         21   -1    0    0  503  502  0.00000000000E+00  0.00000000000E+00  0.44511535968E+01  0.44511535968E+01  0.00000000000E+00 0.  1.
         21   -1    0    0  501  503 -0.00000000000E+00 -0.00000000000E+00 -0.98883467467E+02  0.98883467467E+02  0.00000000000E+00 0. -1.
          2    1    1    2  501    0  0.12692302177E+02  0.16326681787E+02 -0.55919906810E+02  0.59621229863E+02  0.00000000000E+00 0. -1.
         -2    1    1    2    0  502 -0.12692302177E+02 -0.16326681787E+02 -0.38512407060E+02  0.43713391200E+02  0.00000000000E+00 0.  1.
</event>
<event>
 4    1  0.1842931E+004  0.2440779E+02  0.7546771E-02  0.1475539E+00
         21   -1    0    0  501  502  0.00000000000E+00  0.00000000000E+00  0.23268834161E+02  0.23268834161E+02  0.00000000000E+00 0. -1.
         21   -1    0    0  502  503 -0.00000000000E+00 -0.00000000000E+00 -0.25708571715E+02  0.25708571715E+02  0.00000000000E+00 0.  1.
          2    1    1    2  501    0  0.14380382310E+02  0.19721685696E+02 -0.27928752896E+01  0.24567059948E+02  0.00000000000E+00 0. -1.
         -2    1    1    2    0  503 -0.14380382310E+02 -0.19721685696E+02  0.35313773504E+00  0.24410345929E+02  0.00000000000E+00 0.  1.
</event>
<event>
 4    1  0.1842931E+004  0.2016921E+02  0.7546771E-02  0.1531465E+00
         21   -1    0    0  501  502  0.00000000000E+00  0.00000000000E+00  0.12361567741E+02  0.12361567741E+02  0.00000000000E+00 0. -1.
         21   -1    0    0  502  503 -0.00000000000E+00 -0.00000000000E+00 -0.33611835567E+02  0.33611835567E+02  0.00000000000E+00 0.  1.
          2    1    1    2  501    0  0.18463814789E+02  0.81169220878E+01 -0.13951009533E+02  0.24524019812E+02  0.00000000000E+00 0.  1.
         -2    1    1    2    0  503 -0.18463814789E+02 -0.81169220878E+01 -0.72992582921E+01  0.21449383496E+02  0.00000000000E+00 0. -1.
</event>
<event>
 4    1  0.1842931E+004  0.2936661E+02  0.7546771E-02  0.1425182E+00
         21   -1    0    0  501  502  0.00000000000E+00  0.00000000000E+00  0.20085616328E+03  0.20085616328E+03  0.00000000000E+00 0.  1.
         21   -1    0    0  502  503 -0.00000000000E+00 -0.00000000000E+00 -0.43221918059E+01  0.43221918059E+01  0.00000000000E+00 0. -1.
          2    1    1    2  501    0 -0.84058526612E+01  0.28137864988E+02  0.89924357001E+02  0.94598032681E+02  0.00000000000E+00 0. -1.
         -2    1    1    2    0  503  0.84058526612E+01 -0.28137864988E+02  0.10660961447E+03  0.11058032240E+03  0.00000000000E+00 0.  1.
</event>
<event>
 4    1  0.1842931E+004  0.3695570E+02  0.7546771E-02  0.1367312E+00
         21   -1    0    0  503  502  0.00000000000E+00  0.00000000000E+00  0.17526242251E+02  0.17526242251E+02  0.00000000000E+00 0.  1.
         21   -1    0    0  501  503 -0.00000000000E+00 -0.00000000000E+00 -0.92525111276E+02  0.92525111276E+02  0.00000000000E+00 0. -1.
          2    1    1    2  501    0 -0.23874467048E+02  0.28208744310E+02 -0.59357982061E+02  0.69922052793E+02  0.00000000000E+00 0. -1.
         -2    1    1    2    0  502  0.23874467048E+02 -0.28208744310E+02 -0.15640886964E+02  0.40129300734E+02  0.00000000000E+00 0.  1.
</event>
<event>
 4    1  0.1842931E+004  0.2521399E+02  0.7546771E-02  0.1466424E+00
         21   -1    0    0  503  502  0.00000000000E+00  0.00000000000E+00  0.40371185053E+02  0.40371185053E+02  0.00000000000E+00 0. -1.
         21   -1    0    0  501  503 -0.00000000000E+00 -0.00000000000E+00 -0.26556299350E+02  0.26556299350E+02  0.00000000000E+00 0.  1.
          2    1    1    2  501    0  0.57014512055E+01 -0.24560920302E+02 -0.14441648629E+02  0.29056953850E+02  0.00000000000E+00 0.  1.
         -2    1    1    2    0  502 -0.57014512055E+01  0.24560920302E+02  0.28256534331E+02  0.37870530553E+02  0.00000000000E+00 0. -1.
</event>
<event>
 4    1  0.1842931E+004  0.2384687E+02  0.7546771E-02  0.1482129E+00
         21   -1    0    0  501  502  0.00000000000E+00  0.00000000000E+00  0.75089881640E+01  0.75089881640E+01  0.00000000000E+00 0. -1.
         21   -1    0    0  502  503 -0.00000000000E+00 -0.00000000000E+00 -0.16006489958E+03  0.16006489958E+03  0.00000000000E+00 0.  1.
          2    1    1    2  501    0 -0.10334709736E+02 -0.21491089530E+02 -0.15460819162E+02  0.28420240740E+02  0.00000000000E+00 0. -1.
         -2    1    1    2    0  503  0.10334709736E+02  0.21491089530E+02 -0.13709509226E+03  0.13915364701E+03  0.00000000000E+00 0.  1.
</event>
<event>
 4    1  0.1842931E+004  0.2021979E+02  0.7546771E-02  0.1530702E+00
         21   -1    0    0  503  502  0.00000000000E+00  0.00000000000E+00  0.14495927488E+03  0.14495927488E+03  0.00000000000E+00 0.  1.
         21   -1    0    0  501  503 -0.00000000000E+00 -0.00000000000E+00 -0.34996068661E+02  0.34996068661E+02  0.00000000000E+00 0. -1.
          2    1    1    2  501    0  0.18462705185E+02 -0.82442998339E+01 -0.31294209748E+02  0.37258120273E+02  0.00000000000E+00 0. -1.
         -2    1    1    2    0  502 -0.18462705185E+02  0.82442998339E+01  0.14125741597E+03  0.14269722327E+03  0.00000000000E+00 0.  1.
</event>
<event>
 4    1  0.1842931E+004  0.3746549E+02  0.7546771E-02  0.1364014E+00
         21   -1    0    0  503  502  0.00000000000E+00  0.00000000000E+00  0.12855500348E+03  0.12855500348E+03  0.00000000000E+00 0.  1.
         21   -1    0    0  501  503 -0.00000000000E+00 -0.00000000000E+00 -0.10937997720E+02  0.10937997720E+02  0.00000000000E+00 0. -1.
          2    1    1    2  501    0  0.16610260094E+02 -0.33582167169E+02  0.55884337958E+02  0.67280917958E+02  0.00000000000E+00 0. -1.
         -2    1    1    2    0  502 -0.16610260094E+02  0.33582167169E+02  0.61732667802E+02  0.72212083242E+02  0.00000000000E+00 0.  1.
</event>
<event>
 4    1  0.1842931E+004  0.2072676E+02  0.7546771E-02  0.1523202E+00
         21   -1    0    0  503  502  0.00000000000E+00  0.00000000000E+00  0.40660928265E+01  0.40660928265E+01  0.00000000000E+00 0. -1.
         21   -1    0    0  501  503 -0.00000000000E+00 -0.00000000000E+00 -0.11417871185E+03  0.11417871185E+03  0.00000000000E+00 0.  1.
          2    1    1    2  501    0  0.16644448352E+02  0.12351557832E+02 -0.38901515590E+02  0.44078640599E+02  0.00000000000E+00 0. -1.
         -2    1    1    2    0  502 -0.16644448352E+02 -0.12351557832E+02 -0.71211103437E+02  0.74166164081E+02  0.00000000000E+00 0.  1.
</event>
<event>
 4    1  0.1842931E+004  0.2272669E+02  0.7546771E-02  0.1495959E+00
         21   -1    0    0  501  502  0.00000000000E+00  0.00000000000E+00  0.84738540028E+00  0.84738540028E+00  0.00000000000E+00 0.  1.
         21   -1    0    0  502  503 -0.00000000000E+00 -0.00000000000E+00 -0.65750480567E+03  0.65750480567E+03  0.00000000000E+00 0. -1.
          2    1    1    2  501    0  0.17168508306E+02  0.14891093050E+02 -0.23940666641E+03  0.24048296041E+03  0.00000000000E+00 0.  1.
         -2    1    1    2    0  503 -0.17168508306E+02 -0.14891093050E+02 -0.41725075386E+03  0.41786923066E+03  0.00000000000E+00 0. -1.
</event>
<event>
 4    1  0.1842931E+004  0.2029335E+02  0.7546771E-02  0.1529598E+00
         21   -1    0    0  501  502  0.00000000000E+00  0.00000000000E+00  0.33798672432E+02  0.33798672432E+02  0.00000000000E+00 0.  1.
         21   -1    0    0  502  503 -0.00000000000E+00 -0.00000000000E+00 -0.12887683634E+02  0.12887683634E+02  0.00000000000E+00 0. -1.
          2    1    1    2  501    0 -0.18441205311E+02 -0.84700655484E+01  0.15908119666E+02  0.25785428735E+02  0.00000000000E+00 0.  1.
         -2    1    1    2    0  503  0.18441205311E+02  0.84700655484E+01  0.50028691316E+01  0.20900927331E+02  0.00000000000E+00 0. -1.
</event>
<event>
 4    1  0.1842931E+004  0.2287598E+02  0.7546771E-02  0.1494061E+00
         21   -1    0    0  503  502  0.00000000000E+00  0.00000000000E+00  0.55609756291E+02  0.55609756291E+02  0.00000000000E+00 0.  1.
         21   -1    0    0  501  503 -0.00000000000E+00 -0.00000000000E+00 -0.98537264756E+01  0.98537264756E+01  0.00000000000E+00 0. -1.
          2    1    1    2  501    0  0.22157158637E+02  0.56895474181E+01  0.29820670187E+02  0.37584345133E+02  0.00000000000E+00 0.  1.
         -2    1    1    2    0  502 -0.22157158637E+02 -0.56895474181E+01  0.15935359629E+02  0.27879137634E+02  0.00000000000E+00 0. -1.
</event>
<event>
 4    1  0.1842931E+004  0.2020893E+02  0.7546771E-02  0.1530866E+00
         21   -1    0    0  501  502  0.00000000000E+00  0.00000000000E+00  0.33223817890E+01  0.33223817890E+01  0.00000000000E+00 0. -1.
         21   -1    0    0  502  503 -0.00000000000E+00 -0.00000000000E+00 -0.14541663459E+03  0.14541663459E+03  0.00000000000E+00 0.  1.
          2    1    1    2  501    0  0.35550505321E+01 -0.19893777926E+02 -0.41798391715E+02  0.46427430840E+02  0.00000000000E+00 0. -1.
         -2    1    1    2    0  503 -0.35550505321E+01  0.19893777926E+02 -0.10029586109E+03  0.10231158554E+03  0.00000000000E+00 0.  1.
</event>
<event>
 4    1  0.1842931E+004  0.2234567E+02  0.7546771E-02  0.1500882E+00
         21   -1    0    0  503  502  0.00000000000E+00  0.00000000000E+00  0.42717225198E+03  0.42717225198E+03  0.00000000000E+00 0.  1.
         21   -1    0    0  501  503 -0.00000000000E+00 -0.00000000000E+00 -0.22857324511E+01  0.22857324511E+01  0.00000000000E+00 0. -1.
          2    1    1    2  501    0 -0.18342084775E+02  0.12763114533E+02  0.62347446716E+02  0.66230908785E+02  0.00000000000E+00 0. -1.
         -2    1    1    2    0  502  0.18342084775E+02 -0.12763114533E+02  0.36253907281E+03  0.36322707564E+03  0.00000000000E+00 0.  1.
</event>
<event>
 4    1  0.1842931E+004  0.3656135E+02  0.7546771E-02  0.1369907E+00
         21   -1    0    0  503  502  0.00000000000E+00  0.00000000000E+00  0.77322929462E+02  0.77322929462E+02  0.00000000000E+00 0. -1.
         21   -1    0    0  501  503 -0.00000000000E+00 -0.00000000000E+00 -0.17314475371E+02  0.17314475371E+02  0.00000000000E+00 0.  1.
          2    1    1    2  501    0  0.25561429997E+01 -0.36471884190E+02  0.28141914050E+02  0.46137831871E+02  0.00000000000E+00 0. -1.
         -2    1    1    2    0  502 -0.25561429997E+01  0.36471884190E+02  0.31866540040E+02  0.48499572962E+02  0.00000000000E+00 0.  1.
</event>
<event>
 4    1  0.1842931E+004  0.5683718E+02  0.7546771E-02  0.1270975E+00
         21   -1    0    0  503  502  0.00000000000E+00  0.00000000000E+00  0.47253108909E+02  0.47253108909E+02  0.00000000000E+00 0. -1.
         21   -1    0    0  501  503 -0.00000000000E+00 -0.00000000000E+00 -0.10574658314E+03  0.10574658314E+03  0.00000000000E+00 0.  1.
          2    1    1    2  501    0  0.34774617906E+02  0.44957651783E+02 -0.74730410468E+02  0.93888757330E+02  0.00000000000E+00 0.  1.
         -2    1    1    2    0  502 -0.34774617906E+02 -0.44957651783E+02  0.16236936241E+02  0.59110934715E+02  0.00000000000E+00 0. -1.
</event>
<event>
 4    1  0.1842931E+004  0.2135991E+02  0.7546771E-02  0.1514188E+00
         21   -1    0    0  501  502  0.00000000000E+00  0.00000000000E+00  0.49273964197E+02  0.49273964197E+02  0.00000000000E+00 0.  1.
         21   -1    0    0  502  503 -0.00000000000E+00 -0.00000000000E+00 -0.92600363143E+01  0.92600363143E+01  0.00000000000E+00 0. -1.
          2    1    1    2  501    0  0.12266126039E+02 -0.17486798319E+02  0.20254857330E+02  0.29436460537E+02  0.00000000000E+00 0. -1.
         -2    1    1    2    0  503 -0.12266126039E+02  0.17486798319E+02  0.19759070552E+02  0.29097539974E+02  0.00000000000E+00 0.  1.
</event>
<event>
 4    1  0.1842931E+004  0.2068008E+02  0.7546771E-02  0.1523882E+00
         21   -1    0    0  503  502  0.00000000000E+00  0.00000000000E+00  0.52478503034E+01  0.52478503034E+01  0.00000000000E+00 0. -1.
         21   -1    0    0  501  503 -0.00000000000E+00 -0.00000000000E+00 -0.94411348195E+02  0.94411348195E+02  0.00000000000E+00 0.  1.
          2    1    1    2  501    0  0.20524724685E+02 -0.25301141837E+01 -0.63013645431E+02  0.66320323519E+02  0.00000000000E+00 0.  1.
         -2    1    1    2    0  502 -0.20524724685E+02  0.25301141837E+01 -0.26149852460E+02  0.33338874979E+02  0.00000000000E+00 0. -1.
</event>
<event>
 4    1  0.1842931E+004  0.3534288E+02  0.7546771E-02  0.1378169E+00
         21   -1    0    0  501  502  0.00000000000E+00  0.00000000000E+00  0.10042872044E+02  0.10042872044E+02  0.00000000000E+00 0. -1.
         21   -1    0    0  502  503 -0.00000000000E+00 -0.00000000000E+00 -0.15959173912E+03  0.15959173912E+03  0.00000000000E+00 0.  1.
          2    1    1    2  501    0 -0.16377901292E+02 -0.31319061154E+02 -0.34933353710E+02  0.49693645909E+02  0.00000000000E+00 0. -1.
         -2    1    1    2    0  503  0.16377901292E+02  0.31319061154E+02 -0.11461551337E+03  0.11994096526E+03  0.00000000000E+00 0.  1.
</event>
<event>
 4    1  0.1842931E+004  0.2050710E+02  0.7546771E-02  0.1526420E+00
         21   -1    0    0  501  502  0.00000000000E+00  0.00000000000E+00  0.58869970954E+01  0.58869970954E+01  0.00000000000E+00 0. -1.
         21   -1    0    0  502  503 -0.00000000000E+00 -0.00000000000E+00 -0.75290806020E+02  0.75290806020E+02  0.00000000000E+00 0.  1.
          2    1    1    2  501    0 -0.56233632420E+01 -0.19721027982E+02 -0.25517304929E+02  0.32736432451E+02  0.00000000000E+00 0. -1.
         -2    1    1    2    0  503  0.56233632420E+01  0.19721027982E+02 -0.43886503996E+02  0.48441370664E+02  0.00000000000E+00 0.  1.
</event>
<event>
 4    1  0.1842931E+004  0.2093183E+02  0.7546771E-02  0.1520240E+00
         21   -1    0    0  503  502  0.00000000000E+00  0.00000000000E+00  0.81549162241E+02  0.81549162241E+02  0.00000000000E+00 0. -1.
         21   -1    0    0  501  503 -0.00000000000E+00 -0.00000000000E+00 -0.38708725583E+02  0.38708725583E+02  0.00000000000E+00 0.  1.
          2    1    1    2  501    0  0.20762790183E+01  0.20828603791E+02 -0.34379993969E+02  0.40250784536E+02  0.00000000000E+00 0.  1.
         -2    1    1    2    0  502 -0.20762790183E+01 -0.20828603791E+02  0.77220430627E+02  0.80007103289E+02  0.00000000000E+00 0. -1.
</event>
<event>
 4    1  0.1842931E+004  0.3504783E+02  0.7546771E-02  0.1380227E+00
         21   -1    0    0  501  502  0.00000000000E+00  0.00000000000E+00  0.95216297073E+01  0.95216297073E+01  0.00000000000E+00 0. -1.
         21   -1    0    0  502  503 -0.00000000000E+00 -0.00000000000E+00 -0.23259391347E+03  0.23259391347E+03  0.00000000000E+00 0.  1.
          2    1    1    2  501    0  0.21436623644E+02 -0.27727635897E+02 -0.30748054523E+02  0.46623958247E+02  0.00000000000E+00 0. -1.
         -2    1    1    2    0  503 -0.21436623644E+02  0.27727635897E+02 -0.19232422924E+03  0.19549158493E+03  0.00000000000E+00 0.  1.
</event>
<event>
 4    1  0.1842931E+004  0.2514859E+02  0.7546771E-02  0.1467148E+00
         21   -1    0    0  501  502  0.00000000000E+00  0.00000000000E+00  0.27808094970E+02  0.27808094970E+02  0.00000000000E+00 0. -1.
         21   -1    0    0  502  503 -0.00000000000E+00 -0.00000000000E+00 -0.42751270688E+02  0.42751270688E+02  0.00000000000E+00 0.  1.
          2    1    1    2  501    0 -0.19282269528E+02  0.16144520415E+02  0.16663577021E+02  0.30168298870E+02  0.00000000000E+00 0. -1.
         -2    1    1    2    0  503  0.19282269528E+02 -0.16144520415E+02 -0.31606752739E+02  0.40391066788E+02  0.00000000000E+00 0.  1.
</event>
<event>
 4    1  0.1842931E+004  0.2072027E+02  0.7546771E-02  0.1523296E+00
         21   -1    0    0  501  502  0.00000000000E+00  0.00000000000E+00  0.97618564023E+00  0.97618564023E+00  0.00000000000E+00 0. -1.
         21   -1    0    0  502  503 -0.00000000000E+00 -0.00000000000E+00 -0.51680883992E+03  0.51680883992E+03  0.00000000000E+00 0.  1.
          2    1    1    2  501    0  0.20285964043E+02 -0.42200768363E+01 -0.15798162582E+03  0.15933462738E+03  0.00000000000E+00 0. -1.
         -2    1    1    2    0  503 -0.20285964043E+02  0.42200768363E+01 -0.35785102846E+03  0.35845039818E+03  0.00000000000E+00 0.  1.
</event>
<event>
 4    1  0.1842931E+004  0.2403433E+02  0.7546771E-02  0.1479903E+00
         21   -1    0    0  503  502  0.00000000000E+00  0.00000000000E+00  0.10803253673E+04  0.10803253673E+04  0.00000000000E+00 0. -1.
         21   -1    0    0  501  503 -0.00000000000E+00 -0.00000000000E+00 -0.13657883214E+01  0.13657883214E+01  0.00000000000E+00 0.  1.
          2    1    1    2  501    0  0.35038620111E+01 -0.23777551441E+02  0.11758378680E+03  0.12001498206E+03  0.00000000000E+00 0.  1.
         -2    1    1    2    0  502 -0.35038620111E+01  0.23777551441E+02  0.96137579215E+03  0.96167617352E+03  0.00000000000E+00 0. -1.
</event>
<event>
 4    1  0.1842931E+004  0.2642667E+02  0.7546771E-02  0.1453454E+00
         21   -1    0    0  503  502  0.00000000000E+00  0.00000000000E+00  0.54184661053E+02  0.54184661053E+02  0.00000000000E+00 0.  1.
         21   -1    0    0  501  503 -0.00000000000E+00 -0.00000000000E+00 -0.40497988077E+02  0.40497988077E+02  0.00000000000E+00 0. -1.
          2    1    1    2  501    0 -0.18073360158E+02 -0.19280102162E+02 -0.32245383801E+02  0.41690927829E+02  0.00000000000E+00 0. -1.
         -2    1    1    2    0  502  0.18073360158E+02  0.19280102162E+02  0.45932056777E+02  0.52991721301E+02  0.00000000000E+00 0.  1.
</event>
<event>
 4    1  0.1842931E+004  0.2162518E+02  0.7546771E-02  0.1510523E+00
         21   -1    0    0  501  502  0.00000000000E+00  0.00000000000E+00  0.40250834562E+01  0.40250834562E+01  0.00000000000E+00 0.  1.
         21   -1    0    0  502  503 -0.00000000000E+00 -0.00000000000E+00 -0.32095956023E+03  0.32095956023E+03  0.00000000000E+00 0. -1.
          2    1    1    2  501    0 -0.16623754641E+02  0.13831088108E+02 -0.28675426424E+02  0.35915571793E+02  0.00000000000E+00 0.  1.
         -2    1    1    2    0  503  0.16623754641E+02 -0.13831088108E+02 -0.28825905035E+03  0.28906907189E+03  0.00000000000E+00 0. -1.
</event>
<event>
 4    1  0.1842931E+004  0.2862431E+02  0.7546771E-02  0.1431940E+00
         21   -1    0    0  501  502  0.00000000000E+00  0.00000000000E+00  0.12215369098E+04  0.12215369098E+04  0.00000000000E+00 0. -1.
         21   -1    0    0  502  503 -0.00000000000E+00 -0.00000000000E+00 -0.18390547740E+01  0.18390547740E+01  0.00000000000E+00 0.  1.
          2    1    1    2  501    0  0.61345930930E+00 -0.28617731477E+02  0.10973885650E+04  0.10977618200E+04  0.00000000000E+00 0. -1.
         -2    1    1    2    0  503 -0.61345930930E+00  0.28617731477E+02  0.12230929007E+03  0.12561414460E+03  0.00000000000E+00 0.  1.
</event>
<event>
 4    1  0.1842931E+004  0.3190568E+02  0.7546771E-02  0.1403728E+00
         21   -1    0    0  501  502  0.00000000000E+00  0.00000000000E+00  0.41885587616E+03  0.41885587616E+03  0.00000000000E+00 0.  1.
         21   -1    0    0  502  503 -0.00000000000E+00 -0.00000000000E+00 -0.34248679595E+01  0.34248679595E+01  0.00000000000E+00 0. -1.
          2    1    1    2  501    0 -0.88806813190E+01 -0.30644838101E+02  0.93939038997E+02  0.99209453433E+02  0.00000000000E+00 0. -1.
         -2    1    1    2    0  503  0.88806813190E+01  0.30644838101E+02  0.32149196921E+03  0.32307129069E+03  0.00000000000E+00 0.  1.
</event>
<event>
 4    1  0.1842931E+004  0.2262838E+02  0.7546771E-02  0.1497218E+00
         21   -1    0    0  501  502  0.00000000000E+00  0.00000000000E+00  0.71552984335E+00  0.71552984335E+00  0.00000000000E+00 0. -1.
         21   -1    0    0  502  503 -0.00000000000E+00 -0.00000000000E+00 -0.12374967648E+04  0.12374967648E+04  0.00000000000E+00 0.  1.
          2    1    1    2  501    0 -0.17929139304E+02  0.13805419352E+02 -0.21634133975E+03  0.21752153669E+03  0.00000000000E+00 0. -1.
         -2    1    1    2    0  503  0.17929139304E+02 -0.13805419352E+02 -0.10204398952E+04  0.10206907580E+04  0.00000000000E+00 0.  1.
</event>
<event>
 4    1  0.1842931E+004  0.2884977E+02  0.7546771E-02  0.1429862E+00
         21   -1    0    0  503  502  0.00000000000E+00  0.00000000000E+00  0.12501193143E+03  0.12501193143E+03  0.00000000000E+00 0. -1.
         21   -1    0    0  501  503 -0.00000000000E+00 -0.00000000000E+00 -0.79354395546E+01  0.79354395546E+01  0.00000000000E+00 0.  1.
          2    1    1    2  501    0 -0.19777478672E+02 -0.21003825588E+02  0.31865866776E+02  0.42985379112E+02  0.00000000000E+00 0. -1.
         -2    1    1    2    0  502  0.19777478672E+02  0.21003825588E+02  0.85210625099E+02  0.89961991872E+02  0.00000000000E+00 0.  1.
</event>
<event>
 4    1  0.1842931E+004  0.2745506E+02  0.7546771E-02  0.1443090E+00
         21   -1    0    0  501  502  0.00000000000E+00  0.00000000000E+00  0.10170961647E+02  0.10170961647E+02  0.00000000000E+00 0.  1.
         21   -1    0    0  502  503 -0.00000000000E+00 -0.00000000000E+00 -0.11284711598E+03  0.11284711598E+03  0.00000000000E+00 0. -1.
          2    1    1    2  501    0  0.25532400777E+02 -0.10093417951E+02 -0.87375315645E+02  0.91587260901E+02  0.00000000000E+00 0. -1.
         -2    1    1    2    0  503 -0.25532400777E+02  0.10093417951E+02 -0.15300838686E+02  0.31430816723E+02  0.00000000000E+00 0.  1.
</event>
<event>
 4    1  0.1842931E+004  0.2033151E+02  0.7546771E-02  0.1529027E+00
         21   -1    0    0  501  502  0.00000000000E+00  0.00000000000E+00  0.44277792569E+02  0.44277792569E+02  0.00000000000E+00 0. -1.
         21   -1    0    0  502  503 -0.00000000000E+00 -0.00000000000E+00 -0.35459007929E+02  0.35459007929E+02  0.00000000000E+00 0.  1.
          2    1    1    2  501    0 -0.50652868235E+01  0.19690435625E+02  0.38629269036E+02  0.43653073340E+02  0.00000000000E+00 0. -1.
         -2    1    1    2    0  503  0.50652868235E+01 -0.19690435625E+02 -0.29810484396E+02  0.36083727158E+02  0.00000000000E+00 0.  1.
</event>
<event>
 4    1  0.1842931E+004  0.5274040E+02  0.7546771E-02  0.1286709E+00
         21   -1    0    0  503  502  0.00000000000E+00  0.00000000000E+00  0.32608582743E+03  0.32608582743E+03  0.00000000000E+00 0.  1.
         21   -1    0    0  501  503 -0.00000000000E+00 -0.00000000000E+00 -0.94654934653E+01  0.94654934653E+01  0.00000000000E+00 0. -1.
          2    1    1    2  501    0  0.12931186980E+02 -0.51130561952E+02  0.10556887572E+03  0.11800990418E+03  0.00000000000E+00 0. -1.
         -2    1    1    2    0  502 -0.12931186980E+02  0.51130561952E+02  0.21105145824E+03  0.21754141672E+03  0.00000000000E+00 0.  1.
</event>
<event>
 4    1  0.1842931E+004  0.2344197E+02  0.7546771E-02  0.1487022E+00
         21   -1    0    0  503  502  0.00000000000E+00  0.00000000000E+00  0.11789803703E+03  0.11789803703E+03  0.00000000000E+00 0.  1.
         21   -1    0    0  501  503 -0.00000000000E+00 -0.00000000000E+00 -0.74410774920E+01  0.74410774920E+01  0.00000000000E+00 0. -1.
          2    1    1    2  501    0 -0.83070119418E+01 -0.21920757287E+02  0.16922640722E+02  0.28911966666E+02  0.00000000000E+00 0. -1.
         -2    1    1    2    0  502  0.83070119418E+01  0.21920757287E+02  0.93534318817E+02  0.96427147858E+02  0.00000000000E+00 0.  1.
</event>
<event>
 4    1  0.1842931E+004  0.4443401E+02  0.7546771E-02  0.1324294E+00
         21   -1    0    0  501  502  0.00000000000E+00  0.00000000000E+00  0.15391919135E+03  0.15391919135E+03  0.00000000000E+00 0. -1.
         21   -1    0    0  502  503 -0.00000000000E+00 -0.00000000000E+00 -0.14035933064E+02  0.14035933064E+02  0.00000000000E+00 0.  1.
          2    1    1    2  501    0  0.30465290677E+02 -0.32345741079E+02  0.94583539739E+02  0.10450084637E+03  0.00000000000E+00 0.  1.
         -2    1    1    2    0  503 -0.30465290677E+02  0.32345741079E+02  0.45299718548E+02  0.63454278048E+02  0.00000000000E+00 0. -1.
</event>
<event>
 4    1  0.1842931E+004  0.2686771E+02  0.7546771E-02  0.1448942E+00
         21   -1    0    0  503  502  0.00000000000E+00  0.00000000000E+00  0.51778487278E+03  0.51778487278E+03  0.00000000000E+00 0. -1.
         21   -1    0    0  501  503 -0.00000000000E+00 -0.00000000000E+00 -0.25280783984E+01  0.25280783984E+01  0.00000000000E+00 0.  1.
          2    1    1    2  501    0 -0.28021395903E+01  0.26721188050E+02  0.83395293716E+02  0.87616487553E+02  0.00000000000E+00 0.  1.
         -2    1    1    2    0  502  0.28021395903E+01 -0.26721188050E+02  0.43186150067E+03  0.43269646363E+03  0.00000000000E+00 0. -1.
</event>
<event>
 4    1  0.1842931E+004  0.2192337E+02  0.7546771E-02  0.1506479E+00
         21   -1    0    0  503  502  0.00000000000E+00  0.00000000000E+00  0.15299679793E+03  0.15299679793E+03  0.00000000000E+00 0.  1.
         21   -1    0    0  501  503 -0.00000000000E+00 -0.00000000000E+00 -0.44158448172E+01  0.44158448172E+01  0.00000000000E+00 0. -1.
          2    1    1    2  501    0 -0.21534727731E+02  0.41097166976E+01  0.32008824246E+02  0.38796895486E+02  0.00000000000E+00 0. -1.
         -2    1    1    2    0  502  0.21534727731E+02 -0.41097166976E+01  0.11657212887E+03  0.11861574726E+03  0.00000000000E+00 0.  1.
</event>
<event>
 4    1  0.1842931E+004  0.3049504E+02  0.7546771E-02  0.1415342E+00
         21   -1    0    0  503  502  0.00000000000E+00  0.00000000000E+00  0.18105497444E+02  0.18105497444E+02  0.00000000000E+00 0.  1.
         21   -1    0    0  501  503 -0.00000000000E+00 -0.00000000000E+00 -0.12194886128E+03  0.12194886128E+03  0.00000000000E+00 0. -1.
          2    1    1    2  501    0 -0.30374243453E+02 -0.27115626505E+01 -0.10519840939E+03  0.10952923160E+03  0.00000000000E+00 0. -1.
         -2    1    1    2    0  502  0.30374243453E+02  0.27115626505E+01  0.13550455520E+01  0.30525127122E+02  0.00000000000E+00 0.  1.
</event>
<event>
 4    1  0.1842931E+004  0.2002824E+02  0.7546771E-02  0.1533604E+00
         21   -1    0    0  501  502  0.00000000000E+00  0.00000000000E+00  0.34168961102E+02  0.34168961102E+02  0.00000000000E+00 0. -1.
         21   -1    0    0  502  503 -0.00000000000E+00 -0.00000000000E+00 -0.12251776595E+02  0.12251776595E+02  0.00000000000E+00 0.  1.
          2    1    1    2  501    0 -0.24401736245E+01  0.19879030506E+02  0.15704156286E+02  0.25450949409E+02  0.00000000000E+00 0.  1.
         -2    1    1    2    0  503  0.24401736245E+01 -0.19879030506E+02  0.62130282217E+01  0.20969788288E+02  0.00000000000E+00 0. -1.
</event>
<event>
 4    1  0.1842931E+004  0.2017522E+02  0.7546771E-02  0.1531374E+00
         21   -1    0    0  503  502  0.00000000000E+00  0.00000000000E+00  0.17127681187E+02  0.17127681187E+02  0.00000000000E+00 0. -1.
         21   -1    0    0  501  503 -0.00000000000E+00 -0.00000000000E+00 -0.14231243175E+03  0.14231243175E+03  0.00000000000E+00 0.  1.
          2    1    1    2  501    0 -0.78549711357E+01  0.18583292244E+02 -0.13535230232E+03  0.13684767103E+03  0.00000000000E+00 0.  1.
         -2    1    1    2    0  502  0.78549711357E+01 -0.18583292244E+02  0.10167551766E+02  0.22592441902E+02  0.00000000000E+00 0. -1.
</event>
<event>
 4    1  0.1842931E+004  0.2278975E+02  0.7546771E-02  0.1495155E+00
         21   -1    0    0  503  502  0.00000000000E+00  0.00000000000E+00  0.13613356098E+03  0.13613356098E+03  0.00000000000E+00 0. -1.
         21   -1    0    0  501  503 -0.00000000000E+00 -0.00000000000E+00 -0.54605848705E+01  0.54605848705E+01  0.00000000000E+00 0.  1.
          2    1    1    2  501    0 -0.22071936327E+02  0.56747010223E+01  0.26473740522E+02  0.34931812752E+02  0.00000000000E+00 0.  1.
         -2    1    1    2    0  502  0.22071936327E+02 -0.56747010223E+01  0.10419923558E+03  0.10666233309E+03  0.00000000000E+00 0. -1.
</event>
<event>
 4    1  0.1842931E+004  0.2163253E+02  0.7546771E-02  0.1510422E+00
         21   -1    0    0  503  502  0.00000000000E+00  0.00000000000E+00  0.41036286759E+03  0.41036286759E+03  0.00000000000E+00 0.  1.
         21   -1    0    0  501  503 -0.00000000000E+00 -0.00000000000E+00 -0.12243875461E+01  0.12243875461E+01  0.00000000000E+00 0. -1.
          2    1    1    2  501    0 -0.12427405803E+02 -0.17706664949E+02  0.15066141269E+03  0.15220652966E+03  0.00000000000E+00 0. -1.
         -2    1    1    2    0  502  0.12427405803E+02  0.17706664949E+02  0.25847706735E+03  0.25938072547E+03  0.00000000000E+00 0.  1.
</event>
<event>
 4    1  0.1842931E+004  0.3226591E+02  0.7546771E-02  0.1400876E+00
         21   -1    0    0  503  502  0.00000000000E+00  0.00000000000E+00  0.61707942037E+01  0.61707942037E+01  0.00000000000E+00 0. -1.
         21   -1    0    0  501  503 -0.00000000000E+00 -0.00000000000E+00 -0.37715699625E+03  0.37715699625E+03  0.00000000000E+00 0.  1.
          2    1    1    2  501    0  0.28496552947E+02 -0.15133913162E+02 -0.32797990819E+03  0.32956320947E+03  0.00000000000E+00 0.  1.
         -2    1    1    2    0  502 -0.28496552947E+02  0.15133913162E+02 -0.43006293855E+02  0.53764580986E+02  0.00000000000E+00 0. -1.
</event>
<event>
 4    1  0.1842931E+004  0.2788211E+02  0.7546771E-02  0.1438943E+00
         21   -1    0    0  501  502  0.00000000000E+00  0.00000000000E+00  0.61959574295E+02  0.61959574295E+02  0.00000000000E+00 0. -1.
         21   -1    0    0  502  503 -0.00000000000E+00 -0.00000000000E+00 -0.13103732257E+02  0.13103732257E+02  0.00000000000E+00 0.  1.
          2    1    1    2  501    0  0.21623461755E+02  0.17602209028E+02  0.32163474393E+02  0.42566429801E+02  0.00000000000E+00 0.  1.
         -2    1    1    2    0  503 -0.21623461755E+02 -0.17602209028E+02  0.16692367645E+02  0.32496876751E+02  0.00000000000E+00 0. -1.
</event>
<event>
 4    1  0.1842931E+004  0.1337257E+03  0.7546771E-02  0.1115574E+00
         21   -1    0    0  503  502  0.00000000000E+00  0.00000000000E+00  0.44405615415E+03  0.44405615415E+03  0.00000000000E+00 0.  1.
         21   -1    0    0  501  503 -0.00000000000E+00 -0.00000000000E+00 -0.41927916631E+02  0.41927916631E+02  0.00000000000E+00 0. -1.
          2    1    1    2  501    0  0.39281664438E+02  0.12782606298E+03  0.15275815909E+03  0.20302119768E+03  0.00000000000E+00 0.  1.
         -2    1    1    2    0  502 -0.39281664438E+02 -0.12782606298E+03  0.24937007843E+03  0.28296287310E+03  0.00000000000E+00 0. -1.
</event>
<event>
 4    1  0.1842931E+004  0.2554462E+02  0.7546771E-02  0.1462802E+00
         21   -1    0    0  503  502  0.00000000000E+00  0.00000000000E+00  0.24352405662E+01  0.24352405662E+01  0.00000000000E+00 0.  1.
         21   -1    0    0  501  503 -0.00000000000E+00 -0.00000000000E+00 -0.39503779484E+03  0.39503779484E+03  0.00000000000E+00 0. -1.
          2    1    1    2  501    0  0.25217859574E+02  0.40727243796E+01 -0.30902281230E+03  0.31007680669E+03  0.00000000000E+00 0. -1.
         -2    1    1    2    0  502 -0.25217859574E+02 -0.40727243796E+01 -0.83579741974E+02  0.87396228716E+02  0.00000000000E+00 0.  1.
</event>
<event>
 4    1  0.1842931E+004  0.3800986E+02  0.7546771E-02  0.1360560E+00
         21   -1    0    0  503  502  0.00000000000E+00  0.00000000000E+00  0.92426585753E+02  0.92426585753E+02  0.00000000000E+00 0.  1.
         21   -1    0    0  501  503 -0.00000000000E+00 -0.00000000000E+00 -0.16656741583E+02  0.16656741583E+02  0.00000000000E+00 0. -1.
          2    1    1    2  501    0 -0.14199239483E+02  0.35258060288E+02  0.24352195110E+02  0.45141761417E+02  0.00000000000E+00 0.  1.
         -2    1    1    2    0  502  0.14199239483E+02 -0.35258060288E+02  0.51417649061E+02  0.63941565919E+02  0.00000000000E+00 0. -1.
</event>
<event>
 4    1  0.1842931E+004  0.2191513E+02  0.7546771E-02  0.1506590E+00
         21   -1    0    0  503  502  0.00000000000E+00  0.00000000000E+00  0.37819580804E+01  0.37819580804E+01  0.00000000000E+00 0. -1.
         21   -1    0    0  501  503 -0.00000000000E+00 -0.00000000000E+00 -0.34088951050E+03  0.34088951050E+03  0.00000000000E+00 0.  1.
          2    1    1    2  501    0  0.26280588794E+01 -0.21756976947E+02 -0.30506643021E+03  0.30585257818E+03  0.00000000000E+00 0.  1.
         -2    1    1    2    0  502 -0.26280588794E+01  0.21756976947E+02 -0.32041122212E+02  0.38818890401E+02  0.00000000000E+00 0. -1.
</event>
<event>
 4    1  0.1842931E+004  0.2446591E+02  0.7546771E-02  0.1474868E+00
         21   -1    0    0  503  502  0.00000000000E+00  0.00000000000E+00  0.60478175943E+02  0.60478175943E+02  0.00000000000E+00 0.  1.
         21   -1    0    0  501  503 -0.00000000000E+00 -0.00000000000E+00 -0.11257674939E+02  0.11257674939E+02  0.00000000000E+00 0. -1.
          2    1    1    2  501    0  0.11773147416E+02 -0.21446997405E+02  0.12142597736E+02  0.27313428520E+02  0.00000000000E+00 0. -1.
         -2    1    1    2    0  502 -0.11773147416E+02  0.21446997405E+02  0.37077903268E+02  0.44422422362E+02  0.00000000000E+00 0.  1.
</event>
<event>
 4    1  0.1842931E+004  0.2347301E+02  0.7546771E-02  0.1486642E+00
         21   -1    0    0  503  502  0.00000000000E+00  0.00000000000E+00  0.35215832901E+02  0.35215832901E+02  0.00000000000E+00 0. -1.
         21   -1    0    0  501  503 -0.00000000000E+00 -0.00000000000E+00 -0.40111798054E+02  0.40111798054E+02  0.00000000000E+00 0.  1.
          2    1    1    2  501    0 -0.22001876043E+02  0.81792095294E+01 -0.31863004580E+02  0.39575662709E+02  0.00000000000E+00 0.  1.
         -2    1    1    2    0  502  0.22001876043E+02 -0.81792095294E+01  0.26967039428E+02  0.35751968246E+02  0.00000000000E+00 0. -1.
</event>
<event>
 4    1  0.1842931E+004  0.3365636E+02  0.7546771E-02  0.1390264E+00
         21   -1    0    0  503  502  0.00000000000E+00  0.00000000000E+00  0.44106554601E+02  0.44106554601E+02  0.00000000000E+00 0.  1.
         21   -1    0    0  501  503 -0.00000000000E+00 -0.00000000000E+00 -0.11288944755E+03  0.11288944755E+03  0.00000000000E+00 0. -1.
          2    1    1    2  501    0  0.62152203345E+01 -0.33077511594E+02 -0.10338497578E+03  0.10872536022E+03  0.00000000000E+00 0. -1.
         -2    1    1    2    0  502 -0.62152203345E+01  0.33077511594E+02  0.34602082828E+02  0.48270641938E+02  0.00000000000E+00 0.  1.
</event>
<event>
 4    1  0.1842931E+004  0.3532743E+02  0.7546771E-02  0.1378276E+00
         21   -1    0    0  503  502  0.00000000000E+00  0.00000000000E+00  0.36206990029E+02  0.36206990029E+02  0.00000000000E+00 0.  1.
         21   -1    0    0  501  503 -0.00000000000E+00 -0.00000000000E+00 -0.80664839270E+02  0.80664839270E+02  0.00000000000E+00 0. -1.
          2    1    1    2  501    0  0.27997639042E+02  0.21544361584E+02 -0.66450888761E+02  0.75257876166E+02  0.00000000000E+00 0. -1.
         -2    1    1    2    0  502 -0.27997639042E+02 -0.21544361584E+02  0.21993039520E+02  0.41613953132E+02  0.00000000000E+00 0.  1.
</event>
<event>
 4    1  0.1842931E+004  0.2963718E+02  0.7546771E-02  0.1422776E+00
         21   -1    0    0  501  502  0.00000000000E+00  0.00000000000E+00  0.67917744497E+02  0.67917744497E+02  0.00000000000E+00 0. -1.
         21   -1    0    0  502  503 -0.00000000000E+00 -0.00000000000E+00 -0.12933208746E+02  0.12933208746E+02  0.00000000000E+00 0.  1.
          2    1    1    2  501    0  0.12957957903E+02  0.26654341367E+02  0.27735426879E+02  0.40590842451E+02  0.00000000000E+00 0.  1.
         -2    1    1    2    0  503 -0.12957957903E+02 -0.26654341367E+02  0.27249108872E+02  0.40260110793E+02  0.00000000000E+00 0. -1.
</event>
<event>
 4    1  0.1842931E+004  0.2337197E+02  0.7546771E-02  0.1487879E+00
         21   -1    0    0  503  502  0.00000000000E+00  0.00000000000E+00  0.89368369283E+01  0.89368369283E+01  0.00000000000E+00 0. -1.
         21   -1    0    0  501  503 -0.00000000000E+00 -0.00000000000E+00 -0.15832511418E+03  0.15832511418E+03  0.00000000000E+00 0.  1.
          2    1    1    2  501    0 -0.22429920078E+02  0.65686797882E+01 -0.14022252402E+03  0.14215697349E+03  0.00000000000E+00 0.  1.
         -2    1    1    2    0  502  0.22429920078E+02 -0.65686797882E+01 -0.91657532286E+01  0.25104977617E+02  0.00000000000E+00 0. -1.
</event>
<event>
 4    1  0.1842931E+004  0.2438991E+02  0.7546771E-02  0.1475745E+00
         21   -1    0    0  503  502  0.00000000000E+00  0.00000000000E+00  0.37163994747E+03  0.37163994747E+03  0.00000000000E+00 0. -1.
         21   -1    0    0  501  503 -0.00000000000E+00 -0.00000000000E+00 -0.16629079944E+01  0.16629079944E+01  0.00000000000E+00 0.  1.
          2    1    1    2  501    0 -0.23604754430E+02 -0.61386879346E+01  0.14887482903E+03  0.15085947979E+03  0.00000000000E+00 0.  1.
         -2    1    1    2    0  502  0.23604754430E+02  0.61386879346E+01  0.22110221044E+03  0.22244337568E+03  0.00000000000E+00 0. -1.
</event>
<event>
 4    1  0.1842931E+004  0.5205001E+02  0.7546771E-02  0.1289521E+00
         21   -1    0    0  503  502  0.00000000000E+00  0.00000000000E+00  0.97994762995E+03  0.97994762995E+03  0.00000000000E+00 0. -1.
         21   -1    0    0  501  503 -0.00000000000E+00 -0.00000000000E+00 -0.51303218762E+01  0.51303218762E+01  0.00000000000E+00 0.  1.
          2    1    1    2  501    0 -0.32208877994E+02 -0.40887547602E+02  0.15294696535E+03  0.16156106455E+03  0.00000000000E+00 0. -1.
         -2    1    1    2    0  502  0.32208877994E+02  0.40887547602E+02  0.82187034273E+03  0.82351688727E+03  0.00000000000E+00 0.  1.
</event>
<event>
 4    1  0.1842931E+004  0.3388666E+02  0.7546771E-02  0.1388564E+00
         21   -1    0    0  503  502  0.00000000000E+00  0.00000000000E+00  0.13249015546E+03  0.13249015546E+03  0.00000000000E+00 0.  1.
         21   -1    0    0  501  503 -0.00000000000E+00 -0.00000000000E+00 -0.12708408084E+02  0.12708408084E+02  0.00000000000E+00 0. -1.
          2    1    1    2  501    0 -0.28839492292E+02  0.17792961542E+02  0.18950898229E+02  0.38825794773E+02  0.00000000000E+00 0. -1.
         -2    1    1    2    0  502  0.28839492292E+02 -0.17792961542E+02  0.10083084914E+03  0.10637276877E+03  0.00000000000E+00 0.  1.
</event>
<event>
 4    1  0.1842931E+004  0.3008502E+02  0.7546771E-02  0.1418859E+00
         21   -1    0    0  503  502  0.00000000000E+00  0.00000000000E+00  0.15337402124E+03  0.15337402124E+03  0.00000000000E+00 0.  1.
         21   -1    0    0  501  503 -0.00000000000E+00 -0.00000000000E+00 -0.52660359119E+02  0.52660359119E+02  0.00000000000E+00 0. -1.
          2    1    1    2  501    0 -0.15112130511E+02  0.26014075467E+02 -0.46716648759E+02  0.55565761780E+02  0.00000000000E+00 0. -1.
         -2    1    1    2    0  502  0.15112130511E+02 -0.26014075467E+02  0.14743031087E+03  0.15046861857E+03  0.00000000000E+00 0.  1.
</event>
<event>
 4    1  0.1842931E+004  0.2468930E+02  0.7546771E-02  0.1472309E+00
         21   -1    0    0  501  502  0.00000000000E+00  0.00000000000E+00  0.18743599805E+01  0.18743599805E+01  0.00000000000E+00 0. -1.
         21   -1    0    0  502  503 -0.00000000000E+00 -0.00000000000E+00 -0.37397126876E+03  0.37397126876E+03  0.00000000000E+00 0.  1.
          2    1    1    2  501    0 -0.20712448310E+02 -0.13437106891E+02 -0.11819122677E+03  0.12074240118E+03  0.00000000000E+00 0. -1.
         -2    1    1    2    0  503  0.20712448310E+02  0.13437106891E+02 -0.25390568201E+03  0.25510322757E+03  0.00000000000E+00 0.  1.
</event>
<event>
 4    1  0.1842931E+004  0.2536567E+02  0.7546771E-02  0.1464754E+00
         21   -1    0    0  503  502  0.00000000000E+00  0.00000000000E+00  0.32004797598E+02  0.32004797598E+02  0.00000000000E+00 0.  1.
         21   -1    0    0  501  503 -0.00000000000E+00 -0.00000000000E+00 -0.33782421042E+02  0.33782421042E+02  0.00000000000E+00 0. -1.
          2    1    1    2  501    0 -0.23386669750E+02 -0.98224740015E+01 -0.21819700357E+02  0.33459178728E+02  0.00000000000E+00 0. -1.
         -2    1    1    2    0  502  0.23386669750E+02  0.98224740015E+01  0.20042076914E+02  0.32328039911E+02  0.00000000000E+00 0.  1.
</event>
<event>
 4    1  0.1842931E+004  0.2621996E+02  0.7546771E-02  0.1455605E+00
         21   -1    0    0  503  502  0.00000000000E+00  0.00000000000E+00  0.22680125479E+03  0.22680125479E+03  0.00000000000E+00 0.  1.
         21   -1    0    0  501  503 -0.00000000000E+00 -0.00000000000E+00 -0.39403201852E+02  0.39403201852E+02  0.00000000000E+00 0. -1.
          2    1    1    2  501    0 -0.15709468318E+01 -0.26172859069E+02 -0.34181083679E+02  0.43079379142E+02  0.00000000000E+00 0. -1.
         -2    1    1    2    0  502  0.15709468318E+01  0.26172859069E+02  0.22157913662E+03  0.22312507751E+03  0.00000000000E+00 0.  1.
</event>
<event>
 4    1  0.1842931E+004  0.2926744E+02  0.7546771E-02  0.1426071E+00
         21   -1    0    0  501  502  0.00000000000E+00  0.00000000000E+00  0.53426738297E+02  0.53426738297E+02  0.00000000000E+00 0. -1.
         21   -1    0    0  502  503 -0.00000000000E+00 -0.00000000000E+00 -0.24950496405E+02  0.24950496405E+02  0.00000000000E+00 0.  1.
          2    1    1    2  501    0 -0.24157169986E+02  0.16523144164E+02  0.37666667396E+02  0.47700744098E+02  0.00000000000E+00 0. -1.
         -2    1    1    2    0  503  0.24157169986E+02 -0.16523144164E+02 -0.91904255037E+01  0.30676490604E+02  0.00000000000E+00 0.  1.
</event>
<event>
 4    1  0.1842931E+004  0.4778910E+02  0.7546771E-02  0.1308054E+00
         21   -1    0    0  501  502  0.00000000000E+00  0.00000000000E+00  0.11513688701E+03  0.11513688701E+03  0.00000000000E+00 0. -1.
         21   -1    0    0  502  503 -0.00000000000E+00 -0.00000000000E+00 -0.29612365143E+02  0.29612365143E+02  0.00000000000E+00 0.  1.
          2    1    1    2  501    0  0.13034010017E+02  0.45977303604E+02  0.84348492749E+02  0.96945686304E+02  0.00000000000E+00 0. -1.
         -2    1    1    2    0  503 -0.13034010017E+02 -0.45977303604E+02  0.11760291227E+01  0.47803565854E+02  0.00000000000E+00 0.  1.
</event>
<event>
 4    1  0.1842931E+004  0.2036187E+02  0.7546771E-02  0.1528574E+00
         21   -1    0    0  501  502  0.00000000000E+00  0.00000000000E+00  0.10125263103E+02  0.10125263103E+02  0.00000000000E+00 0.  1.
         21   -1    0    0  502  503 -0.00000000000E+00 -0.00000000000E+00 -0.56526521856E+02  0.56526521856E+02  0.00000000000E+00 0. -1.
          2    1    1    2  501    0 -0.19253771425E+02  0.66255471792E+01 -0.40696028416E+02  0.45505739401E+02  0.00000000000E+00 0. -1.
         -2    1    1    2    0  503  0.19253771425E+02 -0.66255471792E+01 -0.57052303367E+01  0.21146045557E+02  0.00000000000E+00 0.  1.
</event>
<event>
 4    1  0.1842931E+004  0.2003586E+02  0.7546771E-02  0.1533488E+00
         21   -1    0    0  503  502  0.00000000000E+00  0.00000000000E+00  0.13288728728E+03  0.13288728728E+03  0.00000000000E+00 0.  1.
         21   -1    0    0  501  503 -0.00000000000E+00 -0.00000000000E+00 -0.40692877714E+01  0.40692877714E+01  0.00000000000E+00 0. -1.
          2    1    1    2  501    0 -0.13543248418E+02  0.14765372240E+02  0.29650583541E+02  0.35785372702E+02  0.00000000000E+00 0. -1.
         -2    1    1    2    0  502  0.13543248418E+02 -0.14765372240E+02  0.99167415966E+02  0.10117120235E+03  0.00000000000E+00 0.  1.
</event>
<event>
 4    1  0.1842931E+004  0.3383856E+02  0.7546771E-02  0.1388918E+00
         21   -1    0    0  503  502  0.00000000000E+00  0.00000000000E+00  0.20566070522E+03  0.20566070522E+03  0.00000000000E+00 0.  1.
         21   -1    0    0  501  503 -0.00000000000E+00 -0.00000000000E+00 -0.15949450697E+02  0.15949450697E+02  0.00000000000E+00 0. -1.
          2    1    1    2  501    0 -0.13252209989E+02  0.31135620343E+02  0.54586096696E+01  0.34276002440E+02  0.00000000000E+00 0. -1.
         -2    1    1    2    0  502  0.13252209989E+02 -0.31135620343E+02  0.18425264486E+03  0.18733415348E+03  0.00000000000E+00 0.  1.
</event>
<event>
 4    1  0.1842931E+004  0.4373508E+02  0.7546771E-02  0.1327887E+00
         21   -1    0    0  503  502  0.00000000000E+00  0.00000000000E+00  0.13852177249E+03  0.13852177249E+03  0.00000000000E+00 0.  1.
         21   -1    0    0  501  503 -0.00000000000E+00 -0.00000000000E+00 -0.62509696660E+02  0.62509696660E+02  0.00000000000E+00 0. -1.
          2    1    1    2  501    0 -0.24445861851E+01 -0.43666706237E+02 -0.50715862637E+02  0.66969067174E+02  0.00000000000E+00 0. -1.
         -2    1    1    2    0  502  0.24445861851E+01  0.43666706237E+02  0.12672793847E+03  0.13406240198E+03  0.00000000000E+00 0.  1.
</event>
<event>
 4    1  0.1842931E+004  0.2160708E+02  0.7546771E-02  0.1510771E+00
         21   -1    0    0  501  502  0.00000000000E+00  0.00000000000E+00  0.25673784965E+03  0.25673784965E+03  0.00000000000E+00 0.  1.
         21   -1    0    0  502  503 -0.00000000000E+00 -0.00000000000E+00 -0.22108881620E+01  0.22108881620E+01  0.00000000000E+00 0. -1.
          2    1    1    2  501    0  0.31499410700E+01 -0.21376242542E+02  0.18181213303E+03  0.18309155521E+03  0.00000000000E+00 0. -1.
         -2    1    1    2    0  503 -0.31499410700E+01  0.21376242542E+02  0.72714828457E+02  0.75857182597E+02  0.00000000000E+00 0.  1.
</event>
<event>
 4    1  0.1842931E+004  0.2246858E+02  0.7546771E-02  0.1499281E+00
         21   -1    0    0  503  502  0.00000000000E+00  0.00000000000E+00  0.23966502304E+01  0.23966502304E+01  0.00000000000E+00 0.  1.
         21   -1    0    0  501  503 -0.00000000000E+00 -0.00000000000E+00 -0.64035530157E+03  0.64035530157E+03  0.00000000000E+00 0. -1.
          2    1    1    2  501    0  0.12386610527E+02  0.18745902578E+02 -0.58224359855E+03  0.58267696457E+03  0.00000000000E+00 0. -1.
         -2    1    1    2    0  502 -0.12386610527E+02 -0.18745902578E+02 -0.55715052787E+02  0.60074987231E+02  0.00000000000E+00 0.  1.
</event>
<event>
 4    1  0.1842931E+004  0.3298511E+02  0.7546771E-02  0.1395310E+00
         21   -1    0    0  501  502  0.00000000000E+00  0.00000000000E+00  0.82767825323E+01  0.82767825323E+01  0.00000000000E+00 0.  1.
         21   -1    0    0  502  503 -0.00000000000E+00 -0.00000000000E+00 -0.13392346659E+03  0.13392346659E+03  0.00000000000E+00 0. -1.
          2    1    1    2  501    0 -0.31174739063E+02  0.10777432121E+02 -0.53168824989E+02  0.62569492163E+02  0.00000000000E+00 0.  1.
         -2    1    1    2    0  503  0.31174739063E+02 -0.10777432121E+02 -0.72477859071E+02  0.79630756962E+02  0.00000000000E+00 0. -1.
</event>
<event>
 4    1  0.1842931E+004  0.3097053E+02  0.7546771E-02  0.1411346E+00
         21   -1    0    0  503  502  0.00000000000E+00  0.00000000000E+00  0.64926120670E+02  0.64926120670E+02  0.00000000000E+00 0. -1.
         21   -1    0    0  501  503 -0.00000000000E+00 -0.00000000000E+00 -0.32122632255E+02  0.32122632255E+02  0.00000000000E+00 0.  1.
          2    1    1    2  501    0 -0.32238949604E+01 -0.30802275617E+02 -0.19259431923E+02  0.36470527826E+02  0.00000000000E+00 0.  1.
         -2    1    1    2    0  502  0.32238949604E+01  0.30802275617E+02  0.52062920338E+02  0.60578225098E+02  0.00000000000E+00 0. -1.
</event>
<event>
 4    1  0.1842931E+004  0.2000706E+02  0.7546771E-02  0.1533928E+00
         21   -1    0    0  501  502  0.00000000000E+00  0.00000000000E+00  0.19950005090E+02  0.19950005090E+02  0.00000000000E+00 0.  1.
         21   -1    0    0  502  503 -0.00000000000E+00 -0.00000000000E+00 -0.21717761806E+02  0.21717761806E+02  0.00000000000E+00 0. -1.
          2    1    1    2  501    0  0.17098186860E+02  0.10389152773E+02  0.48647257442E+01  0.20589998684E+02  0.00000000000E+00 0.  1.
         -2    1    1    2    0  503 -0.17098186860E+02 -0.10389152773E+02 -0.66324824606E+01  0.21077768213E+02  0.00000000000E+00 0. -1.
</event>
<event>
 4    1  0.1842931E+004  0.7368546E+02  0.7546771E-02  0.1219318E+00
         21   -1    0    0  501  502  0.00000000000E+00  0.00000000000E+00  0.73709545790E+01  0.73709545790E+01  0.00000000000E+00 0. -1.
         21   -1    0    0  502  503 -0.00000000000E+00 -0.00000000000E+00 -0.13808177591E+04  0.13808177591E+04  0.00000000000E+00 0.  1.
          2    1    1    2  501    0  0.52623834575E+02 -0.51577887270E+02 -0.21263203594E+03  0.22503761714E+03  0.00000000000E+00 0. -1.
         -2    1    1    2    0  503 -0.52623834575E+02  0.51577887270E+02 -0.11608147686E+04  0.11631510965E+04  0.00000000000E+00 0.  1.
</event>
<event>
 4    1  0.1842931E+004  0.2586315E+02  0.7546771E-02  0.1459375E+00
         21   -1    0    0  503  502  0.00000000000E+00  0.00000000000E+00  0.39291437813E+03  0.39291437813E+03  0.00000000000E+00 0.  1.
         21   -1    0    0  501  503 -0.00000000000E+00 -0.00000000000E+00 -0.36659052198E+01  0.36659052198E+01  0.00000000000E+00 0. -1.
          2    1    1    2  501    0  0.25319737571E+02 -0.52738650156E+01  0.49504982174E+02  0.55853791482E+02  0.00000000000E+00 0. -1.
         -2    1    1    2    0  502 -0.25319737571E+02  0.52738650156E+01  0.33974349074E+03  0.34072649187E+03  0.00000000000E+00 0.  1.
</event>
<event>
 4    1  0.1842931E+004  0.3248248E+02  0.7546771E-02  0.1399182E+00
         21   -1    0    0  501  502  0.00000000000E+00  0.00000000000E+00  0.63480819745E+02  0.63480819745E+02  0.00000000000E+00 0.  1.
         21   -1    0    0  502  503 -0.00000000000E+00 -0.00000000000E+00 -0.49442511159E+02  0.49442511159E+02  0.00000000000E+00 0. -1.
          2    1    1    2  501    0  0.42894691527E+01  0.32198011262E+02  0.53021825187E+02  0.62180587172E+02  0.00000000000E+00 0.  1.
         -2    1    1    2    0  503 -0.42894691527E+01 -0.32198011262E+02 -0.38983516601E+02  0.50742743732E+02  0.00000000000E+00 0. -1.
</event>
<event>
 4    1  0.1842931E+004  0.5431798E+02  0.7546771E-02  0.1280464E+00
         21   -1    0    0  503  502  0.00000000000E+00  0.00000000000E+00  0.57853107521E+02  0.57853107521E+02  0.00000000000E+00 0.  1.
         21   -1    0    0  501  503 -0.00000000000E+00 -0.00000000000E+00 -0.97403291289E+02  0.97403291289E+02  0.00000000000E+00 0. -1.
          2    1    1    2  501    0 -0.48156699050E+02 -0.25127175815E+02 -0.73356289461E+02  0.91277531909E+02  0.00000000000E+00 0. -1.
         -2    1    1    2    0  502  0.48156699050E+02  0.25127175815E+02  0.33806105692E+02  0.63978866901E+02  0.00000000000E+00 0.  1.
</event>
<event>
 4    1  0.1842931E+004  0.2340417E+02  0.7546771E-02  0.1487484E+00
         21   -1    0    0  501  502  0.00000000000E+00  0.00000000000E+00  0.39974219785E+02  0.39974219785E+02  0.00000000000E+00 0. -1.
         21   -1    0    0  502  503 -0.00000000000E+00 -0.00000000000E+00 -0.54034565486E+02  0.54034565486E+02  0.00000000000E+00 0.  1.
          2    1    1    2  501    0 -0.23355141716E+02 -0.15141707515E+01  0.33579237694E+02  0.40930679957E+02  0.00000000000E+00 0. -1.
         -2    1    1    2    0  503  0.23355141716E+02  0.15141707515E+01 -0.47639583395E+02  0.53078105314E+02  0.00000000000E+00 0.  1.
</event>
<event>
 4    1  0.1842931E+004  0.2853323E+02  0.7546771E-02  0.1432786E+00
         21   -1    0    0  501  502  0.00000000000E+00  0.00000000000E+00  0.42274801732E+01  0.42274801732E+01  0.00000000000E+00 0. -1.
         21   -1    0    0  502  503 -0.00000000000E+00 -0.00000000000E+00 -0.62692981918E+03  0.62692981918E+03  0.00000000000E+00 0.  1.
          2    1    1    2  501    0  0.10650200961E+02  0.26471089084E+02 -0.48677864933E+02  0.56424107190E+02  0.00000000000E+00 0. -1.
         -2    1    1    2    0  503 -0.10650200961E+02 -0.26471089084E+02 -0.57402447407E+03  0.57473319216E+03  0.00000000000E+00 0.  1.
</event>
<event>
 4    1  0.1842931E+004  0.2522878E+02  0.7546771E-02  0.1466260E+00
         21   -1    0    0  503  502  0.00000000000E+00  0.00000000000E+00  0.28610374655E+02  0.28610374655E+02  0.00000000000E+00 0. -1.
         21   -1    0    0  501  503 -0.00000000000E+00 -0.00000000000E+00 -0.62591822495E+02  0.62591822495E+02  0.00000000000E+00 0.  1.
          2    1    1    2  501    0  0.24569956537E+02  0.57278954702E+01 -0.53601679214E+02  0.59242143490E+02  0.00000000000E+00 0.  1.
         -2    1    1    2    0  502 -0.24569956537E+02 -0.57278954702E+01  0.19620231374E+02  0.31960053660E+02  0.00000000000E+00 0. -1.
</event>
<event>
 4    1  0.1842931E+004  0.2174907E+02  0.7546771E-02  0.1508833E+00
         21   -1    0    0  503  502  0.00000000000E+00  0.00000000000E+00  0.16121422745E+02  0.16121422745E+02  0.00000000000E+00 0.  1.
         21   -1    0    0  501  503 -0.00000000000E+00 -0.00000000000E+00 -0.44825687134E+02  0.44825687134E+02  0.00000000000E+00 0. -1.
          2    1    1    2  501    0 -0.81417879563E+01  0.20167632728E+02 -0.32262638119E+02  0.38908867105E+02  0.00000000000E+00 0. -1.
         -2    1    1    2    0  502  0.81417879563E+01 -0.20167632728E+02  0.35583737304E+01  0.22038242774E+02  0.00000000000E+00 0.  1.
</event>
<event>
 4    1  0.1842931E+004  0.2066647E+02  0.7546771E-02  0.1524080E+00
         21   -1    0    0  501  502  0.00000000000E+00  0.00000000000E+00  0.22248411939E+02  0.22248411939E+02  0.00000000000E+00 0.  1.
         21   -1    0    0  502  503 -0.00000000000E+00 -0.00000000000E+00 -0.20699883923E+02  0.20699883923E+02  0.00000000000E+00 0. -1.
          2    1    1    2  501    0 -0.13261023123E+02  0.15850816566E+02 -0.50119220213E+01  0.21265523328E+02  0.00000000000E+00 0. -1.
         -2    1    1    2    0  503  0.13261023123E+02 -0.15850816566E+02  0.65604500366E+01  0.21682772534E+02  0.00000000000E+00 0.  1.
</event>
<event>
 4    1  0.1842931E+004  0.3195635E+02  0.7546771E-02  0.1403324E+00
         21   -1    0    0  501  502  0.00000000000E+00  0.00000000000E+00  0.46640923494E+02  0.46640923494E+02  0.00000000000E+00 0.  1.
         21   -1    0    0  502  503 -0.00000000000E+00 -0.00000000000E+00 -0.46376427993E+02  0.46376427993E+02  0.00000000000E+00 0. -1.
          2    1    1    2  501    0  0.56069342035E+01 -0.31460621812E+02  0.33923374195E+02  0.46604761052E+02  0.00000000000E+00 0.  1.
         -2    1    1    2    0  503 -0.56069342035E+01  0.31460621812E+02 -0.33658878694E+02  0.46412590435E+02  0.00000000000E+00 0. -1.
</event>
<event>
 4    1  0.1842931E+004  0.2121659E+02  0.7546771E-02  0.1516195E+00
         21   -1    0    0  503  502  0.00000000000E+00  0.00000000000E+00  0.13158336070E+02  0.13158336070E+02  0.00000000000E+00 0. -1.
         21   -1    0    0  501  503 -0.00000000000E+00 -0.00000000000E+00 -0.17842939212E+03  0.17842939212E+03  0.00000000000E+00 0.  1.
          2    1    1    2  501    0 -0.15201787173E+02 -0.14800323139E+02 -0.16875803083E+03  0.17008649819E+03  0.00000000000E+00 0.  1.
         -2    1    1    2    0  502  0.15201787173E+02  0.14800323139E+02  0.34869747783E+01  0.21501229997E+02  0.00000000000E+00 0. -1.
</event>
<event>
 4    1  0.1842931E+004  0.2645296E+02  0.7546771E-02  0.1453182E+00
         21   -1    0    0  503  502  0.00000000000E+00  0.00000000000E+00  0.79329258871E+02  0.79329258871E+02  0.00000000000E+00 0. -1.
         21   -1    0    0  501  503 -0.00000000000E+00 -0.00000000000E+00 -0.36028103220E+02  0.36028103220E+02  0.00000000000E+00 0.  1.
          2    1    1    2  501    0  0.22105900144E+02 -0.14528883369E+02 -0.28472321914E+02  0.38864281652E+02  0.00000000000E+00 0.  1.
         -2    1    1    2    0  502 -0.22105900144E+02  0.14528883369E+02  0.71773477566E+02  0.76493080439E+02  0.00000000000E+00 0. -1.
</event>
<event>
 4    1  0.1842931E+004  0.2816613E+02  0.7546771E-02  0.1436233E+00
         21   -1    0    0  501  502  0.00000000000E+00  0.00000000000E+00  0.25243627534E+03  0.25243627534E+03  0.00000000000E+00 0. -1.
         21   -1    0    0  502  503 -0.00000000000E+00 -0.00000000000E+00 -0.77727861492E+01  0.77727861492E+01  0.00000000000E+00 0.  1.
          2    1    1    2  501    0 -0.25386984157E+02  0.12199658315E+02  0.22274678232E+03  0.22452051056E+03  0.00000000000E+00 0. -1.
         -2    1    1    2    0  503  0.25386984157E+02 -0.12199658315E+02  0.21916706875E+02  0.35688550935E+02  0.00000000000E+00 0.  1.
</event>
<event>
 4    1  0.1842931E+004  0.2054625E+02  0.7546771E-02  0.1525843E+00
         21   -1    0    0  501  502  0.00000000000E+00  0.00000000000E+00  0.18288108344E+03  0.18288108344E+03  0.00000000000E+00 0.  1.
         21   -1    0    0  502  503 -0.00000000000E+00 -0.00000000000E+00 -0.35885080572E+01  0.35885080572E+01  0.00000000000E+00 0. -1.
          2    1    1    2  501    0  0.41324996915E+01  0.20126372376E+02  0.14533377420E+03  0.14677893017E+03  0.00000000000E+00 0.  1.
         -2    1    1    2    0  503 -0.41324996915E+01 -0.20126372376E+02  0.33958801178E+02  0.39690661322E+02  0.00000000000E+00 0. -1.
</event>
<event>
 4    1  0.1842931E+004  0.3070196E+02  0.7546771E-02  0.1413593E+00
         21   -1    0    0  501  502  0.00000000000E+00  0.00000000000E+00  0.73245367044E+03  0.73245367044E+03  0.00000000000E+00 0.  1.
         21   -1    0    0  502  503 -0.00000000000E+00 -0.00000000000E+00 -0.17017572582E+01  0.17017572582E+01  0.00000000000E+00 0. -1.
          2    1    1    2  501    0  0.20232056818E+02  0.23092735792E+02  0.54661308266E+03  0.54747463202E+03  0.00000000000E+00 0.  1.
         -2    1    1    2    0  503 -0.20232056818E+02 -0.23092735792E+02  0.18413883052E+03  0.18668079567E+03  0.00000000000E+00 0. -1.
</event>
<event>
 4    1  0.1842931E+004  0.2199075E+02  0.7546771E-02  0.1505576E+00
         21   -1    0    0  501  502  0.00000000000E+00  0.00000000000E+00  0.11026056305E+02  0.11026056305E+02  0.00000000000E+00 0. -1.
         21   -1    0    0  502  503 -0.00000000000E+00 -0.00000000000E+00 -0.89823685317E+02  0.89823685317E+02  0.00000000000E+00 0.  1.
          2    1    1    2  501    0 -0.21141058554E+02 -0.60538333131E+01 -0.33275901804E+01  0.22241090598E+02  0.00000000000E+00 0. -1.
         -2    1    1    2    0  503  0.21141058554E+02  0.60538333131E+01 -0.75470038832E+02  0.78608651024E+02  0.00000000000E+00 0.  1.
</event>
<event>
 4    1  0.1842931E+004  0.3425985E+02  0.7546771E-02  0.1385843E+00
         21   -1    0    0  501  502  0.00000000000E+00  0.00000000000E+00  0.12196937855E+03  0.12196937855E+03  0.00000000000E+00 0.  1.
         21   -1    0    0  502  503 -0.00000000000E+00 -0.00000000000E+00 -0.21268698964E+02  0.21268698964E+02  0.00000000000E+00 0. -1.
          2    1    1    2  501    0  0.19229540968E+02  0.28354222040E+02  0.10334557910E+03  0.10887628701E+03  0.00000000000E+00 0.  1.
         -2    1    1    2    0  503 -0.19229540968E+02 -0.28354222040E+02 -0.26448995138E+01  0.34361790506E+02  0.00000000000E+00 0. -1.
</event>
<event>
 4    1  0.1842931E+004  0.2828491E+02  0.7546771E-02  0.1435111E+00
         21   -1    0    0  501  502  0.00000000000E+00  0.00000000000E+00  0.16695565421E+02  0.16695565421E+02  0.00000000000E+00 0.  1.
         21   -1    0    0  502  503 -0.00000000000E+00 -0.00000000000E+00 -0.49740518717E+02  0.49740518717E+02  0.00000000000E+00 0. -1.
          2    1    1    2  501    0  0.13168948645E+02  0.25032282580E+02 -0.10165883557E+02  0.30056306628E+02  0.00000000000E+00 0.  1.
         -2    1    1    2    0  503 -0.13168948645E+02 -0.25032282580E+02 -0.22879069740E+02  0.36379777511E+02  0.00000000000E+00 0. -1.
</event>
<event>
 4    1  0.1842931E+004  0.2126410E+02  0.7546771E-02  0.1515527E+00
         21   -1    0    0  501  502  0.00000000000E+00  0.00000000000E+00  0.22163025066E+01  0.22163025066E+01  0.00000000000E+00 0. -1.
         21   -1    0    0  502  503 -0.00000000000E+00 -0.00000000000E+00 -0.37884071661E+03  0.37884071661E+03  0.00000000000E+00 0.  1.
          2    1    1    2  501    0 -0.19582117993E+02 -0.82886943339E+01 -0.58882874776E+02  0.62604750145E+02  0.00000000000E+00 0. -1.
         -2    1    1    2    0  503  0.19582117993E+02  0.82886943339E+01 -0.31774153933E+03  0.31845226898E+03  0.00000000000E+00 0.  1.
</event>
<event>
 4    1  0.1842931E+004  0.2173177E+02  0.7546771E-02  0.1509068E+00
         21   -1    0    0  501  502  0.00000000000E+00  0.00000000000E+00  0.11799019563E+02  0.11799019563E+02  0.00000000000E+00 0. -1.
         21   -1    0    0  502  503 -0.00000000000E+00 -0.00000000000E+00 -0.67309735625E+02  0.67309735625E+02  0.00000000000E+00 0.  1.
          2    1    1    2  501    0 -0.20638504154E+02  0.68060201836E+01 -0.25724406873E+01  0.21883491850E+02  0.00000000000E+00 0. -1.
         -2    1    1    2    0  503  0.20638504154E+02 -0.68060201836E+01 -0.52938275374E+02  0.57225263338E+02  0.00000000000E+00 0.  1.
</event>
<event>
 4    1  0.1842931E+004  0.2318309E+02  0.7546771E-02  0.1490212E+00
         21   -1    0    0  503  502  0.00000000000E+00  0.00000000000E+00  0.19952762873E+01  0.19952762873E+01  0.00000000000E+00 0.  1.
         21   -1    0    0  501  503 -0.00000000000E+00 -0.00000000000E+00 -0.29163140678E+03  0.29163140678E+03  0.00000000000E+00 0. -1.
          2    1    1    2  501    0 -0.19582854737E+02  0.12408360793E+02 -0.18538602096E+03  0.18682995581E+03  0.00000000000E+00 0. -1.
         -2    1    1    2    0  502  0.19582854737E+02 -0.12408360793E+02 -0.10425010953E+03  0.10679672726E+03  0.00000000000E+00 0.  1.
</event>
<event>
 4    1  0.1842931E+004  0.4285826E+02  0.7546771E-02  0.1332504E+00
         21   -1    0    0  501  502  0.00000000000E+00  0.00000000000E+00  0.10422311155E+04  0.10422311155E+04  0.00000000000E+00 0.  1.
         21   -1    0    0  502  503 -0.00000000000E+00 -0.00000000000E+00 -0.19204094874E+01  0.19204094874E+01  0.00000000000E+00 0. -1.
          2    1    1    2  501    0  0.42857964905E+02  0.15882409840E+00  0.66990824158E+03  0.67127779832E+03  0.00000000000E+00 0.  1.
         -2    1    1    2    0  503 -0.42857964905E+02 -0.15882409840E+00  0.37040246442E+03  0.37287372665E+03  0.00000000000E+00 0. -1.
</event>
<event>
 4    1  0.1842931E+004  0.2389617E+02  0.7546771E-02  0.1481541E+00
         21   -1    0    0  503  502  0.00000000000E+00  0.00000000000E+00  0.72351438506E+02  0.72351438506E+02  0.00000000000E+00 0. -1.
         21   -1    0    0  501  503 -0.00000000000E+00 -0.00000000000E+00 -0.91077250227E+01  0.91077250227E+01  0.00000000000E+00 0.  1.
          2    1    1    2  501    0 -0.10253734917E+02 -0.21584438563E+02  0.16743677157E+02  0.29178378854E+02  0.00000000000E+00 0. -1.
         -2    1    1    2    0  502  0.10253734917E+02  0.21584438563E+02  0.46500036326E+02  0.52280784674E+02  0.00000000000E+00 0.  1.
</event>
<event>
 4    1  0.1842931E+004  0.3293927E+02  0.7546771E-02  0.1395660E+00
         21   -1    0    0  503  502  0.00000000000E+00  0.00000000000E+00  0.23384225645E+02  0.23384225645E+02  0.00000000000E+00 0. -1.
         21   -1    0    0  501  503 -0.00000000000E+00 -0.00000000000E+00 -0.78712599195E+02  0.78712599195E+02  0.00000000000E+00 0.  1.
          2    1    1    2  501    0 -0.32645638824E+02  0.43883576494E+01 -0.60372296345E+02  0.68773611095E+02  0.00000000000E+00 0.  1.
         -2    1    1    2    0  502  0.32645638824E+02 -0.43883576494E+01  0.50439227957E+01  0.33323213745E+02  0.00000000000E+00 0. -1.
</event>
<event>
 4    1  0.1842931E+004  0.8992276E+02  0.7546771E-02  0.1182518E+00
         21   -1    0    0  503  502  0.00000000000E+00  0.00000000000E+00  0.20774463529E+03  0.20774463529E+03  0.00000000000E+00 0. -1.
         21   -1    0    0  501  503 -0.00000000000E+00 -0.00000000000E+00 -0.75185092686E+02  0.75185092686E+02  0.00000000000E+00 0.  1.
          2    1    1    2  501    0 -0.10353554607E+02  0.89324726367E+02 -0.31964551910E+02  0.95434980025E+02  0.00000000000E+00 0.  1.
         -2    1    1    2    0  502  0.10353554607E+02 -0.89324726367E+02  0.16452409451E+03  0.18749474795E+03  0.00000000000E+00 0. -1.
</event>
<event>
 4    1  0.1842931E+004  0.2937028E+02  0.7546771E-02  0.1425149E+00
         21   -1    0    0  501  502  0.00000000000E+00  0.00000000000E+00  0.55322892487E+03  0.55322892487E+03  0.00000000000E+00 0. -1.
         21   -1    0    0  502  503 -0.00000000000E+00 -0.00000000000E+00 -0.30749374113E+01  0.30749374113E+01  0.00000000000E+00 0.  1.
          2    1    1    2  501    0  0.20592073364E+02 -0.20942302458E+02  0.47036294867E+03  0.47127902245E+03  0.00000000000E+00 0. -1.
         -2    1    1    2    0  503 -0.20592073364E+02  0.20942302458E+02  0.79791038783E+02  0.85024839828E+02  0.00000000000E+00 0.  1.
</event>
<event>
 4    1  0.1842931E+004  0.2932354E+02  0.7546771E-02  0.1425567E+00
         21   -1    0    0  501  502  0.00000000000E+00  0.00000000000E+00  0.14181409526E+01  0.14181409526E+01  0.00000000000E+00 0.  1.
         21   -1    0    0  502  503 -0.00000000000E+00 -0.00000000000E+00 -0.73771003625E+03  0.73771003625E+03  0.00000000000E+00 0. -1.
          2    1    1    2  501    0  0.20519478893E+02  0.20948055500E+02 -0.21219014558E+03  0.21420674108E+03  0.00000000000E+00 0.  1.
         -2    1    1    2    0  503 -0.20519478893E+02 -0.20948055500E+02 -0.52410174971E+03  0.52492143612E+03  0.00000000000E+00 0. -1.
</event>
<event>
 4    1  0.1842931E+004  0.2857890E+02  0.7546771E-02  0.1432361E+00
         21   -1    0    0  503  502  0.00000000000E+00  0.00000000000E+00  0.20875323164E+02  0.20875323164E+02  0.00000000000E+00 0. -1.
         21   -1    0    0  501  503 -0.00000000000E+00 -0.00000000000E+00 -0.40915715210E+02  0.40915715210E+02  0.00000000000E+00 0.  1.
          2    1    1    2  501    0  0.24396073890E+02 -0.14885734246E+02 -0.16483074693E+02  0.32991593727E+02  0.00000000000E+00 0.  1.
         -2    1    1    2    0  502 -0.24396073890E+02  0.14885734246E+02 -0.35573173534E+01  0.28799444648E+02  0.00000000000E+00 0. -1.
</event>
<event>
 4    1  0.1842931E+004  0.3375859E+02  0.7546771E-02  0.1389507E+00
         21   -1    0    0  503  502  0.00000000000E+00  0.00000000000E+00  0.36075476488E+02  0.36075476488E+02  0.00000000000E+00 0. -1.
         21   -1    0    0  501  503 -0.00000000000E+00 -0.00000000000E+00 -0.39921863210E+02  0.39921863210E+02  0.00000000000E+00 0.  1.
          2    1    1    2  501    0 -0.25217213956E+02 -0.22444037841E+02 -0.19282035626E+02  0.38877237713E+02  0.00000000000E+00 0.  1.
         -2    1    1    2    0  502  0.25217213956E+02  0.22444037841E+02  0.15435648904E+02  0.37120101985E+02  0.00000000000E+00 0. -1.
</event>
<event>
 4    1  0.1842931E+004  0.2386376E+02  0.7546771E-02  0.1481928E+00
         21   -1    0    0  501  502  0.00000000000E+00  0.00000000000E+00  0.25996337596E+02  0.25996337596E+02  0.00000000000E+00 0. -1.
         21   -1    0    0  502  503 -0.00000000000E+00 -0.00000000000E+00 -0.35024653118E+02  0.35024653118E+02  0.00000000000E+00 0.  1.
          2    1    1    2  501    0  0.15438994705E+02  0.18196604949E+02  0.14158447350E+02  0.27747803887E+02  0.00000000000E+00 0. -1.
         -2    1    1    2    0  503 -0.15438994705E+02 -0.18196604949E+02 -0.23186762871E+02  0.33273186827E+02  0.00000000000E+00 0.  1.
</event>
<event>
 4    1  0.1842931E+004  0.9558480E+02  0.7546771E-02  0.1171687E+00
         21   -1    0    0  503  502  0.00000000000E+00  0.00000000000E+00  0.57604770119E+02  0.57604770119E+02  0.00000000000E+00 0. -1.
         21   -1    0    0  501  503 -0.00000000000E+00 -0.00000000000E+00 -0.16874597440E+03  0.16874597440E+03  0.00000000000E+00 0.  1.
          2    1    1    2  501    0  0.59900213379E+02 -0.74487711221E+02 -0.83313794454E+02  0.12679764600E+03  0.00000000000E+00 0.  1.
         -2    1    1    2    0  502 -0.59900213379E+02  0.74487711221E+02 -0.27827409823E+02  0.99553098511E+02  0.00000000000E+00 0. -1.
</event>
<event>
 4    1  0.1842931E+004  0.2045469E+02  0.7546771E-02  0.1527195E+00
         21   -1    0    0  503  502  0.00000000000E+00  0.00000000000E+00  0.15453460238E+02  0.15453460238E+02  0.00000000000E+00 0. -1.
         21   -1    0    0  501  503 -0.00000000000E+00 -0.00000000000E+00 -0.15787749692E+03  0.15787749692E+03  0.00000000000E+00 0.  1.
          2    1    1    2  501    0  0.14494189964E+02  0.14433048960E+02 -0.15009710358E+03  0.15148443797E+03  0.00000000000E+00 0.  1.
         -2    1    1    2    0  502 -0.14494189964E+02 -0.14433048960E+02  0.76730668952E+01  0.21846519187E+02  0.00000000000E+00 0. -1.
</event>
<event>
 4    1  0.1842931E+004  0.2093969E+02  0.7546771E-02  0.1520128E+00
         21   -1    0    0  503  502  0.00000000000E+00  0.00000000000E+00  0.24607147592E+01  0.24607147592E+01  0.00000000000E+00 0.  1.
         21   -1    0    0  501  503 -0.00000000000E+00 -0.00000000000E+00 -0.61901932624E+03  0.61901932624E+03  0.00000000000E+00 0. -1.
          2    1    1    2  501    0 -0.19745815815E+02  0.69694614806E+01 -0.57050856691E+03  0.57089271807E+03  0.00000000000E+00 0. -1.
         -2    1    1    2    0  502  0.19745815815E+02 -0.69694614806E+01 -0.46050044578E+02  0.50587322929E+02  0.00000000000E+00 0.  1.
</event>
<event>
 4    1  0.1842931E+004  0.4148315E+02  0.7546771E-02  0.1340007E+00
         21   -1    0    0  501  502  0.00000000000E+00  0.00000000000E+00  0.96974779372E+01  0.96974779372E+01  0.00000000000E+00 0. -1.
         21   -1    0    0  502  503 -0.00000000000E+00 -0.00000000000E+00 -0.17921405791E+03  0.17921405791E+03  0.00000000000E+00 0.  1.
          2    1    1    2  501    0 -0.26269833993E+02  0.32105263237E+02 -0.94120074590E+02  0.10285640741E+03  0.00000000000E+00 0.  1.
         -2    1    1    2    0  503  0.26269833993E+02 -0.32105263237E+02 -0.75396505384E+02  0.86055128434E+02  0.00000000000E+00 0. -1.
</event>
<event>
 4    1  0.1842931E+004  0.3297465E+02  0.7546771E-02  0.1395390E+00
         21   -1    0    0  503  502  0.00000000000E+00  0.00000000000E+00  0.62428124518E+01  0.62428124518E+01  0.00000000000E+00 0. -1.
         21   -1    0    0  501  503 -0.00000000000E+00 -0.00000000000E+00 -0.26866150486E+03  0.26866150486E+03  0.00000000000E+00 0.  1.
          2    1    1    2  501    0  0.11933826796E+02 -0.30739411710E+02 -0.21272461491E+03  0.21526516077E+03  0.00000000000E+00 0.  1.
         -2    1    1    2    0  502 -0.11933826796E+02  0.30739411710E+02 -0.49694077499E+02  0.59639156540E+02  0.00000000000E+00 0. -1.
</event>
<event>
 4    1  0.1842931E+004  0.2359384E+02  0.7546771E-02  0.1485173E+00
         21   -1    0    0  503  502  0.00000000000E+00  0.00000000000E+00  0.75558104836E+02  0.75558104836E+02  0.00000000000E+00 0.  1.
         21   -1    0    0  501  503 -0.00000000000E+00 -0.00000000000E+00 -0.76574020705E+01  0.76574020705E+01  0.00000000000E+00 0. -1.
          2    1    1    2  501    0 -0.16456278413E+02 -0.16907394765E+02  0.25853593656E+02  0.35001105724E+02  0.00000000000E+00 0. -1.
         -2    1    1    2    0  502  0.16456278413E+02  0.16907394765E+02  0.42047109109E+02  0.48214401182E+02  0.00000000000E+00 0.  1.
</event>
<event>
 4    1  0.1842931E+004  0.2461826E+02  0.7546771E-02  0.1473119E+00
         21   -1    0    0  501  502  0.00000000000E+00  0.00000000000E+00  0.22301734901E+03  0.22301734901E+03  0.00000000000E+00 0.  1.
         21   -1    0    0  502  503 -0.00000000000E+00 -0.00000000000E+00 -0.48190595978E+01  0.48190595978E+01  0.00000000000E+00 0. -1.
          2    1    1    2  501    0 -0.24067579401E+02  0.51778806565E+01  0.18432698325E+03  0.18596369425E+03  0.00000000000E+00 0.  1.
         -2    1    1    2    0  503  0.24067579401E+02 -0.51778806565E+01  0.33871306166E+02  0.41872714358E+02  0.00000000000E+00 0. -1.
</event>
<event>
 4    1  0.1842931E+004  0.2272317E+02  0.7546771E-02  0.1496004E+00
         21   -1    0    0  503  502  0.00000000000E+00  0.00000000000E+00  0.38225685005E+02  0.38225685005E+02  0.00000000000E+00 0.  1.
         21   -1    0    0  501  503 -0.00000000000E+00 -0.00000000000E+00 -0.17716010176E+02  0.17716010176E+02  0.00000000000E+00 0. -1.
          2    1    1    2  501    0  0.22361888094E+02  0.40358969611E+01 -0.33776348651E+01  0.22972830054E+02  0.00000000000E+00 0. -1.
         -2    1    1    2    0  502 -0.22361888094E+02 -0.40358969611E+01  0.23887309694E+02  0.32968865128E+02  0.00000000000E+00 0.  1.
</event>
<event>
 4    1  0.1842931E+004  0.2766528E+02  0.7546771E-02  0.1441037E+00
         21   -1    0    0  503  502  0.00000000000E+00  0.00000000000E+00  0.23030510301E+01  0.23030510301E+01  0.00000000000E+00 0.  1.
         21   -1    0    0  501  503 -0.00000000000E+00 -0.00000000000E+00 -0.34347891816E+03  0.34347891816E+03  0.00000000000E+00 0. -1.
          2    1    1    2  501    0 -0.26887134739E+02  0.65153308938E+01 -0.13943604992E+03  0.14215406983E+03  0.00000000000E+00 0.  1.
         -2    1    1    2    0  502  0.26887134739E+02 -0.65153308938E+01 -0.20173981721E+03  0.20362789936E+03  0.00000000000E+00 0. -1.
</event>
<event>
 4    1  0.1842931E+004  0.2189096E+02  0.7546771E-02  0.1506915E+00
         21   -1    0    0  503  502  0.00000000000E+00  0.00000000000E+00  0.37431672352E+02  0.37431672352E+02  0.00000000000E+00 0. -1.
         21   -1    0    0  501  503 -0.00000000000E+00 -0.00000000000E+00 -0.19362531268E+02  0.19362531268E+02  0.00000000000E+00 0.  1.
          2    1    1    2  501    0 -0.80926767054E+01 -0.20340173506E+02 -0.74945691416E+01  0.23138337044E+02  0.00000000000E+00 0.  1.
         -2    1    1    2    0  502  0.80926767054E+01  0.20340173506E+02  0.25563710225E+02  0.33655866576E+02  0.00000000000E+00 0. -1.
</event>
<event>
 4    1  0.1842931E+004  0.2704753E+02  0.7546771E-02  0.1447131E+00
         21   -1    0    0  503  502  0.00000000000E+00  0.00000000000E+00  0.45711433812E+01  0.45711433812E+01  0.00000000000E+00 0.  1.
         21   -1    0    0  501  503 -0.00000000000E+00 -0.00000000000E+00 -0.16013028528E+03  0.16013028528E+03  0.00000000000E+00 0. -1.
          2    1    1    2  501    0 -0.45638211958E+01 -0.26659717565E+02 -0.79727348660E+02  0.84190374325E+02  0.00000000000E+00 0.  1.
         -2    1    1    2    0  502  0.45638211958E+01  0.26659717565E+02 -0.75831793239E+02  0.80511054336E+02  0.00000000000E+00 0. -1.
</event>
<event>
 4    1  0.1842931E+004  0.2193718E+02  0.7546771E-02  0.1506293E+00
         21   -1    0    0  501  502  0.00000000000E+00  0.00000000000E+00  0.12544843237E+03  0.12544843237E+03  0.00000000000E+00 0.  1.
         21   -1    0    0  502  503 -0.00000000000E+00 -0.00000000000E+00 -0.22138976696E+02  0.22138976696E+02  0.00000000000E+00 0. -1.
          2    1    1    2  501    0 -0.20682700581E+02  0.73120416584E+01  0.11875117520E+03  0.12076043089E+03  0.00000000000E+00 0.  1.
         -2    1    1    2    0  503  0.20682700581E+02 -0.73120416584E+01 -0.15441719524E+02  0.26826978182E+02  0.00000000000E+00 0. -1.
</event>
<event>
 4    1  0.1842931E+004  0.5633946E+02  0.7546771E-02  0.1272804E+00
         21   -1    0    0  503  502  0.00000000000E+00  0.00000000000E+00  0.10162081958E+03  0.10162081958E+03  0.00000000000E+00 0.  1.
         21   -1    0    0  501  503 -0.00000000000E+00 -0.00000000000E+00 -0.31796177026E+02  0.31796177026E+02  0.00000000000E+00 0. -1.
          2    1    1    2  501    0  0.88526548903E+01  0.55639597904E+02  0.43773938420E+02  0.71346282582E+02  0.00000000000E+00 0.  1.
         -2    1    1    2    0  502 -0.88526548903E+01 -0.55639597904E+02  0.26050704133E+02  0.62070714023E+02  0.00000000000E+00 0. -1.
</event>
<event>
 4    1  0.1842931E+004  0.2808874E+02  0.7546771E-02  0.1436968E+00
         21   -1    0    0  503  502  0.00000000000E+00  0.00000000000E+00  0.54263012452E+02  0.54263012452E+02  0.00000000000E+00 0.  1.
         21   -1    0    0  501  503 -0.00000000000E+00 -0.00000000000E+00 -0.18547727190E+02  0.18547727190E+02  0.00000000000E+00 0. -1.
          2    1    1    2  501    0  0.27904696399E+02 -0.32101641480E+01  0.93469039988E+00  0.28104285814E+02  0.00000000000E+00 0. -1.
         -2    1    1    2    0  502 -0.27904696399E+02  0.32101641480E+01  0.34780594861E+02  0.44706453828E+02  0.00000000000E+00 0.  1.
</event>
<event>
 4    1  0.1842931E+004  0.2075067E+02  0.7546771E-02  0.1522855E+00
         21   -1    0    0  503  502  0.00000000000E+00  0.00000000000E+00  0.21434546537E+02  0.21434546537E+02  0.00000000000E+00 0.  1.
         21   -1    0    0  501  503 -0.00000000000E+00 -0.00000000000E+00 -0.11465456244E+03  0.11465456244E+03  0.00000000000E+00 0. -1.
          2    1    1    2  501    0 -0.17023158682E+02 -0.11866012242E+02 -0.10840668349E+03  0.11037481236E+03  0.00000000000E+00 0. -1.
         -2    1    1    2    0  502  0.17023158682E+02  0.11866012242E+02  0.15186667588E+02  0.25714296617E+02  0.00000000000E+00 0.  1.
</event>
<event>
 4    1  0.1842931E+004  0.2497014E+02  0.7546771E-02  0.1469138E+00
         21   -1    0    0  503  502  0.00000000000E+00  0.00000000000E+00  0.33805965259E+03  0.33805965259E+03  0.00000000000E+00 0.  1.
         21   -1    0    0  501  503 -0.00000000000E+00 -0.00000000000E+00 -0.18953047004E+01  0.18953047004E+01  0.00000000000E+00 0. -1.
          2    1    1    2  501    0 -0.51770772637E+01  0.24427558517E+02  0.19594661812E+03  0.19753122511E+03  0.00000000000E+00 0. -1.
         -2    1    1    2    0  502  0.51770772637E+01 -0.24427558517E+02  0.14021772977E+03  0.14242373217E+03  0.00000000000E+00 0.  1.
</event>
<event>
 4    1  0.1842931E+004  0.2611806E+02  0.7546771E-02  0.1456674E+00
         21   -1    0    0  501  502  0.00000000000E+00  0.00000000000E+00  0.81101876278E+03  0.81101876278E+03  0.00000000000E+00 0.  1.
         21   -1    0    0  502  503 -0.00000000000E+00 -0.00000000000E+00 -0.14115732618E+01  0.14115732618E+01  0.00000000000E+00 0. -1.
          2    1    1    2  501    0 -0.26070363194E+02  0.15777809295E+01  0.66304124473E+03  0.66355545770E+03  0.00000000000E+00 0. -1.
         -2    1    1    2    0  503  0.26070363194E+02 -0.15777809295E+01  0.14656594479E+03  0.14887487834E+03  0.00000000000E+00 0.  1.
</event>
<event>
 4    1  0.1842931E+004  0.2124527E+02  0.7546771E-02  0.1515792E+00
         21   -1    0    0  503  502  0.00000000000E+00  0.00000000000E+00  0.10793694341E+02  0.10793694341E+02  0.00000000000E+00 0.  1.
         21   -1    0    0  501  503 -0.00000000000E+00 -0.00000000000E+00 -0.49697866389E+02  0.49697866389E+02  0.00000000000E+00 0. -1.
          2    1    1    2  501    0  0.13595521413E+02 -0.16325539952E+02 -0.74078579584E+01  0.22499729260E+02  0.00000000000E+00 0.  1.
         -2    1    1    2    0  502 -0.13595521413E+02  0.16325539952E+02 -0.31496314089E+02  0.37991831470E+02  0.00000000000E+00 0. -1.
</event>
<event>
 4    1  0.1842931E+004  0.2716498E+02  0.7546771E-02  0.1445958E+00
         21   -1    0    0  501  502  0.00000000000E+00  0.00000000000E+00  0.81220232437E+02  0.81220232437E+02  0.00000000000E+00 0. -1.
         21   -1    0    0  502  503 -0.00000000000E+00 -0.00000000000E+00 -0.98564642734E+01  0.98564642734E+01  0.00000000000E+00 0.  1.
          2    1    1    2  501    0 -0.53671554407E+01  0.26629489973E+02  0.48416923178E+02  0.55516975275E+02  0.00000000000E+00 0.  1.
         -2    1    1    2    0  503  0.53671554407E+01 -0.26629489973E+02  0.22946844986E+02  0.35559721435E+02  0.00000000000E+00 0. -1.
</event>
<event>
 4    1  0.1842931E+004  0.5554331E+02  0.7546771E-02  0.1275776E+00
         21   -1    0    0  503  502  0.00000000000E+00  0.00000000000E+00  0.25156882359E+03  0.25156882359E+03  0.00000000000E+00 0. -1.
         21   -1    0    0  501  503 -0.00000000000E+00 -0.00000000000E+00 -0.25385132806E+02  0.25385132806E+02  0.00000000000E+00 0.  1.
          2    1    1    2  501    0 -0.90683795574E+01  0.54798022197E+02  0.13531716396E+02  0.57167876409E+02  0.00000000000E+00 0. -1.
         -2    1    1    2    0  502  0.90683795574E+01 -0.54798022197E+02  0.21265197439E+03  0.21978607999E+03  0.00000000000E+00 0.  1.
</event>
<event>
 4    1  0.1842931E+004  0.2105836E+02  0.7546771E-02  0.1518433E+00
         21   -1    0    0  503  502  0.00000000000E+00  0.00000000000E+00  0.44030748403E+03  0.44030748403E+03  0.00000000000E+00 0. -1.
         21   -1    0    0  501  503 -0.00000000000E+00 -0.00000000000E+00 -0.10411593682E+01  0.10411593682E+01  0.00000000000E+00 0.  1.
          2    1    1    2  501    0 -0.93377273595E+00  0.21037649687E+02  0.17974834071E+03  0.18097767990E+03  0.00000000000E+00 0. -1.
         -2    1    1    2    0  502  0.93377273595E+00 -0.21037649687E+02  0.25951798396E+03  0.26037096350E+03  0.00000000000E+00 0.  1.
</event>
<event>
 4    1  0.1842931E+004  0.3239689E+02  0.7546771E-02  0.1399850E+00
         21   -1    0    0  501  502  0.00000000000E+00  0.00000000000E+00  0.35305551630E+03  0.35305551630E+03  0.00000000000E+00 0.  1.
         21   -1    0    0  502  503 -0.00000000000E+00 -0.00000000000E+00 -0.36687877351E+01  0.36687877351E+01  0.00000000000E+00 0. -1.
          2    1    1    2  501    0  0.28775394612E+02 -0.14884062474E+02  0.97006706935E+02  0.10227345619E+03  0.00000000000E+00 0. -1.
         -2    1    1    2    0  503 -0.28775394612E+02  0.14884062474E+02  0.25238002163E+03  0.25445084784E+03  0.00000000000E+00 0.  1.
</event>
<event>
 4    1  0.1842931E+004  0.2378180E+02  0.7546771E-02  0.1482908E+00
         21   -1    0    0  501  502  0.00000000000E+00  0.00000000000E+00  0.18021724877E+02  0.18021724877E+02  0.00000000000E+00 0.  1.
         21   -1    0    0  502  503 -0.00000000000E+00 -0.00000000000E+00 -0.41177703398E+02  0.41177703398E+02  0.00000000000E+00 0. -1.
          2    1    1    2  501    0  0.23772084104E+02  0.67987946846E+00  0.28582488312E+01  0.23952949821E+02  0.00000000000E+00 0.  1.
         -2    1    1    2    0  503 -0.23772084104E+02 -0.67987946846E+00 -0.26014227352E+02  0.35246478454E+02  0.00000000000E+00 0. -1.
</event>
<event>
 4    1  0.1842931E+004  0.2562941E+02  0.7546771E-02  0.1461884E+00
         21   -1    0    0  503  502  0.00000000000E+00  0.00000000000E+00  0.19752725631E+01  0.19752725631E+01  0.00000000000E+00 0. -1.
         21   -1    0    0  501  503 -0.00000000000E+00 -0.00000000000E+00 -0.33892695752E+03  0.33892695752E+03  0.00000000000E+00 0.  1.
          2    1    1    2  501    0  0.74312107981E+01  0.24528422938E+02 -0.19186603982E+03  0.19357025510E+03  0.00000000000E+00 0. -1.
         -2    1    1    2    0  502 -0.74312107981E+01 -0.24528422938E+02 -0.14508564514E+03  0.14733197498E+03  0.00000000000E+00 0.  1.
</event>
<event>
 4    1  0.1842931E+004  0.2116127E+02  0.7546771E-02  0.1516975E+00
         21   -1    0    0  503  502  0.00000000000E+00  0.00000000000E+00  0.59830326853E+00  0.59830326853E+00  0.00000000000E+00 0.  1.
         21   -1    0    0  501  503 -0.00000000000E+00 -0.00000000000E+00 -0.87948377521E+03  0.87948377521E+03  0.00000000000E+00 0. -1.
          2    1    1    2  501    0 -0.19828995258E+02 -0.73898849739E+01 -0.26958996619E+03  0.27041921035E+03  0.00000000000E+00 0.  1.
         -2    1    1    2    0  502  0.19828995258E+02  0.73898849739E+01 -0.60929550575E+03  0.60966286813E+03  0.00000000000E+00 0. -1.
</event>
<event>
 4    1  0.1842931E+004  0.2101636E+02  0.7546771E-02  0.1519031E+00
         21   -1    0    0  503  502  0.00000000000E+00  0.00000000000E+00  0.41774178403E+02  0.41774178403E+02  0.00000000000E+00 0.  1.
         21   -1    0    0  501  503 -0.00000000000E+00 -0.00000000000E+00 -0.16474061097E+02  0.16474061097E+02  0.00000000000E+00 0. -1.
          2    1    1    2  501    0 -0.39556786132E+01  0.20640733483E+02 -0.47804355947E+01  0.21553186226E+02  0.00000000000E+00 0. -1.
         -2    1    1    2    0  502  0.39556786132E+01 -0.20640733483E+02  0.30080552901E+02  0.36695053275E+02  0.00000000000E+00 0.  1.
</event>
<event>
 4    1  0.1842931E+004  0.2676745E+02  0.7546771E-02  0.1449958E+00
         21   -1    0    0  503  502  0.00000000000E+00  0.00000000000E+00  0.20093659619E+02  0.20093659619E+02  0.00000000000E+00 0.  1.
         21   -1    0    0  501  503 -0.00000000000E+00 -0.00000000000E+00 -0.42013169903E+02  0.42013169903E+02  0.00000000000E+00 0. -1.
          2    1    1    2  501    0 -0.26744001267E+02 -0.11201830814E+01 -0.23037499542E+02  0.35316041667E+02  0.00000000000E+00 0. -1.
         -2    1    1    2    0  502  0.26744001267E+02  0.11201830814E+01  0.11179892577E+01  0.26790787855E+02  0.00000000000E+00 0.  1.
</event>
<event>
 4    1  0.1842931E+004  0.2280071E+02  0.7546771E-02  0.1495016E+00
         21   -1    0    0  503  502  0.00000000000E+00  0.00000000000E+00  0.44953059970E+01  0.44953059970E+01  0.00000000000E+00 0.  1.
         21   -1    0    0  501  503 -0.00000000000E+00 -0.00000000000E+00 -0.17709775737E+03  0.17709775737E+03  0.00000000000E+00 0. -1.
          2    1    1    2  501    0  0.35646460587E+01  0.22520337871E+02 -0.13978517469E+03  0.14163250821E+03  0.00000000000E+00 0. -1.
         -2    1    1    2    0  502 -0.35646460587E+01 -0.22520337871E+02 -0.32817276682E+02  0.39960555154E+02  0.00000000000E+00 0.  1.
</event>
<event>
 4    1  0.1842931E+004  0.3718276E+02  0.7546771E-02  0.1365835E+00
         21   -1    0    0  501  502  0.00000000000E+00  0.00000000000E+00  0.92940757589E+02  0.92940757589E+02  0.00000000000E+00 0.  1.
         21   -1    0    0  502  503 -0.00000000000E+00 -0.00000000000E+00 -0.18783394737E+02  0.18783394737E+02  0.00000000000E+00 0. -1.
          2    1    1    2  501    0 -0.23250317592E+02  0.29016894936E+02  0.11599166090E+02  0.38949943695E+02  0.00000000000E+00 0. -1.
         -2    1    1    2    0  503  0.23250317592E+02 -0.29016894936E+02  0.62558196762E+02  0.72774208631E+02  0.00000000000E+00 0.  1.
</event>
<event>
 4    1  0.1842931E+004  0.2492013E+02  0.7546771E-02  0.1469699E+00
         21   -1    0    0  503  502  0.00000000000E+00  0.00000000000E+00  0.10064312734E+02  0.10064312734E+02  0.00000000000E+00 0. -1.
         21   -1    0    0  501  503 -0.00000000000E+00 -0.00000000000E+00 -0.67101883777E+02  0.67101883777E+02  0.00000000000E+00 0.  1.
          2    1    1    2  501    0  0.22615585846E+02 -0.10466536537E+02 -0.39461435082E+02  0.46671382763E+02  0.00000000000E+00 0. -1.
         -2    1    1    2    0  502 -0.22615585846E+02  0.10466536537E+02 -0.17576135961E+02  0.30494813748E+02  0.00000000000E+00 0.  1.
</event>
<event>
 4    1  0.1842931E+004  0.2918205E+02  0.7546771E-02  0.1426840E+00
         21   -1    0    0  503  502  0.00000000000E+00  0.00000000000E+00  0.26832708979E+02  0.26832708979E+02  0.00000000000E+00 0. -1.
         21   -1    0    0  501  503 -0.00000000000E+00 -0.00000000000E+00 -0.19668268170E+03  0.19668268170E+03  0.00000000000E+00 0.  1.
          2    1    1    2  501    0 -0.28075341981E+02  0.79603379118E+01 -0.18726954268E+03  0.18952961094E+03  0.00000000000E+00 0.  1.
         -2    1    1    2    0  502  0.28075341981E+02 -0.79603379118E+01  0.17419569959E+02  0.33985779741E+02  0.00000000000E+00 0. -1.
</event>
<event>
 4    1  0.1842931E+004  0.2991051E+02  0.7546771E-02  0.1420376E+00
         21   -1    0    0  503  502  0.00000000000E+00  0.00000000000E+00  0.39349772371E+02  0.39349772371E+02  0.00000000000E+00 0. -1.
         21   -1    0    0  501  503 -0.00000000000E+00 -0.00000000000E+00 -0.23940287194E+02  0.23940287194E+02  0.00000000000E+00 0.  1.
          2    1    1    2  501    0 -0.25196008231E+02 -0.16118298132E+02  0.60588275257E+00  0.29916641847E+02  0.00000000000E+00 0. -1.
         -2    1    1    2    0  502  0.25196008231E+02  0.16118298132E+02  0.14803602425E+02  0.33373417719E+02  0.00000000000E+00 0.  1.
</event>
<event>
 4    1  0.1842931E+004  0.3210261E+02  0.7546771E-02  0.1402163E+00
         21   -1    0    0  501  502  0.00000000000E+00  0.00000000000E+00  0.16795346316E+03  0.16795346316E+03  0.00000000000E+00 0. -1.
         21   -1    0    0  502  503 -0.00000000000E+00 -0.00000000000E+00 -0.78130278857E+01  0.78130278857E+01  0.00000000000E+00 0.  1.
          2    1    1    2  501    0 -0.19405347700E+02  0.25573617820E+02  0.39355167018E+02  0.50787858970E+02  0.00000000000E+00 0.  1.
         -2    1    1    2    0  503  0.19405347700E+02 -0.25573617820E+02  0.12078526825E+03  0.12497863207E+03  0.00000000000E+00 0. -1.
</event>
<event>
 4    1  0.1842931E+004  0.2757001E+02  0.7546771E-02  0.1441965E+00
         21   -1    0    0  501  502  0.00000000000E+00  0.00000000000E+00  0.13376651426E+02  0.13376651426E+02  0.00000000000E+00 0. -1.
         21   -1    0    0  502  503 -0.00000000000E+00 -0.00000000000E+00 -0.12046953151E+03  0.12046953151E+03  0.00000000000E+00 0.  1.
          2    1    1    2  501    0  0.27241683328E+02  0.42421695395E+01 -0.49030568480E+01  0.28002594155E+02  0.00000000000E+00 0. -1.
         -2    1    1    2    0  503 -0.27241683328E+02 -0.42421695395E+01 -0.10218982324E+03  0.10584358879E+03  0.00000000000E+00 0.  1.
</event>
<event>
 4    1  0.1842931E+004  0.2554081E+02  0.7546771E-02  0.1462843E+00
         21   -1    0    0  503  502  0.00000000000E+00  0.00000000000E+00  0.12098970732E+03  0.12098970732E+03  0.00000000000E+00 0.  1.
         21   -1    0    0  501  503 -0.00000000000E+00 -0.00000000000E+00 -0.55374185960E+01  0.55374185960E+01  0.00000000000E+00 0. -1.
          2    1    1    2  501    0 -0.19465463820E+02  0.16535677343E+02  0.67990869577E+02  0.72629823439E+02  0.00000000000E+00 0.  1.
         -2    1    1    2    0  502  0.19465463820E+02 -0.16535677343E+02  0.47461419151E+02  0.53897302481E+02  0.00000000000E+00 0. -1.
</event>
<event>
 4    1  0.1842931E+004  0.2059254E+02  0.7546771E-02  0.1525163E+00
         21   -1    0    0  503  502  0.00000000000E+00  0.00000000000E+00  0.17820176551E+02  0.17820176551E+02  0.00000000000E+00 0.  1.
         21   -1    0    0  501  503 -0.00000000000E+00 -0.00000000000E+00 -0.37491402871E+02  0.37491402871E+02  0.00000000000E+00 0. -1.
          2    1    1    2  501    0 -0.19649416355E+02  0.61606259339E+01 -0.26550525634E+02  0.33600346523E+02  0.00000000000E+00 0. -1.
         -2    1    1    2    0  502  0.19649416355E+02 -0.61606259339E+01  0.68792993140E+01  0.21711232900E+02  0.00000000000E+00 0.  1.
</event>
<event>
 4    1  0.1842931E+004  0.5949276E+02  0.7546771E-02  0.1261566E+00
         21   -1    0    0  501  502  0.00000000000E+00  0.00000000000E+00  0.24470446491E+02  0.24470446491E+02  0.00000000000E+00 0.  1.
         21   -1    0    0  502  503 -0.00000000000E+00 -0.00000000000E+00 -0.14512241266E+03  0.14512241266E+03  0.00000000000E+00 0. -1.
          2    1    1    2  501    0 -0.43344112384E+02  0.40751397185E+02 -0.55433482781E+02  0.81315800826E+02  0.00000000000E+00 0.  1.
         -2    1    1    2    0  503  0.43344112384E+02 -0.40751397185E+02 -0.65218483387E+02  0.88277058323E+02  0.00000000000E+00 0. -1.
</event>
<event>
 4    1  0.1842931E+004  0.6675053E+02  0.7546771E-02  0.1238474E+00
         21   -1    0    0  501  502  0.00000000000E+00  0.00000000000E+00  0.59909205209E+02  0.59909205209E+02  0.00000000000E+00 0.  1.
         21   -1    0    0  502  503 -0.00000000000E+00 -0.00000000000E+00 -0.19033508402E+03  0.19033508402E+03  0.00000000000E+00 0. -1.
          2    1    1    2  501    0  0.69289243558E+01  0.66389933195E+02  0.32450626423E+02  0.74220457946E+02  0.00000000000E+00 0.  1.
         -2    1    1    2    0  503 -0.69289243558E+01 -0.66389933195E+02 -0.16287650523E+03  0.17602383128E+03  0.00000000000E+00 0. -1.
</event>
<event>
 4    1  0.1842931E+004  0.4250641E+02  0.7546771E-02  0.1334393E+00
         21   -1    0    0  501  502  0.00000000000E+00  0.00000000000E+00  0.11755021127E+03  0.11755021127E+03  0.00000000000E+00 0. -1.
         21   -1    0    0  502  503 -0.00000000000E+00 -0.00000000000E+00 -0.28058218701E+02  0.28058218701E+02  0.00000000000E+00 0.  1.
          2    1    1    2  501    0  0.82035527022E+01  0.41707270357E+02  0.93703563065E+02  0.10289388907E+03  0.00000000000E+00 0. -1.
         -2    1    1    2    0  503 -0.82035527022E+01 -0.41707270357E+02 -0.42115705002E+01  0.42714540893E+02  0.00000000000E+00 0.  1.
</event>
<event>
 4    1  0.1842931E+004  0.3079939E+02  0.7546771E-02  0.1412774E+00
         21   -1    0    0  501  502  0.00000000000E+00  0.00000000000E+00  0.21590557462E+03  0.21590557462E+03  0.00000000000E+00 0. -1.
         21   -1    0    0  502  503 -0.00000000000E+00 -0.00000000000E+00 -0.59494934384E+01  0.59494934384E+01  0.00000000000E+00 0.  1.
          2    1    1    2  501    0  0.24461485886E+02 -0.18714656638E+02  0.16170497730E+03  0.16461197511E+03  0.00000000000E+00 0. -1.
         -2    1    1    2    0  503 -0.24461485886E+02  0.18714656638E+02  0.48251103876E+02  0.57243092946E+02  0.00000000000E+00 0.  1.
</event>
<event>
 4    1  0.1842931E+004  0.2020212E+02  0.7546771E-02  0.1530968E+00
         21   -1    0    0  501  502  0.00000000000E+00  0.00000000000E+00  0.94675583566E+02  0.94675583566E+02  0.00000000000E+00 0. -1.
         21   -1    0    0  502  503 -0.00000000000E+00 -0.00000000000E+00 -0.44189756943E+01  0.44189756943E+01  0.00000000000E+00 0.  1.
          2    1    1    2  501    0  0.20147895747E+02  0.14791632625E+01  0.52881195008E+02  0.56608713220E+02  0.00000000000E+00 0. -1.
         -2    1    1    2    0  503 -0.20147895747E+02 -0.14791632625E+01  0.37375412864E+02  0.42485846041E+02  0.00000000000E+00 0.  1.
</event>
<event>
 4    1  0.1842931E+004  0.3707913E+02  0.7546771E-02  0.1366508E+00
         21   -1    0    0  501  502  0.00000000000E+00  0.00000000000E+00  0.44227942875E+03  0.44227942875E+03  0.00000000000E+00 0.  1.
         21   -1    0    0  502  503 -0.00000000000E+00 -0.00000000000E+00 -0.57503789798E+01  0.57503789798E+01  0.00000000000E+00 0. -1.
          2    1    1    2  501    0 -0.18168897754E+02  0.32322637571E+02  0.37010180737E+03  0.37195457997E+03  0.00000000000E+00 0.  1.
         -2    1    1    2    0  503  0.18168897754E+02 -0.32322637571E+02  0.66427242397E+02  0.76075227752E+02  0.00000000000E+00 0. -1.
</event>
<event>
 4    1  0.1842931E+004  0.2109659E+02  0.7546771E-02  0.1517890E+00
         21   -1    0    0  501  502  0.00000000000E+00  0.00000000000E+00  0.23141469282E+01  0.23141469282E+01  0.00000000000E+00 0.  1.
         21   -1    0    0  502  503 -0.00000000000E+00 -0.00000000000E+00 -0.19290598942E+03  0.19290598942E+03  0.00000000000E+00 0. -1.
          2    1    1    2  501    0 -0.20406261744E+02 -0.53526309396E+01 -0.10065697144E+03  0.10284401818E+03  0.00000000000E+00 0. -1.
         -2    1    1    2    0  503  0.20406261744E+02  0.53526309396E+01 -0.89934871056E+02  0.92376118170E+02  0.00000000000E+00 0.  1.
</event>
<event>
 4    1  0.1842931E+004  0.2316386E+02  0.7546771E-02  0.1490451E+00
         21   -1    0    0  503  502  0.00000000000E+00  0.00000000000E+00  0.24632696072E+03  0.24632696072E+03  0.00000000000E+00 0. -1.
         21   -1    0    0  501  503 -0.00000000000E+00 -0.00000000000E+00 -0.85747965554E+01  0.85747965554E+01  0.00000000000E+00 0.  1.
          2    1    1    2  501    0  0.20431087233E+01 -0.23073581544E+02  0.87973739508E+01  0.24778180864E+02  0.00000000000E+00 0.  1.
         -2    1    1    2    0  502 -0.20431087233E+01  0.23073581544E+02  0.22895479022E+03  0.23012357642E+03  0.00000000000E+00 0. -1.
</event>
<event>
 4    1  0.1842931E+004  0.5755635E+02  0.7546771E-02  0.1268369E+00
         21   -1    0    0  501  502  0.00000000000E+00  0.00000000000E+00  0.12097628655E+03  0.12097628655E+03  0.00000000000E+00 0.  1.
         21   -1    0    0  502  503 -0.00000000000E+00 -0.00000000000E+00 -0.29008491623E+02  0.29008491623E+02  0.00000000000E+00 0. -1.
          2    1    1    2  501    0  0.57509645925E+02 -0.23182530426E+01  0.28233716288E+02  0.64108317768E+02  0.00000000000E+00 0.  1.
         -2    1    1    2    0  503 -0.57509645925E+02  0.23182530426E+01  0.63734078636E+02  0.85876460402E+02  0.00000000000E+00 0. -1.
</event>
<event>
 4    1  0.1842931E+004  0.2663241E+02  0.7546771E-02  0.1451336E+00
         21   -1    0    0  501  502  0.00000000000E+00  0.00000000000E+00  0.15720991186E+03  0.15720991186E+03  0.00000000000E+00 0. -1.
         21   -1    0    0  502  503 -0.00000000000E+00 -0.00000000000E+00 -0.47224830835E+01  0.47224830835E+01  0.00000000000E+00 0.  1.
          2    1    1    2  501    0 -0.90236580967E+00 -0.26617120740E+02  0.59138555950E+02  0.64858724783E+02  0.00000000000E+00 0.  1.
         -2    1    1    2    0  503  0.90236580967E+00  0.26617120740E+02  0.93348872830E+02  0.97073670164E+02  0.00000000000E+00 0. -1.
</event>
<event>
 4    1  0.1842931E+004  0.2422113E+02  0.7546771E-02  0.1477708E+00
         21   -1    0    0  501  502  0.00000000000E+00  0.00000000000E+00  0.89052318134E+02  0.89052318134E+02  0.00000000000E+00 0. -1.
         21   -1    0    0  502  503 -0.00000000000E+00 -0.00000000000E+00 -0.69577710150E+01  0.69577710150E+01  0.00000000000E+00 0.  1.
          2    1    1    2  501    0  0.12222496441E+02 -0.20911086974E+02  0.52116277206E+02  0.57469725312E+02  0.00000000000E+00 0. -1.
         -2    1    1    2    0  503 -0.12222496441E+02  0.20911086974E+02  0.29978269913E+02  0.38540363837E+02  0.00000000000E+00 0.  1.
</event>
<event>
 4    1  0.1842931E+004  0.2282923E+02  0.7546771E-02  0.1494654E+00
         21   -1    0    0  503  502  0.00000000000E+00  0.00000000000E+00  0.25224119976E+02  0.25224119976E+02  0.00000000000E+00 0.  1.
         21   -1    0    0  501  503 -0.00000000000E+00 -0.00000000000E+00 -0.33671029844E+02  0.33671029844E+02  0.00000000000E+00 0. -1.
          2    1    1    2  501    0 -0.22814552340E+02  0.81857203679E+00  0.14080644312E+02  0.26822348945E+02  0.00000000000E+00 0.  1.
         -2    1    1    2    0  502  0.22814552340E+02 -0.81857203679E+00 -0.22527554181E+02  0.32072800876E+02  0.00000000000E+00 0. -1.
</event>
<event>
 4    1  0.1842931E+004  0.2032123E+02  0.7546771E-02  0.1529180E+00
         21   -1    0    0  503  502  0.00000000000E+00  0.00000000000E+00  0.38548407751E+02  0.38548407751E+02  0.00000000000E+00 0. -1.
         21   -1    0    0  501  503 -0.00000000000E+00 -0.00000000000E+00 -0.25871876839E+02  0.25871876839E+02  0.00000000000E+00 0.  1.
          2    1    1    2  501    0  0.17369692630E+02 -0.10547332941E+02 -0.18317493226E+02  0.27358417577E+02  0.00000000000E+00 0.  1.
         -2    1    1    2    0  502 -0.17369692630E+02  0.10547332941E+02  0.30994024138E+02  0.37061867014E+02  0.00000000000E+00 0. -1.
</event>
<event>
 4    1  0.1842931E+004  0.2116552E+02  0.7546771E-02  0.1516915E+00
         21   -1    0    0  503  502  0.00000000000E+00  0.00000000000E+00  0.52229923456E+01  0.52229923456E+01  0.00000000000E+00 0. -1.
         21   -1    0    0  501  503 -0.00000000000E+00 -0.00000000000E+00 -0.10825342465E+03  0.10825342465E+03  0.00000000000E+00 0.  1.
          2    1    1    2  501    0  0.11472383344E+02  0.17786617731E+02 -0.77372323154E+02  0.80215059310E+02  0.00000000000E+00 0.  1.
         -2    1    1    2    0  502 -0.11472383344E+02 -0.17786617731E+02 -0.25658109151E+02  0.33261357686E+02  0.00000000000E+00 0. -1.
</event>
<event>
 4    1  0.1842931E+004  0.2027102E+02  0.7546771E-02  0.1529932E+00
         21   -1    0    0  501  502  0.00000000000E+00  0.00000000000E+00  0.13500259603E+01  0.13500259603E+01  0.00000000000E+00 0.  1.
         21   -1    0    0  502  503 -0.00000000000E+00 -0.00000000000E+00 -0.30958854000E+03  0.30958854000E+03  0.00000000000E+00 0. -1.
          2    1    1    2  501    0 -0.19284469301E+02 -0.62468885320E+01 -0.17429417127E+03  0.17546900726E+03  0.00000000000E+00 0.  1.
         -2    1    1    2    0  503  0.19284469301E+02  0.62468885320E+01 -0.13394434277E+03  0.13546955870E+03  0.00000000000E+00 0. -1.
</event>
<event>
 4    1  0.1842931E+004  0.2422435E+02  0.7546771E-02  0.1477671E+00
         21   -1    0    0  503  502  0.00000000000E+00  0.00000000000E+00  0.76822098946E+00  0.76822098946E+00  0.00000000000E+00 0.  1.
         21   -1    0    0  501  503 -0.00000000000E+00 -0.00000000000E+00 -0.12602865836E+04  0.12602865836E+04  0.00000000000E+00 0. -1.
          2    1    1    2  501    0  0.21979833573E+02  0.10183605876E+02 -0.10254843014E+04  0.10257703794E+04  0.00000000000E+00 0. -1.
         -2    1    1    2    0  502 -0.21979833573E+02 -0.10183605876E+02 -0.23403406118E+03  0.23528442512E+03  0.00000000000E+00 0.  1.
</event>
<event>
 4    1  0.1842931E+004  0.3939272E+02  0.7546771E-02  0.1352082E+00
         21   -1    0    0  501  502  0.00000000000E+00  0.00000000000E+00  0.15688420597E+03  0.15688420597E+03  0.00000000000E+00 0.  1.
         21   -1    0    0  502  503 -0.00000000000E+00 -0.00000000000E+00 -0.10007997864E+02  0.10007997864E+02  0.00000000000E+00 0. -1.
          2    1    1    2  501    0 -0.17269852126E+02 -0.35405351070E+02  0.64426783229E+02  0.75515541938E+02  0.00000000000E+00 0.  1.
         -2    1    1    2    0  503  0.17269852126E+02  0.35405351070E+02  0.82449424874E+02  0.91376661894E+02  0.00000000000E+00 0. -1.
</event>
<event>
 4    1  0.1842931E+004  0.2699679E+02  0.7546771E-02  0.1447640E+00
         21   -1    0    0  501  502  0.00000000000E+00  0.00000000000E+00  0.14549539241E+01  0.14549539241E+01  0.00000000000E+00 0.  1.
         21   -1    0    0  502  503 -0.00000000000E+00 -0.00000000000E+00 -0.81220047388E+03  0.81220047388E+03  0.00000000000E+00 0. -1.
          2    1    1    2  501    0 -0.25655913894E+02 -0.84024324824E+01 -0.15351841539E+03  0.15587408590E+03  0.00000000000E+00 0.  1.
         -2    1    1    2    0  503  0.25655913894E+02  0.84024324824E+01 -0.65722710456E+03  0.65778134191E+03  0.00000000000E+00 0. -1.
</event>
<event>
 4    1  0.1842931E+004  0.2019244E+02  0.7546771E-02  0.1531114E+00
         21   -1    0    0  501  502  0.00000000000E+00  0.00000000000E+00  0.20744596703E+01  0.20744596703E+01  0.00000000000E+00 0. -1.
         21   -1    0    0  502  503 -0.00000000000E+00 -0.00000000000E+00 -0.22314961184E+03  0.22314961184E+03  0.00000000000E+00 0.  1.
          2    1    1    2  501    0  0.14598486340E+02  0.13950590125E+02 -0.14941750775E+03  0.15077574868E+03  0.00000000000E+00 0.  1.
         -2    1    1    2    0  503 -0.14598486340E+02 -0.13950590125E+02 -0.71657644426E+02  0.74448322835E+02  0.00000000000E+00 0. -1.
</event>
<event>
 4    1  0.1842931E+004  0.3307401E+02  0.7546771E-02  0.1394634E+00
         21   -1    0    0  503  502  0.00000000000E+00  0.00000000000E+00  0.52159564648E+03  0.52159564648E+03  0.00000000000E+00 0. -1.
         21   -1    0    0  501  503 -0.00000000000E+00 -0.00000000000E+00 -0.28240926615E+01  0.28240926615E+01  0.00000000000E+00 0.  1.
          2    1    1    2  501    0 -0.14429278189E+02  0.29760480343E+02  0.39241430331E+03  0.39380563188E+03  0.00000000000E+00 0. -1.
         -2    1    1    2    0  502  0.14429278189E+02 -0.29760480343E+02  0.12635725051E+03  0.13061410726E+03  0.00000000000E+00 0.  1.
</event>
<event>
 4    1  0.1842931E+004  0.2028854E+02  0.7546771E-02  0.1529670E+00
         21   -1    0    0  503  502  0.00000000000E+00  0.00000000000E+00  0.30330757103E+01  0.30330757103E+01  0.00000000000E+00 0.  1.
         21   -1    0    0  501  503 -0.00000000000E+00 -0.00000000000E+00 -0.14868104809E+03  0.14868104809E+03  0.00000000000E+00 0. -1.
          2    1    1    2  501    0  0.61681303039E+01  0.19328190829E+02 -0.50420162673E+02  0.54349034914E+02  0.00000000000E+00 0.  1.
         -2    1    1    2    0  502 -0.61681303039E+01 -0.19328190829E+02 -0.95227809708E+02  0.97365088887E+02  0.00000000000E+00 0. -1.
</event>
<event>
 4    1  0.1842931E+004  0.3021187E+02  0.7546771E-02  0.1417764E+00
         21   -1    0    0  501  502  0.00000000000E+00  0.00000000000E+00  0.10448255354E+04  0.10448255354E+04  0.00000000000E+00 0. -1.
         21   -1    0    0  502  503 -0.00000000000E+00 -0.00000000000E+00 -0.14690981680E+01  0.14690981680E+01  0.00000000000E+00 0.  1.
          2    1    1    2  501    0 -0.11723550677E+01  0.30189112531E+02  0.85475145373E+03  0.85528521827E+03  0.00000000000E+00 0. -1.
         -2    1    1    2    0  503  0.11723550677E+01 -0.30189112531E+02  0.18860498347E+03  0.19100941527E+03  0.00000000000E+00 0.  1.
</event>
<event>
 4    1  0.1842931E+004  0.2307685E+02  0.7546771E-02  0.1491535E+00
         21   -1    0    0  503  502  0.00000000000E+00  0.00000000000E+00  0.53285070506E+03  0.53285070506E+03  0.00000000000E+00 0. -1.
         21   -1    0    0  501  503 -0.00000000000E+00 -0.00000000000E+00 -0.19486699844E+01  0.19486699844E+01  0.00000000000E+00 0.  1.
          2    1    1    2  501    0 -0.22465595926E+02  0.52761551218E+01  0.78820608949E+02  0.82129344380E+02  0.00000000000E+00 0.  1.
         -2    1    1    2    0  502  0.22465595926E+02 -0.52761551218E+01  0.45208142613E+03  0.45267003066E+03  0.00000000000E+00 0. -1.
</event>
<event>
 4    1  0.1842931E+004  0.2054530E+02  0.7546771E-02  0.1525857E+00
         21   -1    0    0  501  502  0.00000000000E+00  0.00000000000E+00  0.77074410972E+01  0.77074410972E+01  0.00000000000E+00 0. -1.
         21   -1    0    0  502  503 -0.00000000000E+00 -0.00000000000E+00 -0.60011650647E+02  0.60011650647E+02  0.00000000000E+00 0.  1.
          2    1    1    2  501    0 -0.19835819431E+02 -0.53525365345E+01 -0.36162318785E+02  0.41591137034E+02  0.00000000000E+00 0.  1.
         -2    1    1    2    0  503  0.19835819431E+02  0.53525365345E+01 -0.16141890764E+02  0.26127954710E+02  0.00000000000E+00 0. -1.
</event>
<event>
 4    1  0.1842931E+004  0.2813119E+02  0.7546771E-02  0.1436564E+00
         21   -1    0    0  501  502  0.00000000000E+00  0.00000000000E+00  0.33699320996E+02  0.33699320996E+02  0.00000000000E+00 0. -1.
         21   -1    0    0  502  503 -0.00000000000E+00 -0.00000000000E+00 -0.78864446450E+02  0.78864446450E+02  0.00000000000E+00 0.  1.
          2    1    1    2  501    0 -0.11880730167E+02 -0.25499256077E+02  0.24581350672E+02  0.37357818601E+02  0.00000000000E+00 0. -1.
         -2    1    1    2    0  503  0.11880730167E+02  0.25499256077E+02 -0.69746476126E+02  0.75205948845E+02  0.00000000000E+00 0.  1.
</event>
<event>
 4    1  0.1842931E+004  0.2404943E+02  0.7546771E-02  0.1479725E+00
         21   -1    0    0  501  502  0.00000000000E+00  0.00000000000E+00  0.63544259400E+00  0.63544259400E+00  0.00000000000E+00 0. -1.
         21   -1    0    0  502  503 -0.00000000000E+00 -0.00000000000E+00 -0.11194070274E+04  0.11194070274E+04  0.00000000000E+00 0.  1.
          2    1    1    2  501    0 -0.19194139999E+02 -0.14490005692E+02 -0.31727949518E+03  0.31818964995E+03  0.00000000000E+00 0. -1.
         -2    1    1    2    0  503  0.19194139999E+02  0.14490005692E+02 -0.80149208958E+03  0.80185282000E+03  0.00000000000E+00 0.  1.
</event>
<event>
 4    1  0.1842931E+004  0.3637672E+02  0.7546771E-02  0.1371134E+00
         21   -1    0    0  501  502  0.00000000000E+00  0.00000000000E+00  0.37460411593E+02  0.37460411593E+02  0.00000000000E+00 0.  1.
         21   -1    0    0  502  503 -0.00000000000E+00 -0.00000000000E+00 -0.45552705798E+02  0.45552705798E+02  0.00000000000E+00 0. -1.
          2    1    1    2  501    0 -0.23480113510E+01  0.36300865264E+02  0.15621926404E+02  0.39589273304E+02  0.00000000000E+00 0.  1.
         -2    1    1    2    0  503  0.23480113510E+01 -0.36300865264E+02 -0.23714220608E+02  0.43423844087E+02  0.00000000000E+00 0. -1.
</event>
<event>
 4    1  0.1842931E+004  0.2051692E+02  0.7546771E-02  0.1526275E+00
         21   -1    0    0  503  502  0.00000000000E+00  0.00000000000E+00  0.60997032990E+02  0.60997032990E+02  0.00000000000E+00 0.  1.
         21   -1    0    0  501  503 -0.00000000000E+00 -0.00000000000E+00 -0.73292837367E+01  0.73292837367E+01  0.00000000000E+00 0. -1.
          2    1    1    2  501    0 -0.15560188422E+02  0.13372529267E+02  0.18576079078E+02  0.27676970872E+02  0.00000000000E+00 0. -1.
         -2    1    1    2    0  502  0.15560188422E+02 -0.13372529267E+02  0.35091670175E+02  0.40649345855E+02  0.00000000000E+00 0.  1.
</event>
<event>
 4    1  0.1842931E+004  0.2344093E+02  0.7546771E-02  0.1487034E+00
         21   -1    0    0  503  502  0.00000000000E+00  0.00000000000E+00  0.11005100745E+02  0.11005100745E+02  0.00000000000E+00 0.  1.
         21   -1    0    0  501  503 -0.00000000000E+00 -0.00000000000E+00 -0.64342418232E+02  0.64342418232E+02  0.00000000000E+00 0. -1.
          2    1    1    2  501    0  0.21640336161E+02  0.90096111974E+01 -0.44499378777E+02  0.50295844308E+02  0.00000000000E+00 0. -1.
         -2    1    1    2    0  502 -0.21640336161E+02 -0.90096111974E+01 -0.88379387092E+01  0.25051674669E+02  0.00000000000E+00 0.  1.
</event>
<event>
 4    1  0.1842931E+004  0.3991235E+02  0.7546771E-02  0.1349000E+00
         21   -1    0    0  501  502  0.00000000000E+00  0.00000000000E+00  0.37650134876E+02  0.37650134876E+02  0.00000000000E+00 0.  1.
         21   -1    0    0  502  503 -0.00000000000E+00 -0.00000000000E+00 -0.63718999329E+02  0.63718999329E+02  0.00000000000E+00 0. -1.
          2    1    1    2  501    0 -0.10781877676E+02  0.38428466058E+02  0.16344392563E+02  0.43129283069E+02  0.00000000000E+00 0.  1.
         -2    1    1    2    0  503  0.10781877676E+02 -0.38428466058E+02 -0.42413257016E+02  0.58239851137E+02  0.00000000000E+00 0. -1.
</event>
<event>
 4    1  0.1842931E+004  0.2031725E+02  0.7546771E-02  0.1529240E+00
         21   -1    0    0  501  502  0.00000000000E+00  0.00000000000E+00  0.16060044128E+02  0.16060044128E+02  0.00000000000E+00 0. -1.
         21   -1    0    0  502  503 -0.00000000000E+00 -0.00000000000E+00 -0.31104641367E+02  0.31104641367E+02  0.00000000000E+00 0.  1.
          2    1    1    2  501    0 -0.19990462676E+02 -0.36293498183E+01  0.23050997943E+01  0.20447597981E+02  0.00000000000E+00 0.  1.
         -2    1    1    2    0  503  0.19990462676E+02  0.36293498183E+01 -0.17349697033E+02  0.26717087515E+02  0.00000000000E+00 0. -1.
</event>
<event>
 4    1  0.1842931E+004  0.2015559E+02  0.7546771E-02  0.1531670E+00
         21   -1    0    0  503  502  0.00000000000E+00  0.00000000000E+00  0.27295125071E+03  0.27295125071E+03  0.00000000000E+00 0. -1.
         21   -1    0    0  501  503 -0.00000000000E+00 -0.00000000000E+00 -0.15573915320E+01  0.15573915320E+01  0.00000000000E+00 0.  1.
          2    1    1    2  501    0 -0.95864362377E+01 -0.17729862344E+02  0.10679856330E+03  0.10868385759E+03  0.00000000000E+00 0. -1.
         -2    1    1    2    0  502  0.95864362377E+01  0.17729862344E+02  0.16459529588E+03  0.16582478465E+03  0.00000000000E+00 0.  1.
</event>
<event>
 4    1  0.1842931E+004  0.2094123E+02  0.7546771E-02  0.1520106E+00
         21   -1    0    0  501  502  0.00000000000E+00  0.00000000000E+00  0.31182291873E+01  0.31182291873E+01  0.00000000000E+00 0.  1.
         21   -1    0    0  502  503 -0.00000000000E+00 -0.00000000000E+00 -0.39434979917E+03  0.39434979917E+03  0.00000000000E+00 0. -1.
          2    1    1    2  501    0 -0.28267974548E+01  0.20749557186E+02 -0.36210197793E+02  0.41829574842E+02  0.00000000000E+00 0.  1.
         -2    1    1    2    0  503  0.28267974548E+01 -0.20749557186E+02 -0.35502137219E+03  0.35563845352E+03  0.00000000000E+00 0. -1.
</event>
<event>
 4    1  0.1842931E+004  0.2641025E+02  0.7546771E-02  0.1453624E+00
         21   -1    0    0  501  502  0.00000000000E+00  0.00000000000E+00  0.44186775359E+01  0.44186775359E+01  0.00000000000E+00 0. -1.
         21   -1    0    0  502  503 -0.00000000000E+00 -0.00000000000E+00 -0.19754170480E+03  0.19754170480E+03  0.00000000000E+00 0.  1.
          2    1    1    2  501    0 -0.26173422755E+02  0.35289493508E+01 -0.51298839668E+02  0.57698115164E+02  0.00000000000E+00 0. -1.
         -2    1    1    2    0  503  0.26173422755E+02 -0.35289493508E+01 -0.14182418760E+03  0.14426226717E+03  0.00000000000E+00 0.  1.
</event>
<event>
 4    1  0.1842931E+004  0.2166305E+02  0.7546771E-02  0.1510005E+00
         21   -1    0    0  503  502  0.00000000000E+00  0.00000000000E+00  0.74524321813E+00  0.74524321813E+00  0.00000000000E+00 0. -1.
         21   -1    0    0  501  503 -0.00000000000E+00 -0.00000000000E+00 -0.69355800826E+03  0.69355800826E+03  0.00000000000E+00 0.  1.
          2    1    1    2  501    0 -0.10592444216E+01  0.21637140955E+02 -0.24107736963E+03  0.24204872653E+03  0.00000000000E+00 0. -1.
         -2    1    1    2    0  502  0.10592444216E+01 -0.21637140955E+02 -0.45173539542E+03  0.45225452495E+03  0.00000000000E+00 0.  1.
</event>
<event>
 4    1  0.1842931E+004  0.2897424E+02  0.7546771E-02  0.1428725E+00
         21   -1    0    0  503  502  0.00000000000E+00  0.00000000000E+00  0.11507326816E+02  0.11507326816E+02  0.00000000000E+00 0.  1.
         21   -1    0    0  501  503 -0.00000000000E+00 -0.00000000000E+00 -0.19098221936E+03  0.19098221936E+03  0.00000000000E+00 0. -1.
          2    1    1    2  501    0  0.10502863078E+02  0.27003640429E+02 -0.16932934729E+03  0.17179037978E+03  0.00000000000E+00 0. -1.
         -2    1    1    2    0  502 -0.10502863078E+02 -0.27003640429E+02 -0.10145545253E+02  0.30699166402E+02  0.00000000000E+00 0.  1.
</event>
<event>
 4    1  0.1842931E+004  0.3132702E+02  0.7546771E-02  0.1408405E+00
         21   -1    0    0  501  502  0.00000000000E+00  0.00000000000E+00  0.61922861322E+01  0.61922861322E+01  0.00000000000E+00 0.  1.
         21   -1    0    0  502  503 -0.00000000000E+00 -0.00000000000E+00 -0.19278581073E+03  0.19278581073E+03  0.00000000000E+00 0. -1.
          2    1    1    2  501    0 -0.37738637269E+01  0.31098881408E+02 -0.51331303404E+02  0.60135556715E+02  0.00000000000E+00 0.  1.
         -2    1    1    2    0  503  0.37738637269E+01 -0.31098881408E+02 -0.13526222120E+03  0.13884254015E+03  0.00000000000E+00 0. -1.
</event>
<event>
 4    1  0.1842931E+004  0.2032389E+02  0.7546771E-02  0.1529141E+00
         21   -1    0    0  501  502  0.00000000000E+00  0.00000000000E+00  0.42152365618E+02  0.42152365618E+02  0.00000000000E+00 0.  1.
         21   -1    0    0  502  503 -0.00000000000E+00 -0.00000000000E+00 -0.57645610909E+02  0.57645610909E+02  0.00000000000E+00 0. -1.
          2    1    1    2  501    0 -0.11976910223E+02 -0.16419935843E+02  0.37713768656E+02  0.42841440426E+02  0.00000000000E+00 0.  1.
         -2    1    1    2    0  503  0.11976910223E+02  0.16419935843E+02 -0.53207013946E+02  0.56956536102E+02  0.00000000000E+00 0. -1.
</event>
<event>
 4    1  0.1842931E+004  0.2365833E+02  0.7546771E-02  0.1484393E+00
         21   -1    0    0  501  502  0.00000000000E+00  0.00000000000E+00  0.22866440700E+01  0.22866440700E+01  0.00000000000E+00 0. -1.
         21   -1    0    0  502  503 -0.00000000000E+00 -0.00000000000E+00 -0.26774291516E+03  0.26774291516E+03  0.00000000000E+00 0.  1.
          2    1    1    2  501    0  0.23501468569E+02 -0.27198017348E+01 -0.93185053213E+02  0.96141408814E+02  0.00000000000E+00 0. -1.
         -2    1    1    2    0  503 -0.23501468569E+02  0.27198017348E+01 -0.17227121787E+03  0.17388815041E+03  0.00000000000E+00 0.  1.
</event>
<event>
 4    1  0.1842931E+004  0.7488373E+02  0.7546771E-02  0.1216251E+00
         21   -1    0    0  503  502  0.00000000000E+00  0.00000000000E+00  0.15806921848E+02  0.15806921848E+02  0.00000000000E+00 0.  1.
         21   -1    0    0  501  503 -0.00000000000E+00 -0.00000000000E+00 -0.36569541947E+03  0.36569541947E+03  0.00000000000E+00 0. -1.
          2    1    1    2  501    0  0.18369903113E+02  0.72595585775E+02 -0.20793860732E+03  0.22101139525E+03  0.00000000000E+00 0.  1.
         -2    1    1    2    0  502 -0.18369903113E+02 -0.72595585775E+02 -0.14194989030E+03  0.16049094607E+03  0.00000000000E+00 0. -1.
</event>
<event>
 4    1  0.1842931E+004  0.3304055E+02  0.7546771E-02  0.1394888E+00
         21   -1    0    0  501  502  0.00000000000E+00  0.00000000000E+00  0.49635020675E+02  0.49635020675E+02  0.00000000000E+00 0.  1.
         21   -1    0    0  502  503 -0.00000000000E+00 -0.00000000000E+00 -0.39990890022E+02  0.39990890022E+02  0.00000000000E+00 0. -1.
          2    1    1    2  501    0 -0.29115494852E+01 -0.32912016592E+02  0.34884246733E+02  0.48047774420E+02  0.00000000000E+00 0.  1.
         -2    1    1    2    0  503  0.29115494852E+01  0.32912016592E+02 -0.25240116080E+02  0.41578136277E+02  0.00000000000E+00 0. -1.
</event>
<event>
 4    1  0.1842931E+004  0.2198682E+02  0.7546771E-02  0.1505628E+00
         21   -1    0    0  501  502  0.00000000000E+00  0.00000000000E+00  0.11852381151E+01  0.11852381151E+01  0.00000000000E+00 0. -1.
         21   -1    0    0  502  503 -0.00000000000E+00 -0.00000000000E+00 -0.43000572238E+03  0.43000572238E+03  0.00000000000E+00 0.  1.
          2    1    1    2  501    0 -0.29829085939E+01 -0.21783532576E+02 -0.16549158790E+03  0.16694575677E+03  0.00000000000E+00 0. -1.
         -2    1    1    2    0  503  0.29829085939E+01  0.21783532576E+02 -0.26332889636E+03  0.26424520373E+03  0.00000000000E+00 0.  1.
</event>
<event>
 4    1  0.1842931E+004  0.2600738E+02  0.7546771E-02  0.1457842E+00
         21   -1    0    0  501  502  0.00000000000E+00  0.00000000000E+00  0.34903906266E+03  0.34903906266E+03  0.00000000000E+00 0.  1.
         21   -1    0    0  502  503 -0.00000000000E+00 -0.00000000000E+00 -0.19417161371E+01  0.19417161371E+01  0.00000000000E+00 0. -1.
          2    1    1    2  501    0 -0.37006696644E+01  0.25742742661E+02  0.18138396388E+03  0.18323898632E+03  0.00000000000E+00 0. -1.
         -2    1    1    2    0  503  0.37006696644E+01 -0.25742742661E+02  0.16571338264E+03  0.16774179247E+03  0.00000000000E+00 0.  1.
</event>
<event>
 4    1  0.1842931E+004  0.2389683E+02  0.7546771E-02  0.1481533E+00
         21   -1    0    0  503  502  0.00000000000E+00  0.00000000000E+00  0.40211127820E+01  0.40211127820E+01  0.00000000000E+00 0. -1.
         21   -1    0    0  501  503 -0.00000000000E+00 -0.00000000000E+00 -0.65677434826E+03  0.65677434826E+03  0.00000000000E+00 0.  1.
          2    1    1    2  501    0 -0.15772420716E+02  0.17952420059E+02 -0.61888010837E+03  0.61934130104E+03  0.00000000000E+00 0.  1.
         -2    1    1    2    0  502  0.15772420716E+02 -0.17952420059E+02 -0.33873127109E+02  0.41454160001E+02  0.00000000000E+00 0. -1.
</event>
<event>
 4    1  0.1842931E+004  0.4651980E+02  0.7546771E-02  0.1314010E+00
         21   -1    0    0  501  502  0.00000000000E+00  0.00000000000E+00  0.12984409131E+03  0.12984409131E+03  0.00000000000E+00 0.  1.
         21   -1    0    0  502  503 -0.00000000000E+00 -0.00000000000E+00 -0.17193632975E+02  0.17193632975E+02  0.00000000000E+00 0. -1.
          2    1    1    2  501    0 -0.44938241490E+00  0.46517631166E+02  0.69193818476E+02  0.83377913557E+02  0.00000000000E+00 0.  1.
         -2    1    1    2    0  503  0.44938241490E+00 -0.46517631166E+02  0.43456639856E+02  0.63659810724E+02  0.00000000000E+00 0. -1.
</event>
<event>
 4    1  0.1842931E+004  0.3441585E+02  0.7546771E-02  0.1384717E+00
         21   -1    0    0  503  502  0.00000000000E+00  0.00000000000E+00  0.56819260536E+02  0.56819260536E+02  0.00000000000E+00 0. -1.
         21   -1    0    0  501  503 -0.00000000000E+00 -0.00000000000E+00 -0.32910565611E+02  0.32910565611E+02  0.00000000000E+00 0.  1.
          2    1    1    2  501    0  0.30275543671E+02  0.16365881498E+02 -0.15209805609E+02  0.37626969164E+02  0.00000000000E+00 0.  1.
         -2    1    1    2    0  502 -0.30275543671E+02 -0.16365881498E+02  0.39118500534E+02  0.52102856984E+02  0.00000000000E+00 0. -1.
</event>
<event>
 4    1  0.1842931E+004  0.4950613E+02  0.7546771E-02  0.1300328E+00
         21   -1    0    0  501  502  0.00000000000E+00  0.00000000000E+00  0.21686620419E+02  0.21686620419E+02  0.00000000000E+00 0.  1.
         21   -1    0    0  502  503 -0.00000000000E+00 -0.00000000000E+00 -0.21078761391E+03  0.21078761391E+03  0.00000000000E+00 0. -1.
          2    1    1    2  501    0 -0.10821450992E+02 -0.48308931054E+02 -0.15384858977E+02  0.51841590513E+02  0.00000000000E+00 0.  1.
         -2    1    1    2    0  503  0.10821450992E+02  0.48308931054E+02 -0.17371613452E+03  0.18063264382E+03  0.00000000000E+00 0. -1.
</event>
<event>
 4    1  0.1842931E+004  0.2549793E+02  0.7546771E-02  0.1463309E+00
         21   -1    0    0  503  502  0.00000000000E+00  0.00000000000E+00  0.13676297413E+03  0.13676297413E+03  0.00000000000E+00 0. -1.
         21   -1    0    0  501  503 -0.00000000000E+00 -0.00000000000E+00 -0.51603078882E+01  0.51603078882E+01  0.00000000000E+00 0.  1.
          2    1    1    2  501    0 -0.21450796130E+02  0.13784334503E+02  0.45884624283E+02  0.52493268882E+02  0.00000000000E+00 0.  1.
         -2    1    1    2    0  502  0.21450796130E+02 -0.13784334503E+02  0.85718041957E+02  0.89430013134E+02  0.00000000000E+00 0. -1.
</event>
<event>
 4    1  0.1842931E+004  0.2919004E+02  0.7546771E-02  0.1426768E+00
         21   -1    0    0  501  502  0.00000000000E+00  0.00000000000E+00  0.10987746555E+04  0.10987746555E+04  0.00000000000E+00 0.  1.
         21   -1    0    0  502  503 -0.00000000000E+00 -0.00000000000E+00 -0.16612444912E+01  0.16612444912E+01  0.00000000000E+00 0. -1.
          2    1    1    2  501    0 -0.80479049940E+01  0.28058684692E+02  0.95033030531E+03  0.95077849563E+03  0.00000000000E+00 0.  1.
         -2    1    1    2    0  503  0.80479049940E+01 -0.28058684692E+02  0.14678310567E+03  0.14965740433E+03  0.00000000000E+00 0. -1.
</event>
<event>
 4    1  0.1842931E+004  0.3027606E+02  0.7546771E-02  0.1417212E+00
         21   -1    0    0  501  502  0.00000000000E+00  0.00000000000E+00  0.34327935265E+02  0.34327935265E+02  0.00000000000E+00 0. -1.
         21   -1    0    0  502  503 -0.00000000000E+00 -0.00000000000E+00 -0.70215429653E+02  0.70215429653E+02  0.00000000000E+00 0.  1.
          2    1    1    2  501    0  0.13347470309E+02  0.27175077456E+02  0.23205286163E+02  0.38146102085E+02  0.00000000000E+00 0. -1.
         -2    1    1    2    0  503 -0.13347470309E+02 -0.27175077456E+02 -0.59092780552E+02  0.66397262833E+02  0.00000000000E+00 0.  1.
</event>
<event>
 4    1  0.1842931E+004  0.2160852E+02  0.7546771E-02  0.1510751E+00
         21   -1    0    0  501  502  0.00000000000E+00  0.00000000000E+00  0.10913448717E+02  0.10913448717E+02  0.00000000000E+00 0. -1.
         21   -1    0    0  502  503 -0.00000000000E+00 -0.00000000000E+00 -0.80534409077E+02  0.80534409077E+02  0.00000000000E+00 0.  1.
          2    1    1    2  501    0 -0.12965351780E+02 -0.17286632523E+02 -0.35057522924E+01  0.21891055477E+02  0.00000000000E+00 0. -1.
         -2    1    1    2    0  503  0.12965351780E+02  0.17286632523E+02 -0.66115208068E+02  0.69556802317E+02  0.00000000000E+00 0.  1.
</event>
<event>
 4    1  0.1842931E+004  0.2027832E+02  0.7546771E-02  0.1529823E+00
         21   -1    0    0  501  502  0.00000000000E+00  0.00000000000E+00  0.12244450164E+02  0.12244450164E+02  0.00000000000E+00 0.  1.
         21   -1    0    0  502  503 -0.00000000000E+00 -0.00000000000E+00 -0.33778947150E+02  0.33778947150E+02  0.00000000000E+00 0. -1.
          2    1    1    2  501    0 -0.18439402049E+02  0.84379250531E+01 -0.12518159654E+02  0.23830955672E+02  0.00000000000E+00 0. -1.
         -2    1    1    2    0  503  0.18439402049E+02 -0.84379250531E+01 -0.90163373327E+01  0.22192441642E+02  0.00000000000E+00 0.  1.
</event>
<event>
 4    1  0.1842931E+004  0.3800391E+02  0.7546771E-02  0.1360597E+00
         21   -1    0    0  503  502  0.00000000000E+00  0.00000000000E+00  0.31964850297E+03  0.31964850297E+03  0.00000000000E+00 0.  1.
         21   -1    0    0  501  503 -0.00000000000E+00 -0.00000000000E+00 -0.59192248974E+01  0.59192248974E+01  0.00000000000E+00 0. -1.
          2    1    1    2  501    0 -0.31691559104E+02  0.20974797766E+02  0.77674303104E+02  0.86473084960E+02  0.00000000000E+00 0. -1.
         -2    1    1    2    0  502  0.31691559104E+02 -0.20974797766E+02  0.23605497497E+03  0.23909464291E+03  0.00000000000E+00 0.  1.
</event>
<event>
 4    1  0.1842931E+004  0.2149898E+02  0.7546771E-02  0.1512259E+00
         21   -1    0    0  501  502  0.00000000000E+00  0.00000000000E+00  0.20588386406E+03  0.20588386406E+03  0.00000000000E+00 0. -1.
         21   -1    0    0  502  503 -0.00000000000E+00 -0.00000000000E+00 -0.10389958506E+02  0.10389958506E+02  0.00000000000E+00 0.  1.
          2    1    1    2  501    0 -0.18795932826E+02  0.10436433706E+02  0.19349102282E+03  0.19468174581E+03  0.00000000000E+00 0. -1.
         -2    1    1    2    0  503  0.18795932826E+02 -0.10436433706E+02  0.20028827314E+01  0.21592076754E+02  0.00000000000E+00 0.  1.
</event>
<event>
 4    1  0.1842931E+004  0.2274522E+02  0.7546771E-02  0.1495722E+00
         21   -1    0    0  503  502  0.00000000000E+00  0.00000000000E+00  0.10120923141E+03  0.10120923141E+03  0.00000000000E+00 0.  1.
         21   -1    0    0  501  503 -0.00000000000E+00 -0.00000000000E+00 -0.22356493276E+02  0.22356493276E+02  0.00000000000E+00 0. -1.
          2    1    1    2  501    0  0.12866019285E+02  0.18756618364E+02 -0.14835647721E+02  0.27155876491E+02  0.00000000000E+00 0. -1.
         -2    1    1    2    0  502 -0.12866019285E+02 -0.18756618364E+02  0.93688385851E+02  0.96409848191E+02  0.00000000000E+00 0.  1.
</event>
<event>
 4    1  0.1842931E+004  0.2184159E+02  0.7546771E-02  0.1507580E+00
         21   -1    0    0  503  502  0.00000000000E+00  0.00000000000E+00  0.47768094507E+02  0.47768094507E+02  0.00000000000E+00 0.  1.
         21   -1    0    0  501  503 -0.00000000000E+00 -0.00000000000E+00 -0.13061868458E+02  0.13061868458E+02  0.00000000000E+00 0. -1.
          2    1    1    2  501    0  0.21832638760E+02  0.62514029445E+00  0.32110369712E+02  0.38834659245E+02  0.00000000000E+00 0.  1.
         -2    1    1    2    0  502 -0.21832638760E+02 -0.62514029445E+00  0.25958563365E+01  0.21995303720E+02  0.00000000000E+00 0. -1.
</event>
<event>
 4    1  0.1842931E+004  0.3772594E+02  0.7546771E-02  0.1362353E+00
         21   -1    0    0  503  502  0.00000000000E+00  0.00000000000E+00  0.65448301895E+02  0.65448301895E+02  0.00000000000E+00 0.  1.
         21   -1    0    0  501  503 -0.00000000000E+00 -0.00000000000E+00 -0.34383363297E+02  0.34383363297E+02  0.00000000000E+00 0. -1.
          2    1    1    2  501    0 -0.54819493790E+01 -0.37325522382E+02 -0.14729025527E+02  0.40499266451E+02  0.00000000000E+00 0.  1.
         -2    1    1    2    0  502  0.54819493790E+01  0.37325522382E+02  0.45793964125E+02  0.59332398741E+02  0.00000000000E+00 0. -1.
</event>
<event>
 4    1  0.1842931E+004  0.2052119E+02  0.7546771E-02  0.1526212E+00
         21   -1    0    0  503  502  0.00000000000E+00  0.00000000000E+00  0.65076148643E+01  0.65076148643E+01  0.00000000000E+00 0.  1.
         21   -1    0    0  501  503 -0.00000000000E+00 -0.00000000000E+00 -0.81647151692E+02  0.81647151692E+02  0.00000000000E+00 0. -1.
          2    1    1    2  501    0 -0.10127038170E+02  0.17848309022E+02 -0.17495337110E+02  0.26966754674E+02  0.00000000000E+00 0. -1.
         -2    1    1    2    0  502  0.10127038170E+02 -0.17848309022E+02 -0.57644199717E+02  0.61188011882E+02  0.00000000000E+00 0.  1.
</event>
<event>
 4    1  0.1842931E+004  0.3332224E+02  0.7546771E-02  0.1392758E+00
         21   -1    0    0  503  502  0.00000000000E+00  0.00000000000E+00  0.14097980591E+02  0.14097980591E+02  0.00000000000E+00 0.  1.
         21   -1    0    0  501  503 -0.00000000000E+00 -0.00000000000E+00 -0.82054796314E+02  0.82054796314E+02  0.00000000000E+00 0. -1.
          2    1    1    2  501    0 -0.31234673681E+02  0.11608910534E+02 -0.43610606708E+02  0.54884029200E+02  0.00000000000E+00 0. -1.
         -2    1    1    2    0  502  0.31234673681E+02 -0.11608910534E+02 -0.24346209015E+02  0.41268747705E+02  0.00000000000E+00 0.  1.
</event>
<event>
 4    1  0.1842931E+004  0.2161189E+02  0.7546771E-02  0.1510705E+00
         21   -1    0    0  501  502  0.00000000000E+00  0.00000000000E+00  0.44988741210E+03  0.44988741210E+03  0.00000000000E+00 0.  1.
         21   -1    0    0  502  503 -0.00000000000E+00 -0.00000000000E+00 -0.11081120066E+01  0.11081120066E+01  0.00000000000E+00 0. -1.
          2    1    1    2  501    0  0.20190890726E+02 -0.77072559563E+01  0.28102937055E+03  0.28185915095E+03  0.00000000000E+00 0.  1.
         -2    1    1    2    0  503 -0.20190890726E+02  0.77072559563E+01  0.16774992954E+03  0.16913637316E+03  0.00000000000E+00 0. -1.
</event>
<event>
 4    1  0.1842931E+004  0.3295912E+02  0.7546771E-02  0.1395508E+00
         21   -1    0    0  503  502  0.00000000000E+00  0.00000000000E+00  0.31675156549E+01  0.31675156549E+01  0.00000000000E+00 0.  1.
         21   -1    0    0  501  503 -0.00000000000E+00 -0.00000000000E+00 -0.91812788942E+03  0.91812788942E+03  0.00000000000E+00 0. -1.
          2    1    1    2  501    0 -0.31095628303E+02 -0.10925447884E+02 -0.82208125126E+03  0.82274168922E+03  0.00000000000E+00 0. -1.
         -2    1    1    2    0  502  0.31095628303E+02  0.10925447884E+02 -0.92879122505E+02  0.98553715853E+02  0.00000000000E+00 0.  1.
</event>
<event>
 4    1  0.1842931E+004  0.3651622E+02  0.7546771E-02  0.1370206E+00
         21   -1    0    0  503  502  0.00000000000E+00  0.00000000000E+00  0.52916116009E+02  0.52916116009E+02  0.00000000000E+00 0. -1.
         21   -1    0    0  501  503 -0.00000000000E+00 -0.00000000000E+00 -0.26502279070E+02  0.26502279070E+02  0.00000000000E+00 0.  1.
          2    1    1    2  501    0  0.99126305435E+01  0.35145038577E+02  0.44011801793E+01  0.36780488956E+02  0.00000000000E+00 0. -1.
         -2    1    1    2    0  502 -0.99126305435E+01 -0.35145038577E+02  0.22012656759E+02  0.42637906122E+02  0.00000000000E+00 0.  1.
</event>
<event>
 4    1  0.1842931E+004  0.2340849E+02  0.7546771E-02  0.1487431E+00
         21   -1    0    0  503  502  0.00000000000E+00  0.00000000000E+00  0.97696870725E+01  0.97696870725E+01  0.00000000000E+00 0.  1.
         21   -1    0    0  501  503 -0.00000000000E+00 -0.00000000000E+00 -0.56328885175E+02  0.56328885175E+02  0.00000000000E+00 0. -1.
          2    1    1    2  501    0  0.23129839373E+02 -0.36011074376E+01 -0.21116179740E+02  0.31525394383E+02  0.00000000000E+00 0. -1.
         -2    1    1    2    0  502 -0.23129839373E+02  0.36011074376E+01 -0.25443018363E+02  0.34573177864E+02  0.00000000000E+00 0.  1.
</event>
<event>
 4    1  0.1842931E+004  0.2380837E+02  0.7546771E-02  0.1482589E+00
         21   -1    0    0  501  502  0.00000000000E+00  0.00000000000E+00  0.32686090291E+01  0.32686090291E+01  0.00000000000E+00 0.  1.
         21   -1    0    0  502  503 -0.00000000000E+00 -0.00000000000E+00 -0.17480740967E+03  0.17480740967E+03  0.00000000000E+00 0. -1.
          2    1    1    2  501    0 -0.19074017830E+02  0.14248513426E+02 -0.77833724527E+02  0.81393654328E+02  0.00000000000E+00 0.  1.
         -2    1    1    2    0  503  0.19074017830E+02 -0.14248513426E+02 -0.93705076115E+02  0.96682364373E+02  0.00000000000E+00 0. -1.
</event>
<event>
 4    1  0.1842931E+004  0.2619719E+02  0.7546771E-02  0.1455843E+00
         21   -1    0    0  503  502  0.00000000000E+00  0.00000000000E+00  0.18287967029E+03  0.18287967029E+03  0.00000000000E+00 0. -1.
         21   -1    0    0  501  503 -0.00000000000E+00 -0.00000000000E+00 -0.80407775105E+01  0.80407775105E+01  0.00000000000E+00 0.  1.
          2    1    1    2  501    0  0.26177269780E+02  0.10215385131E+01  0.17707916573E+02  0.31620615165E+02  0.00000000000E+00 0.  1.
         -2    1    1    2    0  502 -0.26177269780E+02 -0.10215385131E+01  0.15713097621E+03  0.15929983264E+03  0.00000000000E+00 0. -1.
</event>
<event>
 4    1  0.1842931E+004  0.2886285E+02  0.7546771E-02  0.1429742E+00
         21   -1    0    0  503  502  0.00000000000E+00  0.00000000000E+00  0.22587548977E+01  0.22587548977E+01  0.00000000000E+00 0.  1.
         21   -1    0    0  501  503 -0.00000000000E+00 -0.00000000000E+00 -0.53319639179E+03  0.53319639179E+03  0.00000000000E+00 0. -1.
          2    1    1    2  501    0 -0.16309821478E+02 -0.23812888931E+02 -0.41412230017E+03  0.41512690042E+03  0.00000000000E+00 0.  1.
         -2    1    1    2    0  502  0.16309821478E+02  0.23812888931E+02 -0.11681533673E+03  0.12032824627E+03  0.00000000000E+00 0. -1.
</event>
<event>
 4    1  0.1842931E+004  0.2035835E+02  0.7546771E-02  0.1528626E+00
         21   -1    0    0  501  502  0.00000000000E+00  0.00000000000E+00  0.62246276056E+01  0.62246276056E+01  0.00000000000E+00 0. -1.
         21   -1    0    0  502  503 -0.00000000000E+00 -0.00000000000E+00 -0.12590973191E+03  0.12590973191E+03  0.00000000000E+00 0.  1.
          2    1    1    2  501    0  0.18879780021E+02 -0.76168536012E+01 -0.10519247219E+03  0.10714438276E+03  0.00000000000E+00 0.  1.
         -2    1    1    2    0  503 -0.18879780021E+02  0.76168536012E+01 -0.14492632114E+02  0.24989976751E+02  0.00000000000E+00 0. -1.
</event>
<event>
 4    1  0.1842931E+004  0.2269872E+02  0.7546771E-02  0.1496316E+00
         21   -1    0    0  501  502  0.00000000000E+00  0.00000000000E+00  0.17003862776E+03  0.17003862776E+03  0.00000000000E+00 0.  1.
         21   -1    0    0  502  503 -0.00000000000E+00 -0.00000000000E+00 -0.35717421418E+01  0.35717421418E+01  0.00000000000E+00 0. -1.
          2    1    1    2  501    0  0.46271974439E+01  0.22222082383E+02  0.49429535915E+02  0.54392195418E+02  0.00000000000E+00 0. -1.
         -2    1    1    2    0  503 -0.46271974439E+01 -0.22222082383E+02  0.11703734971E+03  0.11921817449E+03  0.00000000000E+00 0.  1.
</event>
<event>
 4    1  0.1842931E+004  0.2239998E+02  0.7546771E-02  0.1500173E+00
         21   -1    0    0  501  502  0.00000000000E+00  0.00000000000E+00  0.10499702103E+03  0.10499702103E+03  0.00000000000E+00 0. -1.
         21   -1    0    0  502  503 -0.00000000000E+00 -0.00000000000E+00 -0.61893797110E+01  0.61893797110E+01  0.00000000000E+00 0.  1.
          2    1    1    2  501    0 -0.19450726695E+02  0.11109823735E+02  0.22863991733E+02  0.32008140689E+02  0.00000000000E+00 0.  1.
         -2    1    1    2    0  503  0.19450726695E+02 -0.11109823735E+02  0.75943649583E+02  0.79178260049E+02  0.00000000000E+00 0. -1.
</event>
<event>
 4    1  0.1842931E+004  0.2018092E+02  0.7546771E-02  0.1531288E+00
         21   -1    0    0  501  502  0.00000000000E+00  0.00000000000E+00  0.75418982589E+01  0.75418982589E+01  0.00000000000E+00 0.  1.
         21   -1    0    0  502  503 -0.00000000000E+00 -0.00000000000E+00 -0.71811546709E+02  0.71811546709E+02  0.00000000000E+00 0. -1.
          2    1    1    2  501    0  0.75223343904E+01  0.18726563412E+02 -0.12375237810E+02  0.23673111388E+02  0.00000000000E+00 0.  1.
         -2    1    1    2    0  503 -0.75223343904E+01 -0.18726563412E+02 -0.51894410640E+02  0.55680333580E+02  0.00000000000E+00 0. -1.
</event>
<event>
 4    1  0.1842931E+004  0.2383909E+02  0.7546771E-02  0.1482222E+00
         21   -1    0    0  503  502  0.00000000000E+00  0.00000000000E+00  0.17427750393E+02  0.17427750393E+02  0.00000000000E+00 0.  1.
         21   -1    0    0  501  503 -0.00000000000E+00 -0.00000000000E+00 -0.60230673705E+02  0.60230673705E+02  0.00000000000E+00 0. -1.
          2    1    1    2  501    0  0.23196372673E+02  0.54982257578E+01 -0.47696536185E+02  0.53322244474E+02  0.00000000000E+00 0. -1.
         -2    1    1    2    0  502 -0.23196372673E+02 -0.54982257578E+01  0.48936128734E+01  0.24336179623E+02  0.00000000000E+00 0.  1.
</event>
<event>
 4    1  0.1842931E+004  0.2664499E+02  0.7546771E-02  0.1451207E+00
         21   -1    0    0  503  502  0.00000000000E+00  0.00000000000E+00  0.93869925571E+02  0.93869925571E+02  0.00000000000E+00 0. -1.
         21   -1    0    0  501  503 -0.00000000000E+00 -0.00000000000E+00 -0.77486215246E+01  0.77486215246E+01  0.00000000000E+00 0.  1.
          2    1    1    2  501    0 -0.15642228695E+02  0.21570262148E+02  0.35200526789E+02  0.44147849482E+02  0.00000000000E+00 0. -1.
         -2    1    1    2    0  502  0.15642228695E+02 -0.21570262148E+02  0.50920777258E+02  0.57470697614E+02  0.00000000000E+00 0.  1.
</event>
<event>
 4    1  0.1842931E+004  0.2038926E+02  0.7546771E-02  0.1528166E+00
         21   -1    0    0  503  502  0.00000000000E+00  0.00000000000E+00  0.32016749081E+01  0.32016749081E+01  0.00000000000E+00 0.  1.
         21   -1    0    0  501  503 -0.00000000000E+00 -0.00000000000E+00 -0.14273116172E+03  0.14273116172E+03  0.00000000000E+00 0. -1.
          2    1    1    2  501    0  0.66260906507E+01  0.19282552388E+02 -0.91688914255E+02  0.93928584048E+02  0.00000000000E+00 0. -1.
         -2    1    1    2    0  502 -0.66260906507E+01 -0.19282552388E+02 -0.47840572560E+02  0.52004252583E+02  0.00000000000E+00 0.  1.
</event>
<event>
 4    1  0.1842931E+004  0.2597968E+02  0.7546771E-02  0.1458136E+00
         21   -1    0    0  503  502  0.00000000000E+00  0.00000000000E+00  0.22414163428E+01  0.22414163428E+01  0.00000000000E+00 0.  1.
         21   -1    0    0  501  503 -0.00000000000E+00 -0.00000000000E+00 -0.13540198686E+04  0.13540198686E+04  0.00000000000E+00 0. -1.
          2    1    1    2  501    0  0.10610440938E+02 -0.23714177215E+02 -0.12738788059E+04  0.12741436951E+04  0.00000000000E+00 0. -1.
         -2    1    1    2    0  502 -0.10610440938E+02  0.23714177215E+02 -0.77899646346E+02  0.82117589825E+02  0.00000000000E+00 0.  1.
</event>
<event>
 4    1  0.1842931E+004  0.2090343E+02  0.7546771E-02  0.1520648E+00
         21   -1    0    0  501  502  0.00000000000E+00  0.00000000000E+00  0.11275500753E+04  0.11275500753E+04  0.00000000000E+00 0.  1.
         21   -1    0    0  502  503 -0.00000000000E+00 -0.00000000000E+00 -0.21659121508E+01  0.21659121508E+01  0.00000000000E+00 0. -1.
          2    1    1    2  501    0  0.20138671102E+02  0.56024346205E+01  0.10745295444E+04  0.10747328482E+04  0.00000000000E+00 0.  1.
         -2    1    1    2    0  503 -0.20138671102E+02 -0.56024346205E+01  0.50854618825E+02  0.54983139263E+02  0.00000000000E+00 0. -1.
</event>
<event>
 4    1  0.1842931E+004  0.2726132E+02  0.7546771E-02  0.1445001E+00
         21   -1    0    0  503  502  0.00000000000E+00  0.00000000000E+00  0.32552073896E+03  0.32552073896E+03  0.00000000000E+00 0.  1.
         21   -1    0    0  501  503 -0.00000000000E+00 -0.00000000000E+00 -0.75372906098E+01  0.75372906098E+01  0.00000000000E+00 0. -1.
          2    1    1    2  501    0 -0.25463841505E+02  0.97351104176E+01  0.19952502680E+02  0.33782864920E+02  0.00000000000E+00 0. -1.
         -2    1    1    2    0  502  0.25463841505E+02 -0.97351104176E+01  0.29803094567E+03  0.29927516465E+03  0.00000000000E+00 0.  1.
</event>
<event>
 4    1  0.1842931E+004  0.2190086E+02  0.7546771E-02  0.1506781E+00
         21   -1    0    0  503  502  0.00000000000E+00  0.00000000000E+00  0.98195661055E+01  0.98195661055E+01  0.00000000000E+00 0.  1.
         21   -1    0    0  501  503 -0.00000000000E+00 -0.00000000000E+00 -0.11107274197E+03  0.11107274197E+03  0.00000000000E+00 0. -1.
          2    1    1    2  501    0 -0.62021315952E+01  0.21004314758E+02 -0.95869760409E+02  0.98339506993E+02  0.00000000000E+00 0. -1.
         -2    1    1    2    0  502  0.62021315952E+01 -0.21004314758E+02 -0.53834154581E+01  0.22552801085E+02  0.00000000000E+00 0.  1.
</event>
<event>
 4    1  0.1842931E+004  0.3796827E+02  0.7546771E-02  0.1360821E+00
         21   -1    0    0  501  502  0.00000000000E+00  0.00000000000E+00  0.36580386862E+02  0.36580386862E+02  0.00000000000E+00 0. -1.
         21   -1    0    0  502  503 -0.00000000000E+00 -0.00000000000E+00 -0.46671530117E+02  0.46671530117E+02  0.00000000000E+00 0.  1.
          2    1    1    2  501    0 -0.18545852618E+02 -0.33130661678E+02  0.11374989040E+02  0.39635587144E+02  0.00000000000E+00 0. -1.
         -2    1    1    2    0  503  0.18545852618E+02  0.33130661678E+02 -0.21466132294E+02  0.43616329835E+02  0.00000000000E+00 0.  1.
</event>
<event>
 4    1  0.1842931E+004  0.2439873E+02  0.7546771E-02  0.1475643E+00
         21   -1    0    0  503  502  0.00000000000E+00  0.00000000000E+00  0.43357585637E+02  0.43357585637E+02  0.00000000000E+00 0.  1.
         21   -1    0    0  501  503 -0.00000000000E+00 -0.00000000000E+00 -0.23385102052E+02  0.23385102052E+02  0.00000000000E+00 0. -1.
          2    1    1    2  501    0  0.56156709605E+01  0.23743681532E+02 -0.11456645450E+02  0.26954645202E+02  0.00000000000E+00 0. -1.
         -2    1    1    2    0  502 -0.56156709605E+01 -0.23743681532E+02  0.31429129035E+02  0.39788042486E+02  0.00000000000E+00 0.  1.
</event>
<event>
 4    1  0.1842931E+004  0.2442155E+02  0.7546771E-02  0.1475380E+00
         21   -1    0    0  503  502  0.00000000000E+00  0.00000000000E+00  0.15541648826E+02  0.15541648826E+02  0.00000000000E+00 0. -1.
         21   -1    0    0  501  503 -0.00000000000E+00 -0.00000000000E+00 -0.40495711521E+02  0.40495711521E+02  0.00000000000E+00 0.  1.
          2    1    1    2  501    0 -0.23611825161E+02  0.62364981307E+01 -0.18888751834E+02  0.30873890947E+02  0.00000000000E+00 0. -1.
         -2    1    1    2    0  502  0.23611825161E+02 -0.62364981307E+01 -0.60653108614E+01  0.25163469399E+02  0.00000000000E+00 0.  1.
</event>
<event>
 4    1  0.1842931E+004  0.2467545E+02  0.7546771E-02  0.1472467E+00
         21   -1    0    0  503  502  0.00000000000E+00  0.00000000000E+00  0.87235029955E+01  0.87235029955E+01  0.00000000000E+00 0.  1.
         21   -1    0    0  501  503 -0.00000000000E+00 -0.00000000000E+00 -0.93026023638E+02  0.93026023638E+02  0.00000000000E+00 0. -1.
          2    1    1    2  501    0 -0.14936383490E+02  0.19641341390E+02 -0.67573387979E+02  0.71937755082E+02  0.00000000000E+00 0. -1.
         -2    1    1    2    0  502  0.14936383490E+02 -0.19641341390E+02 -0.16729132664E+02  0.29811771551E+02  0.00000000000E+00 0.  1.
</event>
<event>
 4    1  0.1842931E+004  0.2531421E+02  0.7546771E-02  0.1465319E+00
         21   -1    0    0  501  502  0.00000000000E+00  0.00000000000E+00  0.77580772208E+02  0.77580772208E+02  0.00000000000E+00 0.  1.
         21   -1    0    0  502  503 -0.00000000000E+00 -0.00000000000E+00 -0.10003610396E+02  0.10003610396E+02  0.00000000000E+00 0. -1.
          2    1    1    2  501    0  0.18578213417E+02 -0.17194748940E+02  0.52071919238E+02  0.57898999801E+02  0.00000000000E+00 0.  1.
         -2    1    1    2    0  503 -0.18578213417E+02  0.17194748940E+02  0.15505242574E+02  0.29685382803E+02  0.00000000000E+00 0. -1.
</event>
<event>
 4    1  0.1842931E+004  0.2635110E+02  0.7546771E-02  0.1454238E+00
         21   -1    0    0  501  502  0.00000000000E+00  0.00000000000E+00  0.27138967413E+02  0.27138967413E+02  0.00000000000E+00 0. -1.
         21   -1    0    0  502  503 -0.00000000000E+00 -0.00000000000E+00 -0.33954530502E+02  0.33954530502E+02  0.00000000000E+00 0.  1.
          2    1    1    2  501    0 -0.25369156098E+02  0.71264555308E+01  0.11757065258E+02  0.28854965483E+02  0.00000000000E+00 0. -1.
         -2    1    1    2    0  503  0.25369156098E+02 -0.71264555308E+01 -0.18572628347E+02  0.32238532431E+02  0.00000000000E+00 0.  1.
</event>
<event>
 4    1  0.1842931E+004  0.2867175E+02  0.7546771E-02  0.1431501E+00
         21   -1    0    0  503  502  0.00000000000E+00  0.00000000000E+00  0.43757221167E+02  0.43757221167E+02  0.00000000000E+00 0.  1.
         21   -1    0    0  501  503 -0.00000000000E+00 -0.00000000000E+00 -0.28150361999E+02  0.28150361999E+02  0.00000000000E+00 0. -1.
          2    1    1    2  501    0  0.27311443484E+02 -0.87266348990E+01 -0.12932210788E+02  0.31453317435E+02  0.00000000000E+00 0. -1.
         -2    1    1    2    0  502 -0.27311443484E+02  0.87266348990E+01  0.28539069957E+02  0.40454265731E+02  0.00000000000E+00 0.  1.
</event>
<event>
 4    1  0.1842931E+004  0.2148504E+02  0.7546771E-02  0.1512451E+00
         21   -1    0    0  501  502  0.00000000000E+00  0.00000000000E+00  0.22110805734E+01  0.22110805734E+01  0.00000000000E+00 0. -1.
         21   -1    0    0  502  503 -0.00000000000E+00 -0.00000000000E+00 -0.33800095208E+03  0.33800095208E+03  0.00000000000E+00 0.  1.
          2    1    1    2  501    0  0.10325990824E+02 -0.18840934118E+02 -0.62712241020E+02  0.66290512584E+02  0.00000000000E+00 0. -1.
         -2    1    1    2    0  503 -0.10325990824E+02  0.18840934118E+02 -0.27307763049E+03  0.27392152007E+03  0.00000000000E+00 0.  1.
</event>
<event>
 4    1  0.1842931E+004  0.3749762E+02  0.7546771E-02  0.1363808E+00
         21   -1    0    0  501  502  0.00000000000E+00  0.00000000000E+00  0.21470662722E+02  0.21470662722E+02  0.00000000000E+00 0. -1.
         21   -1    0    0  502  503 -0.00000000000E+00 -0.00000000000E+00 -0.12567150282E+03  0.12567150282E+03  0.00000000000E+00 0.  1.
          2    1    1    2  501    0 -0.45003273968E+01  0.37226584326E+02 -0.11875774943E+01  0.37516421305E+02  0.00000000000E+00 0. -1.
         -2    1    1    2    0  503  0.45003273968E+01 -0.37226584326E+02 -0.10301326260E+03  0.10962574423E+03  0.00000000000E+00 0.  1.
</event>
<event>
 4    1  0.1842931E+004  0.3345595E+02  0.7546771E-02  0.1391756E+00
         21   -1    0    0  501  502  0.00000000000E+00  0.00000000000E+00  0.31534099436E+02  0.31534099436E+02  0.00000000000E+00 0.  1.
         21   -1    0    0  502  503 -0.00000000000E+00 -0.00000000000E+00 -0.43588693320E+02  0.43588693320E+02  0.00000000000E+00 0. -1.
          2    1    1    2  501    0  0.31293096853E+01  0.33309277046E+02  0.10158353983E+02  0.34964162683E+02  0.00000000000E+00 0.  1.
         -2    1    1    2    0  503 -0.31293096853E+01 -0.33309277046E+02 -0.22212947866E+02  0.40158630073E+02  0.00000000000E+00 0. -1.
</event>
<event>
 4    1  0.1842931E+004  0.3032711E+02  0.7546771E-02  0.1416775E+00
         21   -1    0    0  503  502  0.00000000000E+00  0.00000000000E+00  0.41376336981E+03  0.41376336981E+03  0.00000000000E+00 0. -1.
         21   -1    0    0  501  503 -0.00000000000E+00 -0.00000000000E+00 -0.98304434707E+01  0.98304434707E+01  0.00000000000E+00 0.  1.
          2    1    1    2  501    0  0.22394368948E+02  0.20450569875E+02  0.15647641239E+02  0.34125976105E+02  0.00000000000E+00 0.  1.
         -2    1    1    2    0  502 -0.22394368948E+02 -0.20450569875E+02  0.38828528510E+03  0.38946783718E+03  0.00000000000E+00 0. -1.
</event>
<event>
 4    1  0.1842931E+004  0.4219360E+02  0.7546771E-02  0.1336090E+00
         21   -1    0    0  503  502  0.00000000000E+00  0.00000000000E+00  0.33833184277E+02  0.33833184277E+02  0.00000000000E+00 0.  1.
         21   -1    0    0  501  503 -0.00000000000E+00 -0.00000000000E+00 -0.62837480423E+02  0.62837480423E+02  0.00000000000E+00 0. -1.
          2    1    1    2  501    0  0.13345723859E+02  0.40027388428E+02 -0.33992895017E+02  0.54183180797E+02  0.00000000000E+00 0. -1.
         -2    1    1    2    0  502 -0.13345723859E+02 -0.40027388428E+02  0.49885988714E+01  0.42487483902E+02  0.00000000000E+00 0.  1.
</event>
<event>
 4    1  0.1842931E+004  0.3316623E+02  0.7546771E-02  0.1393935E+00
         21   -1    0    0  501  502  0.00000000000E+00  0.00000000000E+00  0.40760938907E+02  0.40760938907E+02  0.00000000000E+00 0. -1.
         21   -1    0    0  502  503 -0.00000000000E+00 -0.00000000000E+00 -0.28891069252E+02  0.28891069252E+02  0.00000000000E+00 0.  1.
          2    1    1    2  501    0 -0.55733699030E+01 -0.32694593153E+02  0.14876418871E+02  0.36349782832E+02  0.00000000000E+00 0. -1.
         -2    1    1    2    0  503  0.55733699030E+01  0.32694593153E+02 -0.30065492155E+01  0.33302225327E+02  0.00000000000E+00 0.  1.
</event>
<event>
 4    1  0.1842931E+004  0.2084012E+02  0.7546771E-02  0.1521560E+00
         21   -1    0    0  503  502  0.00000000000E+00  0.00000000000E+00  0.33518820738E+03  0.33518820738E+03  0.00000000000E+00 0.  1.
         21   -1    0    0  501  503 -0.00000000000E+00 -0.00000000000E+00 -0.15913956762E+01  0.15913956762E+01  0.00000000000E+00 0. -1.
          2    1    1    2  501    0 -0.14085784698E+02  0.15359077244E+02  0.94215666063E+02  0.96493016929E+02  0.00000000000E+00 0. -1.
         -2    1    1    2    0  502  0.14085784698E+02 -0.15359077244E+02  0.23938114564E+03  0.24028658612E+03  0.00000000000E+00 0.  1.
</event>
<event>
 4    1  0.1842931E+004  0.6126643E+02  0.7546771E-02  0.1255589E+00
         21   -1    0    0  503  502  0.00000000000E+00  0.00000000000E+00  0.22434957136E+03  0.22434957136E+03  0.00000000000E+00 0.  1.
         21   -1    0    0  501  503 -0.00000000000E+00 -0.00000000000E+00 -0.16772414759E+02  0.16772414759E+02  0.00000000000E+00 0. -1.
          2    1    1    2  501    0 -0.48872117317E+02  0.36947153046E+02  0.10978478708E+03  0.12572301080E+03  0.00000000000E+00 0. -1.
         -2    1    1    2    0  502  0.48872117317E+02 -0.36947153046E+02  0.97792369522E+02  0.11539897533E+03  0.00000000000E+00 0.  1.
</event>
<event>
 4    1  0.1842931E+004  0.2661430E+02  0.7546771E-02  0.1451522E+00
         21   -1    0    0  501  502  0.00000000000E+00  0.00000000000E+00  0.79324414791E+03  0.79324414791E+03  0.00000000000E+00 0.  1.
         21   -1    0    0  502  503 -0.00000000000E+00 -0.00000000000E+00 -0.15807382433E+01  0.15807382433E+01  0.00000000000E+00 0. -1.
          2    1    1    2  501    0  0.87330268119E+01 -0.25140703268E+02  0.65797665668E+03  0.65851469342E+03  0.00000000000E+00 0.  1.
         -2    1    1    2    0  503 -0.87330268119E+01  0.25140703268E+02  0.13368675299E+03  0.13631019273E+03  0.00000000000E+00 0. -1.
</event>
<event>
 4    1  0.1842931E+004  0.2207763E+02  0.7546771E-02  0.1504417E+00
         21   -1    0    0  503  502  0.00000000000E+00  0.00000000000E+00  0.40507660706E+02  0.40507660706E+02  0.00000000000E+00 0. -1.
         21   -1    0    0  501  503 -0.00000000000E+00 -0.00000000000E+00 -0.34252250252E+02  0.34252250252E+02  0.00000000000E+00 0.  1.
          2    1    1    2  501    0  0.18108726398E+02 -0.12629167156E+02 -0.26978816095E+02  0.34860842685E+02  0.00000000000E+00 0.  1.
         -2    1    1    2    0  502 -0.18108726398E+02  0.12629167156E+02  0.33234226548E+02  0.39899068273E+02  0.00000000000E+00 0. -1.
</event>
<event>
 4    1  0.1842931E+004  0.2135642E+02  0.7546771E-02  0.1514237E+00
         21   -1    0    0  503  502  0.00000000000E+00  0.00000000000E+00  0.11512724365E+02  0.11512724365E+02  0.00000000000E+00 0.  1.
         21   -1    0    0  501  503 -0.00000000000E+00 -0.00000000000E+00 -0.47142908631E+02  0.47142908631E+02  0.00000000000E+00 0. -1.
          2    1    1    2  501    0 -0.38628271775E+01  0.21004167453E+02 -0.29533235997E+02  0.36445967029E+02  0.00000000000E+00 0. -1.
         -2    1    1    2    0  502  0.38628271775E+01 -0.21004167453E+02 -0.60969482691E+01  0.22209665967E+02  0.00000000000E+00 0.  1.
</event>
<event>
 4    1  0.1842931E+004  0.2258106E+02  0.7546771E-02  0.1497827E+00
         21   -1    0    0  503  502  0.00000000000E+00  0.00000000000E+00  0.37529932403E+03  0.37529932403E+03  0.00000000000E+00 0.  1.
         21   -1    0    0  501  503 -0.00000000000E+00 -0.00000000000E+00 -0.17920402117E+01  0.17920402117E+01  0.00000000000E+00 0. -1.
          2    1    1    2  501    0 -0.22412668126E+02 -0.27525589018E+01  0.94032850534E+02  0.96706159331E+02  0.00000000000E+00 0. -1.
         -2    1    1    2    0  502  0.22412668126E+02  0.27525589018E+01  0.27947443328E+03  0.28038520491E+03  0.00000000000E+00 0.  1.
</event>
<event>
 4    1  0.1842931E+004  0.3135071E+02  0.7546771E-02  0.1408211E+00
         21   -1    0    0  503  502  0.00000000000E+00  0.00000000000E+00  0.92898012965E+02  0.92898012965E+02  0.00000000000E+00 0. -1.
         21   -1    0    0  501  503 -0.00000000000E+00 -0.00000000000E+00 -0.10593442612E+02  0.10593442612E+02  0.00000000000E+00 0.  1.
          2    1    1    2  501    0 -0.26646498955E+02 -0.16517590925E+02  0.42991351908E+02  0.53208298746E+02  0.00000000000E+00 0.  1.
         -2    1    1    2    0  502  0.26646498955E+02  0.16517590925E+02  0.39313218444E+02  0.50283156832E+02  0.00000000000E+00 0. -1.
</event>
<event>
 4    1  0.1842931E+004  0.2166702E+02  0.7546771E-02  0.1509951E+00
         21   -1    0    0  501  502  0.00000000000E+00  0.00000000000E+00  0.21625095816E+02  0.21625095816E+02  0.00000000000E+00 0. -1.
         21   -1    0    0  502  503 -0.00000000000E+00 -0.00000000000E+00 -0.14009707527E+03  0.14009707527E+03  0.00000000000E+00 0.  1.
          2    1    1    2  501    0  0.21633303679E+02 -0.12082974199E+01  0.15096548269E+02  0.26407680329E+02  0.00000000000E+00 0. -1.
         -2    1    1    2    0  503 -0.21633303679E+02  0.12082974199E+01 -0.13356852772E+03  0.13531449076E+03  0.00000000000E+00 0.  1.
</event>
<event>
 4    1  0.1842931E+004  0.5902472E+02  0.7546771E-02  0.1263183E+00
         21   -1    0    0  503  502  0.00000000000E+00  0.00000000000E+00  0.11016982271E+03  0.11016982271E+03  0.00000000000E+00 0. -1.
         21   -1    0    0  501  503 -0.00000000000E+00 -0.00000000000E+00 -0.52529978572E+02  0.52529978572E+02  0.00000000000E+00 0.  1.
          2    1    1    2  501    0 -0.49630214363E+01 -0.58815695966E+02 -0.22501350241E+02  0.63168254974E+02  0.00000000000E+00 0.  1.
         -2    1    1    2    0  502  0.49630214363E+01  0.58815695966E+02  0.80141194377E+02  0.99531546305E+02  0.00000000000E+00 0. -1.
</event>
<event>
 4    1  0.1842931E+004  0.2942590E+02  0.7546771E-02  0.1424652E+00
         21   -1    0    0  501  502  0.00000000000E+00  0.00000000000E+00  0.24039276657E+02  0.24039276657E+02  0.00000000000E+00 0. -1.
         21   -1    0    0  502  503 -0.00000000000E+00 -0.00000000000E+00 -0.50108353624E+02  0.50108353624E+02  0.00000000000E+00 0.  1.
          2    1    1    2  501    0  0.17702081577E+02 -0.23505740685E+02  0.66239227911E+01  0.30162226219E+02  0.00000000000E+00 0. -1.
         -2    1    1    2    0  503 -0.17702081577E+02  0.23505740685E+02 -0.32692999758E+02  0.43985404062E+02  0.00000000000E+00 0.  1.
</event>
<event>
 4    1  0.1842931E+004  0.2348305E+02  0.7546771E-02  0.1486520E+00
         21   -1    0    0  503  502  0.00000000000E+00  0.00000000000E+00  0.12415847174E+02  0.12415847174E+02  0.00000000000E+00 0. -1.
         21   -1    0    0  501  503 -0.00000000000E+00 -0.00000000000E+00 -0.10704827052E+03  0.10704827052E+03  0.00000000000E+00 0.  1.
          2    1    1    2  501    0  0.23312944503E+02 -0.28214320678E+01 -0.93005993307E+02  0.95924807278E+02  0.00000000000E+00 0.  1.
         -2    1    1    2    0  502 -0.23312944503E+02  0.28214320678E+01 -0.16264300410E+01  0.23539310419E+02  0.00000000000E+00 0. -1.
</event>
<event>
 4    1  0.1842931E+004  0.2519293E+02  0.7546771E-02  0.1466657E+00
         21   -1    0    0  501  502  0.00000000000E+00  0.00000000000E+00  0.95523801257E+03  0.95523801257E+03  0.00000000000E+00 0. -1.
         21   -1    0    0  502  503 -0.00000000000E+00 -0.00000000000E+00 -0.70851709404E+00  0.70851709404E+00  0.00000000000E+00 0.  1.
          2    1    1    2  501    0 -0.20763168254E+02  0.14267957372E+02  0.35802800442E+03  0.35891327046E+03  0.00000000000E+00 0.  1.
         -2    1    1    2    0  503  0.20763168254E+02 -0.14267957372E+02  0.59650149106E+03  0.59703325921E+03  0.00000000000E+00 0. -1.
</event>
<event>
 4    1  0.1842931E+004  0.2654943E+02  0.7546771E-02  0.1452187E+00
         21   -1    0    0  503  502  0.00000000000E+00  0.00000000000E+00  0.50325931232E+03  0.50325931232E+03  0.00000000000E+00 0. -1.
         21   -1    0    0  501  503 -0.00000000000E+00 -0.00000000000E+00 -0.22496371969E+01  0.22496371969E+01  0.00000000000E+00 0.  1.
          2    1    1    2  501    0 -0.22361948132E+02 -0.14311377065E+02  0.95229569483E+02  0.98861231743E+02  0.00000000000E+00 0.  1.
         -2    1    1    2    0  502  0.22361948132E+02  0.14311377065E+02  0.40578010564E+03  0.40664771777E+03  0.00000000000E+00 0. -1.
</event>
<event>
 4    1  0.1842931E+004  0.2358531E+02  0.7546771E-02  0.1485276E+00
         21   -1    0    0  501  502  0.00000000000E+00  0.00000000000E+00  0.20798520744E+03  0.20798520744E+03  0.00000000000E+00 0.  1.
         21   -1    0    0  502  503 -0.00000000000E+00 -0.00000000000E+00 -0.52463036592E+01  0.52463036592E+01  0.00000000000E+00 0. -1.
          2    1    1    2  501    0 -0.20699947654E+01 -0.23494299125E+02  0.17601592723E+03  0.17758905824E+03  0.00000000000E+00 0.  1.
         -2    1    1    2    0  503  0.20699947654E+01  0.23494299125E+02  0.26722976549E+02  0.35642452852E+02  0.00000000000E+00 0. -1.
</event>
<event>
 4    1  0.1842931E+004  0.2280716E+02  0.7546771E-02  0.1494934E+00
         21   -1    0    0  501  502  0.00000000000E+00  0.00000000000E+00  0.39123226981E+02  0.39123226981E+02  0.00000000000E+00 0. -1.
         21   -1    0    0  502  503 -0.00000000000E+00 -0.00000000000E+00 -0.13654702586E+02  0.13654702586E+02  0.00000000000E+00 0.  1.
          2    1    1    2  501    0  0.26432205239E+01  0.22653479983E+02  0.17013738233E+02  0.28454069283E+02  0.00000000000E+00 0. -1.
         -2    1    1    2    0  503 -0.26432205239E+01 -0.22653479983E+02  0.84547861625E+01  0.24323860284E+02  0.00000000000E+00 0.  1.
</event>
<event>
 4    1  0.1842931E+004  0.2962185E+02  0.7546771E-02  0.1422911E+00
         21   -1    0    0  501  502  0.00000000000E+00  0.00000000000E+00  0.15253090441E+03  0.15253090441E+03  0.00000000000E+00 0.  1.
         21   -1    0    0  502  503 -0.00000000000E+00 -0.00000000000E+00 -0.12604350951E+02  0.12604350951E+02  0.00000000000E+00 0. -1.
          2    1    1    2  501    0  0.28787384431E+02 -0.69814375767E+01  0.13083973429E+03  0.13415099717E+03  0.00000000000E+00 0.  1.
         -2    1    1    2    0  503 -0.28787384431E+02  0.69814375767E+01  0.90868191703E+01  0.30984258191E+02  0.00000000000E+00 0. -1.
</event>
<event>
 4    1  0.1842931E+004  0.2565588E+02  0.7546771E-02  0.1461598E+00
         21   -1    0    0  501  502  0.00000000000E+00  0.00000000000E+00  0.22362305723E+02  0.22362305723E+02  0.00000000000E+00 0. -1.
         21   -1    0    0  502  503 -0.00000000000E+00 -0.00000000000E+00 -0.29632934955E+02  0.29632934955E+02  0.00000000000E+00 0.  1.
          2    1    1    2  501    0  0.36654550900E+01 -0.25392691773E+02 -0.57624887783E+01  0.26295068614E+02  0.00000000000E+00 0. -1.
         -2    1    1    2    0  503 -0.36654550900E+01  0.25392691773E+02 -0.15081404535E+01  0.25700172064E+02  0.00000000000E+00 0.  1.
</event>
<event>
 4    1  0.1842931E+004  0.3686275E+02  0.7546771E-02  0.1367920E+00
         21   -1    0    0  501  502  0.00000000000E+00  0.00000000000E+00  0.74370826453E+01  0.74370826453E+01  0.00000000000E+00 0.  1.
         21   -1    0    0  502  503 -0.00000000000E+00 -0.00000000000E+00 -0.24364432719E+03  0.24364432719E+03  0.00000000000E+00 0. -1.
          2    1    1    2  501    0  0.14876882142E+02  0.33727449493E+02 -0.55323586453E+02  0.66479784067E+02  0.00000000000E+00 0.  1.
         -2    1    1    2    0  503 -0.14876882142E+02 -0.33727449493E+02 -0.18088365809E+03  0.18460162576E+03  0.00000000000E+00 0. -1.
</event>
<event>
 4    1  0.1842931E+004  0.4318348E+02  0.7546771E-02  0.1330777E+00
         21   -1    0    0  503  502  0.00000000000E+00  0.00000000000E+00  0.34659055661E+02  0.34659055661E+02  0.00000000000E+00 0. -1.
         21   -1    0    0  501  503 -0.00000000000E+00 -0.00000000000E+00 -0.17670183521E+03  0.17670183521E+03  0.00000000000E+00 0.  1.
          2    1    1    2  501    0  0.33695264107E+02  0.27008193126E+02 -0.15915576498E+03  0.16491019024E+03  0.00000000000E+00 0.  1.
         -2    1    1    2    0  502 -0.33695264107E+02 -0.27008193126E+02  0.17112985427E+02  0.46450700634E+02  0.00000000000E+00 0. -1.
</event>
<event>
 4    1  0.1842931E+004  0.2000325E+02  0.7546771E-02  0.1533986E+00
         21   -1    0    0  503  502  0.00000000000E+00  0.00000000000E+00  0.11210512234E+03  0.11210512234E+03  0.00000000000E+00 0. -1.
         21   -1    0    0  501  503 -0.00000000000E+00 -0.00000000000E+00 -0.35946928254E+01  0.35946928254E+01  0.00000000000E+00 0.  1.
          2    1    1    2  501    0 -0.46448622542E+01 -0.19456499456E+02  0.49387360967E+02  0.53284533775E+02  0.00000000000E+00 0. -1.
         -2    1    1    2    0  502  0.46448622542E+01  0.19456499456E+02  0.59123068548E+02  0.62415281390E+02  0.00000000000E+00 0.  1.
</event>
<event>
 4    1  0.1842931E+004  0.2673613E+02  0.7546771E-02  0.1450277E+00
         21   -1    0    0  501  502  0.00000000000E+00  0.00000000000E+00  0.70264575656E+03  0.70264575656E+03  0.00000000000E+00 0.  1.
         21   -1    0    0  502  503 -0.00000000000E+00 -0.00000000000E+00 -0.40064358456E+01  0.40064358456E+01  0.00000000000E+00 0. -1.
          2    1    1    2  501    0  0.26431013702E+02  0.40276965508E+01  0.65450765805E+03  0.65505350566E+03  0.00000000000E+00 0.  1.
         -2    1    1    2    0  503 -0.26431013702E+02 -0.40276965508E+01  0.44131662663E+02  0.51598686749E+02  0.00000000000E+00 0. -1.
</event>
<event>
 4    1  0.1842931E+004  0.2719408E+02  0.7546771E-02  0.1445668E+00
         21   -1    0    0  503  502  0.00000000000E+00  0.00000000000E+00  0.18356772498E+02  0.18356772498E+02  0.00000000000E+00 0. -1.
         21   -1    0    0  501  503 -0.00000000000E+00 -0.00000000000E+00 -0.81289347565E+02  0.81289347565E+02  0.00000000000E+00 0.  1.
          2    1    1    2  501    0 -0.20869009655E+02  0.17435671984E+02 -0.66851680193E+02  0.72171084003E+02  0.00000000000E+00 0.  1.
         -2    1    1    2    0  502  0.20869009655E+02 -0.17435671984E+02  0.39191051258E+01  0.27475036060E+02  0.00000000000E+00 0. -1.
</event>
<event>
 4    1  0.1842931E+004  0.4231740E+02  0.7546771E-02  0.1335416E+00
         21   -1    0    0  503  502  0.00000000000E+00  0.00000000000E+00  0.58627810833E+02  0.58627810833E+02  0.00000000000E+00 0.  1.
         21   -1    0    0  501  503 -0.00000000000E+00 -0.00000000000E+00 -0.33725094041E+02  0.33725094041E+02  0.00000000000E+00 0. -1.
          2    1    1    2  501    0 -0.41968814573E+02  0.54204106912E+01 -0.17291624851E+01  0.42352712448E+02  0.00000000000E+00 0.  1.
         -2    1    1    2    0  502  0.41968814573E+02 -0.54204106912E+01  0.26631879277E+02  0.50000192426E+02  0.00000000000E+00 0. -1.
</event>
<event>
 4    1  0.1842931E+004  0.2001578E+02  0.7546771E-02  0.1533795E+00
         21   -1    0    0  503  502  0.00000000000E+00  0.00000000000E+00  0.79378208802E+01  0.79378208802E+01  0.00000000000E+00 0. -1.
         21   -1    0    0  501  503 -0.00000000000E+00 -0.00000000000E+00 -0.57286809284E+02  0.57286809284E+02  0.00000000000E+00 0.  1.
          2    1    1    2  501    0  0.19029758385E+02 -0.62048153389E+01 -0.13425691883E+02  0.24101465518E+02  0.00000000000E+00 0. -1.
         -2    1    1    2    0  502 -0.19029758385E+02  0.62048153389E+01 -0.35923296521E+02  0.41123164646E+02  0.00000000000E+00 0.  1.
</event>
<event>
 4    1  0.1842931E+004  0.2365144E+02  0.7546771E-02  0.1484476E+00
         21   -1    0    0  501  502  0.00000000000E+00  0.00000000000E+00  0.59483032135E+03  0.59483032135E+03  0.00000000000E+00 0. -1.
         21   -1    0    0  502  503 -0.00000000000E+00 -0.00000000000E+00 -0.25220597445E+01  0.25220597445E+01  0.00000000000E+00 0.  1.
          2    1    1    2  501    0  0.14097415017E+02  0.18990882953E+02  0.53267888918E+03  0.53320370378E+03  0.00000000000E+00 0. -1.
         -2    1    1    2    0  503 -0.14097415017E+02 -0.18990882953E+02  0.59629372427E+02  0.64148677317E+02  0.00000000000E+00 0.  1.
</event>
<event>
 4    1  0.1842931E+004  0.2228932E+02  0.7546771E-02  0.1501620E+00
         21   -1    0    0  501  502  0.00000000000E+00  0.00000000000E+00  0.18062645223E+03  0.18062645223E+03  0.00000000000E+00 0. -1.
         21   -1    0    0  502  503 -0.00000000000E+00 -0.00000000000E+00 -0.38628966942E+01  0.38628966942E+01  0.00000000000E+00 0.  1.
          2    1    1    2  501    0 -0.21610104899E+02 -0.54605212017E+01  0.13788274233E+03  0.13967270513E+03  0.00000000000E+00 0. -1.
         -2    1    1    2    0  503  0.21610104899E+02  0.54605212017E+01  0.38880813206E+02  0.44816643796E+02  0.00000000000E+00 0.  1.
</event>
<event>
 4    1  0.1842931E+004  0.2124563E+02  0.7546771E-02  0.1515787E+00
         21   -1    0    0  503  502  0.00000000000E+00  0.00000000000E+00  0.69160262537E+01  0.69160262537E+01  0.00000000000E+00 0.  1.
         21   -1    0    0  501  503 -0.00000000000E+00 -0.00000000000E+00 -0.73829729927E+02  0.73829729927E+02  0.00000000000E+00 0. -1.
          2    1    1    2  501    0  0.29338502154E+01  0.21042084589E+02 -0.47207472489E+02  0.51767965575E+02  0.00000000000E+00 0.  1.
         -2    1    1    2    0  502 -0.29338502154E+01 -0.21042084589E+02 -0.19706231184E+02  0.28977790606E+02  0.00000000000E+00 0. -1.
</event>
<event>
 4    1  0.1842931E+004  0.2980510E+02  0.7546771E-02  0.1421298E+00
         21   -1    0    0  501  502  0.00000000000E+00  0.00000000000E+00  0.26386265046E+01  0.26386265046E+01  0.00000000000E+00 0. -1.
         21   -1    0    0  502  503 -0.00000000000E+00 -0.00000000000E+00 -0.38828313866E+03  0.38828313866E+03  0.00000000000E+00 0.  1.
          2    1    1    2  501    0 -0.22893456921E+02 -0.19084911828E+02 -0.12155842559E+03  0.12515907902E+03  0.00000000000E+00 0. -1.
         -2    1    1    2    0  503  0.22893456921E+02  0.19084911828E+02 -0.26408608657E+03  0.26576268615E+03  0.00000000000E+00 0.  1.
</event>
<event>
 4    1  0.1842931E+004  0.2745613E+02  0.7546771E-02  0.1443079E+00
         21   -1    0    0  501  502  0.00000000000E+00  0.00000000000E+00  0.67664609786E+01  0.67664609786E+01  0.00000000000E+00 0. -1.
         21   -1    0    0  502  503 -0.00000000000E+00 -0.00000000000E+00 -0.16146850047E+03  0.16146850047E+03  0.00000000000E+00 0.  1.
          2    1    1    2  501    0 -0.82086165647E+01  0.26200334028E+02 -0.30513994828E+02  0.41048054393E+02  0.00000000000E+00 0. -1.
         -2    1    1    2    0  503  0.82086165647E+01 -0.26200334028E+02 -0.12418804466E+03  0.12718690705E+03  0.00000000000E+00 0.  1.
</event>
<event>
 4    1  0.1842931E+004  0.2870955E+02  0.7546771E-02  0.1431152E+00
         21   -1    0    0  501  502  0.00000000000E+00  0.00000000000E+00  0.19275337078E+02  0.19275337078E+02  0.00000000000E+00 0.  1.
         21   -1    0    0  502  503 -0.00000000000E+00 -0.00000000000E+00 -0.54770493392E+02  0.54770493392E+02  0.00000000000E+00 0. -1.
          2    1    1    2  501    0 -0.27504815608E+02  0.82294294583E+01 -0.41136329204E+00  0.28712499205E+02  0.00000000000E+00 0.  1.
         -2    1    1    2    0  503  0.27504815608E+02 -0.82294294583E+01 -0.35083793022E+02  0.45333331266E+02  0.00000000000E+00 0. -1.
</event>
<event>
 4    1  0.1842931E+004  0.2047691E+02  0.7546771E-02  0.1526866E+00
         21   -1    0    0  503  502  0.00000000000E+00  0.00000000000E+00  0.10049952201E+03  0.10049952201E+03  0.00000000000E+00 0. -1.
         21   -1    0    0  501  503 -0.00000000000E+00 -0.00000000000E+00 -0.19065227874E+03  0.19065227874E+03  0.00000000000E+00 0.  1.
          2    1    1    2  501    0  0.20372344341E+02  0.20667541406E+01 -0.18905058999E+03  0.19015632901E+03  0.00000000000E+00 0.  1.
         -2    1    1    2    0  502 -0.20372344341E+02 -0.20667541406E+01  0.98897833267E+02  0.10099547174E+03  0.00000000000E+00 0. -1.
</event>
<event>
 4    1  0.1842931E+004  0.2402392E+02  0.7546771E-02  0.1480026E+00
         21   -1    0    0  501  502  0.00000000000E+00  0.00000000000E+00  0.61414966937E+02  0.61414966937E+02  0.00000000000E+00 0.  1.
         21   -1    0    0  502  503 -0.00000000000E+00 -0.00000000000E+00 -0.13656563067E+02  0.13656563067E+02  0.00000000000E+00 0. -1.
          2    1    1    2  501    0 -0.57998687007E+01  0.23313307608E+02  0.29173214343E+01  0.24200403983E+02  0.00000000000E+00 0. -1.
         -2    1    1    2    0  503  0.57998687007E+01 -0.23313307608E+02  0.44841082436E+02  0.50871126021E+02  0.00000000000E+00 0.  1.
</event>
<event>
 4    1  0.1842931E+004  0.4349671E+02  0.7546771E-02  0.1329130E+00
         21   -1    0    0  503  502  0.00000000000E+00  0.00000000000E+00  0.90910103579E+01  0.90910103579E+01  0.00000000000E+00 0.  1.
         21   -1    0    0  501  503 -0.00000000000E+00 -0.00000000000E+00 -0.29580107340E+03  0.29580107340E+03  0.00000000000E+00 0. -1.
          2    1    1    2  501    0 -0.42943417795E+02 -0.69156520548E+01 -0.22635633773E+03  0.23049762473E+03  0.00000000000E+00 0. -1.
         -2    1    1    2    0  502  0.42943417795E+02  0.69156520548E+01 -0.60353725318E+02  0.74394459035E+02  0.00000000000E+00 0.  1.
</event>
<event>
 4    1  0.1842931E+004  0.2524669E+02  0.7546771E-02  0.1466062E+00
         21   -1    0    0  503  502  0.00000000000E+00  0.00000000000E+00  0.12190797374E+02  0.12190797374E+02  0.00000000000E+00 0. -1.
         21   -1    0    0  501  503 -0.00000000000E+00 -0.00000000000E+00 -0.55024069418E+02  0.55024069418E+02  0.00000000000E+00 0.  1.
          2    1    1    2  501    0  0.89167922474E+01  0.23619618082E+02 -0.13918342218E+02  0.28829078938E+02  0.00000000000E+00 0.  1.
         -2    1    1    2    0  502 -0.89167922474E+01 -0.23619618082E+02 -0.28914929826E+02  0.38385787854E+02  0.00000000000E+00 0. -1.
</event>
<event>
 4    1  0.1842931E+004  0.2063811E+02  0.7546771E-02  0.1524495E+00
         21   -1    0    0  501  502  0.00000000000E+00  0.00000000000E+00  0.44560794039E+02  0.44560794039E+02  0.00000000000E+00 0.  1.
         21   -1    0    0  502  503 -0.00000000000E+00 -0.00000000000E+00 -0.15337834935E+02  0.15337834935E+02  0.00000000000E+00 0. -1.
          2    1    1    2  501    0  0.20166302246E+02  0.43876950900E+01 -0.37727779725E+01  0.20980120784E+02  0.00000000000E+00 0. -1.
         -2    1    1    2    0  503 -0.20166302246E+02 -0.43876950900E+01  0.32995737076E+02  0.38918508189E+02  0.00000000000E+00 0.  1.
</event>
<event>
 4    1  0.1842931E+004  0.2312815E+02  0.7546771E-02  0.1490895E+00
         21   -1    0    0  503  502  0.00000000000E+00  0.00000000000E+00  0.10530826364E+03  0.10530826364E+03  0.00000000000E+00 0.  1.
         21   -1    0    0  501  503 -0.00000000000E+00 -0.00000000000E+00 -0.10918264362E+02  0.10918264362E+02  0.00000000000E+00 0. -1.
          2    1    1    2  501    0  0.58046048328E+00  0.23120867982E+02  0.46978702440E+01  0.23600454560E+02  0.00000000000E+00 0. -1.
         -2    1    1    2    0  502 -0.58046048328E+00 -0.23120867982E+02  0.89692129030E+02  0.92626073438E+02  0.00000000000E+00 0.  1.
</event>
<event>
 4    1  0.1842931E+004  0.2668080E+02  0.7546771E-02  0.1450841E+00
         21   -1    0    0  501  502  0.00000000000E+00  0.00000000000E+00  0.66333759872E+02  0.66333759872E+02  0.00000000000E+00 0.  1.
         21   -1    0    0  502  503 -0.00000000000E+00 -0.00000000000E+00 -0.13933634244E+02  0.13933634244E+02  0.00000000000E+00 0. -1.
          2    1    1    2  501    0 -0.17732196817E+02 -0.19935753105E+02  0.45439498281E+02  0.52693577027E+02  0.00000000000E+00 0.  1.
         -2    1    1    2    0  503  0.17732196817E+02  0.19935753105E+02  0.69606273464E+01  0.27573817089E+02  0.00000000000E+00 0. -1.
</event>
<event>
 4    1  0.1842931E+004  0.2362972E+02  0.7546771E-02  0.1484739E+00
         21   -1    0    0  503  502  0.00000000000E+00  0.00000000000E+00  0.25127567244E+02  0.25127567244E+02  0.00000000000E+00 0. -1.
         21   -1    0    0  501  503 -0.00000000000E+00 -0.00000000000E+00 -0.27716612035E+02  0.27716612035E+02  0.00000000000E+00 0.  1.
          2    1    1    2  501    0  0.10143698116E+02 -0.21341716146E+02  0.10470673611E+02  0.25845666278E+02  0.00000000000E+00 0. -1.
         -2    1    1    2    0  502 -0.10143698116E+02  0.21341716146E+02 -0.13059718402E+02  0.26998513001E+02  0.00000000000E+00 0.  1.
</event>
<event>
 4    1  0.1842931E+004  0.3625563E+02  0.7546771E-02  0.1371944E+00
         21   -1    0    0  503  502  0.00000000000E+00  0.00000000000E+00  0.25504333546E+01  0.25504333546E+01  0.00000000000E+00 0.  1.
         21   -1    0    0  501  503 -0.00000000000E+00 -0.00000000000E+00 -0.57735960832E+03  0.57735960832E+03  0.00000000000E+00 0. -1.
          2    1    1    2  501    0 -0.18923458000E+02  0.30925283408E+02 -0.38239795402E+03  0.38411282933E+03  0.00000000000E+00 0. -1.
         -2    1    1    2    0  502  0.18923458000E+02 -0.30925283408E+02 -0.19241122094E+03  0.19579721234E+03  0.00000000000E+00 0.  1.
</event>
<event>
 4    1  0.1842931E+004  0.2693968E+02  0.7546771E-02  0.1448215E+00
         21   -1    0    0  503  502  0.00000000000E+00  0.00000000000E+00  0.25963938122E+02  0.25963938122E+02  0.00000000000E+00 0.  1.
         21   -1    0    0  501  503 -0.00000000000E+00 -0.00000000000E+00 -0.55649006392E+02  0.55649006392E+02  0.00000000000E+00 0. -1.
          2    1    1    2  501    0  0.25187117498E+02  0.95579942846E+01 -0.43630840269E+02  0.51277640012E+02  0.00000000000E+00 0. -1.
         -2    1    1    2    0  502 -0.25187117498E+02 -0.95579942846E+01  0.13945771999E+02  0.30335304502E+02  0.00000000000E+00 0.  1.
</event>
<event>
 4    1  0.1842931E+004  0.3106107E+02  0.7546771E-02  0.1410594E+00
         21   -1    0    0  503  502  0.00000000000E+00  0.00000000000E+00  0.40887240971E+02  0.40887240971E+02  0.00000000000E+00 0.  1.
         21   -1    0    0  501  503 -0.00000000000E+00 -0.00000000000E+00 -0.25284954778E+02  0.25284954778E+02  0.00000000000E+00 0. -1.
          2    1    1    2  501    0 -0.12065483696E+02  0.28621916542E+02 -0.74907810263E+00  0.31070100118E+02  0.00000000000E+00 0.  1.
         -2    1    1    2    0  502  0.12065483696E+02 -0.28621916542E+02  0.16351364296E+02  0.35102095631E+02  0.00000000000E+00 0. -1.
</event>
<event>
 4    1  0.1842931E+004  0.2223174E+02  0.7546771E-02  0.1502377E+00
         21   -1    0    0  503  502  0.00000000000E+00  0.00000000000E+00  0.27420121704E+02  0.27420121704E+02  0.00000000000E+00 0.  1.
         21   -1    0    0  501  503 -0.00000000000E+00 -0.00000000000E+00 -0.18025098276E+02  0.18025098276E+02  0.00000000000E+00 0. -1.
          2    1    1    2  501    0 -0.21280997594E+02 -0.64319149192E+01  0.46981071889E+01  0.22722733095E+02  0.00000000000E+00 0. -1.
         -2    1    1    2    0  502  0.21280997594E+02  0.64319149192E+01  0.46969162388E+01  0.22722486886E+02  0.00000000000E+00 0.  1.
</event>
<event>
 4    1  0.1842931E+004  0.2690814E+02  0.7546771E-02  0.1448533E+00
         21   -1    0    0  503  502  0.00000000000E+00  0.00000000000E+00  0.17885303828E+01  0.17885303828E+01  0.00000000000E+00 0. -1.
         21   -1    0    0  501  503 -0.00000000000E+00 -0.00000000000E+00 -0.51025321780E+03  0.51025321780E+03  0.00000000000E+00 0.  1.
          2    1    1    2  501    0  0.62103495550E+01  0.26181669427E+02 -0.37060568722E+03  0.37158124771E+03  0.00000000000E+00 0.  1.
         -2    1    1    2    0  502 -0.62103495550E+01 -0.26181669427E+02 -0.13785900020E+03  0.14046050047E+03  0.00000000000E+00 0. -1.
</event>
<event>
 4    1  0.1842931E+004  0.3625114E+02  0.7546771E-02  0.1371974E+00
         21   -1    0    0  503  502  0.00000000000E+00  0.00000000000E+00  0.51746502134E+03  0.51746502134E+03  0.00000000000E+00 0. -1.
         21   -1    0    0  501  503 -0.00000000000E+00 -0.00000000000E+00 -0.98585914595E+01  0.98585914595E+01  0.00000000000E+00 0.  1.
          2    1    1    2  501    0 -0.36060568009E+02 -0.37122294875E+01  0.26625397975E+02  0.44978406266E+02  0.00000000000E+00 0.  1.
         -2    1    1    2    0  502  0.36060568009E+02  0.37122294875E+01  0.48098103190E+03  0.48234520653E+03  0.00000000000E+00 0. -1.
</event>
<event>
 4    1  0.1842931E+004  0.2004193E+02  0.7546771E-02  0.1533396E+00
         21   -1    0    0  503  502  0.00000000000E+00  0.00000000000E+00  0.11312462454E+04  0.11312462454E+04  0.00000000000E+00 0. -1.
         21   -1    0    0  501  503 -0.00000000000E+00 -0.00000000000E+00 -0.39303976025E+00  0.39303976025E+00  0.00000000000E+00 0.  1.
          2    1    1    2  501    0 -0.19094405812E+02 -0.60895491685E+01  0.38957691402E+03  0.39009210564E+03  0.00000000000E+00 0.  1.
         -2    1    1    2    0  502  0.19094405812E+02  0.60895491685E+01  0.74127629158E+03  0.74154717949E+03  0.00000000000E+00 0. -1.
</event>
<event>
 4    1  0.1842931E+004  0.2437972E+02  0.7546771E-02  0.1475863E+00
         21   -1    0    0  503  502  0.00000000000E+00  0.00000000000E+00  0.21737848272E+03  0.21737848272E+03  0.00000000000E+00 0. -1.
         21   -1    0    0  501  503 -0.00000000000E+00 -0.00000000000E+00 -0.14879818845E+02  0.14879818845E+02  0.00000000000E+00 0.  1.
          2    1    1    2  501    0 -0.54665419292E+01  0.23758950921E+02 -0.36689216295E+01  0.24654245384E+02  0.00000000000E+00 0.  1.
         -2    1    1    2    0  502  0.54665419292E+01 -0.23758950921E+02  0.20616758551E+03  0.20760405618E+03  0.00000000000E+00 0. -1.
</event>
<event>
 4    1  0.1842931E+004  0.5253151E+02  0.7546771E-02  0.1287555E+00
         21   -1    0    0  501  502  0.00000000000E+00  0.00000000000E+00  0.11616919142E+03  0.11616919142E+03  0.00000000000E+00 0.  1.
         21   -1    0    0  502  503 -0.00000000000E+00 -0.00000000000E+00 -0.56378123466E+02  0.56378123466E+02  0.00000000000E+00 0. -1.
          2    1    1    2  501    0  0.38603758808E+02 -0.35627362488E+02  0.95523351623E+02  0.10901499831E+03  0.00000000000E+00 0.  1.
         -2    1    1    2    0  503 -0.38603758808E+02  0.35627362488E+02 -0.35732283673E+02  0.63532316568E+02  0.00000000000E+00 0. -1.
</event>
<event>
 4    1  0.1842931E+004  0.2109861E+02  0.7546771E-02  0.1517861E+00
         21   -1    0    0  503  502  0.00000000000E+00  0.00000000000E+00  0.88207667132E+01  0.88207667132E+01  0.00000000000E+00 0. -1.
         21   -1    0    0  501  503 -0.00000000000E+00 -0.00000000000E+00 -0.12556055072E+03  0.12556055072E+03  0.00000000000E+00 0.  1.
          2    1    1    2  501    0  0.12418019385E+02 -0.17057088831E+02 -0.11033186449E+03  0.11233108121E+03  0.00000000000E+00 0.  1.
         -2    1    1    2    0  502 -0.12418019385E+02  0.17057088831E+02 -0.64079195178E+01  0.22050236220E+02  0.00000000000E+00 0. -1.
</event>
<event>
 4    1  0.1842931E+004  0.2106198E+02  0.7546771E-02  0.1518382E+00
         21   -1    0    0  501  502  0.00000000000E+00  0.00000000000E+00  0.20064327264E+01  0.20064327264E+01  0.00000000000E+00 0. -1.
         21   -1    0    0  502  503 -0.00000000000E+00 -0.00000000000E+00 -0.31485483098E+03  0.31485483098E+03  0.00000000000E+00 0.  1.
          2    1    1    2  501    0  0.18860299625E+01 -0.20977363296E+02 -0.69967515452E+02  0.73068872295E+02  0.00000000000E+00 0. -1.
         -2    1    1    2    0  503 -0.18860299625E+01  0.20977363296E+02 -0.24288088280E+03  0.24379239141E+03  0.00000000000E+00 0.  1.
</event>
<event>
 4    1  0.1842931E+004  0.2236887E+02  0.7546771E-02  0.1500579E+00
         21   -1    0    0  501  502  0.00000000000E+00  0.00000000000E+00  0.24480978070E+02  0.24480978070E+02  0.00000000000E+00 0.  1.
         21   -1    0    0  502  503 -0.00000000000E+00 -0.00000000000E+00 -0.24917053739E+03  0.24917053739E+03  0.00000000000E+00 0. -1.
          2    1    1    2  501    0 -0.13885681682E+02  0.17537229264E+02  0.18749139613E+02  0.29187271236E+02  0.00000000000E+00 0.  1.
         -2    1    1    2    0  503  0.13885681682E+02 -0.17537229264E+02 -0.24343869894E+03  0.24446424423E+03  0.00000000000E+00 0. -1.
</event>
<event>
 4    1  0.1842931E+004  0.3584312E+02  0.7546771E-02  0.1374731E+00
         21   -1    0    0  501  502  0.00000000000E+00  0.00000000000E+00  0.17086384289E+02  0.17086384289E+02  0.00000000000E+00 0. -1.
         21   -1    0    0  502  503 -0.00000000000E+00 -0.00000000000E+00 -0.77342440090E+02  0.77342440090E+02  0.00000000000E+00 0.  1.
          2    1    1    2  501    0  0.11613840562E+02 -0.33909403466E+02 -0.22251962140E+02  0.42188609305E+02  0.00000000000E+00 0. -1.
         -2    1    1    2    0  503 -0.11613840562E+02  0.33909403466E+02 -0.38004093661E+02  0.52240215074E+02  0.00000000000E+00 0.  1.
</event>
<event>
 4    1  0.1842931E+004  0.2049100E+02  0.7546771E-02  0.1526658E+00
         21   -1    0    0  503  502  0.00000000000E+00  0.00000000000E+00  0.30950798878E+00  0.30950798878E+00  0.00000000000E+00 0.  1.
         21   -1    0    0  501  503 -0.00000000000E+00 -0.00000000000E+00 -0.16400726491E+04  0.16400726491E+04  0.00000000000E+00 0. -1.
          2    1    1    2  501    0 -0.20252307995E+02  0.31185197821E+01 -0.47889864989E+03  0.47933683148E+03  0.00000000000E+00 0.  1.
         -2    1    1    2    0  502  0.20252307995E+02 -0.31185197821E+01 -0.11608644912E+04  0.11610453256E+04  0.00000000000E+00 0. -1.
</event>
<event>
 4    1  0.1842931E+004  0.3065055E+02  0.7546771E-02  0.1414026E+00
         21   -1    0    0  501  502  0.00000000000E+00  0.00000000000E+00  0.55087282479E+02  0.55087282479E+02  0.00000000000E+00 0.  1.
         21   -1    0    0  502  503 -0.00000000000E+00 -0.00000000000E+00 -0.17662128134E+02  0.17662128134E+02  0.00000000000E+00 0. -1.
          2    1    1    2  501    0  0.62814021014E+01 -0.30000000523E+02  0.25462386994E+02  0.39847072605E+02  0.00000000000E+00 0.  1.
         -2    1    1    2    0  503 -0.62814021014E+01  0.30000000523E+02  0.11962767350E+02  0.32902338008E+02  0.00000000000E+00 0. -1.
</event>
<event>
 4    1  0.1842931E+004  0.2290104E+02  0.7546771E-02  0.1493745E+00
         21   -1    0    0  503  502  0.00000000000E+00  0.00000000000E+00  0.62778128870E+01  0.62778128870E+01  0.00000000000E+00 0. -1.
         21   -1    0    0  501  503 -0.00000000000E+00 -0.00000000000E+00 -0.15525660542E+03  0.15525660542E+03  0.00000000000E+00 0.  1.
          2    1    1    2  501    0 -0.19935769985E+02  0.11270436402E+02 -0.12938220730E+03  0.13139335306E+03  0.00000000000E+00 0.  1.
         -2    1    1    2    0  502  0.19935769985E+02 -0.11270436402E+02 -0.19596585231E+02  0.30141065249E+02  0.00000000000E+00 0. -1.
</event>
<event>
 4    1  0.1842931E+004  0.2636104E+02  0.7546771E-02  0.1454134E+00
         21   -1    0    0  503  502  0.00000000000E+00  0.00000000000E+00  0.13700607117E+02  0.13700607117E+02  0.00000000000E+00 0. -1.
         21   -1    0    0  501  503 -0.00000000000E+00 -0.00000000000E+00 -0.52866350979E+02  0.52866350979E+02  0.00000000000E+00 0.  1.
          2    1    1    2  501    0  0.20971362115E+02  0.15972050601E+02 -0.26288172471E+02  0.37228650811E+02  0.00000000000E+00 0.  1.
         -2    1    1    2    0  502 -0.20971362115E+02 -0.15972050601E+02 -0.12877571391E+02  0.29338307284E+02  0.00000000000E+00 0. -1.
</event>
<event>
 4    1  0.1842931E+004  0.2603037E+02  0.7546771E-02  0.1457599E+00
         21   -1    0    0  501  502  0.00000000000E+00  0.00000000000E+00  0.50627500602E+03  0.50627500602E+03  0.00000000000E+00 0.  1.
         21   -1    0    0  502  503 -0.00000000000E+00 -0.00000000000E+00 -0.28537861853E+01  0.28537861853E+01  0.00000000000E+00 0. -1.
          2    1    1    2  501    0  0.97371010738E+01 -0.24140607876E+02  0.43721483740E+03  0.43798903426E+03  0.00000000000E+00 0.  1.
         -2    1    1    2    0  503 -0.97371010738E+01  0.24140607876E+02  0.66206382434E+02  0.71139757948E+02  0.00000000000E+00 0. -1.
</event>
<event>
 4    1  0.1842931E+004  0.2004119E+02  0.7546771E-02  0.1533407E+00
         21   -1    0    0  503  502  0.00000000000E+00  0.00000000000E+00  0.27263346042E+01  0.27263346042E+01  0.00000000000E+00 0. -1.
         21   -1    0    0  501  503 -0.00000000000E+00 -0.00000000000E+00 -0.27774343914E+03  0.27774343914E+03  0.00000000000E+00 0.  1.
          2    1    1    2  501    0 -0.14934950914E+02  0.13364006153E+02 -0.23360524534E+03  0.23446334483E+03  0.00000000000E+00 0.  1.
         -2    1    1    2    0  502  0.14934950914E+02 -0.13364006153E+02 -0.41411859200E+02  0.46006428917E+02  0.00000000000E+00 0. -1.
</event>
<event>
 4    1  0.1842931E+004  0.2195213E+02  0.7546771E-02  0.1506093E+00
         21   -1    0    0  501  502  0.00000000000E+00  0.00000000000E+00  0.93888690721E+01  0.93888690721E+01  0.00000000000E+00 0.  1.
         21   -1    0    0  502  503 -0.00000000000E+00 -0.00000000000E+00 -0.16972481979E+03  0.16972481979E+03  0.00000000000E+00 0. -1.
          2    1    1    2  501    0  0.21689094577E+02 -0.33881028096E+01 -0.53683864580E+01  0.22599018505E+02  0.00000000000E+00 0.  1.
         -2    1    1    2    0  503 -0.21689094577E+02  0.33881028096E+01 -0.15496756426E+03  0.15651467035E+03  0.00000000000E+00 0. -1.
</event>
<event>
 4    1  0.1842931E+004  0.2926633E+02  0.7546771E-02  0.1426081E+00
         21   -1    0    0  501  502  0.00000000000E+00  0.00000000000E+00  0.55148360280E+02  0.55148360280E+02  0.00000000000E+00 0.  1.
         21   -1    0    0  502  503 -0.00000000000E+00 -0.00000000000E+00 -0.32534031957E+02  0.32534031957E+02  0.00000000000E+00 0. -1.
          2    1    1    2  501    0  0.74885671129E+01  0.28292036127E+02  0.43000985574E+02  0.52015408351E+02  0.00000000000E+00 0.  1.
         -2    1    1    2    0  503 -0.74885671129E+01 -0.28292036127E+02 -0.20386657251E+02  0.35666983886E+02  0.00000000000E+00 0. -1.
</event>
<event>
 4    1  0.1842931E+004  0.3307541E+02  0.7546771E-02  0.1394623E+00
         21   -1    0    0  501  502  0.00000000000E+00  0.00000000000E+00  0.15551889807E+03  0.15551889807E+03  0.00000000000E+00 0.  1.
         21   -1    0    0  502  503 -0.00000000000E+00 -0.00000000000E+00 -0.10372113379E+02  0.10372113379E+02  0.00000000000E+00 0. -1.
          2    1    1    2  501    0 -0.33071507959E+02  0.50777330611E+00  0.11962599068E+03  0.12411430263E+03  0.00000000000E+00 0.  1.
         -2    1    1    2    0  503  0.33071507959E+02 -0.50777330611E+00  0.25520794010E+02  0.41776708814E+02  0.00000000000E+00 0. -1.
</event>
<event>
 4    1  0.1842931E+004  0.2059862E+02  0.7546771E-02  0.1525073E+00
         21   -1    0    0  503  502  0.00000000000E+00  0.00000000000E+00  0.11161261032E+02  0.11161261032E+02  0.00000000000E+00 0. -1.
         21   -1    0    0  501  503 -0.00000000000E+00 -0.00000000000E+00 -0.43904202560E+02  0.43904202560E+02  0.00000000000E+00 0.  1.
          2    1    1    2  501    0  0.17143215271E+02 -0.11419862694E+02 -0.26454682354E+02  0.33528395611E+02  0.00000000000E+00 0.  1.
         -2    1    1    2    0  502 -0.17143215271E+02  0.11419862694E+02 -0.62882591734E+01  0.21537067981E+02  0.00000000000E+00 0. -1.
</event>
<event>
 4    1  0.1842931E+004  0.2140675E+02  0.7546771E-02  0.1513536E+00
         21   -1    0    0  501  502  0.00000000000E+00  0.00000000000E+00  0.52290810739E+01  0.52290810739E+01  0.00000000000E+00 0.  1.
         21   -1    0    0  502  503 -0.00000000000E+00 -0.00000000000E+00 -0.91332991024E+02  0.91332991024E+02  0.00000000000E+00 0. -1.
          2    1    1    2  501    0  0.11760269914E+02  0.17887009853E+02 -0.52767383227E+02  0.56944234147E+02  0.00000000000E+00 0. -1.
         -2    1    1    2    0  503 -0.11760269914E+02 -0.17887009853E+02 -0.33336526722E+02  0.39617837950E+02  0.00000000000E+00 0.  1.
</event>
<event>
 4    1  0.1842931E+004  0.2027214E+02  0.7546771E-02  0.1529915E+00
         21   -1    0    0  503  502  0.00000000000E+00  0.00000000000E+00  0.35388966675E+00  0.35388966675E+00  0.00000000000E+00 0. -1.
         21   -1    0    0  501  503 -0.00000000000E+00 -0.00000000000E+00 -0.13178070568E+04  0.13178070568E+04  0.00000000000E+00 0.  1.
          2    1    1    2  501    0  0.15181362825E+02 -0.13434498803E+02 -0.88588489434E+03  0.88611681259E+03  0.00000000000E+00 0.  1.
         -2    1    1    2    0  502 -0.15181362825E+02  0.13434498803E+02 -0.43156827279E+03  0.43204413387E+03  0.00000000000E+00 0. -1.
</event>
<event>
 4    1  0.1842931E+004  0.2444231E+02  0.7546771E-02  0.1475140E+00
         21   -1    0    0  503  502  0.00000000000E+00  0.00000000000E+00  0.16524193292E+03  0.16524193292E+03  0.00000000000E+00 0. -1.
         21   -1    0    0  501  503 -0.00000000000E+00 -0.00000000000E+00 -0.51562634564E+01  0.51562634564E+01  0.00000000000E+00 0.  1.
          2    1    1    2  501    0  0.19969890059E+02  0.14093615126E+02  0.33469181552E+02  0.41444090170E+02  0.00000000000E+00 0.  1.
         -2    1    1    2    0  502 -0.19969890059E+02 -0.14093615126E+02  0.12661648791E+03  0.12895410621E+03  0.00000000000E+00 0. -1.
</event>
<event>
 4    1  0.1842931E+004  0.2044982E+02  0.7546771E-02  0.1527267E+00
         21   -1    0    0  501  502  0.00000000000E+00  0.00000000000E+00  0.22371183419E+03  0.22371183419E+03  0.00000000000E+00 0. -1.
         21   -1    0    0  502  503 -0.00000000000E+00 -0.00000000000E+00 -0.22560958145E+01  0.22560958145E+01  0.00000000000E+00 0.  1.
          2    1    1    2  501    0  0.13468037980E+02  0.15388532164E+02  0.15750706270E+03  0.15882905833E+03  0.00000000000E+00 0. -1.
         -2    1    1    2    0  503 -0.13468037980E+02 -0.15388532164E+02  0.63948675670E+02  0.67138871670E+02  0.00000000000E+00 0.  1.
</event>
<event>
 4    1  0.1842931E+004  0.2542308E+02  0.7546771E-02  0.1464126E+00
         21   -1    0    0  503  502  0.00000000000E+00  0.00000000000E+00  0.39647778307E+02  0.39647778307E+02  0.00000000000E+00 0.  1.
         21   -1    0    0  501  503 -0.00000000000E+00 -0.00000000000E+00 -0.17495103885E+02  0.17495103885E+02  0.00000000000E+00 0. -1.
          2    1    1    2  501    0  0.18974467036E+02 -0.16920481208E+02  0.36146686103E+01  0.25678763849E+02  0.00000000000E+00 0.  1.
         -2    1    1    2    0  502 -0.18974467036E+02  0.16920481208E+02  0.18538005812E+02  0.31464118343E+02  0.00000000000E+00 0. -1.
</event>
<event>
 4    1  0.1842931E+004  0.2587678E+02  0.7546771E-02  0.1459229E+00
         21   -1    0    0  503  502  0.00000000000E+00  0.00000000000E+00  0.14459414811E+04  0.14459414811E+04  0.00000000000E+00 0. -1.
         21   -1    0    0  501  503 -0.00000000000E+00 -0.00000000000E+00 -0.23081489217E+01  0.23081489217E+01  0.00000000000E+00 0.  1.
          2    1    1    2  501    0 -0.40662870955E+01  0.25555291764E+02  0.74396681225E+02  0.78768482308E+02  0.00000000000E+00 0.  1.
         -2    1    1    2    0  502  0.40662870955E+01 -0.25555291764E+02  0.13692366510E+04  0.13694811477E+04  0.00000000000E+00 0. -1.
</event>
<event>
 4    1  0.1842931E+004  0.2540239E+02  0.7546771E-02  0.1464352E+00
         21   -1    0    0  501  502  0.00000000000E+00  0.00000000000E+00  0.24769661226E+02  0.24769661226E+02  0.00000000000E+00 0.  1.
         21   -1    0    0  502  503 -0.00000000000E+00 -0.00000000000E+00 -0.28483934090E+02  0.28483934090E+02  0.00000000000E+00 0. -1.
          2    1    1    2  501    0 -0.20209824573E+02  0.15389743629E+02  0.59242989377E+01  0.26084066710E+02  0.00000000000E+00 0.  1.
         -2    1    1    2    0  503  0.20209824573E+02 -0.15389743629E+02 -0.96385718017E+01  0.27169528605E+02  0.00000000000E+00 0. -1.
</event>
<event>
 4    1  0.1842931E+004  0.2227148E+02  0.7546771E-02  0.1501855E+00
         21   -1    0    0  501  502  0.00000000000E+00  0.00000000000E+00  0.38208684748E+01  0.38208684748E+01  0.00000000000E+00 0. -1.
         21   -1    0    0  502  503 -0.00000000000E+00 -0.00000000000E+00 -0.19989763023E+03  0.19989763023E+03  0.00000000000E+00 0.  1.
          2    1    1    2  501    0  0.21733804798E+02 -0.48642165723E+01 -0.37728087908E+02  0.43811271279E+02  0.00000000000E+00 0. -1.
         -2    1    1    2    0  503 -0.21733804798E+02  0.48642165723E+01 -0.15834867384E+03  0.15990722742E+03  0.00000000000E+00 0.  1.
</event>
<event>
 4    1  0.1842931E+004  0.2585816E+02  0.7546771E-02  0.1459428E+00
         21   -1    0    0  503  502  0.00000000000E+00  0.00000000000E+00  0.90917871810E+02  0.90917871810E+02  0.00000000000E+00 0.  1.
         21   -1    0    0  501  503 -0.00000000000E+00 -0.00000000000E+00 -0.16003253266E+02  0.16003253266E+02  0.00000000000E+00 0. -1.
          2    1    1    2  501    0  0.25858154592E+02 -0.15174539494E-01 -0.18441977643E+01  0.25923839502E+02  0.00000000000E+00 0. -1.
         -2    1    1    2    0  502 -0.25858154592E+02  0.15174539494E-01  0.76758816309E+02  0.80997285574E+02  0.00000000000E+00 0.  1.
</event>
<event>
 4    1  0.1842931E+004  0.2384534E+02  0.7546771E-02  0.1482147E+00
         21   -1    0    0  501  502  0.00000000000E+00  0.00000000000E+00  0.27026859329E+03  0.27026859329E+03  0.00000000000E+00 0.  1.
         21   -1    0    0  502  503 -0.00000000000E+00 -0.00000000000E+00 -0.60483607357E+01  0.60483607357E+01  0.00000000000E+00 0. -1.
          2    1    1    2  501    0 -0.23582916196E+02  0.35279528525E+01  0.24368234786E+03  0.24484625185E+03  0.00000000000E+00 0.  1.
         -2    1    1    2    0  503  0.23582916196E+02 -0.35279528525E+01  0.20537884699E+02  0.31470702178E+02  0.00000000000E+00 0. -1.
</event>
<event>
 4    1  0.1842931E+004  0.2020164E+02  0.7546771E-02  0.1530975E+00
         21   -1    0    0  501  502  0.00000000000E+00  0.00000000000E+00  0.28010699742E+01  0.28010699742E+01  0.00000000000E+00 0. -1.
         21   -1    0    0  502  503 -0.00000000000E+00 -0.00000000000E+00 -0.58116543235E+03  0.58116543235E+03  0.00000000000E+00 0.  1.
          2    1    1    2  501    0 -0.76345049683E+01  0.18703490875E+02 -0.36434828685E+02  0.41660568627E+02  0.00000000000E+00 0. -1.
         -2    1    1    2    0  503  0.76345049683E+01 -0.18703490875E+02 -0.54192953369E+03  0.54230593369E+03  0.00000000000E+00 0.  1.
</event>
<event>
 4    1  0.1842931E+004  0.2524138E+02  0.7546771E-02  0.1466121E+00
         21   -1    0    0  503  502  0.00000000000E+00  0.00000000000E+00  0.14616334045E+01  0.14616334045E+01  0.00000000000E+00 0. -1.
         21   -1    0    0  501  503 -0.00000000000E+00 -0.00000000000E+00 -0.43713393248E+03  0.43713393248E+03  0.00000000000E+00 0.  1.
          2    1    1    2  501    0  0.13806957166E+02 -0.21130437857E+02 -0.20618964191E+03  0.20772890001E+03  0.00000000000E+00 0. -1.
         -2    1    1    2    0  502 -0.13806957166E+02  0.21130437857E+02 -0.22948265717E+03  0.23086666588E+03  0.00000000000E+00 0.  1.
</event>
<event>
 4    1  0.1842931E+004  0.2507695E+02  0.7546771E-02  0.1467944E+00
         21   -1    0    0  503  502  0.00000000000E+00  0.00000000000E+00  0.48647964711E+01  0.48647964711E+01  0.00000000000E+00 0. -1.
         21   -1    0    0  501  503 -0.00000000000E+00 -0.00000000000E+00 -0.12950954884E+03  0.12950954884E+03  0.00000000000E+00 0.  1.
          2    1    1    2  501    0  0.21848917552E+02 -0.12307658709E+02 -0.65234883854E+02  0.69888795472E+02  0.00000000000E+00 0.  1.
         -2    1    1    2    0  502 -0.21848917552E+02  0.12307658709E+02 -0.59409868518E+02  0.64485549842E+02  0.00000000000E+00 0. -1.
</event>
<event>
 4    1  0.1842931E+004  0.3657408E+02  0.7546771E-02  0.1369822E+00
         21   -1    0    0  501  502  0.00000000000E+00  0.00000000000E+00  0.43195667258E+02  0.43195667258E+02  0.00000000000E+00 0.  1.
         21   -1    0    0  502  503 -0.00000000000E+00 -0.00000000000E+00 -0.77682697692E+02  0.77682697692E+02  0.00000000000E+00 0. -1.
          2    1    1    2  501    0  0.35966381606E+02  0.66394662373E+01  0.29625452495E+02  0.47067298131E+02  0.00000000000E+00 0.  1.
         -2    1    1    2    0  503 -0.35966381606E+02 -0.66394662373E+01 -0.64112482928E+02  0.73811066819E+02  0.00000000000E+00 0. -1.
</event>
<event>
 4    1  0.1842931E+004  0.3915235E+02  0.7546771E-02  0.1353526E+00
         21   -1    0    0  503  502  0.00000000000E+00  0.00000000000E+00  0.47497534532E+03  0.47497534532E+03  0.00000000000E+00 0.  1.
         21   -1    0    0  501  503 -0.00000000000E+00 -0.00000000000E+00 -0.16387089825E+02  0.16387089825E+02  0.00000000000E+00 0. -1.
          2    1    1    2  501    0 -0.37217403580E+02 -0.12156139809E+02  0.91308625636E+01  0.40202978938E+02  0.00000000000E+00 0. -1.
         -2    1    1    2    0  502  0.37217403580E+02  0.12156139809E+02  0.44945739293E+03  0.45115945621E+03  0.00000000000E+00 0.  1.
</event>
<event>
 4    1  0.1842931E+004  0.2093147E+02  0.7546771E-02  0.1520246E+00
         21   -1    0    0  501  502  0.00000000000E+00  0.00000000000E+00  0.59306994729E+03  0.59306994729E+03  0.00000000000E+00 0. -1.
         21   -1    0    0  502  503 -0.00000000000E+00 -0.00000000000E+00 -0.13299047791E+01  0.13299047791E+01  0.00000000000E+00 0.  1.
          2    1    1    2  501    0  0.20236657954E+02 -0.53482621790E+01  0.49401890098E+03  0.49446213279E+03  0.00000000000E+00 0. -1.
         -2    1    1    2    0  503 -0.20236657954E+02  0.53482621790E+01  0.97721141531E+02  0.99937719284E+02  0.00000000000E+00 0.  1.
</event>
<event>
 4    1  0.1842931E+004  0.2437198E+02  0.7546771E-02  0.1475953E+00
         21   -1    0    0  501  502  0.00000000000E+00  0.00000000000E+00  0.33918170574E+01  0.33918170574E+01  0.00000000000E+00 0.  1.
         21   -1    0    0  502  503 -0.00000000000E+00 -0.00000000000E+00 -0.18742688355E+03  0.18742688355E+03  0.00000000000E+00 0. -1.
          2    1    1    2  501    0 -0.56503850432E+01 -0.23707945900E+02 -0.11646042247E+03  0.11898329106E+03  0.00000000000E+00 0.  1.
         -2    1    1    2    0  503  0.56503850432E+01  0.23707945900E+02 -0.67574644030E+02  0.71835409553E+02  0.00000000000E+00 0. -1.
</event>
<event>
 4    1  0.1842931E+004  0.2077094E+02  0.7546771E-02  0.1522560E+00
         21   -1    0    0  501  502  0.00000000000E+00  0.00000000000E+00  0.25148294360E+02  0.25148294360E+02  0.00000000000E+00 0. -1.
         21   -1    0    0  502  503 -0.00000000000E+00 -0.00000000000E+00 -0.21223963614E+02  0.21223963614E+02  0.00000000000E+00 0.  1.
          2    1    1    2  501    0  0.13738193914E+02 -0.15578643471E+02  0.12113638572E+02  0.24045214573E+02  0.00000000000E+00 0. -1.
         -2    1    1    2    0  503 -0.13738193914E+02  0.15578643471E+02 -0.81893078253E+01  0.22327043402E+02  0.00000000000E+00 0.  1.
</event>
<event>
 4    1  0.1842931E+004  0.3031819E+02  0.7546771E-02  0.1416851E+00
         21   -1    0    0  503  502  0.00000000000E+00  0.00000000000E+00  0.37011025033E+02  0.37011025033E+02  0.00000000000E+00 0.  1.
         21   -1    0    0  501  503 -0.00000000000E+00 -0.00000000000E+00 -0.24858082934E+02  0.24858082934E+02  0.00000000000E+00 0. -1.
          2    1    1    2  501    0  0.16173637441E+02 -0.25643829223E+02  0.51469877108E+01  0.30751975673E+02  0.00000000000E+00 0.  1.
         -2    1    1    2    0  502 -0.16173637441E+02  0.25643829223E+02  0.70059543884E+01  0.31117132294E+02  0.00000000000E+00 0. -1.
</event>
<event>
 4    1  0.1842931E+004  0.2326585E+02  0.7546771E-02  0.1489187E+00
         21   -1    0    0  503  502  0.00000000000E+00  0.00000000000E+00  0.46249591103E+03  0.46249591103E+03  0.00000000000E+00 0. -1.
         21   -1    0    0  501  503 -0.00000000000E+00 -0.00000000000E+00 -0.12948542477E+01  0.12948542477E+01  0.00000000000E+00 0.  1.
          2    1    1    2  501    0 -0.31287098848E+00  0.23263744967E+02  0.15870411033E+03  0.16040041881E+03  0.00000000000E+00 0.  1.
         -2    1    1    2    0  502  0.31287098848E+00 -0.23263744967E+02  0.30249694644E+03  0.30339034646E+03  0.00000000000E+00 0. -1.
</event>
<event>
 4    1  0.1842931E+004  0.2280579E+02  0.7546771E-02  0.1494951E+00
         21   -1    0    0  501  502  0.00000000000E+00  0.00000000000E+00  0.12190206466E+03  0.12190206466E+03  0.00000000000E+00 0. -1.
         21   -1    0    0  502  503 -0.00000000000E+00 -0.00000000000E+00 -0.42781736930E+01  0.42781736930E+01  0.00000000000E+00 0.  1.
          2    1    1    2  501    0  0.17164867036E+02  0.15015705783E+02  0.55526678945E+02  0.60027628266E+02  0.00000000000E+00 0.  1.
         -2    1    1    2    0  503 -0.17164867036E+02 -0.15015705783E+02  0.62097212026E+02  0.66152610091E+02  0.00000000000E+00 0. -1.
</event>
<event>
 4    1  0.1842931E+004  0.2603432E+02  0.7546771E-02  0.1457557E+00
         21   -1    0    0  501  502  0.00000000000E+00  0.00000000000E+00  0.15384106371E+01  0.15384106371E+01  0.00000000000E+00 0. -1.
         21   -1    0    0  502  503 -0.00000000000E+00 -0.00000000000E+00 -0.48855790741E+03  0.48855790741E+03  0.00000000000E+00 0.  1.
          2    1    1    2  501    0 -0.25816408478E+02  0.33613616345E+01 -0.16671430912E+03  0.16873484099E+03  0.00000000000E+00 0. -1.
         -2    1    1    2    0  503  0.25816408478E+02 -0.33613616345E+01 -0.32030518765E+03  0.32136147706E+03  0.00000000000E+00 0.  1.
</event>
<event>
 4    1  0.1842931E+004  0.4440529E+02  0.7546771E-02  0.1324440E+00
         21   -1    0    0  501  502  0.00000000000E+00  0.00000000000E+00  0.47437607893E+03  0.47437607893E+03  0.00000000000E+00 0.  1.
         21   -1    0    0  502  503 -0.00000000000E+00 -0.00000000000E+00 -0.20213407151E+02  0.20213407151E+02  0.00000000000E+00 0. -1.
          2    1    1    2  501    0 -0.42531547208E+02 -0.12763109234E+02  0.44748745052E+03  0.44968527643E+03  0.00000000000E+00 0.  1.
         -2    1    1    2    0  503  0.42531547208E+02  0.12763109234E+02  0.66752212543E+01  0.44904209647E+02  0.00000000000E+00 0. -1.
</event>
<event>
 4    1  0.1842931E+004  0.8918459E+02  0.7546771E-02  0.1183996E+00
         21   -1    0    0  501  502  0.00000000000E+00  0.00000000000E+00  0.26502089481E+03  0.26502089481E+03  0.00000000000E+00 0.  1.
         21   -1    0    0  502  503 -0.00000000000E+00 -0.00000000000E+00 -0.37607244006E+02  0.37607244006E+02  0.00000000000E+00 0. -1.
          2    1    1    2  501    0 -0.61250755277E+02  0.64824661924E+02  0.18170625707E+03  0.20241308178E+03  0.00000000000E+00 0.  1.
         -2    1    1    2    0  503  0.61250755277E+02 -0.64824661924E+02  0.45707393734E+02  0.10021505704E+03  0.00000000000E+00 0. -1.
</event>
<event>
 4    1  0.1842931E+004  0.2657229E+02  0.7546771E-02  0.1451953E+00
         21   -1    0    0  501  502  0.00000000000E+00  0.00000000000E+00  0.64757510619E+03  0.64757510619E+03  0.00000000000E+00 0. -1.
         21   -1    0    0  502  503 -0.00000000000E+00 -0.00000000000E+00 -0.17164022091E+01  0.17164022091E+01  0.00000000000E+00 0.  1.
          2    1    1    2  501    0  0.10509788288E+02 -0.24405548509E+02  0.51899608002E+03  0.51967587738E+03  0.00000000000E+00 0.  1.
         -2    1    1    2    0  503 -0.10509788288E+02  0.24405548509E+02  0.12686262396E+03  0.12961563103E+03  0.00000000000E+00 0. -1.
</event>
<event>
 4    1  0.1842931E+004  0.3165683E+02  0.7546771E-02  0.1405725E+00
         21   -1    0    0  501  502  0.00000000000E+00  0.00000000000E+00  0.28535756029E+02  0.28535756029E+02  0.00000000000E+00 0.  1.
         21   -1    0    0  502  503 -0.00000000000E+00 -0.00000000000E+00 -0.53797814097E+02  0.53797814097E+02  0.00000000000E+00 0. -1.
          2    1    1    2  501    0 -0.96541353356E+01 -0.30148843668E+02  0.11625914289E+02  0.33724130629E+02  0.00000000000E+00 0.  1.
         -2    1    1    2    0  503  0.96541353356E+01  0.30148843668E+02 -0.36887972358E+02  0.48609439498E+02  0.00000000000E+00 0. -1.
</event>
<event>
 4    1  0.1842931E+004  0.2152223E+02  0.7546771E-02  0.1511938E+00
         21   -1    0    0  501  502  0.00000000000E+00  0.00000000000E+00  0.39840330501E+02  0.39840330501E+02  0.00000000000E+00 0. -1.
         21   -1    0    0  502  503 -0.00000000000E+00 -0.00000000000E+00 -0.14894602257E+02  0.14894602257E+02  0.00000000000E+00 0.  1.
          2    1    1    2  501    0 -0.13225405774E+02  0.16979251510E+02  0.25292136978E+02  0.33209916179E+02  0.00000000000E+00 0. -1.
         -2    1    1    2    0  503  0.13225405774E+02 -0.16979251510E+02 -0.34640873311E+00  0.21525016579E+02  0.00000000000E+00 0.  1.
</event>
<event>
 4    1  0.1842931E+004  0.2049453E+02  0.7546771E-02  0.1526605E+00
         21   -1    0    0  503  502  0.00000000000E+00  0.00000000000E+00  0.29034842569E+03  0.29034842569E+03  0.00000000000E+00 0.  1.
         21   -1    0    0  501  503 -0.00000000000E+00 -0.00000000000E+00 -0.55963274523E+01  0.55963274523E+01  0.00000000000E+00 0. -1.
          2    1    1    2  501    0  0.18084983374E+02  0.96415281757E+01  0.14956079547E+02  0.25371440728E+02  0.00000000000E+00 0. -1.
         -2    1    1    2    0  502 -0.18084983374E+02 -0.96415281757E+01  0.26979601869E+03  0.27057331242E+03  0.00000000000E+00 0.  1.
</event>
<event>
 4    1  0.1842931E+004  0.2252122E+02  0.7546771E-02  0.1498599E+00
         21   -1    0    0  501  502  0.00000000000E+00  0.00000000000E+00  0.28694423463E+02  0.28694423463E+02  0.00000000000E+00 0.  1.
         21   -1    0    0  502  503 -0.00000000000E+00 -0.00000000000E+00 -0.18412939295E+02  0.18412939295E+02  0.00000000000E+00 0. -1.
          2    1    1    2  501    0  0.82908756671E+01  0.20939595146E+02  0.98525332247E+01  0.24582060026E+02  0.00000000000E+00 0. -1.
         -2    1    1    2    0  503 -0.82908756671E+01 -0.20939595146E+02  0.42895094315E+00  0.22525302731E+02  0.00000000000E+00 0.  1.
</event>
<event>
 4    1  0.1842931E+004  0.2794990E+02  0.7546771E-02  0.1438293E+00
         21   -1    0    0  503  502  0.00000000000E+00  0.00000000000E+00  0.28136192183E+03  0.28136192183E+03  0.00000000000E+00 0. -1.
         21   -1    0    0  501  503 -0.00000000000E+00 -0.00000000000E+00 -0.10647597333E+02  0.10647597333E+02  0.00000000000E+00 0.  1.
          2    1    1    2  501    0  0.13537526801E+02 -0.24452658260E+02  0.98237707865E+01  0.29626062856E+02  0.00000000000E+00 0.  1.
         -2    1    1    2    0  502 -0.13537526801E+02  0.24452658260E+02  0.26089055371E+03  0.26238345631E+03  0.00000000000E+00 0. -1.
</event>
<event>
 4    1  0.1842931E+004  0.2442010E+02  0.7546771E-02  0.1475396E+00
         21   -1    0    0  501  502  0.00000000000E+00  0.00000000000E+00  0.61461016279E+02  0.61461016279E+02  0.00000000000E+00 0.  1.
         21   -1    0    0  502  503 -0.00000000000E+00 -0.00000000000E+00 -0.97168431725E+01  0.97168431725E+01  0.00000000000E+00 0. -1.
          2    1    1    2  501    0  0.18425512657E+02 -0.16026281991E+02  0.27227174864E+02  0.36574038363E+02  0.00000000000E+00 0. -1.
         -2    1    1    2    0  503 -0.18425512657E+02  0.16026281991E+02  0.24516998243E+02  0.34603821089E+02  0.00000000000E+00 0.  1.
</event>
<event>
 4    1  0.1842931E+004  0.2577292E+02  0.7546771E-02  0.1460340E+00
         21   -1    0    0  503  502  0.00000000000E+00  0.00000000000E+00  0.12952942565E+02  0.12952942565E+02  0.00000000000E+00 0. -1.
         21   -1    0    0  501  503 -0.00000000000E+00 -0.00000000000E+00 -0.87678261788E+02  0.87678261788E+02  0.00000000000E+00 0.  1.
          2    1    1    2  501    0 -0.18598100483E+02  0.17842472038E+02 -0.69780907899E+02  0.74388293818E+02  0.00000000000E+00 0.  1.
         -2    1    1    2    0  502  0.18598100483E+02 -0.17842472038E+02 -0.49444113237E+01  0.26242910535E+02  0.00000000000E+00 0. -1.
</event>
<event>
 4    1  0.1842931E+004  0.2889117E+02  0.7546771E-02  0.1429483E+00
         21   -1    0    0  503  502  0.00000000000E+00  0.00000000000E+00  0.32599357319E+02  0.32599357319E+02  0.00000000000E+00 0. -1.
         21   -1    0    0  501  503 -0.00000000000E+00 -0.00000000000E+00 -0.59759674889E+02  0.59759674889E+02  0.00000000000E+00 0.  1.
          2    1    1    2  501    0  0.93630227358E+01 -0.27331913084E+02 -0.48491913990E+02  0.56446128211E+02  0.00000000000E+00 0.  1.
         -2    1    1    2    0  502 -0.93630227358E+01  0.27331913084E+02  0.21331596420E+02  0.35912903996E+02  0.00000000000E+00 0. -1.
</event>
<event>
 4    1  0.1842931E+004  0.3380596E+02  0.7546771E-02  0.1389158E+00
         21   -1    0    0  503  502  0.00000000000E+00  0.00000000000E+00  0.71469182291E+01  0.71469182291E+01  0.00000000000E+00 0. -1.
         21   -1    0    0  501  503 -0.00000000000E+00 -0.00000000000E+00 -0.16157768950E+03  0.16157768950E+03  0.00000000000E+00 0.  1.
          2    1    1    2  501    0 -0.33276296298E+02 -0.59607916823E+01 -0.68637243291E+02  0.76510875694E+02  0.00000000000E+00 0. -1.
         -2    1    1    2    0  502  0.33276296298E+02  0.59607916823E+01 -0.85793527981E+02  0.92213732037E+02  0.00000000000E+00 0.  1.
</event>
<event>
 4    1  0.1842931E+004  0.4150017E+02  0.7546771E-02  0.1339912E+00
         21   -1    0    0  501  502  0.00000000000E+00  0.00000000000E+00  0.17035933670E+03  0.17035933670E+03  0.00000000000E+00 0. -1.
         21   -1    0    0  502  503 -0.00000000000E+00 -0.00000000000E+00 -0.10185034346E+02  0.10185034346E+02  0.00000000000E+00 0.  1.
          2    1    1    2  501    0  0.16080856675E+02 -0.38257943296E+02  0.87856184173E+02  0.97164670915E+02  0.00000000000E+00 0. -1.
         -2    1    1    2    0  503 -0.16080856675E+02  0.38257943296E+02  0.72318118178E+02  0.83379700129E+02  0.00000000000E+00 0.  1.
</event>
<event>
 4    1  0.1842931E+004  0.2918169E+02  0.7546771E-02  0.1426843E+00
         21   -1    0    0  501  502  0.00000000000E+00  0.00000000000E+00  0.14163312062E+03  0.14163312062E+03  0.00000000000E+00 0.  1.
         21   -1    0    0  502  503 -0.00000000000E+00 -0.00000000000E+00 -0.88479662021E+01  0.88479662021E+01  0.00000000000E+00 0. -1.
          2    1    1    2  501    0  0.23118190892E+02 -0.17807871427E+02  0.10898588883E+03  0.11282506370E+03  0.00000000000E+00 0.  1.
         -2    1    1    2    0  503 -0.23118190892E+02  0.17807871427E+02  0.23799265589E+02  0.37656023123E+02  0.00000000000E+00 0. -1.
</event>
<event>
 4    1  0.1842931E+004  0.3519490E+02  0.7546771E-02  0.1379198E+00
         21   -1    0    0  501  502  0.00000000000E+00  0.00000000000E+00  0.23993261801E+03  0.23993261801E+03  0.00000000000E+00 0.  1.
         21   -1    0    0  502  503 -0.00000000000E+00 -0.00000000000E+00 -0.11522633847E+02  0.11522633847E+02  0.00000000000E+00 0. -1.
          2    1    1    2  501    0 -0.30941740558E+02 -0.16771683364E+02  0.20797028945E+02  0.40880277452E+02  0.00000000000E+00 0. -1.
         -2    1    1    2    0  503  0.30941740558E+02  0.16771683364E+02  0.20761295522E+03  0.21057497441E+03  0.00000000000E+00 0.  1.
</event>
<event>
 4    1  0.1842931E+004  0.2167811E+02  0.7546771E-02  0.1509799E+00
         21   -1    0    0  503  502  0.00000000000E+00  0.00000000000E+00  0.96659213008E+01  0.96659213008E+01  0.00000000000E+00 0. -1.
         21   -1    0    0  501  503 -0.00000000000E+00 -0.00000000000E+00 -0.16732281489E+03  0.16732281489E+03  0.00000000000E+00 0.  1.
          2    1    1    2  501    0  0.21665265332E+02  0.74627841192E+00 -0.15336540606E+03  0.15488992359E+03  0.00000000000E+00 0.  1.
         -2    1    1    2    0  502 -0.21665265332E+02 -0.74627841192E+00 -0.42914875332E+01  0.22098812606E+02  0.00000000000E+00 0. -1.
</event>
<event>
 4    1  0.1842931E+004  0.2183390E+02  0.7546771E-02  0.1507684E+00
         21   -1    0    0  503  502  0.00000000000E+00  0.00000000000E+00  0.24644092883E+03  0.24644092883E+03  0.00000000000E+00 0. -1.
         21   -1    0    0  501  503 -0.00000000000E+00 -0.00000000000E+00 -0.21594072361E+01  0.21594072361E+01  0.00000000000E+00 0.  1.
          2    1    1    2  501    0 -0.85390099616E+01  0.20094892559E+02  0.82018373912E+02  0.84874808143E+02  0.00000000000E+00 0.  1.
         -2    1    1    2    0  502  0.85390099616E+01 -0.20094892559E+02  0.16226314768E+03  0.16372552792E+03  0.00000000000E+00 0. -1.
</event>
<event>
 4    1  0.1842931E+004  0.2062656E+02  0.7546771E-02  0.1524664E+00
         21   -1    0    0  503  502  0.00000000000E+00  0.00000000000E+00  0.25410715892E+02  0.25410715892E+02  0.00000000000E+00 0.  1.
         21   -1    0    0  501  503 -0.00000000000E+00 -0.00000000000E+00 -0.17267195559E+02  0.17267195559E+02  0.00000000000E+00 0. -1.
          2    1    1    2  501    0 -0.10972390244E+02  0.17466015685E+02  0.35424357041E+00  0.20629603488E+02  0.00000000000E+00 0. -1.
         -2    1    1    2    0  502  0.10972390244E+02 -0.17466015685E+02  0.77892767620E+01  0.22048307963E+02  0.00000000000E+00 0.  1.
</event>
<event>
 4    1  0.1842931E+004  0.2419325E+02  0.7546771E-02  0.1478034E+00
         21   -1    0    0  503  502  0.00000000000E+00  0.00000000000E+00  0.52012712948E+02  0.52012712948E+02  0.00000000000E+00 0. -1.
         21   -1    0    0  501  503 -0.00000000000E+00 -0.00000000000E+00 -0.11588519029E+02  0.11588519029E+02  0.00000000000E+00 0.  1.
          2    1    1    2  501    0 -0.21138754260E+02 -0.11767182682E+02  0.25620887037E+02  0.35238379254E+02  0.00000000000E+00 0.  1.
         -2    1    1    2    0  502  0.21138754260E+02  0.11767182682E+02  0.14803306881E+02  0.28362852722E+02  0.00000000000E+00 0. -1.
</event>
<event>
 4    1  0.1842931E+004  0.2935588E+02  0.7546771E-02  0.1425278E+00
         21   -1    0    0  503  502  0.00000000000E+00  0.00000000000E+00  0.45042270430E+02  0.45042270430E+02  0.00000000000E+00 0. -1.
         21   -1    0    0  501  503 -0.00000000000E+00 -0.00000000000E+00 -0.20943134356E+02  0.20943134356E+02  0.00000000000E+00 0.  1.
          2    1    1    2  501    0 -0.17884532334E+02 -0.23278980564E+02  0.23484327203E+01  0.29449661613E+02  0.00000000000E+00 0.  1.
         -2    1    1    2    0  502  0.17884532334E+02  0.23278980564E+02  0.21750703353E+02  0.36535743174E+02  0.00000000000E+00 0. -1.
</event>
<event>
 4    1  0.1842931E+004  0.2427684E+02  0.7546771E-02  0.1477058E+00
         21   -1    0    0  501  502  0.00000000000E+00  0.00000000000E+00  0.16784405056E+01  0.16784405056E+01  0.00000000000E+00 0. -1.
         21   -1    0    0  502  503 -0.00000000000E+00 -0.00000000000E+00 -0.82512861328E+03  0.82512861328E+03  0.00000000000E+00 0.  1.
          2    1    1    2  501    0 -0.11235381431E+02  0.21520480640E+02 -0.98397921259E+02  0.10134848687E+03  0.00000000000E+00 0. -1.
         -2    1    1    2    0  503  0.11235381431E+02 -0.21520480640E+02 -0.72505225151E+03  0.72545856691E+03  0.00000000000E+00 0.  1.
</event>
<event>
 4    1  0.1842931E+004  0.2111814E+02  0.7546771E-02  0.1517585E+00
         21   -1    0    0  501  502  0.00000000000E+00  0.00000000000E+00  0.14705617516E+01  0.14705617516E+01  0.00000000000E+00 0.  1.
         21   -1    0    0  502  503 -0.00000000000E+00 -0.00000000000E+00 -0.32340873419E+03  0.32340873419E+03  0.00000000000E+00 0. -1.
          2    1    1    2  501    0 -0.16780388624E+02  0.12821644897E+02 -0.12043304247E+03  0.12227057593E+03  0.00000000000E+00 0. -1.
         -2    1    1    2    0  503  0.16780388624E+02 -0.12821644897E+02 -0.20150512997E+03  0.20260872001E+03  0.00000000000E+00 0.  1.
</event>
<event>
 4    1  0.1842931E+004  0.2327080E+02  0.7546771E-02  0.1489125E+00
         21   -1    0    0  503  502  0.00000000000E+00  0.00000000000E+00  0.29618835509E+02  0.29618835509E+02  0.00000000000E+00 0. -1.
         21   -1    0    0  501  503 -0.00000000000E+00 -0.00000000000E+00 -0.57957782934E+02  0.57957782934E+02  0.00000000000E+00 0.  1.
          2    1    1    2  501    0 -0.22849590959E+02  0.44075140931E+01 -0.50398607004E+02  0.55511706652E+02  0.00000000000E+00 0.  1.
         -2    1    1    2    0  502  0.22849590959E+02 -0.44075140931E+01  0.22059659579E+02  0.32064911792E+02  0.00000000000E+00 0. -1.
</event>
<event>
 4    1  0.1842931E+004  0.2410088E+02  0.7546771E-02  0.1479118E+00
         21   -1    0    0  503  502  0.00000000000E+00  0.00000000000E+00  0.23610767766E+02  0.23610767766E+02  0.00000000000E+00 0. -1.
         21   -1    0    0  501  503 -0.00000000000E+00 -0.00000000000E+00 -0.27587419699E+02  0.27587419699E+02  0.00000000000E+00 0.  1.
          2    1    1    2  501    0  0.22264540355E+02 -0.92272799860E+01 -0.10410656652E+02  0.26253270751E+02  0.00000000000E+00 0.  1.
         -2    1    1    2    0  502 -0.22264540355E+02  0.92272799860E+01  0.64340047195E+01  0.24944916715E+02  0.00000000000E+00 0. -1.
</event>
<event>
 4    1  0.1842931E+004  0.3036139E+02  0.7546771E-02  0.1416481E+00
         21   -1    0    0  501  502  0.00000000000E+00  0.00000000000E+00  0.48180966939E+01  0.48180966939E+01  0.00000000000E+00 0. -1.
         21   -1    0    0  502  503 -0.00000000000E+00 -0.00000000000E+00 -0.19519597022E+03  0.19519597022E+03  0.00000000000E+00 0.  1.
          2    1    1    2  501    0  0.43313655988E+01  0.30050846150E+02 -0.10927537755E+03  0.11341482364E+03  0.00000000000E+00 0. -1.
         -2    1    1    2    0  503 -0.43313655988E+01 -0.30050846150E+02 -0.81102495974E+02  0.86599243273E+02  0.00000000000E+00 0.  1.
</event>
<event>
 4    1  0.1842931E+004  0.4606860E+02  0.7546771E-02  0.1316181E+00
         21   -1    0    0  503  502  0.00000000000E+00  0.00000000000E+00  0.33565624702E+02  0.33565624702E+02  0.00000000000E+00 0. -1.
         21   -1    0    0  501  503 -0.00000000000E+00 -0.00000000000E+00 -0.77314526341E+02  0.77314526341E+02  0.00000000000E+00 0.  1.
          2    1    1    2  501    0 -0.20029834374E+02  0.41486399278E+02 -0.45538128163E+02  0.64776822295E+02  0.00000000000E+00 0.  1.
         -2    1    1    2    0  502  0.20029834374E+02 -0.41486399278E+02  0.17892265245E+01  0.46103328748E+02  0.00000000000E+00 0. -1.
</event>
<event>
 4    1  0.1842931E+004  0.2030489E+02  0.7546771E-02  0.1529425E+00
         21   -1    0    0  503  502  0.00000000000E+00  0.00000000000E+00  0.39389012653E+02  0.39389012653E+02  0.00000000000E+00 0.  1.
         21   -1    0    0  501  503 -0.00000000000E+00 -0.00000000000E+00 -0.16897601124E+02  0.16897601124E+02  0.00000000000E+00 0. -1.
          2    1    1    2  501    0 -0.10929069395E+02 -0.17112679580E+02 -0.61157176678E+01  0.21205903962E+02  0.00000000000E+00 0. -1.
         -2    1    1    2    0  502  0.10929069395E+02  0.17112679580E+02  0.28607129197E+02  0.35080709815E+02  0.00000000000E+00 0.  1.
</event>
<event>
 4    1  0.1842931E+004  0.4937335E+02  0.7546771E-02  0.1300912E+00
         21   -1    0    0  503  502  0.00000000000E+00  0.00000000000E+00  0.38804754714E+02  0.38804754714E+02  0.00000000000E+00 0. -1.
         21   -1    0    0  501  503 -0.00000000000E+00 -0.00000000000E+00 -0.10206932826E+03  0.10206932826E+03  0.00000000000E+00 0.  1.
          2    1    1    2  501    0 -0.14527049119E+02  0.47187842131E+02 -0.75310790403E+02  0.90052444455E+02  0.00000000000E+00 0.  1.
         -2    1    1    2    0  502  0.14527049119E+02 -0.47187842131E+02  0.12046216858E+02  0.50821638518E+02  0.00000000000E+00 0. -1.
</event>
<event>
 4    1  0.1842931E+004  0.2291833E+02  0.7546771E-02  0.1493526E+00
         21   -1    0    0  501  502  0.00000000000E+00  0.00000000000E+00  0.13962767996E+03  0.13962767996E+03  0.00000000000E+00 0.  1.
         21   -1    0    0  502  503 -0.00000000000E+00 -0.00000000000E+00 -0.45634838045E+01  0.45634838045E+01  0.00000000000E+00 0. -1.
          2    1    1    2  501    0  0.18395962866E+02 -0.13668876002E+02  0.97750076964E+02  0.10040083250E+03  0.00000000000E+00 0.  1.
         -2    1    1    2    0  503 -0.18395962866E+02  0.13668876002E+02  0.37314119191E+02  0.43790331261E+02  0.00000000000E+00 0. -1.
</event>
<event>
 4    1  0.1842931E+004  0.2564399E+02  0.7546771E-02  0.1461726E+00
         21   -1    0    0  503  502  0.00000000000E+00  0.00000000000E+00  0.29719733507E+02  0.29719733507E+02  0.00000000000E+00 0. -1.
         21   -1    0    0  501  503 -0.00000000000E+00 -0.00000000000E+00 -0.22167767638E+02  0.22167767638E+02  0.00000000000E+00 0.  1.
          2    1    1    2  501    0 -0.20049072243E+01  0.25565497311E+02  0.26660561585E+01  0.25782206290E+02  0.00000000000E+00 0. -1.
         -2    1    1    2    0  502  0.20049072243E+01 -0.25565497311E+02  0.48859097111E+01  0.26105294855E+02  0.00000000000E+00 0.  1.
</event>
<event>
 4    1  0.1842931E+004  0.2839226E+02  0.7546771E-02  0.1434103E+00
         21   -1    0    0  501  502  0.00000000000E+00  0.00000000000E+00  0.23930226128E+03  0.23930226128E+03  0.00000000000E+00 0.  1.
         21   -1    0    0  502  503 -0.00000000000E+00 -0.00000000000E+00 -0.40107743321E+01  0.40107743321E+01  0.00000000000E+00 0. -1.
          2    1    1    2  501    0 -0.14846485982E+02 -0.24201283219E+02  0.16632437166E+03  0.16873030808E+03  0.00000000000E+00 0.  1.
         -2    1    1    2    0  503  0.14846485982E+02  0.24201283219E+02  0.68967115282E+02  0.74582727530E+02  0.00000000000E+00 0. -1.
</event>
<event>
 4    1  0.1842931E+004  0.3239032E+02  0.7546771E-02  0.1399901E+00
         21   -1    0    0  503  502  0.00000000000E+00  0.00000000000E+00  0.95569894908E+02  0.95569894908E+02  0.00000000000E+00 0.  1.
         21   -1    0    0  501  503 -0.00000000000E+00 -0.00000000000E+00 -0.14678109342E+02  0.14678109342E+02  0.00000000000E+00 0. -1.
          2    1    1    2  501    0 -0.93893476977E+01 -0.30999563463E+02  0.68123818790E+02  0.75432005618E+02  0.00000000000E+00 0. -1.
         -2    1    1    2    0  502  0.93893476977E+01  0.30999563463E+02  0.12767966776E+02  0.34815998632E+02  0.00000000000E+00 0.  1.
</event>
<event>
 4    1  0.1842931E+004  0.2257840E+02  0.7546771E-02  0.1497861E+00
         21   -1    0    0  503  502  0.00000000000E+00  0.00000000000E+00  0.64869668738E+02  0.64869668738E+02  0.00000000000E+00 0.  1.
         21   -1    0    0  501  503 -0.00000000000E+00 -0.00000000000E+00 -0.88861143867E+01  0.88861143867E+01  0.00000000000E+00 0. -1.
          2    1    1    2  501    0  0.20853574176E+02  0.86552030089E+01  0.15451523660E+02  0.27359343531E+02  0.00000000000E+00 0. -1.
         -2    1    1    2    0  502 -0.20853574176E+02 -0.86552030089E+01  0.40532030691E+02  0.46396439594E+02  0.00000000000E+00 0.  1.
</event>
<event>
 4    1  0.1842931E+004  0.2027619E+02  0.7546771E-02  0.1529855E+00
         21   -1    0    0  501  502  0.00000000000E+00  0.00000000000E+00  0.58569761106E+02  0.58569761106E+02  0.00000000000E+00 0. -1.
         21   -1    0    0  502  503 -0.00000000000E+00 -0.00000000000E+00 -0.97811534328E+01  0.97811534328E+01  0.00000000000E+00 0.  1.
          2    1    1    2  501    0 -0.13238890368E+02  0.15357593003E+02  0.42554171922E+02  0.47137898012E+02  0.00000000000E+00 0. -1.
         -2    1    1    2    0  503  0.13238890368E+02 -0.15357593003E+02  0.62344357512E+01  0.21213016527E+02  0.00000000000E+00 0.  1.
</event>
<event>
 4    1  0.1842931E+004  0.2161353E+02  0.7546771E-02  0.1510683E+00
         21   -1    0    0  503  502  0.00000000000E+00  0.00000000000E+00  0.55501419913E+02  0.55501419913E+02  0.00000000000E+00 0. -1.
         21   -1    0    0  501  503 -0.00000000000E+00 -0.00000000000E+00 -0.94842250129E+02  0.94842250129E+02  0.00000000000E+00 0.  1.
          2    1    1    2  501    0  0.19022131416E+02  0.10261741745E+02 -0.91429192540E+02  0.93949146221E+02  0.00000000000E+00 0.  1.
         -2    1    1    2    0  502 -0.19022131416E+02 -0.10261741745E+02  0.52088362324E+02  0.56394523820E+02  0.00000000000E+00 0. -1.
</event>
<event>
 4    1  0.1842931E+004  0.2590144E+02  0.7546771E-02  0.1458967E+00
         21   -1    0    0  503  502  0.00000000000E+00  0.00000000000E+00  0.10598096848E+01  0.10598096848E+01  0.00000000000E+00 0. -1.
         21   -1    0    0  501  503 -0.00000000000E+00 -0.00000000000E+00 -0.89027539400E+03  0.89027539400E+03  0.00000000000E+00 0.  1.
          2    1    1    2  501    0  0.21662059127E+02 -0.14199994610E+02 -0.68417534507E+03  0.68466545660E+03  0.00000000000E+00 0.  1.
         -2    1    1    2    0  502 -0.21662059127E+02  0.14199994610E+02 -0.20504023924E+03  0.20666974709E+03  0.00000000000E+00 0. -1.
</event>
<event>
 4    1  0.1842931E+004  0.2215151E+02  0.7546771E-02  0.1503437E+00
         21   -1    0    0  503  502  0.00000000000E+00  0.00000000000E+00  0.40348106762E+03  0.40348106762E+03  0.00000000000E+00 0. -1.
         21   -1    0    0  501  503 -0.00000000000E+00 -0.00000000000E+00 -0.40166806454E+01  0.40166806454E+01  0.00000000000E+00 0.  1.
          2    1    1    2  501    0 -0.10978512472E+02  0.19239583814E+02  0.29601554338E+02  0.36972169813E+02  0.00000000000E+00 0.  1.
         -2    1    1    2    0  502  0.10978512472E+02 -0.19239583814E+02  0.36986283263E+03  0.37052557845E+03  0.00000000000E+00 0. -1.
</event>
<event>
 4    1  0.1842931E+004  0.2887073E+02  0.7546771E-02  0.1429670E+00
         21   -1    0    0  503  502  0.00000000000E+00  0.00000000000E+00  0.14169717137E+03  0.14169717137E+03  0.00000000000E+00 0.  1.
         21   -1    0    0  501  503 -0.00000000000E+00 -0.00000000000E+00 -0.60270952558E+01  0.60270952558E+01  0.00000000000E+00 0. -1.
          2    1    1    2  501    0 -0.26340830299E+02 -0.11818605572E+02  0.56390402164E+02  0.63351371215E+02  0.00000000000E+00 0. -1.
         -2    1    1    2    0  502  0.26340830299E+02  0.11818605572E+02  0.79279673954E+02  0.84372895415E+02  0.00000000000E+00 0.  1.
</event>
<event>
 4    1  0.1842931E+004  0.3471702E+02  0.7546771E-02  0.1382564E+00
         21   -1    0    0  501  502  0.00000000000E+00  0.00000000000E+00  0.64434466268E+01  0.64434466268E+01  0.00000000000E+00 0.  1.
         21   -1    0    0  502  503 -0.00000000000E+00 -0.00000000000E+00 -0.19018331005E+03  0.19018331005E+03  0.00000000000E+00 0. -1.
          2    1    1    2  501    0 -0.33289975933E+02 -0.98513485645E+01 -0.79258615940E+02  0.86528606639E+02  0.00000000000E+00 0. -1.
         -2    1    1    2    0  503  0.33289975933E+02  0.98513485645E+01 -0.10448124748E+03  0.11009815004E+03  0.00000000000E+00 0.  1.
</event>
<event>
 4    1  0.1842931E+004  0.2923082E+02  0.7546771E-02  0.1426400E+00
         21   -1    0    0  501  502  0.00000000000E+00  0.00000000000E+00  0.49727898346E+03  0.49727898346E+03  0.00000000000E+00 0.  1.
         21   -1    0    0  502  503 -0.00000000000E+00 -0.00000000000E+00 -0.34678226016E+01  0.34678226016E+01  0.00000000000E+00 0. -1.
          2    1    1    2  501    0 -0.28799211528E+02 -0.50046475407E+01  0.42474493345E+03  0.42574957377E+03  0.00000000000E+00 0.  1.
         -2    1    1    2    0  503  0.28799211528E+02  0.50046475407E+01  0.69066227409E+02  0.74997232283E+02  0.00000000000E+00 0. -1.
</event>
<event>
 4    1  0.1842931E+004  0.3275944E+02  0.7546771E-02  0.1397038E+00
         21   -1    0    0  503  502  0.00000000000E+00  0.00000000000E+00  0.10736753751E+02  0.10736753751E+02  0.00000000000E+00 0.  1.
         21   -1    0    0  501  503 -0.00000000000E+00 -0.00000000000E+00 -0.33811470141E+03  0.33811470141E+03  0.00000000000E+00 0. -1.
          2    1    1    2  501    0 -0.99444112277E+01 -0.31213607210E+02 -0.31007972601E+03  0.31180541540E+03  0.00000000000E+00 0. -1.
         -2    1    1    2    0  502  0.99444112277E+01  0.31213607210E+02 -0.17298221645E+02  0.37046039759E+02  0.00000000000E+00 0.  1.
</event>
<event>
 4    1  0.1842931E+004  0.3990723E+02  0.7546771E-02  0.1349030E+00
         21   -1    0    0  503  502  0.00000000000E+00  0.00000000000E+00  0.24822856767E+02  0.24822856767E+02  0.00000000000E+00 0. -1.
         21   -1    0    0  501  503 -0.00000000000E+00 -0.00000000000E+00 -0.19487144149E+03  0.19487144149E+03  0.00000000000E+00 0.  1.
          2    1    1    2  501    0  0.35302095377E+02  0.18610446549E+02 -0.17498952232E+03  0.17948236566E+03  0.00000000000E+00 0.  1.
         -2    1    1    2    0  502 -0.35302095377E+02 -0.18610446549E+02  0.49409376046E+01  0.40211932596E+02  0.00000000000E+00 0. -1.
</event>
<event>
 4    1  0.1842931E+004  0.2856632E+02  0.7546771E-02  0.1432478E+00
         21   -1    0    0  501  502  0.00000000000E+00  0.00000000000E+00  0.10512541185E+03  0.10512541185E+03  0.00000000000E+00 0. -1.
         21   -1    0    0  502  503 -0.00000000000E+00 -0.00000000000E+00 -0.78042684537E+01  0.78042684537E+01  0.00000000000E+00 0.  1.
          2    1    1    2  501    0  0.28526671169E+02 -0.15045246956E+01  0.52792071586E+02  0.60025306205E+02  0.00000000000E+00 0. -1.
         -2    1    1    2    0  503 -0.28526671169E+02  0.15045246956E+01  0.44529071810E+02  0.52904374099E+02  0.00000000000E+00 0.  1.
</event>
<event>
 4    1  0.1842931E+004  0.2271790E+02  0.7546771E-02  0.1496071E+00
         21   -1    0    0  501  502  0.00000000000E+00  0.00000000000E+00  0.11994866445E+03  0.11994866445E+03  0.00000000000E+00 0. -1.
         21   -1    0    0  502  503 -0.00000000000E+00 -0.00000000000E+00 -0.20286438276E+02  0.20286438276E+02  0.00000000000E+00 0.  1.
          2    1    1    2  501    0  0.13243682565E+02  0.18458270460E+02  0.11207017620E+03  0.11434958360E+03  0.00000000000E+00 0. -1.
         -2    1    1    2    0  503 -0.13243682565E+02 -0.18458270460E+02 -0.12407950030E+02  0.25885519122E+02  0.00000000000E+00 0.  1.
</event>
<event>
 4    1  0.1842931E+004  0.2319188E+02  0.7546771E-02  0.1490103E+00
         21   -1    0    0  501  502  0.00000000000E+00  0.00000000000E+00  0.19270487122E+01  0.19270487122E+01  0.00000000000E+00 0. -1.
         21   -1    0    0  502  503 -0.00000000000E+00 -0.00000000000E+00 -0.29749729935E+03  0.29749729935E+03  0.00000000000E+00 0.  1.
          2    1    1    2  501    0 -0.22813438128E+02 -0.41725593948E+01 -0.11056771864E+03  0.11297381828E+03  0.00000000000E+00 0. -1.
         -2    1    1    2    0  503  0.22813438128E+02  0.41725593948E+01 -0.18500253200E+03  0.18645052979E+03  0.00000000000E+00 0.  1.
</event>
<event>
 4    1  0.1842931E+004  0.2467557E+02  0.7546771E-02  0.1472466E+00
         21   -1    0    0  503  502  0.00000000000E+00  0.00000000000E+00  0.14088314386E+02  0.14088314386E+02  0.00000000000E+00 0. -1.
         21   -1    0    0  501  503 -0.00000000000E+00 -0.00000000000E+00 -0.44679845666E+02  0.44679845666E+02  0.00000000000E+00 0.  1.
          2    1    1    2  501    0  0.15073231153E+02  0.19536669326E+02 -0.20608879012E+02  0.32149799997E+02  0.00000000000E+00 0.  1.
         -2    1    1    2    0  502 -0.15073231153E+02 -0.19536669326E+02 -0.99826522681E+01  0.26618360055E+02  0.00000000000E+00 0. -1.
</event>
<event>
 4    1  0.1842931E+004  0.5010822E+02  0.7546771E-02  0.1297704E+00
         21   -1    0    0  503  502  0.00000000000E+00  0.00000000000E+00  0.11806147286E+02  0.11806147286E+02  0.00000000000E+00 0. -1.
         21   -1    0    0  501  503 -0.00000000000E+00 -0.00000000000E+00 -0.64613445025E+03  0.64613445025E+03  0.00000000000E+00 0.  1.
          2    1    1    2  501    0 -0.35102981629E+02 -0.35757720382E+02 -0.58660976122E+03  0.58874599433E+03  0.00000000000E+00 0.  1.
         -2    1    1    2    0  502  0.35102981629E+02  0.35757720382E+02 -0.47718541744E+02  0.69194603202E+02  0.00000000000E+00 0. -1.
</event>
<event>
 4    1  0.1842931E+004  0.2302742E+02  0.7546771E-02  0.1492154E+00
         21   -1    0    0  503  502  0.00000000000E+00  0.00000000000E+00  0.28521315702E+03  0.28521315702E+03  0.00000000000E+00 0.  1.
         21   -1    0    0  501  503 -0.00000000000E+00 -0.00000000000E+00 -0.13835178319E+02  0.13835178319E+02  0.00000000000E+00 0. -1.
          2    1    1    2  501    0 -0.13928573382E+02 -0.18337303478E+02 -0.34263192260E+01  0.23280926071E+02  0.00000000000E+00 0. -1.
         -2    1    1    2    0  502  0.13928573382E+02  0.18337303478E+02  0.27480429793E+03  0.27576740927E+03  0.00000000000E+00 0.  1.
</event>
<event>
 4    1  0.1842931E+004  0.2149736E+02  0.7546771E-02  0.1512281E+00
         21   -1    0    0  503  502  0.00000000000E+00  0.00000000000E+00  0.93231453374E+01  0.93231453374E+01  0.00000000000E+00 0. -1.
         21   -1    0    0  501  503 -0.00000000000E+00 -0.00000000000E+00 -0.49945567166E+02  0.49945567166E+02  0.00000000000E+00 0.  1.
          2    1    1    2  501    0 -0.34639398261E+01 -0.21216442910E+02 -0.22885355026E+02  0.31398659263E+02  0.00000000000E+00 0.  1.
         -2    1    1    2    0  502  0.34639398261E+01  0.21216442910E+02 -0.17737066803E+02  0.27870053240E+02  0.00000000000E+00 0. -1.
</event>
<event>
 4    1  0.1842931E+004  0.2143479E+02  0.7546771E-02  0.1513147E+00
         21   -1    0    0  501  502  0.00000000000E+00  0.00000000000E+00  0.12817794283E+01  0.12817794283E+01  0.00000000000E+00 0.  1.
         21   -1    0    0  502  503 -0.00000000000E+00 -0.00000000000E+00 -0.46915290372E+03  0.46915290372E+03  0.00000000000E+00 0. -1.
          2    1    1    2  501    0  0.21420806093E+02 -0.77412071360E+00 -0.11967477573E+03  0.12157920111E+03  0.00000000000E+00 0.  1.
         -2    1    1    2    0  503 -0.21420806093E+02  0.77412071360E+00 -0.34819634856E+03  0.34885548203E+03  0.00000000000E+00 0. -1.
</event>
<event>
 4    1  0.1842931E+004  0.3355382E+02  0.7546771E-02  0.1391026E+00
         21   -1    0    0  501  502  0.00000000000E+00  0.00000000000E+00  0.27130871297E+02  0.27130871297E+02  0.00000000000E+00 0.  1.
         21   -1    0    0  502  503 -0.00000000000E+00 -0.00000000000E+00 -0.10689266264E+03  0.10689266264E+03  0.00000000000E+00 0. -1.
          2    1    1    2  501    0  0.31988966460E+02  0.10127421168E+02  0.12533491080E+02  0.35818250004E+02  0.00000000000E+00 0.  1.
         -2    1    1    2    0  503 -0.31988966460E+02 -0.10127421168E+02 -0.92295282427E+02  0.98205283936E+02  0.00000000000E+00 0. -1.
</event>
<event>
 4    1  0.1842931E+004  0.3144355E+02  0.7546771E-02  0.1407453E+00
         21   -1    0    0  503  502  0.00000000000E+00  0.00000000000E+00  0.43604392241E+02  0.43604392241E+02  0.00000000000E+00 0. -1.
         21   -1    0    0  501  503 -0.00000000000E+00 -0.00000000000E+00 -0.22990311386E+02  0.22990311386E+02  0.00000000000E+00 0.  1.
          2    1    1    2  501    0 -0.31401242238E+02 -0.16305361023E+01  0.64028895640E+01  0.32088840067E+02  0.00000000000E+00 0. -1.
         -2    1    1    2    0  502  0.31401242238E+02  0.16305361023E+01  0.14211191291E+02  0.34505863560E+02  0.00000000000E+00 0.  1.
</event>
<event>
 4    1  0.1842931E+004  0.2421505E+02  0.7546771E-02  0.1477779E+00
         21   -1    0    0  501  502  0.00000000000E+00  0.00000000000E+00  0.10537706436E+03  0.10537706436E+03  0.00000000000E+00 0.  1.
         21   -1    0    0  502  503 -0.00000000000E+00 -0.00000000000E+00 -0.67349926893E+01  0.67349926893E+01  0.00000000000E+00 0. -1.
          2    1    1    2  501    0  0.21723252730E+02 -0.10699005200E+02  0.72690140878E+02  0.76617393601E+02  0.00000000000E+00 0.  1.
         -2    1    1    2    0  503 -0.21723252730E+02  0.10699005200E+02  0.25951930795E+02  0.35494663450E+02  0.00000000000E+00 0. -1.
</event>
<event>
 4    1  0.1842931E+004  0.2015383E+02  0.7546771E-02  0.1531697E+00
         21   -1    0    0  501  502  0.00000000000E+00  0.00000000000E+00  0.43848656792E+01  0.43848656792E+01  0.00000000000E+00 0.  1.
         21   -1    0    0  502  503 -0.00000000000E+00 -0.00000000000E+00 -0.10531127267E+03  0.10531127267E+03  0.00000000000E+00 0. -1.
          2    1    1    2  501    0  0.16876893734E+02 -0.11015775644E+02 -0.31431442161E+02  0.37337814766E+02  0.00000000000E+00 0.  1.
         -2    1    1    2    0  503 -0.16876893734E+02  0.11015775644E+02 -0.69494964835E+02  0.72358323588E+02  0.00000000000E+00 0. -1.
</event>
<event>
 4    1  0.1842931E+004  0.2140790E+02  0.7546771E-02  0.1513520E+00
         21   -1    0    0  503  502  0.00000000000E+00  0.00000000000E+00  0.36353108053E+03  0.36353108053E+03  0.00000000000E+00 0.  1.
         21   -1    0    0  501  503 -0.00000000000E+00 -0.00000000000E+00 -0.13322694683E+01  0.13322694683E+01  0.00000000000E+00 0. -1.
          2    1    1    2  501    0  0.14729802888E+02  0.15534839709E+02  0.13881187791E+03  0.14045296646E+03  0.00000000000E+00 0. -1.
         -2    1    1    2    0  502 -0.14729802888E+02 -0.15534839709E+02  0.22338693316E+03  0.22441038354E+03  0.00000000000E+00 0.  1.
</event>
<event>
 4    1  0.1842931E+004  0.2246297E+02  0.7546771E-02  0.1499354E+00
         21   -1    0    0  503  502  0.00000000000E+00  0.00000000000E+00  0.35161427229E+03  0.35161427229E+03  0.00000000000E+00 0.  1.
         21   -1    0    0  501  503 -0.00000000000E+00 -0.00000000000E+00 -0.71410559483E+01  0.71410559483E+01  0.00000000000E+00 0. -1.
          2    1    1    2  501    0 -0.35951190601E+01  0.22173411614E+02  0.11892447740E+02  0.25416832550E+02  0.00000000000E+00 0. -1.
         -2    1    1    2    0  502  0.35951190601E+01 -0.22173411614E+02  0.33258076860E+03  0.33333849569E+03  0.00000000000E+00 0.  1.
</event>
<event>
 4    1  0.1842931E+004  0.2333575E+02  0.7546771E-02  0.1488325E+00
         21   -1    0    0  501  502  0.00000000000E+00  0.00000000000E+00  0.12064989960E+03  0.12064989960E+03  0.00000000000E+00 0. -1.
         21   -1    0    0  502  503 -0.00000000000E+00 -0.00000000000E+00 -0.17211344211E+02  0.17211344211E+02  0.00000000000E+00 0.  1.
          2    1    1    2  501    0  0.10732314575E+02  0.20721357089E+02  0.11092575841E+03  0.11335378730E+03  0.00000000000E+00 0. -1.
         -2    1    1    2    0  503 -0.10732314575E+02 -0.20721357089E+02 -0.74872030215E+01  0.24507456515E+02  0.00000000000E+00 0.  1.
</event>
<event>
 4    1  0.1842931E+004  0.2598175E+02  0.7546771E-02  0.1458114E+00
         21   -1    0    0  501  502  0.00000000000E+00  0.00000000000E+00  0.75167501406E+02  0.75167501406E+02  0.00000000000E+00 0. -1.
         21   -1    0    0  502  503 -0.00000000000E+00 -0.00000000000E+00 -0.10076006744E+02  0.10076006744E+02  0.00000000000E+00 0.  1.
          2    1    1    2  501    0  0.25945798730E+02 -0.13663392126E+01  0.46598755012E+02  0.53352556857E+02  0.00000000000E+00 0. -1.
         -2    1    1    2    0  503 -0.25945798730E+02  0.13663392126E+01  0.18492739650E+02  0.31890951293E+02  0.00000000000E+00 0.  1.
</event>
<event>
 4    1  0.1842931E+004  0.2161159E+02  0.7546771E-02  0.1510709E+00
         21   -1    0    0  501  502  0.00000000000E+00  0.00000000000E+00  0.62113336055E+01  0.62113336055E+01  0.00000000000E+00 0.  1.
         21   -1    0    0  502  503 -0.00000000000E+00 -0.00000000000E+00 -0.76039713130E+02  0.76039713130E+02  0.00000000000E+00 0. -1.
          2    1    1    2  501    0 -0.45355954955E+01  0.21130290926E+02 -0.39248926907E+02  0.44805569792E+02  0.00000000000E+00 0.  1.
         -2    1    1    2    0  503  0.45355954955E+01 -0.21130290926E+02 -0.30579452618E+02  0.37445476943E+02  0.00000000000E+00 0. -1.
</event>
<event>
 4    1  0.1842931E+004  0.4077053E+02  0.7546771E-02  0.1344029E+00
         21   -1    0    0  503  502  0.00000000000E+00  0.00000000000E+00  0.99168530676E+01  0.99168530676E+01  0.00000000000E+00 0.  1.
         21   -1    0    0  501  503 -0.00000000000E+00 -0.00000000000E+00 -0.30013302130E+03  0.30013302130E+03  0.00000000000E+00 0. -1.
          2    1    1    2  501    0 -0.20681281775E+01 -0.40718042567E+02 -0.24811784403E+03  0.25144522399E+03  0.00000000000E+00 0. -1.
         -2    1    1    2    0  502  0.20681281775E+01  0.40718042567E+02 -0.42098324209E+02  0.58604650378E+02  0.00000000000E+00 0.  1.
</event>
<event>
 4    1  0.1842931E+004  0.3136472E+02  0.7546771E-02  0.1408096E+00
         21   -1    0    0  503  502  0.00000000000E+00  0.00000000000E+00  0.13632060680E+03  0.13632060680E+03  0.00000000000E+00 0.  1.
         21   -1    0    0  501  503 -0.00000000000E+00 -0.00000000000E+00 -0.11532503770E+02  0.11532503770E+02  0.00000000000E+00 0. -1.
          2    1    1    2  501    0  0.31162986507E+02 -0.35515850812E+01  0.17168479524E+02  0.35756148755E+02  0.00000000000E+00 0. -1.
         -2    1    1    2    0  502 -0.31162986507E+02  0.35515850812E+01  0.10761962351E+03  0.11209696181E+03  0.00000000000E+00 0.  1.
</event>
<event>
 4    1  0.1842931E+004  0.2265967E+02  0.7546771E-02  0.1496816E+00
         21   -1    0    0  501  502  0.00000000000E+00  0.00000000000E+00  0.54794601734E+01  0.54794601734E+01  0.00000000000E+00 0.  1.
         21   -1    0    0  502  503 -0.00000000000E+00 -0.00000000000E+00 -0.97798728888E+02  0.97798728888E+02  0.00000000000E+00 0. -1.
          2    1    1    2  501    0  0.22375484508E+02 -0.35774845817E+01 -0.35596442079E+02  0.42196769919E+02  0.00000000000E+00 0.  1.
         -2    1    1    2    0  503 -0.22375484508E+02  0.35774845817E+01 -0.56722826635E+02  0.61081419141E+02  0.00000000000E+00 0. -1.
</event>
<event>
 4    1  0.1842931E+004  0.2439563E+02  0.7546771E-02  0.1475679E+00
         21   -1    0    0  503  502  0.00000000000E+00  0.00000000000E+00  0.68383031914E+03  0.68383031914E+03  0.00000000000E+00 0.  1.
         21   -1    0    0  501  503 -0.00000000000E+00 -0.00000000000E+00 -0.37710913776E+01  0.37710913776E+01  0.00000000000E+00 0. -1.
          2    1    1    2  501    0 -0.13416622465E+02  0.20375010429E+02  0.38499655930E+02  0.45578178058E+02  0.00000000000E+00 0. -1.
         -2    1    1    2    0  502  0.13416622465E+02 -0.20375010429E+02  0.64155957183E+03  0.64202323246E+03  0.00000000000E+00 0.  1.
</event>
<event>
 4    1  0.1842931E+004  0.2089153E+02  0.7546771E-02  0.1520819E+00
         21   -1    0    0  503  502  0.00000000000E+00  0.00000000000E+00  0.32190880022E+01  0.32190880022E+01  0.00000000000E+00 0. -1.
         21   -1    0    0  501  503 -0.00000000000E+00 -0.00000000000E+00 -0.31070879807E+03  0.31070879807E+03  0.00000000000E+00 0.  1.
          2    1    1    2  501    0  0.30328817887E+01 -0.20670211486E+02 -0.27158608351E+03  0.27238842995E+03  0.00000000000E+00 0.  1.
         -2    1    1    2    0  502 -0.30328817887E+01  0.20670211486E+02 -0.35903626556E+02  0.41539456119E+02  0.00000000000E+00 0. -1.
</event>
<event>
 4    1  0.1842931E+004  0.2530682E+02  0.7546771E-02  0.1465400E+00
         21   -1    0    0  503  502  0.00000000000E+00  0.00000000000E+00  0.54231519949E+00  0.54231519949E+00  0.00000000000E+00 0.  1.
         21   -1    0    0  501  503 -0.00000000000E+00 -0.00000000000E+00 -0.19194563871E+04  0.19194563871E+04  0.00000000000E+00 0. -1.
          2    1    1    2  501    0  0.25205275858E+02  0.22647535258E+01 -0.15549347339E+04  0.15551406566E+04  0.00000000000E+00 0. -1.
         -2    1    1    2    0  502 -0.25205275858E+02 -0.22647535258E+01 -0.36397933801E+03  0.36485804574E+03  0.00000000000E+00 0.  1.
</event>
<event>
 4    1  0.1842931E+004  0.4010472E+02  0.7546771E-02  0.1347873E+00
         21   -1    0    0  501  502  0.00000000000E+00  0.00000000000E+00  0.20274089354E+02  0.20274089354E+02  0.00000000000E+00 0. -1.
         21   -1    0    0  502  503 -0.00000000000E+00 -0.00000000000E+00 -0.18555922665E+03  0.18555922665E+03  0.00000000000E+00 0.  1.
          2    1    1    2  501    0 -0.39928113057E+02 -0.37595974122E+01 -0.47740625425E+01  0.40387875138E+02  0.00000000000E+00 0. -1.
         -2    1    1    2    0  503  0.39928113057E+02  0.37595974122E+01 -0.16051107475E+03  0.16544544086E+03  0.00000000000E+00 0.  1.
</event>
<event>
 4    1  0.1842931E+004  0.3069418E+02  0.7546771E-02  0.1413658E+00
         21   -1    0    0  503  502  0.00000000000E+00  0.00000000000E+00  0.28380516474E+03  0.28380516474E+03  0.00000000000E+00 0. -1.
         21   -1    0    0  501  503 -0.00000000000E+00 -0.00000000000E+00 -0.33854726093E+01  0.33854726093E+01  0.00000000000E+00 0.  1.
          2    1    1    2  501    0 -0.11347583433E+02 -0.28519560522E+02  0.12018690545E+03  0.12404444859E+03  0.00000000000E+00 0.  1.
         -2    1    1    2    0  502  0.11347583433E+02  0.28519560522E+02  0.16023278667E+03  0.16314618876E+03  0.00000000000E+00 0. -1.
</event>
<event>
 4    1  0.1842931E+004  0.5671078E+02  0.7546771E-02  0.1271437E+00
         21   -1    0    0  501  502  0.00000000000E+00  0.00000000000E+00  0.11495559628E+03  0.11495559628E+03  0.00000000000E+00 0. -1.
         21   -1    0    0  502  503 -0.00000000000E+00 -0.00000000000E+00 -0.35231953967E+02  0.35231953967E+02  0.00000000000E+00 0.  1.
          2    1    1    2  501    0  0.88015191296E+01 -0.56023623321E+02  0.73938150063E+02  0.93182418641E+02  0.00000000000E+00 0. -1.
         -2    1    1    2    0  503 -0.88015191296E+01  0.56023623321E+02  0.57854922525E+01  0.57005131608E+02  0.00000000000E+00 0.  1.
</event>
<event>
 4    1  0.1842931E+004  0.2731407E+02  0.7546771E-02  0.1444479E+00
         21   -1    0    0  501  502  0.00000000000E+00  0.00000000000E+00  0.32607584927E+01  0.32607584927E+01  0.00000000000E+00 0.  1.
         21   -1    0    0  502  503 -0.00000000000E+00 -0.00000000000E+00 -0.23926617226E+03  0.23926617226E+03  0.00000000000E+00 0. -1.
          2    1    1    2  501    0  0.18089854808E+02 -0.20464977951E+02 -0.92639467078E+02  0.96582239724E+02  0.00000000000E+00 0.  1.
         -2    1    1    2    0  503 -0.18089854808E+02  0.20464977951E+02 -0.14336594669E+03  0.14594469103E+03  0.00000000000E+00 0. -1.
</event>
<event>
 4    1  0.1842931E+004  0.2052915E+02  0.7546771E-02  0.1526095E+00
         21   -1    0    0  503  502  0.00000000000E+00  0.00000000000E+00  0.11715983064E+01  0.11715983064E+01  0.00000000000E+00 0.  1.
         21   -1    0    0  501  503 -0.00000000000E+00 -0.00000000000E+00 -0.63200479763E+03  0.63200479763E+03  0.00000000000E+00 0. -1.
          2    1    1    2  501    0 -0.16637449521E+02 -0.12026685399E+02 -0.52321740220E+03  0.52361999184E+03  0.00000000000E+00 0. -1.
         -2    1    1    2    0  502  0.16637449521E+02  0.12026685399E+02 -0.10761579712E+03  0.10955640409E+03  0.00000000000E+00 0.  1.
</event>
<event>
 4    1  0.1842931E+004  0.2628546E+02  0.7546771E-02  0.1454921E+00
         21   -1    0    0  503  502  0.00000000000E+00  0.00000000000E+00  0.10976778908E+03  0.10976778908E+03  0.00000000000E+00 0.  1.
         21   -1    0    0  501  503 -0.00000000000E+00 -0.00000000000E+00 -0.75598743201E+01  0.75598743201E+01  0.00000000000E+00 0. -1.
          2    1    1    2  501    0 -0.25252311151E+02 -0.72970068421E+01  0.27102651413E+02  0.37755519344E+02  0.00000000000E+00 0. -1.
         -2    1    1    2    0  502  0.25252311151E+02  0.72970068421E+01  0.75105263350E+02  0.79572144059E+02  0.00000000000E+00 0.  1.
</event>
<event>
 4    1  0.1842931E+004  0.2550020E+02  0.7546771E-02  0.1463285E+00
         21   -1    0    0  503  502  0.00000000000E+00  0.00000000000E+00  0.19213177821E+02  0.19213177821E+02  0.00000000000E+00 0.  1.
         21   -1    0    0  501  503 -0.00000000000E+00 -0.00000000000E+00 -0.37980503641E+02  0.37980503641E+02  0.00000000000E+00 0. -1.
          2    1    1    2  501    0 -0.24533571932E+02 -0.69544121411E+01 -0.18820560400E+02  0.31693429819E+02  0.00000000000E+00 0.  1.
         -2    1    1    2    0  502  0.24533571932E+02  0.69544121411E+01  0.53234579813E-01  0.25500251643E+02  0.00000000000E+00 0. -1.
</event>
<event>
 4    1  0.1842931E+004  0.2163746E+02  0.7546771E-02  0.1510355E+00
         21   -1    0    0  501  502  0.00000000000E+00  0.00000000000E+00  0.28279469850E+02  0.28279469850E+02  0.00000000000E+00 0. -1.
         21   -1    0    0  502  503 -0.00000000000E+00 -0.00000000000E+00 -0.13325388768E+03  0.13325388768E+03  0.00000000000E+00 0.  1.
          2    1    1    2  501    0 -0.10912328106E+01 -0.21609926855E+02  0.23095904311E+02  0.31648072985E+02  0.00000000000E+00 0. -1.
         -2    1    1    2    0  503  0.10912328106E+01  0.21609926855E+02 -0.12807032214E+03  0.12988528455E+03  0.00000000000E+00 0.  1.
</event>
<event>
 4    1  0.1842931E+004  0.2536724E+02  0.7546771E-02  0.1464737E+00
         21   -1    0    0  501  502  0.00000000000E+00  0.00000000000E+00  0.36388520839E+03  0.36388520839E+03  0.00000000000E+00 0. -1.
         21   -1    0    0  502  503 -0.00000000000E+00 -0.00000000000E+00 -0.18092279202E+01  0.18092279202E+01  0.00000000000E+00 0.  1.
          2    1    1    2  501    0 -0.21926461988E+02 -0.12756449050E+02  0.20850360228E+03  0.21004106478E+03  0.00000000000E+00 0. -1.
         -2    1    1    2    0  503  0.21926461988E+02  0.12756449050E+02  0.15357237818E+03  0.15565337153E+03  0.00000000000E+00 0.  1.
</event>
<event>
 4    1  0.1842931E+004  0.2367614E+02  0.7546771E-02  0.1484178E+00
         21   -1    0    0  501  502  0.00000000000E+00  0.00000000000E+00  0.14368493433E+03  0.14368493433E+03  0.00000000000E+00 0.  1.
         21   -1    0    0  502  503 -0.00000000000E+00 -0.00000000000E+00 -0.15551230866E+02  0.15551230866E+02  0.00000000000E+00 0. -1.
          2    1    1    2  501    0 -0.23676111595E+02 -0.35416994172E-01  0.13297821032E+03  0.13506947817E+03  0.00000000000E+00 0.  1.
         -2    1    1    2    0  503  0.23676111595E+02  0.35416994172E-01 -0.48445068601E+01  0.24166687017E+02  0.00000000000E+00 0. -1.
</event>
<event>
 4    1  0.1842931E+004  0.2576406E+02  0.7546771E-02  0.1460435E+00
         21   -1    0    0  503  502  0.00000000000E+00  0.00000000000E+00  0.25434482289E+01  0.25434482289E+01  0.00000000000E+00 0. -1.
         21   -1    0    0  501  503 -0.00000000000E+00 -0.00000000000E+00 -0.35883664065E+03  0.35883664065E+03  0.00000000000E+00 0.  1.
          2    1    1    2  501    0 -0.25302641625E+02 -0.48541779825E+01 -0.27250554202E+03  0.27372076492E+03  0.00000000000E+00 0.  1.
         -2    1    1    2    0  502  0.25302641625E+02  0.48541779825E+01 -0.83787650402E+02  0.87659323959E+02  0.00000000000E+00 0. -1.
</event>
<event>
 4    1  0.1842931E+004  0.2356130E+02  0.7546771E-02  0.1485568E+00
         21   -1    0    0  501  502  0.00000000000E+00  0.00000000000E+00  0.31019383034E+03  0.31019383034E+03  0.00000000000E+00 0.  1.
         21   -1    0    0  502  503 -0.00000000000E+00 -0.00000000000E+00 -0.23000476928E+01  0.23000476928E+01  0.00000000000E+00 0. -1.
          2    1    1    2  501    0  0.35099935484E+01  0.23298390509E+02  0.22755099366E+03  0.22876754527E+03  0.00000000000E+00 0.  1.
         -2    1    1    2    0  503 -0.35099935484E+01 -0.23298390509E+02  0.80342788992E+02  0.83726332764E+02  0.00000000000E+00 0. -1.
</event>
<event>
 4    1  0.1842931E+004  0.2353458E+02  0.7546771E-02  0.1485892E+00
         21   -1    0    0  501  502  0.00000000000E+00  0.00000000000E+00  0.10804560575E+02  0.10804560575E+02  0.00000000000E+00 0.  1.
         21   -1    0    0  502  503 -0.00000000000E+00 -0.00000000000E+00 -0.93972207606E+02  0.93972207606E+02  0.00000000000E+00 0. -1.
          2    1    1    2  501    0 -0.22175437480E+02  0.78820284650E+01 -0.62659127820E+01  0.24354425946E+02  0.00000000000E+00 0.  1.
         -2    1    1    2    0  503  0.22175437480E+02 -0.78820284650E+01 -0.76901734249E+02  0.80422342236E+02  0.00000000000E+00 0. -1.
</event>
<event>
 4    1  0.1842931E+004  0.2446756E+02  0.7546771E-02  0.1474849E+00
         21   -1    0    0  501  502  0.00000000000E+00  0.00000000000E+00  0.15935919873E+02  0.15935919873E+02  0.00000000000E+00 0. -1.
         21   -1    0    0  502  503 -0.00000000000E+00 -0.00000000000E+00 -0.54984492528E+02  0.54984492528E+02  0.00000000000E+00 0.  1.
          2    1    1    2  501    0 -0.23867190728E+02 -0.53869121291E+01  0.43368420558E+00  0.24471405712E+02  0.00000000000E+00 0. -1.
         -2    1    1    2    0  503  0.23867190728E+02  0.53869121291E+01 -0.39482256861E+02  0.46449006689E+02  0.00000000000E+00 0.  1.
</event>
<event>
 4    1  0.1842931E+004  0.5264602E+02  0.7546771E-02  0.1287091E+00
         21   -1    0    0  503  502  0.00000000000E+00  0.00000000000E+00  0.78315631356E+03  0.78315631356E+03  0.00000000000E+00 0.  1.
         21   -1    0    0  501  503 -0.00000000000E+00 -0.00000000000E+00 -0.43765218130E+01  0.43765218130E+01  0.00000000000E+00 0. -1.
          2    1    1    2  501    0  0.49432302191E+02  0.18112163651E+02  0.21713643398E+03  0.22342746907E+03  0.00000000000E+00 0. -1.
         -2    1    1    2    0  502 -0.49432302191E+02 -0.18112163651E+02  0.56164335776E+03  0.56410536630E+03  0.00000000000E+00 0.  1.
</event>
<event>
 4    1  0.1842931E+004  0.3283579E+02  0.7546771E-02  0.1396452E+00
         21   -1    0    0  503  502  0.00000000000E+00  0.00000000000E+00  0.22954317032E+02  0.22954317032E+02  0.00000000000E+00 0. -1.
         21   -1    0    0  501  503 -0.00000000000E+00 -0.00000000000E+00 -0.66638332426E+02  0.66638332426E+02  0.00000000000E+00 0.  1.
          2    1    1    2  501    0 -0.19080632814E+02 -0.26722993292E+02 -0.46178178143E+02  0.56662271890E+02  0.00000000000E+00 0.  1.
         -2    1    1    2    0  502  0.19080632814E+02  0.26722993292E+02  0.24941627494E+01  0.32930377569E+02  0.00000000000E+00 0. -1.
</event>
<event>
 4    1  0.1842931E+004  0.3240172E+02  0.7546771E-02  0.1399812E+00
         21   -1    0    0  501  502  0.00000000000E+00  0.00000000000E+00  0.15150091855E+02  0.15150091855E+02  0.00000000000E+00 0. -1.
         21   -1    0    0  502  503 -0.00000000000E+00 -0.00000000000E+00 -0.11337806546E+03  0.11337806546E+03  0.00000000000E+00 0.  1.
          2    1    1    2  501    0  0.57918025912E+01  0.31879877391E+02 -0.90434907371E+01  0.33640099352E+02  0.00000000000E+00 0. -1.
         -2    1    1    2    0  503 -0.57918025912E+01 -0.31879877391E+02 -0.89184482867E+02  0.94888057963E+02  0.00000000000E+00 0.  1.
</event>
<event>
 4    1  0.1842931E+004  0.2228001E+02  0.7546771E-02  0.1501743E+00
         21   -1    0    0  501  502  0.00000000000E+00  0.00000000000E+00  0.37779603271E+02  0.37779603271E+02  0.00000000000E+00 0. -1.
         21   -1    0    0  502  503 -0.00000000000E+00 -0.00000000000E+00 -0.13538640444E+02  0.13538640444E+02  0.00000000000E+00 0.  1.
          2    1    1    2  501    0 -0.20973535026E+02  0.75172845277E+01  0.16527132676E+02  0.27740671453E+02  0.00000000000E+00 0.  1.
         -2    1    1    2    0  503  0.20973535026E+02 -0.75172845277E+01  0.77138301519E+01  0.23577572262E+02  0.00000000000E+00 0. -1.
</event>
<event>
 4    1  0.1842931E+004  0.2110609E+02  0.7546771E-02  0.1517755E+00
         21   -1    0    0  503  502  0.00000000000E+00  0.00000000000E+00  0.40390447422E+01  0.40390447422E+01  0.00000000000E+00 0.  1.
         21   -1    0    0  501  503 -0.00000000000E+00 -0.00000000000E+00 -0.15027345302E+03  0.15027345302E+03  0.00000000000E+00 0. -1.
          2    1    1    2  501    0  0.11121324979E+02  0.17938319382E+02 -0.11291590308E+03  0.11487152972E+03  0.00000000000E+00 0. -1.
         -2    1    1    2    0  502 -0.11121324979E+02 -0.17938319382E+02 -0.33318505193E+02  0.39440968039E+02  0.00000000000E+00 0.  1.
</event>
<event>
 4    1  0.1842931E+004  0.3349585E+02  0.7546771E-02  0.1391458E+00
         21   -1    0    0  503  502  0.00000000000E+00  0.00000000000E+00  0.31633663578E+02  0.31633663578E+02  0.00000000000E+00 0. -1.
         21   -1    0    0  501  503 -0.00000000000E+00 -0.00000000000E+00 -0.15462981003E+03  0.15462981003E+03  0.00000000000E+00 0.  1.
          2    1    1    2  501    0 -0.29544420788E+02 -0.15782881972E+02 -0.14325418868E+03  0.14711809793E+03  0.00000000000E+00 0.  1.
         -2    1    1    2    0  502  0.29544420788E+02  0.15782881972E+02  0.20258042223E+02  0.39145375688E+02  0.00000000000E+00 0. -1.
</event>
<event>
 4    1  0.1842931E+004  0.2137153E+02  0.7546771E-02  0.1514026E+00
         21   -1    0    0  501  502  0.00000000000E+00  0.00000000000E+00  0.12884187690E+03  0.12884187690E+03  0.00000000000E+00 0. -1.
         21   -1    0    0  502  503 -0.00000000000E+00 -0.00000000000E+00 -0.80677815311E+01  0.80677815311E+01  0.00000000000E+00 0.  1.
          2    1    1    2  501    0 -0.21368290529E+02  0.37182053963E+00  0.11164139555E+03  0.11366856774E+03  0.00000000000E+00 0. -1.
         -2    1    1    2    0  503  0.21368290529E+02 -0.37182053963E+00  0.91326998150E+01  0.23241090692E+02  0.00000000000E+00 0.  1.
</event>
<event>
 4    1  0.1842931E+004  0.2630377E+02  0.7546771E-02  0.1454730E+00
         21   -1    0    0  503  502  0.00000000000E+00  0.00000000000E+00  0.14123497863E+01  0.14123497863E+01  0.00000000000E+00 0.  1.
         21   -1    0    0  501  503 -0.00000000000E+00 -0.00000000000E+00 -0.55444221742E+03  0.55444221742E+03  0.00000000000E+00 0. -1.
          2    1    1    2  501    0  0.11520449939E+02 -0.23646727505E+02 -0.18167819811E+03  0.18357248202E+03  0.00000000000E+00 0.  1.
         -2    1    1    2    0  502 -0.11520449939E+02  0.23646727505E+02 -0.37135166953E+03  0.37228208519E+03  0.00000000000E+00 0. -1.
</event>
<event>
 4    1  0.1842931E+004  0.2021163E+02  0.7546771E-02  0.1530825E+00
         21   -1    0    0  503  502  0.00000000000E+00  0.00000000000E+00  0.94951131911E+00  0.94951131911E+00  0.00000000000E+00 0. -1.
         21   -1    0    0  501  503 -0.00000000000E+00 -0.00000000000E+00 -0.44858836870E+03  0.44858836870E+03  0.00000000000E+00 0.  1.
          2    1    1    2  501    0 -0.12093500884E+02  0.16194353281E+02 -0.26928781765E+03  0.27004525283E+03  0.00000000000E+00 0. -1.
         -2    1    1    2    0  502  0.12093500884E+02 -0.16194353281E+02 -0.17835103973E+03  0.17949262719E+03  0.00000000000E+00 0.  1.
</event>
<event>
 4    1  0.1842931E+004  0.2516069E+02  0.7546771E-02  0.1467014E+00
         21   -1    0    0  501  502  0.00000000000E+00  0.00000000000E+00  0.89378594213E+02  0.89378594213E+02  0.00000000000E+00 0. -1.
         21   -1    0    0  502  503 -0.00000000000E+00 -0.00000000000E+00 -0.14359920473E+02  0.14359920473E+02  0.00000000000E+00 0.  1.
          2    1    1    2  501    0  0.43886430546E+01 -0.24774990871E+02  0.74433492431E+02  0.78571019823E+02  0.00000000000E+00 0. -1.
         -2    1    1    2    0  503 -0.43886430546E+01  0.24774990871E+02  0.58518130881E+00  0.25167494863E+02  0.00000000000E+00 0.  1.
</event>
<event>
 4    1  0.1842931E+004  0.2072101E+02  0.7546771E-02  0.1523286E+00
         21   -1    0    0  501  502  0.00000000000E+00  0.00000000000E+00  0.35689893650E+02  0.35689893650E+02  0.00000000000E+00 0. -1.
         21   -1    0    0  502  503 -0.00000000000E+00 -0.00000000000E+00 -0.14263108650E+02  0.14263108650E+02  0.00000000000E+00 0.  1.
          2    1    1    2  501    0  0.19249826301E+02  0.76684126386E+01  0.20595500833E+02  0.29215321658E+02  0.00000000000E+00 0. -1.
         -2    1    1    2    0  503 -0.19249826301E+02 -0.76684126386E+01  0.83128416650E+00  0.20737680641E+02  0.00000000000E+00 0.  1.
</event>
<event>
 4    1  0.1842931E+004  0.2212092E+02  0.7546771E-02  0.1503842E+00
         21   -1    0    0  503  502  0.00000000000E+00  0.00000000000E+00  0.49460319369E+02  0.49460319369E+02  0.00000000000E+00 0.  1.
         21   -1    0    0  501  503 -0.00000000000E+00 -0.00000000000E+00 -0.10806269938E+02  0.10806269938E+02  0.00000000000E+00 0. -1.
          2    1    1    2  501    0 -0.18058043091E+02 -0.12776632727E+02  0.10569299245E+02  0.24516226272E+02  0.00000000000E+00 0. -1.
         -2    1    1    2    0  502  0.18058043091E+02  0.12776632727E+02  0.28084750186E+02  0.35750363034E+02  0.00000000000E+00 0.  1.
</event>
<event>
 4    1  0.1842931E+004  0.4656111E+02  0.7546771E-02  0.1313813E+00
         21   -1    0    0  501  502  0.00000000000E+00  0.00000000000E+00  0.89371165041E+02  0.89371165041E+02  0.00000000000E+00 0. -1.
         21   -1    0    0  502  503 -0.00000000000E+00 -0.00000000000E+00 -0.46118501319E+02  0.46118501319E+02  0.00000000000E+00 0.  1.
          2    1    1    2  501    0 -0.36987961916E+02 -0.28281217552E+02  0.68267764406E+02  0.82634280114E+02  0.00000000000E+00 0. -1.
         -2    1    1    2    0  503  0.36987961916E+02  0.28281217552E+02 -0.25015100684E+02  0.52855386246E+02  0.00000000000E+00 0.  1.
</event>
<event>
 4    1  0.1842931E+004  0.2216796E+02  0.7546771E-02  0.1503219E+00
         21   -1    0    0  501  502  0.00000000000E+00  0.00000000000E+00  0.75957296886E+03  0.75957296886E+03  0.00000000000E+00 0. -1.
         21   -1    0    0  502  503 -0.00000000000E+00 -0.00000000000E+00 -0.85149442332E+00  0.85149442332E+00  0.00000000000E+00 0.  1.
          2    1    1    2  501    0 -0.22022172379E+02  0.25381949051E+01  0.56570290474E+03  0.56613708141E+03  0.00000000000E+00 0. -1.
         -2    1    1    2    0  503  0.22022172379E+02 -0.25381949051E+01  0.19301856969E+03  0.19428738187E+03  0.00000000000E+00 0.  1.
</event>
<event>
 4    1  0.1842931E+004  0.2278115E+02  0.7546771E-02  0.1495265E+00
         21   -1    0    0  503  502  0.00000000000E+00  0.00000000000E+00  0.22094472647E+02  0.22094472647E+02  0.00000000000E+00 0. -1.
         21   -1    0    0  501  503 -0.00000000000E+00 -0.00000000000E+00 -0.25390996450E+03  0.25390996450E+03  0.00000000000E+00 0.  1.
          2    1    1    2  501    0 -0.14981843029E+02 -0.17161731837E+02 -0.24737180513E+03  0.24841857948E+03  0.00000000000E+00 0.  1.
         -2    1    1    2    0  502  0.14981843029E+02  0.17161731837E+02  0.15556313277E+02  0.27585857662E+02  0.00000000000E+00 0. -1.
</event>
<event>
 4    1  0.1842931E+004  0.2311734E+02  0.7546771E-02  0.1491030E+00
         21   -1    0    0  501  502  0.00000000000E+00  0.00000000000E+00  0.15080788123E+03  0.15080788123E+03  0.00000000000E+00 0. -1.
         21   -1    0    0  502  503 -0.00000000000E+00 -0.00000000000E+00 -0.87328355879E+01  0.87328355879E+01  0.00000000000E+00 0.  1.
          2    1    1    2  501    0 -0.12606247366E+02  0.19377665433E+02  0.13252875758E+03  0.13452985905E+03  0.00000000000E+00 0. -1.
         -2    1    1    2    0  503  0.12606247366E+02 -0.19377665433E+02  0.95462880548E+01  0.25010857761E+02  0.00000000000E+00 0.  1.
</event>
<event>
 4    1  0.1842931E+004  0.2540786E+02  0.7546771E-02  0.1464292E+00
         21   -1    0    0  503  502  0.00000000000E+00  0.00000000000E+00  0.68925469016E+02  0.68925469016E+02  0.00000000000E+00 0.  1.
         21   -1    0    0  501  503 -0.00000000000E+00 -0.00000000000E+00 -0.14878958614E+02  0.14878958614E+02  0.00000000000E+00 0. -1.
          2    1    1    2  501    0 -0.24112778203E+02  0.80083128001E+01  0.15173209405E+01  0.25453121800E+02  0.00000000000E+00 0. -1.
         -2    1    1    2    0  502  0.24112778203E+02 -0.80083128001E+01  0.52529189462E+02  0.58351305830E+02  0.00000000000E+00 0.  1.
</event>
<event>
 4    1  0.1842931E+004  0.2186259E+02  0.7546771E-02  0.1507297E+00
         21   -1    0    0  503  502  0.00000000000E+00  0.00000000000E+00  0.90090900666E+00  0.90090900666E+00  0.00000000000E+00 0.  1.
         21   -1    0    0  501  503 -0.00000000000E+00 -0.00000000000E+00 -0.83968578607E+03  0.83968578607E+03  0.00000000000E+00 0. -1.
          2    1    1    2  501    0  0.17766037696E+02  0.12741299442E+02 -0.67441126271E+03  0.67476553267E+03  0.00000000000E+00 0. -1.
         -2    1    1    2    0  502 -0.17766037696E+02 -0.12741299442E+02 -0.16437361435E+03  0.16582116240E+03  0.00000000000E+00 0.  1.
</event>
<event>
 4    1  0.1842931E+004  0.2367106E+02  0.7546771E-02  0.1484239E+00
         21   -1    0    0  503  502  0.00000000000E+00  0.00000000000E+00  0.15870751920E+02  0.15870751920E+02  0.00000000000E+00 0. -1.
         21   -1    0    0  501  503 -0.00000000000E+00 -0.00000000000E+00 -0.10536873260E+03  0.10536873260E+03  0.00000000000E+00 0.  1.
          2    1    1    2  501    0  0.21852795340E+02  0.90980556910E+01 -0.94180557204E+02  0.97109714431E+02  0.00000000000E+00 0.  1.
         -2    1    1    2    0  502 -0.21852795340E+02 -0.90980556910E+01  0.46825765261E+01  0.24129770087E+02  0.00000000000E+00 0. -1.
</event>
<event>
 4    1  0.1842931E+004  0.2599562E+02  0.7546771E-02  0.1457967E+00
         21   -1    0    0  501  502  0.00000000000E+00  0.00000000000E+00  0.55422354650E+02  0.55422354650E+02  0.00000000000E+00 0. -1.
         21   -1    0    0  502  503 -0.00000000000E+00 -0.00000000000E+00 -0.15828438631E+02  0.15828438631E+02  0.00000000000E+00 0.  1.
          2    1    1    2  501    0 -0.25279426745E+02 -0.60599174542E+01  0.36870014197E+02  0.45112858067E+02  0.00000000000E+00 0. -1.
         -2    1    1    2    0  503  0.25279426745E+02  0.60599174542E+01  0.27239018228E+01  0.26137935214E+02  0.00000000000E+00 0.  1.
</event>
<event>
 4    1  0.1842931E+004  0.2051584E+02  0.7546771E-02  0.1526291E+00
         21   -1    0    0  501  502  0.00000000000E+00  0.00000000000E+00  0.34923500435E+02  0.34923500435E+02  0.00000000000E+00 0.  1.
         21   -1    0    0  502  503 -0.00000000000E+00 -0.00000000000E+00 -0.30604170226E+02  0.30604170226E+02  0.00000000000E+00 0. -1.
          2    1    1    2  501    0 -0.17907007364E+02  0.10011939245E+02  0.27669120254E+02  0.34445319795E+02  0.00000000000E+00 0.  1.
         -2    1    1    2    0  503  0.17907007364E+02 -0.10011939245E+02 -0.23349790045E+02  0.31082350865E+02  0.00000000000E+00 0. -1.
</event>
<event>
 4    1  0.1842931E+004  0.2012911E+02  0.7546771E-02  0.1532071E+00
         21   -1    0    0  503  502  0.00000000000E+00  0.00000000000E+00  0.30058920594E+02  0.30058920594E+02  0.00000000000E+00 0.  1.
         21   -1    0    0  501  503 -0.00000000000E+00 -0.00000000000E+00 -0.20591232200E+02  0.20591232200E+02  0.00000000000E+00 0. -1.
          2    1    1    2  501    0  0.47034562649E+01 -0.19571883011E+02 -0.10149323605E+02  0.22543067118E+02  0.00000000000E+00 0. -1.
         -2    1    1    2    0  502 -0.47034562649E+01  0.19571883011E+02  0.19617011998E+02  0.28107085676E+02  0.00000000000E+00 0.  1.
</event>
<event>
 4    1  0.1842931E+004  0.3045977E+02  0.7546771E-02  0.1415642E+00
         21   -1    0    0  503  502  0.00000000000E+00  0.00000000000E+00  0.57787464853E+02  0.57787464853E+02  0.00000000000E+00 0.  1.
         21   -1    0    0  501  503 -0.00000000000E+00 -0.00000000000E+00 -0.83906126536E+02  0.83906126536E+02  0.00000000000E+00 0. -1.
          2    1    1    2  501    0  0.30381461841E+02  0.21827922153E+01 -0.76768332071E+02  0.82590402677E+02  0.00000000000E+00 0. -1.
         -2    1    1    2    0  502 -0.30381461841E+02 -0.21827922153E+01  0.50649670389E+02  0.59103188712E+02  0.00000000000E+00 0.  1.
</event>
<event>
 4    1  0.1842931E+004  0.2241215E+02  0.7546771E-02  0.1500015E+00
         21   -1    0    0  503  502  0.00000000000E+00  0.00000000000E+00  0.45012055134E+02  0.45012055134E+02  0.00000000000E+00 0.  1.
         21   -1    0    0  501  503 -0.00000000000E+00 -0.00000000000E+00 -0.11549044693E+02  0.11549044693E+02  0.00000000000E+00 0. -1.
          2    1    1    2  501    0 -0.13480868320E+02  0.17904489626E+02  0.11536500416E+02  0.25207050626E+02  0.00000000000E+00 0. -1.
         -2    1    1    2    0  502  0.13480868320E+02 -0.17904489626E+02  0.21926510025E+02  0.31354049201E+02  0.00000000000E+00 0.  1.
</event>
<event>
 4    1  0.1842931E+004  0.2050185E+02  0.7546771E-02  0.1526497E+00
         21   -1    0    0  501  502  0.00000000000E+00  0.00000000000E+00  0.28630839323E+02  0.28630839323E+02  0.00000000000E+00 0.  1.
         21   -1    0    0  502  503 -0.00000000000E+00 -0.00000000000E+00 -0.17492040368E+02  0.17492040368E+02  0.00000000000E+00 0. -1.
          2    1    1    2  501    0  0.52113668029E+01 -0.19828447079E+02  0.14814458598E+02  0.25294146380E+02  0.00000000000E+00 0.  1.
         -2    1    1    2    0  503 -0.52113668029E+01  0.19828447079E+02 -0.36756596422E+01  0.20828733311E+02  0.00000000000E+00 0. -1.
</event>
<event>
 4    1  0.1842931E+004  0.2565512E+02  0.7546771E-02  0.1461606E+00
         21   -1    0    0  501  502  0.00000000000E+00  0.00000000000E+00  0.54371419080E+01  0.54371419080E+01  0.00000000000E+00 0. -1.
         21   -1    0    0  502  503 -0.00000000000E+00 -0.00000000000E+00 -0.12823385616E+03  0.12823385616E+03  0.00000000000E+00 0.  1.
          2    1    1    2  501    0 -0.25642134379E+02  0.81620816152E+00 -0.45583045197E+02  0.52306780256E+02  0.00000000000E+00 0. -1.
         -2    1    1    2    0  503  0.25642134379E+02 -0.81620816152E+00 -0.77213669052E+02  0.81364217810E+02  0.00000000000E+00 0.  1.
</event>
<event>
 4    1  0.1842931E+004  0.2391112E+02  0.7546771E-02  0.1481364E+00
         21   -1    0    0  503  502  0.00000000000E+00  0.00000000000E+00  0.25764565539E+02  0.25764565539E+02  0.00000000000E+00 0.  1.
         21   -1    0    0  501  503 -0.00000000000E+00 -0.00000000000E+00 -0.27442572718E+02  0.27442572718E+02  0.00000000000E+00 0. -1.
          2    1    1    2  501    0 -0.23042204020E+02  0.63873513526E+01 -0.12476840487E+02  0.26970594579E+02  0.00000000000E+00 0.  1.
         -2    1    1    2    0  502  0.23042204020E+02 -0.63873513526E+01  0.10798833309E+02  0.26236543679E+02  0.00000000000E+00 0. -1.
</event>
<event>
 4    1  0.1842931E+004  0.3783159E+02  0.7546771E-02  0.1361683E+00
         21   -1    0    0  501  502  0.00000000000E+00  0.00000000000E+00  0.88327601489E+02  0.88327601489E+02  0.00000000000E+00 0. -1.
         21   -1    0    0  502  503 -0.00000000000E+00 -0.00000000000E+00 -0.20228037775E+02  0.20228037775E+02  0.00000000000E+00 0.  1.
          2    1    1    2  501    0  0.19194574184E+02  0.32600571989E+02  0.58259836679E+02  0.69465369372E+02  0.00000000000E+00 0. -1.
         -2    1    1    2    0  503 -0.19194574184E+02 -0.32600571989E+02  0.98397270350E+01  0.39090269892E+02  0.00000000000E+00 0.  1.
</event>
<event>
 4    1  0.1842931E+004  0.2352858E+02  0.7546771E-02  0.1485965E+00
         21   -1    0    0  501  502  0.00000000000E+00  0.00000000000E+00  0.45444680695E+03  0.45444680695E+03  0.00000000000E+00 0.  1.
         21   -1    0    0  502  503 -0.00000000000E+00 -0.00000000000E+00 -0.25593704312E+01  0.25593704312E+01  0.00000000000E+00 0. -1.
          2    1    1    2  501    0  0.17054656076E+02 -0.16209033588E+02  0.39135766741E+03  0.39206430327E+03  0.00000000000E+00 0.  1.
         -2    1    1    2    0  503 -0.17054656076E+02  0.16209033588E+02  0.60529769108E+02  0.64941874103E+02  0.00000000000E+00 0. -1.
</event>
<event>
 4    1  0.1842931E+004  0.4874973E+02  0.7546771E-02  0.1303686E+00
         21   -1    0    0  501  502  0.00000000000E+00  0.00000000000E+00  0.42539508408E+02  0.42539508408E+02  0.00000000000E+00 0. -1.
         21   -1    0    0  502  503 -0.00000000000E+00 -0.00000000000E+00 -0.85805731877E+02  0.85805731877E+02  0.00000000000E+00 0.  1.
          2    1    1    2  501    0 -0.42175128663E+02 -0.24449842968E+02  0.16273194109E+02  0.51394096406E+02  0.00000000000E+00 0. -1.
         -2    1    1    2    0  503  0.42175128663E+02  0.24449842968E+02 -0.59539417577E+02  0.76951143880E+02  0.00000000000E+00 0.  1.
</event>
<event>
 4    1  0.1842931E+004  0.2236043E+02  0.7546771E-02  0.1500689E+00
         21   -1    0    0  501  502  0.00000000000E+00  0.00000000000E+00  0.15180245652E+02  0.15180245652E+02  0.00000000000E+00 0.  1.
         21   -1    0    0  502  503 -0.00000000000E+00 -0.00000000000E+00 -0.33067103042E+02  0.33067103042E+02  0.00000000000E+00 0. -1.
          2    1    1    2  501    0 -0.19987403286E+02  0.10024606764E+02 -0.74292121731E+01  0.23562305159E+02  0.00000000000E+00 0.  1.
         -2    1    1    2    0  503  0.19987403286E+02 -0.10024606764E+02 -0.10457645217E+02  0.24685043536E+02  0.00000000000E+00 0. -1.
</event>
<event>
 4    1  0.1842931E+004  0.2849915E+02  0.7546771E-02  0.1433103E+00
         21   -1    0    0  503  502  0.00000000000E+00  0.00000000000E+00  0.18568446963E+03  0.18568446963E+03  0.00000000000E+00 0. -1.
         21   -1    0    0  501  503 -0.00000000000E+00 -0.00000000000E+00 -0.84255889970E+01  0.84255889970E+01  0.00000000000E+00 0.  1.
          2    1    1    2  501    0  0.14053803066E+02 -0.24792991606E+02  0.21327835166E+02  0.35596044250E+02  0.00000000000E+00 0.  1.
         -2    1    1    2    0  502 -0.14053803066E+02  0.24792991606E+02  0.15593104547E+03  0.15851401438E+03  0.00000000000E+00 0. -1.
</event>
<event>
 4    1  0.1842931E+004  0.2176217E+02  0.7546771E-02  0.1508655E+00
         21   -1    0    0  501  502  0.00000000000E+00  0.00000000000E+00  0.25840438290E+03  0.25840438290E+03  0.00000000000E+00 0. -1.
         21   -1    0    0  502  503 -0.00000000000E+00 -0.00000000000E+00 -0.30196769207E+01  0.30196769207E+01  0.00000000000E+00 0.  1.
          2    1    1    2  501    0 -0.20655371308E+02 -0.68518431322E+01  0.20964184347E+03  0.21076834357E+03  0.00000000000E+00 0. -1.
         -2    1    1    2    0  503  0.20655371308E+02  0.68518431322E+01  0.45742862506E+02  0.50655716247E+02  0.00000000000E+00 0.  1.
</event>
<event>
 4    1  0.1842931E+004  0.5555014E+02  0.7546771E-02  0.1275750E+00
         21   -1    0    0  503  502  0.00000000000E+00  0.00000000000E+00  0.10170462308E+02  0.10170462308E+02  0.00000000000E+00 0. -1.
         21   -1    0    0  501  503 -0.00000000000E+00 -0.00000000000E+00 -0.30377438652E+03  0.30377438652E+03  0.00000000000E+00 0.  1.
          2    1    1    2  501    0 -0.35724329025E+02  0.42539276975E+02 -0.14136372973E+03  0.15188654270E+03  0.00000000000E+00 0. -1.
         -2    1    1    2    0  502  0.35724329025E+02 -0.42539276975E+02 -0.15224019448E+03  0.16205830613E+03  0.00000000000E+00 0.  1.
</event>
<event>
 4    1  0.1842931E+004  0.2091887E+02  0.7546771E-02  0.1520426E+00
         21   -1    0    0  503  502  0.00000000000E+00  0.00000000000E+00  0.86218424332E+01  0.86218424332E+01  0.00000000000E+00 0. -1.
         21   -1    0    0  501  503 -0.00000000000E+00 -0.00000000000E+00 -0.99808840834E+02  0.99808840834E+02  0.00000000000E+00 0.  1.
          2    1    1    2  501    0 -0.15692780055E+02 -0.13832416838E+02 -0.83601540650E+02  0.86178980619E+02  0.00000000000E+00 0.  1.
         -2    1    1    2    0  502  0.15692780055E+02  0.13832416838E+02 -0.75854577505E+01  0.22251702648E+02  0.00000000000E+00 0. -1.
</event>
<event>
 4    1  0.1842931E+004  0.2202975E+02  0.7546771E-02  0.1505055E+00
         21   -1    0    0  501  502  0.00000000000E+00  0.00000000000E+00  0.23186843572E+02  0.23186843572E+02  0.00000000000E+00 0. -1.
         21   -1    0    0  502  503 -0.00000000000E+00 -0.00000000000E+00 -0.51986314267E+02  0.51986314267E+02  0.00000000000E+00 0.  1.
          2    1    1    2  501    0 -0.21488844644E+02 -0.48517253555E+01  0.14651226291E+02  0.26456910532E+02  0.00000000000E+00 0. -1.
         -2    1    1    2    0  503  0.21488844644E+02  0.48517253555E+01 -0.43450696986E+02  0.48716247307E+02  0.00000000000E+00 0.  1.
</event>
<event>
 4    1  0.1842931E+004  0.2472101E+02  0.7546771E-02  0.1471949E+00
         21   -1    0    0  501  502  0.00000000000E+00  0.00000000000E+00  0.69714068379E+01  0.69714068379E+01  0.00000000000E+00 0.  1.
         21   -1    0    0  502  503 -0.00000000000E+00 -0.00000000000E+00 -0.10295458949E+03  0.10295458949E+03  0.00000000000E+00 0. -1.
          2    1    1    2  501    0  0.22070375805E+01  0.24622291758E+02 -0.26808641135E+02  0.36466854893E+02  0.00000000000E+00 0.  1.
         -2    1    1    2    0  503 -0.22070375805E+01 -0.24622291758E+02 -0.69174541520E+02  0.73459141438E+02  0.00000000000E+00 0. -1.
</event>
<event>
 4    1  0.1842931E+004  0.2075461E+02  0.7546771E-02  0.1522797E+00
         21   -1    0    0  501  502  0.00000000000E+00  0.00000000000E+00  0.10580426018E+01  0.10580426018E+01  0.00000000000E+00 0. -1.
         21   -1    0    0  502  503 -0.00000000000E+00 -0.00000000000E+00 -0.51082774967E+03  0.51082774967E+03  0.00000000000E+00 0.  1.
          2    1    1    2  501    0 -0.20113035878E+02 -0.51205001500E+01 -0.37020485964E+03  0.37078618075E+03  0.00000000000E+00 0.  1.
         -2    1    1    2    0  503  0.20113035878E+02  0.51205001500E+01 -0.13956484743E+03  0.14109961152E+03  0.00000000000E+00 0. -1.
</event>
<event>
 4    1  0.1842931E+004  0.3474501E+02  0.7546771E-02  0.1382365E+00
         21   -1    0    0  503  502  0.00000000000E+00  0.00000000000E+00  0.69076271432E+01  0.69076271432E+01  0.00000000000E+00 0.  1.
         21   -1    0    0  501  503 -0.00000000000E+00 -0.00000000000E+00 -0.43659284544E+03  0.43659284544E+03  0.00000000000E+00 0. -1.
          2    1    1    2  501    0  0.13108459127E+02  0.32177387402E+02 -0.38656746455E+03  0.38812577937E+03  0.00000000000E+00 0. -1.
         -2    1    1    2    0  502 -0.13108459127E+02 -0.32177387402E+02 -0.43117753749E+02  0.55374693219E+02  0.00000000000E+00 0.  1.
</event>
<event>
 4    1  0.1842931E+004  0.3069812E+02  0.7546771E-02  0.1413625E+00
         21   -1    0    0  501  502  0.00000000000E+00  0.00000000000E+00  0.43187462947E+03  0.43187462947E+03  0.00000000000E+00 0. -1.
         21   -1    0    0  502  503 -0.00000000000E+00 -0.00000000000E+00 -0.44467581694E+01  0.44467581694E+01  0.00000000000E+00 0.  1.
          2    1    1    2  501    0  0.30697979678E+02  0.93948115939E-01  0.36940377257E+03  0.37067711282E+03  0.00000000000E+00 0. -1.
         -2    1    1    2    0  503 -0.30697979678E+02 -0.93948115939E-01  0.58024098731E+02  0.65644274816E+02  0.00000000000E+00 0.  1.
</event>
<event>
 4    1  0.1842931E+004  0.2005901E+02  0.7546771E-02  0.1533136E+00
         21   -1    0    0  503  502  0.00000000000E+00  0.00000000000E+00  0.89799866238E+02  0.89799866238E+02  0.00000000000E+00 0.  1.
         21   -1    0    0  501  503 -0.00000000000E+00 -0.00000000000E+00 -0.65725637844E+01  0.65725637844E+01  0.00000000000E+00 0. -1.
          2    1    1    2  501    0 -0.12197573135E+01  0.20021889577E+02  0.14428930652E+02  0.24709470045E+02  0.00000000000E+00 0. -1.
         -2    1    1    2    0  502  0.12197573135E+01 -0.20021889577E+02  0.68798371801E+02  0.71662959977E+02  0.00000000000E+00 0.  1.
</event>
<event>
 4    1  0.1842931E+004  0.2395681E+02  0.7546771E-02  0.1480821E+00
         21   -1    0    0  501  502  0.00000000000E+00  0.00000000000E+00  0.24719291883E+02  0.24719291883E+02  0.00000000000E+00 0. -1.
         21   -1    0    0  502  503 -0.00000000000E+00 -0.00000000000E+00 -0.72058116953E+03  0.72058116953E+03  0.00000000000E+00 0.  1.
          2    1    1    2  501    0 -0.18542352822E+02  0.15169369829E+02  0.18666555676E+02  0.30370527325E+02  0.00000000000E+00 0. -1.
         -2    1    1    2    0  503  0.18542352822E+02 -0.15169369829E+02 -0.71452843333E+03  0.71492993409E+03  0.00000000000E+00 0.  1.
</event>
<event>
 4    1  0.1842931E+004  0.3127306E+02  0.7546771E-02  0.1408847E+00
         21   -1    0    0  501  502  0.00000000000E+00  0.00000000000E+00  0.74515987714E+02  0.74515987714E+02  0.00000000000E+00 0.  1.
         21   -1    0    0  502  503 -0.00000000000E+00 -0.00000000000E+00 -0.17046786462E+02  0.17046786462E+02  0.00000000000E+00 0. -1.
          2    1    1    2  501    0 -0.29952090396E+02 -0.89931497670E+01  0.67750756648E+01  0.31998532967E+02  0.00000000000E+00 0. -1.
         -2    1    1    2    0  503  0.29952090396E+02  0.89931497670E+01  0.50694125587E+02  0.59564241209E+02  0.00000000000E+00 0.  1.
</event>
<event>
 4    1  0.1842931E+004  0.3058370E+02  0.7546771E-02  0.1414591E+00
         21   -1    0    0  501  502  0.00000000000E+00  0.00000000000E+00  0.42843313131E+02  0.42843313131E+02  0.00000000000E+00 0.  1.
         21   -1    0    0  502  503 -0.00000000000E+00 -0.00000000000E+00 -0.22116205325E+02  0.22116205325E+02  0.00000000000E+00 0. -1.
          2    1    1    2  501    0  0.10787945427E+02 -0.28617879018E+02  0.66827824911E+01  0.31305308621E+02  0.00000000000E+00 0.  1.
         -2    1    1    2    0  503 -0.10787945427E+02  0.28617879018E+02  0.14044325315E+02  0.33654209835E+02  0.00000000000E+00 0. -1.
</event>
<event>
 4    1  0.1842931E+004  0.2483472E+02  0.7546771E-02  0.1470661E+00
         21   -1    0    0  503  502  0.00000000000E+00  0.00000000000E+00  0.67311845532E+01  0.67311845532E+01  0.00000000000E+00 0. -1.
         21   -1    0    0  501  503 -0.00000000000E+00 -0.00000000000E+00 -0.13495493945E+03  0.13495493945E+03  0.00000000000E+00 0.  1.
          2    1    1    2  501    0  0.77171661608E+01 -0.23605271331E+02 -0.10425240236E+03  0.10716961736E+03  0.00000000000E+00 0.  1.
         -2    1    1    2    0  502 -0.77171661608E+01  0.23605271331E+02 -0.23971352539E+02  0.34516506641E+02  0.00000000000E+00 0. -1.
</event>
<event>
 4    1  0.1842931E+004  0.2008257E+02  0.7546771E-02  0.1532777E+00
         21   -1    0    0  503  502  0.00000000000E+00  0.00000000000E+00  0.22844121367E+02  0.22844121367E+02  0.00000000000E+00 0. -1.
         21   -1    0    0  501  503 -0.00000000000E+00 -0.00000000000E+00 -0.20338405158E+02  0.20338405158E+02  0.00000000000E+00 0.  1.
          2    1    1    2  501    0 -0.17234456238E+02  0.10309379199E+02 -0.65899935447E+01  0.21136172695E+02  0.00000000000E+00 0.  1.
         -2    1    1    2    0  502  0.17234456238E+02 -0.10309379199E+02  0.90957097535E+01  0.22046353830E+02  0.00000000000E+00 0. -1.
</event>
<event>
 4    1  0.1842931E+004  0.2128767E+02  0.7546771E-02  0.1515197E+00
         21   -1    0    0  501  502  0.00000000000E+00  0.00000000000E+00  0.28158696902E+01  0.28158696902E+01  0.00000000000E+00 0.  1.
         21   -1    0    0  502  503 -0.00000000000E+00 -0.00000000000E+00 -0.23087690075E+03  0.23087690075E+03  0.00000000000E+00 0. -1.
          2    1    1    2  501    0  0.18885592589E+02  0.98234138046E+01 -0.17834390331E+03  0.17960989091E+03  0.00000000000E+00 0. -1.
         -2    1    1    2    0  503 -0.18885592589E+02 -0.98234138046E+01 -0.49717127753E+02  0.54082879530E+02  0.00000000000E+00 0.  1.
</event>
<event>
 4    1  0.1842931E+004  0.2010710E+02  0.7546771E-02  0.1532405E+00
         21   -1    0    0  501  502  0.00000000000E+00  0.00000000000E+00  0.10268844215E+03  0.10268844215E+03  0.00000000000E+00 0.  1.
         21   -1    0    0  502  503 -0.00000000000E+00 -0.00000000000E+00 -0.13618483047E+02  0.13618483047E+02  0.00000000000E+00 0. -1.
          2    1    1    2  501    0 -0.20107090542E+02  0.14780697687E-01  0.93566998117E+02  0.95703074377E+02  0.00000000000E+00 0.  1.
         -2    1    1    2    0  503  0.20107090542E+02 -0.14780697687E-01 -0.44970390184E+01  0.20603850817E+02  0.00000000000E+00 0. -1.
</event>
<event>
 4    1  0.1842931E+004  0.2076348E+02  0.7546771E-02  0.1522669E+00
         21   -1    0    0  501  502  0.00000000000E+00  0.00000000000E+00  0.30471123205E+03  0.30471123205E+03  0.00000000000E+00 0. -1.
         21   -1    0    0  502  503 -0.00000000000E+00 -0.00000000000E+00 -0.25710527995E+01  0.25710527995E+01  0.00000000000E+00 0.  1.
          2    1    1    2  501    0  0.36199666065E+01 -0.20445489769E+02  0.25410113335E+03  0.25494804997E+03  0.00000000000E+00 0. -1.
         -2    1    1    2    0  503 -0.36199666065E+01  0.20445489769E+02  0.48039045898E+02  0.52334234884E+02  0.00000000000E+00 0.  1.
</event>
<event>
 4    1  0.1842931E+004  0.2206416E+02  0.7546771E-02  0.1504596E+00
         21   -1    0    0  501  502  0.00000000000E+00  0.00000000000E+00  0.34745369950E+02  0.34745369950E+02  0.00000000000E+00 0. -1.
         21   -1    0    0  502  503 -0.00000000000E+00 -0.00000000000E+00 -0.74358177150E+02  0.74358177150E+02  0.00000000000E+00 0.  1.
          2    1    1    2  501    0  0.38416994711E+01  0.21727136140E+02  0.29337763670E+02  0.36708738426E+02  0.00000000000E+00 0. -1.
         -2    1    1    2    0  503 -0.38416994711E+01 -0.21727136140E+02 -0.68950570870E+02  0.72394808674E+02  0.00000000000E+00 0.  1.
</event>
<event>
 4    1  0.1842931E+004  0.2001990E+02  0.7546771E-02  0.1533732E+00
         21   -1    0    0  503  502  0.00000000000E+00  0.00000000000E+00  0.11055379270E+01  0.11055379270E+01  0.00000000000E+00 0.  1.
         21   -1    0    0  501  503 -0.00000000000E+00 -0.00000000000E+00 -0.48455565560E+03  0.48455565560E+03  0.00000000000E+00 0. -1.
          2    1    1    2  501    0 -0.45800525300E+01 -0.19488954263E+02 -0.36358142054E+03  0.36413218147E+03  0.00000000000E+00 0. -1.
         -2    1    1    2    0  502  0.45800525300E+01  0.19488954263E+02 -0.11986869713E+03  0.12152901206E+03  0.00000000000E+00 0.  1.
</event>
<event>
 4    1  0.1842931E+004  0.4455045E+02  0.7546771E-02  0.1323703E+00
         21   -1    0    0  501  502  0.00000000000E+00  0.00000000000E+00  0.43345130250E+02  0.43345130250E+02  0.00000000000E+00 0. -1.
         21   -1    0    0  502  503 -0.00000000000E+00 -0.00000000000E+00 -0.58508593455E+02  0.58508593455E+02  0.00000000000E+00 0.  1.
          2    1    1    2  501    0  0.54267575561E+01 -0.44218694640E+02  0.16163083097E+02  0.47391854875E+02  0.00000000000E+00 0. -1.
         -2    1    1    2    0  503 -0.54267575561E+01  0.44218694640E+02 -0.31326546302E+02  0.54461868830E+02  0.00000000000E+00 0.  1.
</event>
<event>
 4    1  0.1842931E+004  0.2188557E+02  0.7546771E-02  0.1506987E+00
         21   -1    0    0  501  502  0.00000000000E+00  0.00000000000E+00  0.89832232818E+02  0.89832232818E+02  0.00000000000E+00 0. -1.
         21   -1    0    0  502  503 -0.00000000000E+00 -0.00000000000E+00 -0.10675826121E+02  0.10675826121E+02  0.00000000000E+00 0.  1.
          2    1    1    2  501    0 -0.16292032199E+02  0.14613282776E+02  0.75133108430E+02  0.78255749495E+02  0.00000000000E+00 0. -1.
         -2    1    1    2    0  503  0.16292032199E+02 -0.14613282776E+02  0.40232982673E+01  0.22252309444E+02  0.00000000000E+00 0.  1.
</event>
<event>
 4    1  0.1842931E+004  0.3502398E+02  0.7546771E-02  0.1380395E+00
         21   -1    0    0  503  502  0.00000000000E+00  0.00000000000E+00  0.27749054511E+03  0.27749054511E+03  0.00000000000E+00 0. -1.
         21   -1    0    0  501  503 -0.00000000000E+00 -0.00000000000E+00 -0.57072121999E+01  0.57072121999E+01  0.00000000000E+00 0.  1.
          2    1    1    2  501    0  0.32855538669E+01 -0.34869528284E+02  0.68660738705E+02  0.77077726397E+02  0.00000000000E+00 0.  1.
         -2    1    1    2    0  502 -0.32855538669E+01  0.34869528284E+02  0.20312259421E+03  0.20612003091E+03  0.00000000000E+00 0. -1.
</event>
<event>
 4    1  0.1842931E+004  0.2670453E+02  0.7546771E-02  0.1450599E+00
         21   -1    0    0  501  502  0.00000000000E+00  0.00000000000E+00  0.27678470022E+03  0.27678470022E+03  0.00000000000E+00 0.  1.
         21   -1    0    0  502  503 -0.00000000000E+00 -0.00000000000E+00 -0.41720314891E+01  0.41720314891E+01  0.00000000000E+00 0. -1.
          2    1    1    2  501    0 -0.26060102381E+02  0.58312116028E+01  0.22318041539E+03  0.22477239550E+03  0.00000000000E+00 0.  1.
         -2    1    1    2    0  503  0.26060102381E+02 -0.58312116028E+01  0.49432253332E+02  0.56184336201E+02  0.00000000000E+00 0. -1.
</event>
<event>
 4    1  0.1842931E+004  0.2111267E+02  0.7546771E-02  0.1517662E+00
         21   -1    0    0  501  502  0.00000000000E+00  0.00000000000E+00  0.51575677918E+01  0.51575677918E+01  0.00000000000E+00 0.  1.
         21   -1    0    0  502  503 -0.00000000000E+00 -0.00000000000E+00 -0.10285492368E+03  0.10285492368E+03  0.00000000000E+00 0. -1.
          2    1    1    2  501    0 -0.33427548652E+01  0.20846365058E+02 -0.27264092645E+02  0.34482976872E+02  0.00000000000E+00 0. -1.
         -2    1    1    2    0  503  0.33427548652E+01 -0.20846365058E+02 -0.70433263246E+02  0.73529514603E+02  0.00000000000E+00 0.  1.
</event>
<event>
 4    1  0.1842931E+004  0.3765229E+02  0.7546771E-02  0.1362821E+00
         21   -1    0    0  501  502  0.00000000000E+00  0.00000000000E+00  0.75872854240E+01  0.75872854240E+01  0.00000000000E+00 0.  1.
         21   -1    0    0  502  503 -0.00000000000E+00 -0.00000000000E+00 -0.19951159354E+03  0.19951159354E+03  0.00000000000E+00 0. -1.
          2    1    1    2  501    0 -0.11827698759E+02  0.35746336819E+02 -0.69877593985E+02  0.79376150039E+02  0.00000000000E+00 0. -1.
         -2    1    1    2    0  503  0.11827698759E+02 -0.35746336819E+02 -0.12204671413E+03  0.12772272893E+03  0.00000000000E+00 0.  1.
</event>
<event>
 4    1  0.1842931E+004  0.2061972E+02  0.7546771E-02  0.1524764E+00
         21   -1    0    0  503  502  0.00000000000E+00  0.00000000000E+00  0.93343925189E+03  0.93343925189E+03  0.00000000000E+00 0.  1.
         21   -1    0    0  501  503 -0.00000000000E+00 -0.00000000000E+00 -0.69485502132E+00  0.69485502132E+00  0.00000000000E+00 0. -1.
          2    1    1    2  501    0 -0.16370860796E+02  0.12536663490E+02  0.19223893975E+03  0.19334162245E+03  0.00000000000E+00 0. -1.
         -2    1    1    2    0  502  0.16370860796E+02 -0.12536663490E+02  0.74050545712E+03  0.74079248446E+03  0.00000000000E+00 0.  1.
</event>
<event>
 4    1  0.1842931E+004  0.3334182E+02  0.7546771E-02  0.1392611E+00
         21   -1    0    0  501  502  0.00000000000E+00  0.00000000000E+00  0.89685082576E+03  0.89685082576E+03  0.00000000000E+00 0.  1.
         21   -1    0    0  502  503 -0.00000000000E+00 -0.00000000000E+00 -0.34312255144E+01  0.34312255144E+01  0.00000000000E+00 0. -1.
          2    1    1    2  501    0 -0.30492823003E+02  0.13485721281E+02  0.80647048008E+03  0.80715940939E+03  0.00000000000E+00 0.  1.
         -2    1    1    2    0  503  0.30492823003E+02 -0.13485721281E+02  0.86949120167E+02  0.93122641881E+02  0.00000000000E+00 0. -1.
</event>
<event>
 4    1  0.1842931E+004  0.2253500E+02  0.7546771E-02  0.1498421E+00
         21   -1    0    0  501  502  0.00000000000E+00  0.00000000000E+00  0.29008455903E+03  0.29008455903E+03  0.00000000000E+00 0. -1.
         21   -1    0    0  502  503 -0.00000000000E+00 -0.00000000000E+00 -0.21797496665E+01  0.21797496665E+01  0.00000000000E+00 0.  1.
          2    1    1    2  501    0 -0.74291419113E+01 -0.21275194444E+02  0.20879193436E+03  0.21000451877E+03  0.00000000000E+00 0. -1.
         -2    1    1    2    0  503  0.74291419113E+01  0.21275194444E+02  0.79112874999E+02  0.82259789926E+02  0.00000000000E+00 0.  1.
</event>
<event>
 4    1  0.1842931E+004  0.2601688E+02  0.7546771E-02  0.1457742E+00
         21   -1    0    0  501  502  0.00000000000E+00  0.00000000000E+00  0.66250607199E+01  0.66250607199E+01  0.00000000000E+00 0. -1.
         21   -1    0    0  502  503 -0.00000000000E+00 -0.00000000000E+00 -0.10841102809E+03  0.10841102809E+03  0.00000000000E+00 0.  1.
          2    1    1    2  501    0  0.22502472628E+02  0.13058203965E+02 -0.37091714680E+02  0.45306437325E+02  0.00000000000E+00 0. -1.
         -2    1    1    2    0  503 -0.22502472628E+02 -0.13058203965E+02 -0.64694252693E+02  0.69729651488E+02  0.00000000000E+00 0.  1.
</event>
<event>
 4    1  0.1842931E+004  0.2253845E+02  0.7546771E-02  0.1498377E+00
         21   -1    0    0  503  502  0.00000000000E+00  0.00000000000E+00  0.65665795205E+02  0.65665795205E+02  0.00000000000E+00 0.  1.
         21   -1    0    0  501  503 -0.00000000000E+00 -0.00000000000E+00 -0.19621582243E+02  0.19621582243E+02  0.00000000000E+00 0. -1.
          2    1    1    2  501    0  0.22376898460E+02  0.26936947622E+01 -0.10167376808E+02  0.24725637045E+02  0.00000000000E+00 0. -1.
         -2    1    1    2    0  502 -0.22376898460E+02 -0.26936947622E+01  0.56211589769E+02  0.60561740402E+02  0.00000000000E+00 0.  1.
</event>
<event>
 4    1  0.1842931E+004  0.2021450E+02  0.7546771E-02  0.1530782E+00
         21   -1    0    0  501  502  0.00000000000E+00  0.00000000000E+00  0.95709943950E+01  0.95709943950E+01  0.00000000000E+00 0.  1.
         21   -1    0    0  502  503 -0.00000000000E+00 -0.00000000000E+00 -0.44526654080E+02  0.44526654080E+02  0.00000000000E+00 0. -1.
          2    1    1    2  501    0 -0.18904584309E+02  0.71584112246E+01 -0.11990610662E+02  0.23503210487E+02  0.00000000000E+00 0. -1.
         -2    1    1    2    0  503  0.18904584309E+02 -0.71584112246E+01 -0.22965049023E+02  0.30594437988E+02  0.00000000000E+00 0.  1.
</event>
<event>
 4    1  0.1842931E+004  0.2208331E+02  0.7546771E-02  0.1504341E+00
         21   -1    0    0  501  502  0.00000000000E+00  0.00000000000E+00  0.56622997812E+02  0.56622997812E+02  0.00000000000E+00 0.  1.
         21   -1    0    0  502  503 -0.00000000000E+00 -0.00000000000E+00 -0.20207212825E+03  0.20207212825E+03  0.00000000000E+00 0. -1.
          2    1    1    2  501    0 -0.20442291499E+02  0.83537689907E+01  0.53836486569E+02  0.58189690016E+02  0.00000000000E+00 0.  1.
         -2    1    1    2    0  503  0.20442291499E+02 -0.83537689907E+01 -0.19928561700E+03  0.20050543604E+03  0.00000000000E+00 0. -1.
</event>
<event>
 4    1  0.1842931E+004  0.3586659E+02  0.7546771E-02  0.1374571E+00
         21   -1    0    0  501  502  0.00000000000E+00  0.00000000000E+00  0.50601684642E+02  0.50601684642E+02  0.00000000000E+00 0.  1.
         21   -1    0    0  502  503 -0.00000000000E+00 -0.00000000000E+00 -0.19504533484E+03  0.19504533484E+03  0.00000000000E+00 0. -1.
          2    1    1    2  501    0  0.30444604881E+02 -0.18961489991E+02  0.42317893714E+02  0.55472661712E+02  0.00000000000E+00 0.  1.
         -2    1    1    2    0  503 -0.30444604881E+02  0.18961489991E+02 -0.18676154391E+03  0.19017435777E+03  0.00000000000E+00 0. -1.
</event>
<event>
 4    1  0.1842931E+004  0.2090041E+02  0.7546771E-02  0.1520692E+00
         21   -1    0    0  501  502  0.00000000000E+00  0.00000000000E+00  0.53852603020E+01  0.53852603020E+01  0.00000000000E+00 0. -1.
         21   -1    0    0  502  503 -0.00000000000E+00 -0.00000000000E+00 -0.88256822411E+02  0.88256822411E+02  0.00000000000E+00 0.  1.
          2    1    1    2  501    0  0.20897289392E+02  0.36102268959E+00 -0.28117072310E+02  0.35034223220E+02  0.00000000000E+00 0. -1.
         -2    1    1    2    0  503 -0.20897289392E+02 -0.36102268959E+00 -0.54754489799E+02  0.58607859493E+02  0.00000000000E+00 0.  1.
</event>
<event>
 4    1  0.1842931E+004  0.2965522E+02  0.7546771E-02  0.1422617E+00
         21   -1    0    0  503  502  0.00000000000E+00  0.00000000000E+00  0.31298780404E+03  0.31298780404E+03  0.00000000000E+00 0.  1.
         21   -1    0    0  501  503 -0.00000000000E+00 -0.00000000000E+00 -0.30940110158E+01  0.30940110158E+01  0.00000000000E+00 0. -1.
          2    1    1    2  501    0  0.13502101623E+02 -0.26403136209E+02  0.10704739993E+03  0.11107915278E+03  0.00000000000E+00 0. -1.
         -2    1    1    2    0  502 -0.13502101623E+02  0.26403136209E+02  0.20284639309E+03  0.20500266228E+03  0.00000000000E+00 0.  1.
</event>
<event>
 4    1  0.1842931E+004  0.2048716E+02  0.7546771E-02  0.1526714E+00
         21   -1    0    0  501  502  0.00000000000E+00  0.00000000000E+00  0.49510631012E+03  0.49510631012E+03  0.00000000000E+00 0.  1.
         21   -1    0    0  502  503 -0.00000000000E+00 -0.00000000000E+00 -0.16360637797E+01  0.16360637797E+01  0.00000000000E+00 0. -1.
          2    1    1    2  501    0  0.15641401351E+02 -0.13231411795E+02  0.41914103266E+03  0.41964142903E+03  0.00000000000E+00 0.  1.
         -2    1    1    2    0  503 -0.15641401351E+02  0.13231411795E+02  0.74329213671E+02  0.77100944866E+02  0.00000000000E+00 0. -1.
</event>
<event>
 4    1  0.1842931E+004  0.2555107E+02  0.7546771E-02  0.1462732E+00
         21   -1    0    0  503  502  0.00000000000E+00  0.00000000000E+00  0.10954609876E+03  0.10954609876E+03  0.00000000000E+00 0.  1.
         21   -1    0    0  501  503 -0.00000000000E+00 -0.00000000000E+00 -0.91012638117E+01  0.91012638117E+01  0.00000000000E+00 0. -1.
          2    1    1    2  501    0  0.48336955721E+01  0.25089689376E+02  0.15368372525E+02  0.29816840878E+02  0.00000000000E+00 0. -1.
         -2    1    1    2    0  502 -0.48336955721E+01 -0.25089689376E+02  0.85076462424E+02  0.88830521695E+02  0.00000000000E+00 0.  1.
</event>
<event>
 4    1  0.1842931E+004  0.3926619E+02  0.7546771E-02  0.1352840E+00
         21   -1    0    0  501  502  0.00000000000E+00  0.00000000000E+00  0.47756917169E+02  0.47756917169E+02  0.00000000000E+00 0.  1.
         21   -1    0    0  502  503 -0.00000000000E+00 -0.00000000000E+00 -0.32285061748E+02  0.32285061748E+02  0.00000000000E+00 0. -1.
          2    1    1    2  501    0  0.24686566573E+02  0.30535340187E+02  0.77747403995E+01  0.40028491826E+02  0.00000000000E+00 0. -1.
         -2    1    1    2    0  503 -0.24686566573E+02 -0.30535340187E+02  0.76971150214E+01  0.40013487091E+02  0.00000000000E+00 0.  1.
</event>
<event>
 4    1  0.1842931E+004  0.2005684E+02  0.7546771E-02  0.1533169E+00
         21   -1    0    0  501  502  0.00000000000E+00  0.00000000000E+00  0.60105768049E+00  0.60105768049E+00  0.00000000000E+00 0.  1.
         21   -1    0    0  502  503 -0.00000000000E+00 -0.00000000000E+00 -0.70439185146E+03  0.70439185146E+03  0.00000000000E+00 0. -1.
          2    1    1    2  501    0 -0.10266889228E+02 -0.17229848795E+02 -0.43059381895E+03  0.43106068438E+03  0.00000000000E+00 0.  1.
         -2    1    1    2    0  503  0.10266889228E+02  0.17229848795E+02 -0.27319697484E+03  0.27393222476E+03  0.00000000000E+00 0. -1.
</event>
<event>
 4    1  0.1842931E+004  0.3421166E+02  0.7546771E-02  0.1386192E+00
         21   -1    0    0  503  502  0.00000000000E+00  0.00000000000E+00  0.16779050464E+02  0.16779050464E+02  0.00000000000E+00 0. -1.
         21   -1    0    0  501  503 -0.00000000000E+00 -0.00000000000E+00 -0.24626836616E+03  0.24626836616E+03  0.00000000000E+00 0.  1.
          2    1    1    2  501    0  0.20652240008E+02  0.27274939979E+02 -0.22609394763E+03  0.22866768578E+03  0.00000000000E+00 0.  1.
         -2    1    1    2    0  502 -0.20652240008E+02 -0.27274939979E+02 -0.33953680690E+01  0.34379730839E+02  0.00000000000E+00 0. -1.
</event>
<event>
 4    1  0.1842931E+004  0.4417696E+02  0.7546771E-02  0.1325606E+00
         21   -1    0    0  501  502  0.00000000000E+00  0.00000000000E+00  0.51221345203E+02  0.51221345203E+02  0.00000000000E+00 0.  1.
         21   -1    0    0  502  503 -0.00000000000E+00 -0.00000000000E+00 -0.76524076119E+02  0.76524076119E+02  0.00000000000E+00 0. -1.
          2    1    1    2  501    0  0.64070188616E+01 -0.43709881354E+02  0.32608186777E+02  0.54908081951E+02  0.00000000000E+00 0.  1.
         -2    1    1    2    0  503 -0.64070188616E+01  0.43709881354E+02 -0.57910917693E+02  0.72837339372E+02  0.00000000000E+00 0. -1.
</event>
<event>
 4    1  0.1842931E+004  0.2019519E+02  0.7546771E-02  0.1531073E+00
         21   -1    0    0  501  502  0.00000000000E+00  0.00000000000E+00  0.43973545474E+01  0.43973545474E+01  0.00000000000E+00 0.  1.
         21   -1    0    0  502  503 -0.00000000000E+00 -0.00000000000E+00 -0.19151646300E+03  0.19151646300E+03  0.00000000000E+00 0. -1.
          2    1    1    2  501    0  0.20192002234E+02 -0.35892331826E+00 -0.23213265071E+02  0.30768514027E+02  0.00000000000E+00 0.  1.
         -2    1    1    2    0  503 -0.20192002234E+02  0.35892331826E+00 -0.16390584338E+03  0.16514530352E+03  0.00000000000E+00 0. -1.
</event>
<event>
 4    1  0.1842931E+004  0.3453419E+02  0.7546771E-02  0.1383868E+00
         21   -1    0    0  503  502  0.00000000000E+00  0.00000000000E+00  0.20391957065E+02  0.20391957065E+02  0.00000000000E+00 0.  1.
         21   -1    0    0  501  503 -0.00000000000E+00 -0.00000000000E+00 -0.60550251592E+02  0.60550251592E+02  0.00000000000E+00 0. -1.
          2    1    1    2  501    0  0.20034978613E+02 -0.28128454223E+02 -0.27554679998E+02  0.44179980702E+02  0.00000000000E+00 0. -1.
         -2    1    1    2    0  502 -0.20034978613E+02  0.28128454223E+02 -0.12603614529E+02  0.36762227955E+02  0.00000000000E+00 0.  1.
</event>
<event>
 4    1  0.1842931E+004  0.2311369E+02  0.7546771E-02  0.1491075E+00
         21   -1    0    0  501  502  0.00000000000E+00  0.00000000000E+00  0.42021627897E+02  0.42021627897E+02  0.00000000000E+00 0. -1.
         21   -1    0    0  502  503 -0.00000000000E+00 -0.00000000000E+00 -0.19786956730E+02  0.19786956730E+02  0.00000000000E+00 0.  1.
          2    1    1    2  501    0  0.54592044049E+01  0.22459733329E+02  0.29594900506E+02  0.37551307166E+02  0.00000000000E+00 0. -1.
         -2    1    1    2    0  503 -0.54592044049E+01 -0.22459733329E+02 -0.73602293389E+01  0.24257277462E+02  0.00000000000E+00 0.  1.
</event>
<event>
 4    1  0.1842931E+004  0.2094279E+02  0.7546771E-02  0.1520083E+00
         21   -1    0    0  501  502  0.00000000000E+00  0.00000000000E+00  0.78809945847E+01  0.78809945847E+01  0.00000000000E+00 0.  1.
         21   -1    0    0  502  503 -0.00000000000E+00 -0.00000000000E+00 -0.40907900544E+03  0.40907900544E+03  0.00000000000E+00 0. -1.
          2    1    1    2  501    0  0.12306161157E+02  0.16945767238E+02 -0.68185010404E+01  0.22024817505E+02  0.00000000000E+00 0.  1.
         -2    1    1    2    0  503 -0.12306161157E+02 -0.16945767238E+02 -0.39437950981E+03  0.39493518252E+03  0.00000000000E+00 0. -1.
</event>
<event>
 4    1  0.1842931E+004  0.2058186E+02  0.7546771E-02  0.1525319E+00
         21   -1    0    0  501  502  0.00000000000E+00  0.00000000000E+00  0.56910827078E+01  0.56910827078E+01  0.00000000000E+00 0. -1.
         21   -1    0    0  502  503 -0.00000000000E+00 -0.00000000000E+00 -0.86646845172E+02  0.86646845172E+02  0.00000000000E+00 0.  1.
          2    1    1    2  501    0 -0.20298684086E+02 -0.34023858991E+01 -0.57810874540E+02  0.61365381287E+02  0.00000000000E+00 0.  1.
         -2    1    1    2    0  503  0.20298684086E+02  0.34023858991E+01 -0.23144887924E+02  0.30972546592E+02  0.00000000000E+00 0. -1.
</event>
<event>
 4    1  0.1842931E+004  0.2017303E+02  0.7546771E-02  0.1531407E+00
         21   -1    0    0  503  502  0.00000000000E+00  0.00000000000E+00  0.11588987503E+03  0.11588987503E+03  0.00000000000E+00 0.  1.
         21   -1    0    0  501  503 -0.00000000000E+00 -0.00000000000E+00 -0.39358597121E+01  0.39358597121E+01  0.00000000000E+00 0. -1.
          2    1    1    2  501    0 -0.17527745111E+02  0.99864638395E+01  0.36304956046E+02  0.41533133065E+02  0.00000000000E+00 0. -1.
         -2    1    1    2    0  502  0.17527745111E+02 -0.99864638395E+01  0.75649059270E+02  0.78292601676E+02  0.00000000000E+00 0.  1.
</event>
<event>
 4    1  0.1842931E+004  0.2443201E+02  0.7546771E-02  0.1475259E+00
         21   -1    0    0  501  502  0.00000000000E+00  0.00000000000E+00  0.30675044346E+01  0.30675044346E+01  0.00000000000E+00 0. -1.
         21   -1    0    0  502  503 -0.00000000000E+00 -0.00000000000E+00 -0.27072171472E+03  0.27072171472E+03  0.00000000000E+00 0.  1.
          2    1    1    2  501    0 -0.20532349510E+02  0.13241820210E+02 -0.61234673720E+02  0.65928813462E+02  0.00000000000E+00 0. -1.
         -2    1    1    2    0  503  0.20532349510E+02 -0.13241820210E+02 -0.20641953656E+03  0.20786040569E+03  0.00000000000E+00 0.  1.
</event>
<event>
 4    1  0.1842931E+004  0.2672667E+02  0.7546771E-02  0.1450373E+00
         21   -1    0    0  503  502  0.00000000000E+00  0.00000000000E+00  0.57266561686E+02  0.57266561686E+02  0.00000000000E+00 0. -1.
         21   -1    0    0  501  503 -0.00000000000E+00 -0.00000000000E+00 -0.15384835254E+02  0.15384835254E+02  0.00000000000E+00 0.  1.
          2    1    1    2  501    0 -0.26520455168E+02 -0.33136936117E+01  0.51388357936E+01  0.27216222019E+02  0.00000000000E+00 0.  1.
         -2    1    1    2    0  502  0.26520455168E+02  0.33136936117E+01  0.36742890638E+02  0.45435174921E+02  0.00000000000E+00 0. -1.
</event>
<event>
 4    1  0.1842931E+004  0.2275342E+02  0.7546771E-02  0.1495618E+00
         21   -1    0    0  501  502  0.00000000000E+00  0.00000000000E+00  0.10898149799E+04  0.10898149799E+04  0.00000000000E+00 0. -1.
         21   -1    0    0  502  503 -0.00000000000E+00 -0.00000000000E+00 -0.11188663597E+01  0.11188663597E+01  0.00000000000E+00 0.  1.
          2    1    1    2  501    0 -0.26513322913E+01 -0.22598423718E+02  0.95811880681E+03  0.95838894311E+03  0.00000000000E+00 0. -1.
         -2    1    1    2    0  503  0.26513322913E+01  0.22598423718E+02  0.13057730677E+03  0.13254490319E+03  0.00000000000E+00 0.  1.
</event>
<event>
 4    1  0.1842931E+004  0.2095885E+02  0.7546771E-02  0.1519853E+00
         21   -1    0    0  503  502  0.00000000000E+00  0.00000000000E+00  0.23733263528E+02  0.23733263528E+02  0.00000000000E+00 0.  1.
         21   -1    0    0  501  503 -0.00000000000E+00 -0.00000000000E+00 -0.20741202615E+02  0.20741202615E+02  0.00000000000E+00 0. -1.
          2    1    1    2  501    0  0.18629935536E+02  0.96020311493E+01 -0.57994353238E+01  0.21746423852E+02  0.00000000000E+00 0. -1.
         -2    1    1    2    0  502 -0.18629935536E+02 -0.96020311493E+01  0.87914962369E+01  0.22728042291E+02  0.00000000000E+00 0.  1.
</event>
<event>
 4    1  0.1842931E+004  0.3670077E+02  0.7546771E-02  0.1368985E+00
         21   -1    0    0  501  502  0.00000000000E+00  0.00000000000E+00  0.15333413406E+03  0.15333413406E+03  0.00000000000E+00 0.  1.
         21   -1    0    0  502  503 -0.00000000000E+00 -0.00000000000E+00 -0.90343933234E+01  0.90343933234E+01  0.00000000000E+00 0. -1.
          2    1    1    2  501    0  0.33019361758E+02  0.16020872186E+02  0.85654932748E+02  0.93186448052E+02  0.00000000000E+00 0.  1.
         -2    1    1    2    0  503 -0.33019361758E+02 -0.16020872186E+02  0.58644807987E+02  0.69182079330E+02  0.00000000000E+00 0. -1.
</event>
<event>
 4    1  0.1842931E+004  0.2473823E+02  0.7546771E-02  0.1471753E+00
         21   -1    0    0  501  502  0.00000000000E+00  0.00000000000E+00  0.30327528751E+02  0.30327528751E+02  0.00000000000E+00 0.  1.
         21   -1    0    0  502  503 -0.00000000000E+00 -0.00000000000E+00 -0.40328493965E+02  0.40328493965E+02  0.00000000000E+00 0. -1.
          2    1    1    2  501    0  0.46459015838E+01 -0.24298055582E+02  0.19971039274E+02  0.31793431968E+02  0.00000000000E+00 0.  1.
         -2    1    1    2    0  503 -0.46459015838E+01  0.24298055582E+02 -0.29972004489E+02  0.38862590748E+02  0.00000000000E+00 0. -1.
</event>
<event>
 4    1  0.1842931E+004  0.2129024E+02  0.7546771E-02  0.1515161E+00
         21   -1    0    0  503  502  0.00000000000E+00  0.00000000000E+00  0.29373987394E+02  0.29373987394E+02  0.00000000000E+00 0.  1.
         21   -1    0    0  501  503 -0.00000000000E+00 -0.00000000000E+00 -0.31540892525E+02  0.31540892525E+02  0.00000000000E+00 0. -1.
          2    1    1    2  501    0  0.18050610673E+02  0.11289368337E+02 -0.22850559833E+02  0.31231754158E+02  0.00000000000E+00 0. -1.
         -2    1    1    2    0  502 -0.18050610673E+02 -0.11289368337E+02  0.20683654702E+02  0.29683125761E+02  0.00000000000E+00 0.  1.
</event>
<event>
 4    1  0.1842931E+004  0.2424632E+02  0.7546771E-02  0.1477414E+00
         21   -1    0    0  503  502  0.00000000000E+00  0.00000000000E+00  0.13768546613E+03  0.13768546613E+03  0.00000000000E+00 0.  1.
         21   -1    0    0  501  503 -0.00000000000E+00 -0.00000000000E+00 -0.81464817724E+01  0.81464817724E+01  0.00000000000E+00 0. -1.
          2    1    1    2  501    0  0.23838280619E+02  0.44295062379E+01  0.14469276180E+02  0.28235511356E+02  0.00000000000E+00 0. -1.
         -2    1    1    2    0  502 -0.23838280619E+02 -0.44295062379E+01  0.11506970818E+03  0.11759643654E+03  0.00000000000E+00 0.  1.
</event>
<event>
 4    1  0.1842931E+004  0.2864610E+02  0.7546771E-02  0.1431738E+00
         21   -1    0    0  501  502  0.00000000000E+00  0.00000000000E+00  0.30698928215E+02  0.30698928215E+02  0.00000000000E+00 0. -1.
         21   -1    0    0  502  503 -0.00000000000E+00 -0.00000000000E+00 -0.49560373283E+02  0.49560373283E+02  0.00000000000E+00 0.  1.
          2    1    1    2  501    0  0.28596477708E+02  0.16853946295E+01  0.17805659356E+02  0.33728928200E+02  0.00000000000E+00 0. -1.
         -2    1    1    2    0  503 -0.28596477708E+02 -0.16853946295E+01 -0.36667104424E+02  0.46530373298E+02  0.00000000000E+00 0.  1.
</event>
<event>
 4    1  0.1842931E+004  0.2453391E+02  0.7546771E-02  0.1474086E+00
         21   -1    0    0  501  502  0.00000000000E+00  0.00000000000E+00  0.68835261411E+03  0.68835261411E+03  0.00000000000E+00 0. -1.
         21   -1    0    0  502  503 -0.00000000000E+00 -0.00000000000E+00 -0.15554586061E+01  0.15554586061E+01  0.00000000000E+00 0.  1.
          2    1    1    2  501    0  0.24038110359E+02  0.49073208272E+01  0.57165150728E+03  0.57217773316E+03  0.00000000000E+00 0. -1.
         -2    1    1    2    0  503 -0.24038110359E+02 -0.49073208272E+01  0.11514564822E+03  0.11773033955E+03  0.00000000000E+00 0.  1.
</event>
<event>
 4    1  0.1842931E+004  0.3007695E+02  0.7546771E-02  0.1418929E+00
         21   -1    0    0  503  502  0.00000000000E+00  0.00000000000E+00  0.15898336948E+01  0.15898336948E+01  0.00000000000E+00 0. -1.
         21   -1    0    0  501  503 -0.00000000000E+00 -0.00000000000E+00 -0.62808535986E+03  0.62808535986E+03  0.00000000000E+00 0.  1.
          2    1    1    2  501    0 -0.30034021429E+02 -0.16064189885E+01 -0.40980826276E+03  0.41091049543E+03  0.00000000000E+00 0. -1.
         -2    1    1    2    0  502  0.30034021429E+02  0.16064189885E+01 -0.21668726340E+03  0.21876469813E+03  0.00000000000E+00 0.  1.
</event>
<event>
 4    1  0.1842931E+004  0.3270332E+02  0.7546771E-02  0.1397471E+00
         21   -1    0    0  503  502  0.00000000000E+00  0.00000000000E+00  0.22960082449E+01  0.22960082449E+01  0.00000000000E+00 0.  1.
         21   -1    0    0  501  503 -0.00000000000E+00 -0.00000000000E+00 -0.82405199131E+03  0.82405199131E+03  0.00000000000E+00 0. -1.
          2    1    1    2  501    0 -0.46945345310E+00 -0.32699947341E+02 -0.68330053328E+03  0.68408268925E+03  0.00000000000E+00 0. -1.
         -2    1    1    2    0  502  0.46945345310E+00  0.32699947341E+02 -0.13845544978E+03  0.14226531031E+03  0.00000000000E+00 0.  1.
</event>
<event>
 4    1  0.1842931E+004  0.2942099E+02  0.7546771E-02  0.1424696E+00
         21   -1    0    0  501  502  0.00000000000E+00  0.00000000000E+00  0.39349210519E+02  0.39349210519E+02  0.00000000000E+00 0. -1.
         21   -1    0    0  502  503 -0.00000000000E+00 -0.00000000000E+00 -0.28137650479E+02  0.28137650479E+02  0.00000000000E+00 0.  1.
          2    1    1    2  501    0 -0.79194098040E+01 -0.28335098857E+02  0.21368286545E+02  0.36362048192E+02  0.00000000000E+00 0.  1.
         -2    1    1    2    0  503  0.79194098040E+01  0.28335098857E+02 -0.10156726506E+02  0.31124812805E+02  0.00000000000E+00 0. -1.
</event>
<event>
 4    1  0.1842931E+004  0.2209556E+02  0.7546771E-02  0.1504179E+00
         21   -1    0    0  501  502  0.00000000000E+00  0.00000000000E+00  0.27689429944E+03  0.27689429944E+03  0.00000000000E+00 0.  1.
         21   -1    0    0  502  503 -0.00000000000E+00 -0.00000000000E+00 -0.18096102525E+01  0.18096102525E+01  0.00000000000E+00 0. -1.
          2    1    1    2  501    0  0.21101363842E+02  0.65533350280E+01  0.15986436376E+03  0.16138410255E+03  0.00000000000E+00 0.  1.
         -2    1    1    2    0  503 -0.21101363842E+02 -0.65533350280E+01  0.11522032542E+03  0.11731980714E+03  0.00000000000E+00 0. -1.
</event>
<event>
 4    1  0.1842931E+004  0.3996966E+02  0.7546771E-02  0.1348664E+00
         21   -1    0    0  503  502  0.00000000000E+00  0.00000000000E+00  0.48726483006E+02  0.48726483006E+02  0.00000000000E+00 0. -1.
         21   -1    0    0  501  503 -0.00000000000E+00 -0.00000000000E+00 -0.37233595238E+02  0.37233595238E+02  0.00000000000E+00 0.  1.
          2    1    1    2  501    0  0.37977493488E+02  0.12461297426E+02 -0.91072482510E+01  0.40994096111E+02  0.00000000000E+00 0.  1.
         -2    1    1    2    0  502 -0.37977493488E+02 -0.12461297426E+02  0.20600136019E+02  0.44965982133E+02  0.00000000000E+00 0. -1.
</event>
<event>
 4    1  0.1842931E+004  0.3435720E+02  0.7546771E-02  0.1385139E+00
         21   -1    0    0  501  502  0.00000000000E+00  0.00000000000E+00  0.25904407463E+02  0.25904407463E+02  0.00000000000E+00 0. -1.
         21   -1    0    0  502  503 -0.00000000000E+00 -0.00000000000E+00 -0.38215413918E+03  0.38215413918E+03  0.00000000000E+00 0.  1.
          2    1    1    2  501    0  0.24189632563E+02  0.24398336869E+02  0.13354149223E+02  0.36861232575E+02  0.00000000000E+00 0. -1.
         -2    1    1    2    0  503 -0.24189632563E+02 -0.24398336869E+02 -0.36960388094E+03  0.37119731407E+03  0.00000000000E+00 0.  1.
</event>
<event>
 4    1  0.1842931E+004  0.2838067E+02  0.7546771E-02  0.1434211E+00
         21   -1    0    0  501  502  0.00000000000E+00  0.00000000000E+00  0.37542001555E+02  0.37542001555E+02  0.00000000000E+00 0.  1.
         21   -1    0    0  502  503 -0.00000000000E+00 -0.00000000000E+00 -0.21929561463E+02  0.21929561463E+02  0.00000000000E+00 0. -1.
          2    1    1    2  501    0 -0.10380972334E+02  0.26413966671E+02  0.12180715228E+02  0.30884171437E+02  0.00000000000E+00 0.  1.
         -2    1    1    2    0  503  0.10380972334E+02 -0.26413966671E+02  0.34317248638E+01  0.28587391581E+02  0.00000000000E+00 0. -1.
</event>
<event>
 4    1  0.1842931E+004  0.2241324E+02  0.7546771E-02  0.1500001E+00
         21   -1    0    0  501  502  0.00000000000E+00  0.00000000000E+00  0.74140216434E+01  0.74140216434E+01  0.00000000000E+00 0. -1.
         21   -1    0    0  502  503 -0.00000000000E+00 -0.00000000000E+00 -0.10967779035E+03  0.10967779035E+03  0.00000000000E+00 0.  1.
          2    1    1    2  501    0 -0.21370857509E+02 -0.67557247530E+01 -0.14936693932E+02  0.26934331126E+02  0.00000000000E+00 0. -1.
         -2    1    1    2    0  503  0.21370857509E+02  0.67557247530E+01 -0.87327074779E+02  0.90157480872E+02  0.00000000000E+00 0.  1.
</event>
<event>
 4    1  0.1842931E+004  0.2152525E+02  0.7546771E-02  0.1511896E+00
         21   -1    0    0  501  502  0.00000000000E+00  0.00000000000E+00  0.46569808973E+03  0.46569808973E+03  0.00000000000E+00 0.  1.
         21   -1    0    0  502  503 -0.00000000000E+00 -0.00000000000E+00 -0.12249614376E+01  0.12249614376E+01  0.00000000000E+00 0. -1.
          2    1    1    2  501    0 -0.18732044157E+02  0.10604105461E+02  0.33340584412E+03  0.33409997519E+03  0.00000000000E+00 0.  1.
         -2    1    1    2    0  503  0.18732044157E+02 -0.10604105461E+02  0.13106728417E+03  0.13282307598E+03  0.00000000000E+00 0. -1.
</event>
<event>
 4    1  0.1842931E+004  0.2759568E+02  0.7546771E-02  0.1441714E+00
         21   -1    0    0  501  502  0.00000000000E+00  0.00000000000E+00  0.41154875577E+03  0.41154875577E+03  0.00000000000E+00 0. -1.
         21   -1    0    0  502  503 -0.00000000000E+00 -0.00000000000E+00 -0.43010820124E+01  0.43010820124E+01  0.00000000000E+00 0.  1.
          2    1    1    2  501    0 -0.25333221198E+02  0.10943001589E+02  0.36057443572E+03  0.36162887755E+03  0.00000000000E+00 0. -1.
         -2    1    1    2    0  503  0.25333221198E+02 -0.10943001589E+02  0.46673238032E+02  0.54220960231E+02  0.00000000000E+00 0.  1.
</event>
<event>
 4    1  0.1842931E+004  0.2216583E+02  0.7546771E-02  0.1503247E+00
         21   -1    0    0  501  502  0.00000000000E+00  0.00000000000E+00  0.58352748016E+01  0.58352748016E+01  0.00000000000E+00 0. -1.
         21   -1    0    0  502  503 -0.00000000000E+00 -0.00000000000E+00 -0.10053274791E+03  0.10053274791E+03  0.00000000000E+00 0.  1.
          2    1    1    2  501    0 -0.68477664003E+01 -0.21081563477E+02 -0.25911420068E+02  0.34098767034E+02  0.00000000000E+00 0. -1.
         -2    1    1    2    0  503  0.68477664003E+01  0.21081563477E+02 -0.68786053040E+02  0.72269255677E+02  0.00000000000E+00 0.  1.
</event>
<event>
 4    1  0.1842931E+004  0.2803488E+02  0.7546771E-02  0.1437481E+00
         21   -1    0    0  503  502  0.00000000000E+00  0.00000000000E+00  0.34975260687E+02  0.34975260687E+02  0.00000000000E+00 0. -1.
         21   -1    0    0  501  503 -0.00000000000E+00 -0.00000000000E+00 -0.23188580318E+02  0.23188580318E+02  0.00000000000E+00 0.  1.
          2    1    1    2  501    0  0.24552445390E+02  0.13532625752E+02  0.11006636262E+02  0.30118110435E+02  0.00000000000E+00 0.  1.
         -2    1    1    2    0  502 -0.24552445390E+02 -0.13532625752E+02  0.78004410586E+00  0.28045730570E+02  0.00000000000E+00 0. -1.
</event>
<event>
 4    1  0.1842931E+004  0.2125318E+02  0.7546771E-02  0.1515681E+00
         21   -1    0    0  501  502  0.00000000000E+00  0.00000000000E+00  0.40654413589E+02  0.40654413589E+02  0.00000000000E+00 0.  1.
         21   -1    0    0  502  503 -0.00000000000E+00 -0.00000000000E+00 -0.14141825165E+02  0.14141825165E+02  0.00000000000E+00 0. -1.
          2    1    1    2  501    0 -0.77871030565E+01 -0.19775202818E+02  0.25940765666E+02  0.33535368551E+02  0.00000000000E+00 0.  1.
         -2    1    1    2    0  503  0.77871030565E+01  0.19775202818E+02  0.57182275775E+00  0.21260870203E+02  0.00000000000E+00 0. -1.
</event>
<event>
 4    1  0.1842931E+004  0.2360854E+02  0.7546771E-02  0.1484995E+00
         21   -1    0    0  503  502  0.00000000000E+00  0.00000000000E+00  0.60576931894E+03  0.60576931894E+03  0.00000000000E+00 0. -1.
         21   -1    0    0  501  503 -0.00000000000E+00 -0.00000000000E+00 -0.36783349832E+01  0.36783349832E+01  0.00000000000E+00 0.  1.
          2    1    1    2  501    0  0.22682040951E+02  0.65489010466E+01  0.37171194305E+02  0.44034767772E+02  0.00000000000E+00 0.  1.
         -2    1    1    2    0  502 -0.22682040951E+02 -0.65489010466E+01  0.56491978965E+03  0.56541288616E+03  0.00000000000E+00 0. -1.
</event>
<event>
 4    1  0.1842931E+004  0.2774639E+02  0.7546771E-02  0.1440251E+00
         21   -1    0    0  503  502  0.00000000000E+00  0.00000000000E+00  0.55438249105E+02  0.55438249105E+02  0.00000000000E+00 0.  1.
         21   -1    0    0  501  503 -0.00000000000E+00 -0.00000000000E+00 -0.57182079360E+02  0.57182079360E+02  0.00000000000E+00 0. -1.
          2    1    1    2  501    0  0.18434804017E+02 -0.20736929803E+02 -0.49869748891E+02  0.57068854125E+02  0.00000000000E+00 0. -1.
         -2    1    1    2    0  502 -0.18434804017E+02  0.20736929803E+02  0.48125918636E+02  0.55551474340E+02  0.00000000000E+00 0.  1.
</event>
<event>
 4    1  0.1842931E+004  0.2755138E+02  0.7546771E-02  0.1442147E+00
         21   -1    0    0  501  502  0.00000000000E+00  0.00000000000E+00  0.22419295416E+02  0.22419295416E+02  0.00000000000E+00 0. -1.
         21   -1    0    0  502  503 -0.00000000000E+00 -0.00000000000E+00 -0.38164483393E+02  0.38164483393E+02  0.00000000000E+00 0.  1.
          2    1    1    2  501    0  0.24436084837E+02 -0.12726196921E+02  0.23026528430E+01  0.27647432799E+02  0.00000000000E+00 0. -1.
         -2    1    1    2    0  503 -0.24436084837E+02  0.12726196921E+02 -0.18047840820E+02  0.32936346010E+02  0.00000000000E+00 0.  1.
</event>
<event>
 4    1  0.1842931E+004  0.2332997E+02  0.7546771E-02  0.1488396E+00
         21   -1    0    0  503  502  0.00000000000E+00  0.00000000000E+00  0.25218898156E+02  0.25218898156E+02  0.00000000000E+00 0. -1.
         21   -1    0    0  501  503 -0.00000000000E+00 -0.00000000000E+00 -0.57076038185E+02  0.57076038185E+02  0.00000000000E+00 0.  1.
          2    1    1    2  501    0  0.22977273277E+02  0.40413495226E+01 -0.48376775203E+02  0.53708472071E+02  0.00000000000E+00 0.  1.
         -2    1    1    2    0  502 -0.22977273277E+02 -0.40413495226E+01  0.16519635173E+02  0.28586464270E+02  0.00000000000E+00 0. -1.
</event>
<event>
 4    1  0.1842931E+004  0.2629754E+02  0.7546771E-02  0.1454795E+00
         21   -1    0    0  501  502  0.00000000000E+00  0.00000000000E+00  0.22585400645E+03  0.22585400645E+03  0.00000000000E+00 0. -1.
         21   -1    0    0  502  503 -0.00000000000E+00 -0.00000000000E+00 -0.31165808987E+01  0.31165808987E+01  0.00000000000E+00 0.  1.
          2    1    1    2  501    0 -0.19604748703E+02  0.17527536728E+02  0.96215464696E+02  0.99744555551E+02  0.00000000000E+00 0. -1.
         -2    1    1    2    0  503  0.19604748703E+02 -0.17527536728E+02  0.12652196086E+03  0.12922603180E+03  0.00000000000E+00 0.  1.
</event>
<event>
 4    1  0.1842931E+004  0.2620282E+02  0.7546771E-02  0.1455784E+00
         21   -1    0    0  503  502  0.00000000000E+00  0.00000000000E+00  0.24505568803E+01  0.24505568803E+01  0.00000000000E+00 0. -1.
         21   -1    0    0  501  503 -0.00000000000E+00 -0.00000000000E+00 -0.28300259722E+03  0.28300259722E+03  0.00000000000E+00 0.  1.
          2    1    1    2  501    0 -0.42236722822E+01  0.25860174036E+02 -0.15453922168E+03  0.15674488523E+03  0.00000000000E+00 0.  1.
         -2    1    1    2    0  502  0.42236722822E+01 -0.25860174036E+02 -0.12601281866E+03  0.12870826887E+03  0.00000000000E+00 0. -1.
</event>
<event>
 4    1  0.1842931E+004  0.2709008E+02  0.7546771E-02  0.1446705E+00
         21   -1    0    0  501  502  0.00000000000E+00  0.00000000000E+00  0.40276193338E+01  0.40276193338E+01  0.00000000000E+00 0. -1.
         21   -1    0    0  502  503 -0.00000000000E+00 -0.00000000000E+00 -0.34983551873E+03  0.34983551873E+03  0.00000000000E+00 0.  1.
          2    1    1    2  501    0 -0.60665127548E+01  0.26402079658E+02 -0.29537783290E+03  0.29661749200E+03  0.00000000000E+00 0.  1.
         -2    1    1    2    0  503  0.60665127548E+01 -0.26402079658E+02 -0.50430066493E+02  0.57245646068E+02  0.00000000000E+00 0. -1.
</event>
<event>
 4    1  0.1842931E+004  0.2682057E+02  0.7546771E-02  0.1449419E+00
         21   -1    0    0  503  502  0.00000000000E+00  0.00000000000E+00  0.19269295832E+01  0.19269295832E+01  0.00000000000E+00 0.  1.
         21   -1    0    0  501  503 -0.00000000000E+00 -0.00000000000E+00 -0.38714872293E+03  0.38714872293E+03  0.00000000000E+00 0. -1.
          2    1    1    2  501    0  0.68625126008E+01 -0.25927759437E+02 -0.22939053057E+03  0.23095315175E+03  0.00000000000E+00 0. -1.
         -2    1    1    2    0  502 -0.68625126008E+01  0.25927759437E+02 -0.15583126278E+03  0.15812250076E+03  0.00000000000E+00 0.  1.
</event>
<event>
 4    1  0.1842931E+004  0.2136054E+02  0.7546771E-02  0.1514179E+00
         21   -1    0    0  503  502  0.00000000000E+00  0.00000000000E+00  0.58120401599E+00  0.58120401599E+00  0.00000000000E+00 0.  1.
         21   -1    0    0  501  503 -0.00000000000E+00 -0.00000000000E+00 -0.79318331982E+03  0.79318331982E+03  0.00000000000E+00 0. -1.
          2    1    1    2  501    0 -0.12724144407E+02  0.17157177168E+02 -0.35610496405E+03  0.35674503220E+03  0.00000000000E+00 0.  1.
         -2    1    1    2    0  502  0.12724144407E+02 -0.17157177168E+02 -0.43649715175E+03  0.43701949164E+03  0.00000000000E+00 0. -1.
</event>
<event>
 4    1  0.1842931E+004  0.2306544E+02  0.7546771E-02  0.1491678E+00
         21   -1    0    0  503  502  0.00000000000E+00  0.00000000000E+00  0.84644619812E+00  0.84644619812E+00  0.00000000000E+00 0. -1.
         21   -1    0    0  501  503 -0.00000000000E+00 -0.00000000000E+00 -0.12861744303E+04  0.12861744303E+04  0.00000000000E+00 0.  1.
          2    1    1    2  501    0  0.69891649648E+01  0.21981039374E+02 -0.11028168614E+04  0.11030580421E+04  0.00000000000E+00 0.  1.
         -2    1    1    2    0  502 -0.69891649648E+01 -0.21981039374E+02 -0.18251112268E+03  0.18396283434E+03  0.00000000000E+00 0. -1.
</event>
<event>
 4    1  0.1842931E+004  0.2159216E+02  0.7546771E-02  0.1510976E+00
         21   -1    0    0  503  502  0.00000000000E+00  0.00000000000E+00  0.88374776087E+01  0.88374776087E+01  0.00000000000E+00 0.  1.
         21   -1    0    0  501  503 -0.00000000000E+00 -0.00000000000E+00 -0.88343865565E+02  0.88343865565E+02  0.00000000000E+00 0. -1.
          2    1    1    2  501    0 -0.16459333125E+02  0.13975397422E+02 -0.70593707656E+02  0.73822035604E+02  0.00000000000E+00 0. -1.
         -2    1    1    2    0  502  0.16459333125E+02 -0.13975397422E+02 -0.89126803001E+01  0.23359307570E+02  0.00000000000E+00 0.  1.
</event>
<event>
 4    1  0.1842931E+004  0.2181549E+02  0.7546771E-02  0.1507933E+00
         21   -1    0    0  501  502  0.00000000000E+00  0.00000000000E+00  0.12616411736E+02  0.12616411736E+02  0.00000000000E+00 0.  1.
         21   -1    0    0  502  503 -0.00000000000E+00 -0.00000000000E+00 -0.60303995714E+02  0.60303995714E+02  0.00000000000E+00 0. -1.
          2    1    1    2  501    0 -0.13155885952E+02 -0.17402248714E+02 -0.15323453035E+01  0.21869240444E+02  0.00000000000E+00 0.  1.
         -2    1    1    2    0  503  0.13155885952E+02  0.17402248714E+02 -0.46155238675E+02  0.51051167005E+02  0.00000000000E+00 0. -1.
</event>
<event>
 4    1  0.1842931E+004  0.3350917E+02  0.7546771E-02  0.1391358E+00
         21   -1    0    0  501  502  0.00000000000E+00  0.00000000000E+00  0.12477197821E+02  0.12477197821E+02  0.00000000000E+00 0.  1.
         21   -1    0    0  502  503 -0.00000000000E+00 -0.00000000000E+00 -0.89994451246E+02  0.89994451246E+02  0.00000000000E+00 0. -1.
          2    1    1    2  501    0  0.24487302679E+02 -0.22874364971E+02 -0.38577676550E+02  0.51098940237E+02  0.00000000000E+00 0. -1.
         -2    1    1    2    0  503 -0.24487302679E+02  0.22874364971E+02 -0.38939576875E+02  0.51372708830E+02  0.00000000000E+00 0.  1.
</event>
<event>
 4    1  0.1842931E+004  0.4578754E+02  0.7546771E-02  0.1317548E+00
         21   -1    0    0  503  502  0.00000000000E+00  0.00000000000E+00  0.14477294123E+02  0.14477294123E+02  0.00000000000E+00 0.  1.
         21   -1    0    0  501  503 -0.00000000000E+00 -0.00000000000E+00 -0.18415973475E+03  0.18415973475E+03  0.00000000000E+00 0. -1.
          2    1    1    2  501    0 -0.43954717436E+02 -0.12825043427E+02 -0.38933282601E+02  0.60102407754E+02  0.00000000000E+00 0.  1.
         -2    1    1    2    0  502  0.43954717436E+02  0.12825043427E+02 -0.13074915802E+03  0.13853462111E+03  0.00000000000E+00 0. -1.
</event>
<event>
 4    1  0.1842931E+004  0.2912997E+02  0.7546771E-02  0.1427311E+00
         21   -1    0    0  501  502  0.00000000000E+00  0.00000000000E+00  0.28431046940E+01  0.28431046940E+01  0.00000000000E+00 0.  1.
         21   -1    0    0  502  503 -0.00000000000E+00 -0.00000000000E+00 -0.32638013462E+03  0.32638013462E+03  0.00000000000E+00 0. -1.
          2    1    1    2  501    0  0.28904319631E+02  0.36187338853E+01 -0.11362340507E+03  0.11729805245E+03  0.00000000000E+00 0.  1.
         -2    1    1    2    0  503 -0.28904319631E+02 -0.36187338853E+01 -0.20991362486E+03  0.21192518687E+03  0.00000000000E+00 0. -1.
</event>
<event>
 4    1  0.1842931E+004  0.2094821E+02  0.7546771E-02  0.1520006E+00
         21   -1    0    0  501  502  0.00000000000E+00  0.00000000000E+00  0.18309897040E+03  0.18309897040E+03  0.00000000000E+00 0.  1.
         21   -1    0    0  502  503 -0.00000000000E+00 -0.00000000000E+00 -0.24427196918E+01  0.24427196918E+01  0.00000000000E+00 0. -1.
          2    1    1    2  501    0 -0.75170465144E+01 -0.19553041635E+02  0.77590222076E+02  0.80368339458E+02  0.00000000000E+00 0. -1.
         -2    1    1    2    0  503  0.75170465144E+01  0.19553041635E+02  0.10306602863E+03  0.10517335063E+03  0.00000000000E+00 0.  1.
</event>
<event>
 4    1  0.1842931E+004  0.2942441E+02  0.7546771E-02  0.1424665E+00
         21   -1    0    0  501  502  0.00000000000E+00  0.00000000000E+00  0.53502688618E+02  0.53502688618E+02  0.00000000000E+00 0. -1.
         21   -1    0    0  502  503 -0.00000000000E+00 -0.00000000000E+00 -0.63673199447E+02  0.63673199447E+02  0.00000000000E+00 0.  1.
          2    1    1    2  501    0  0.28787267219E+02  0.60900919974E+01  0.45512956421E+02  0.54196173081E+02  0.00000000000E+00 0. -1.
         -2    1    1    2    0  503 -0.28787267219E+02 -0.60900919974E+01 -0.55683467250E+02  0.62979714984E+02  0.00000000000E+00 0.  1.
</event>
<event>
 4    1  0.1842931E+004  0.2099131E+02  0.7546771E-02  0.1519389E+00
         21   -1    0    0  501  502  0.00000000000E+00  0.00000000000E+00  0.14877193256E+01  0.14877193256E+01  0.00000000000E+00 0. -1.
         21   -1    0    0  502  503 -0.00000000000E+00 -0.00000000000E+00 -0.11146015830E+04  0.11146015830E+04  0.00000000000E+00 0.  1.
          2    1    1    2  501    0  0.19523410357E+02  0.77117924236E+01 -0.78370556334E+02  0.81133096788E+02  0.00000000000E+00 0. -1.
         -2    1    1    2    0  503 -0.19523410357E+02 -0.77117924236E+01 -0.10347433074E+04  0.10349562056E+04  0.00000000000E+00 0.  1.
</event>
<event>
 4    1  0.1842931E+004  0.5286493E+02  0.7546771E-02  0.1286207E+00
         21   -1    0    0  501  502  0.00000000000E+00  0.00000000000E+00  0.36518515675E+03  0.36518515675E+03  0.00000000000E+00 0.  1.
         21   -1    0    0  502  503 -0.00000000000E+00 -0.00000000000E+00 -0.14514315157E+02  0.14514315157E+02  0.00000000000E+00 0. -1.
          2    1    1    2  501    0  0.38052579024E+02  0.36697439734E+02  0.30586853714E+03  0.31040338733E+03  0.00000000000E+00 0.  1.
         -2    1    1    2    0  503 -0.38052579024E+02 -0.36697439734E+02  0.44802304450E+02  0.69296084575E+02  0.00000000000E+00 0. -1.
</event>
<event>
 4    1  0.1842931E+004  0.2442981E+02  0.7546771E-02  0.1475284E+00
         21   -1    0    0  501  502  0.00000000000E+00  0.00000000000E+00  0.90034604186E+01  0.90034604186E+01  0.00000000000E+00 0. -1.
         21   -1    0    0  502  503 -0.00000000000E+00 -0.00000000000E+00 -0.70414465582E+02  0.70414465582E+02  0.00000000000E+00 0.  1.
          2    1    1    2  501    0 -0.12558416324E+02  0.20954758588E+02 -0.21092041514E+02  0.32275221816E+02  0.00000000000E+00 0. -1.
         -2    1    1    2    0  503  0.12558416324E+02 -0.20954758588E+02 -0.40318963649E+02  0.47142704184E+02  0.00000000000E+00 0.  1.
</event>
<event>
 4    1  0.1842931E+004  0.2411343E+02  0.7546771E-02  0.1478971E+00
         21   -1    0    0  503  502  0.00000000000E+00  0.00000000000E+00  0.47335077058E+02  0.47335077058E+02  0.00000000000E+00 0. -1.
         21   -1    0    0  501  503 -0.00000000000E+00 -0.00000000000E+00 -0.70413088818E+02  0.70413088818E+02  0.00000000000E+00 0.  1.
          2    1    1    2  501    0 -0.23876458510E+02  0.33722846711E+01 -0.65031731724E+02  0.69358371563E+02  0.00000000000E+00 0.  1.
         -2    1    1    2    0  502  0.23876458510E+02 -0.33722846711E+01  0.41953719963E+02  0.48389794313E+02  0.00000000000E+00 0. -1.
</event>
<event>
 4    1  0.1842931E+004  0.2909047E+02  0.7546771E-02  0.1427668E+00
         21   -1    0    0  501  502  0.00000000000E+00  0.00000000000E+00  0.77028331266E+02  0.77028331266E+02  0.00000000000E+00 0.  1.
         21   -1    0    0  502  503 -0.00000000000E+00 -0.00000000000E+00 -0.18018364213E+02  0.18018364213E+02  0.00000000000E+00 0. -1.
          2    1    1    2  501    0 -0.78436256196E+00  0.29079894652E+02  0.59193678235E+02  0.65955644494E+02  0.00000000000E+00 0.  1.
         -2    1    1    2    0  503  0.78436256196E+00 -0.29079894652E+02 -0.18371118195E+00  0.29091050985E+02  0.00000000000E+00 0. -1.
</event>
<event>
 4    1  0.1842931E+004  0.2185247E+02  0.7546771E-02  0.1507433E+00
         21   -1    0    0  501  502  0.00000000000E+00  0.00000000000E+00  0.26226982025E+03  0.26226982025E+03  0.00000000000E+00 0. -1.
         21   -1    0    0  502  503 -0.00000000000E+00 -0.00000000000E+00 -0.12360202171E+02  0.12360202171E+02  0.00000000000E+00 0.  1.
          2    1    1    2  501    0 -0.11282788450E+02 -0.18714414729E+02  0.25175328207E+03  0.25269991228E+03  0.00000000000E+00 0. -1.
         -2    1    1    2    0  503  0.11282788450E+02  0.18714414729E+02 -0.18436639899E+01  0.21930110141E+02  0.00000000000E+00 0.  1.
</event>
<event>
 4    1  0.1842931E+004  0.2092330E+02  0.7546771E-02  0.1520363E+00
         21   -1    0    0  501  502  0.00000000000E+00  0.00000000000E+00  0.17456982771E+02  0.17456982771E+02  0.00000000000E+00 0.  1.
         21   -1    0    0  502  503 -0.00000000000E+00 -0.00000000000E+00 -0.28225045475E+02  0.28225045475E+02  0.00000000000E+00 0. -1.
          2    1    1    2  501    0 -0.79031349942E+01  0.19373304315E+02  0.22430167922E+01  0.21043183864E+02  0.00000000000E+00 0.  1.
         -2    1    1    2    0  503  0.79031349942E+01 -0.19373304315E+02 -0.13011079497E+02  0.24638844382E+02  0.00000000000E+00 0. -1.
</event>
<event>
 4    1  0.1842931E+004  0.2814669E+02  0.7546771E-02  0.1436417E+00
         21   -1    0    0  501  502  0.00000000000E+00  0.00000000000E+00  0.34004305514E+02  0.34004305514E+02  0.00000000000E+00 0. -1.
         21   -1    0    0  502  503 -0.00000000000E+00 -0.00000000000E+00 -0.12034012192E+03  0.12034012192E+03  0.00000000000E+00 0.  1.
          2    1    1    2  501    0  0.20769675955E+02  0.18996228233E+02  0.26132473348E+02  0.38407581149E+02  0.00000000000E+00 0. -1.
         -2    1    1    2    0  503 -0.20769675955E+02 -0.18996228233E+02 -0.11246828976E+03  0.11593684629E+03  0.00000000000E+00 0.  1.
</event>
<event>
 4    1  0.1842931E+004  0.2373781E+02  0.7546771E-02  0.1483436E+00
         21   -1    0    0  501  502  0.00000000000E+00  0.00000000000E+00  0.92708833839E+02  0.92708833839E+02  0.00000000000E+00 0. -1.
         21   -1    0    0  502  503 -0.00000000000E+00 -0.00000000000E+00 -0.74673627902E+01  0.74673627902E+01  0.00000000000E+00 0.  1.
          2    1    1    2  501    0  0.22218266326E+02  0.83565724054E+01  0.64226011259E+02  0.68472360724E+02  0.00000000000E+00 0.  1.
         -2    1    1    2    0  503 -0.22218266326E+02 -0.83565724054E+01  0.21015459790E+02  0.31703835905E+02  0.00000000000E+00 0. -1.
</event>
<event>
 4    1  0.1842931E+004  0.3468025E+02  0.7546771E-02  0.1382825E+00
         21   -1    0    0  501  502  0.00000000000E+00  0.00000000000E+00  0.16805844321E+02  0.16805844321E+02  0.00000000000E+00 0. -1.
         21   -1    0    0  502  503 -0.00000000000E+00 -0.00000000000E+00 -0.92477829251E+02  0.92477829251E+02  0.00000000000E+00 0.  1.
          2    1    1    2  501    0  0.23936720023E+02  0.25094882918E+02 -0.11851931658E+02  0.36649529303E+02  0.00000000000E+00 0. -1.
         -2    1    1    2    0  503 -0.23936720023E+02 -0.25094882918E+02 -0.63820053272E+02  0.72634144269E+02  0.00000000000E+00 0.  1.
</event>
<event>
 4    1  0.1842931E+004  0.2678549E+02  0.7546771E-02  0.1449775E+00
         21   -1    0    0  503  502  0.00000000000E+00  0.00000000000E+00  0.46148588184E+01  0.46148588184E+01  0.00000000000E+00 0.  1.
         21   -1    0    0  501  503 -0.00000000000E+00 -0.00000000000E+00 -0.17426877588E+03  0.17426877588E+03  0.00000000000E+00 0. -1.
          2    1    1    2  501    0 -0.16184129704E+02  0.21343295764E+02 -0.11420481254E+03  0.11730388543E+03  0.00000000000E+00 0.  1.
         -2    1    1    2    0  502  0.16184129704E+02 -0.21343295764E+02 -0.55449104515E+02  0.61579749268E+02  0.00000000000E+00 0. -1.
</event>
<event>
 4    1  0.1842931E+004  0.2279526E+02  0.7546771E-02  0.1495085E+00
         21   -1    0    0  501  502  0.00000000000E+00  0.00000000000E+00  0.13631112596E+02  0.13631112596E+02  0.00000000000E+00 0. -1.
         21   -1    0    0  502  503 -0.00000000000E+00 -0.00000000000E+00 -0.86069104147E+02  0.86069104147E+02  0.00000000000E+00 0.  1.
          2    1    1    2  501    0 -0.79504284782E+01  0.21363862091E+02  0.98852668683E+00  0.22816684716E+02  0.00000000000E+00 0. -1.
         -2    1    1    2    0  503  0.79504284782E+01 -0.21363862091E+02 -0.73426518238E+02  0.76883532027E+02  0.00000000000E+00 0.  1.
</event>
<event>
 4    1  0.1842931E+004  0.3410826E+02  0.7546771E-02  0.1386943E+00
         21   -1    0    0  503  502  0.00000000000E+00  0.00000000000E+00  0.27442257059E+01  0.27442257059E+01  0.00000000000E+00 0.  1.
         21   -1    0    0  501  503 -0.00000000000E+00 -0.00000000000E+00 -0.42837153343E+03  0.42837153343E+03  0.00000000000E+00 0. -1.
          2    1    1    2  501    0 -0.21374241210E+01  0.34041223222E+02 -0.23475044299E+03  0.23721539568E+03  0.00000000000E+00 0. -1.
         -2    1    1    2    0  502  0.21374241210E+01 -0.34041223222E+02 -0.19087686473E+03  0.19390036346E+03  0.00000000000E+00 0.  1.
</event>
<event>
 4    1  0.1842931E+004  0.2010360E+02  0.7546771E-02  0.1532458E+00
         21   -1    0    0  501  502  0.00000000000E+00  0.00000000000E+00  0.20348203163E+01  0.20348203163E+01  0.00000000000E+00 0. -1.
         21   -1    0    0  502  503 -0.00000000000E+00 -0.00000000000E+00 -0.27246268600E+03  0.27246268600E+03  0.00000000000E+00 0.  1.
          2    1    1    2  501    0  0.27512616292E+01 -0.19914445165E+02 -0.63762536372E+02  0.66856679631E+02  0.00000000000E+00 0. -1.
         -2    1    1    2    0  503 -0.27512616292E+01  0.19914445165E+02 -0.20666532931E+03  0.20764082669E+03  0.00000000000E+00 0.  1.
</event>
<event>
 4    1  0.1842931E+004  0.2459653E+02  0.7546771E-02  0.1473368E+00
         21   -1    0    0  501  502  0.00000000000E+00  0.00000000000E+00  0.42329387005E+02  0.42329387005E+02  0.00000000000E+00 0. -1.
         21   -1    0    0  502  503 -0.00000000000E+00 -0.00000000000E+00 -0.21814882393E+02  0.21814882393E+02  0.00000000000E+00 0.  1.
          2    1    1    2  501    0 -0.99779945584E+01  0.22481748771E+02  0.29090769127E+02  0.38095436099E+02  0.00000000000E+00 0. -1.
         -2    1    1    2    0  503  0.99779945584E+01 -0.22481748771E+02 -0.85762645147E+01  0.26048833299E+02  0.00000000000E+00 0.  1.
</event>
<event>
 4    1  0.1842931E+004  0.2181278E+02  0.7546771E-02  0.1507970E+00
         21   -1    0    0  503  502  0.00000000000E+00  0.00000000000E+00  0.48263771883E+00  0.48263771883E+00  0.00000000000E+00 0.  1.
         21   -1    0    0  501  503 -0.00000000000E+00 -0.00000000000E+00 -0.99912943256E+03  0.99912943256E+03  0.00000000000E+00 0. -1.
          2    1    1    2  501    0 -0.38002920348E+01  0.21479181846E+02 -0.55699342192E+03  0.55742037058E+03  0.00000000000E+00 0.  1.
         -2    1    1    2    0  502  0.38002920348E+01 -0.21479181846E+02 -0.44165337292E+03  0.44219169970E+03  0.00000000000E+00 0. -1.
</event>
<event>
 4    1  0.1842931E+004  0.2210491E+02  0.7546771E-02  0.1504054E+00
         21   -1    0    0  503  502  0.00000000000E+00  0.00000000000E+00  0.45465058526E+02  0.45465058526E+02  0.00000000000E+00 0. -1.
         21   -1    0    0  501  503 -0.00000000000E+00 -0.00000000000E+00 -0.10862129465E+02  0.10862129465E+02  0.00000000000E+00 0.  1.
          2    1    1    2  501    0  0.22090992137E+02 -0.78429782918E+00  0.14405860056E+02  0.26384765692E+02  0.00000000000E+00 0.  1.
         -2    1    1    2    0  502 -0.22090992137E+02  0.78429782918E+00  0.20197069005E+02  0.29942422298E+02  0.00000000000E+00 0. -1.
</event>
<event>
 4    1  0.1842931E+004  0.2575882E+02  0.7546771E-02  0.1460491E+00
         21   -1    0    0  503  502  0.00000000000E+00  0.00000000000E+00  0.14299494684E+02  0.14299494684E+02  0.00000000000E+00 0. -1.
         21   -1    0    0  501  503 -0.00000000000E+00 -0.00000000000E+00 -0.12183181613E+03  0.12183181613E+03  0.00000000000E+00 0.  1.
          2    1    1    2  501    0  0.13065823718E+02  0.22199123802E+02 -0.10732373122E+03  0.11037164550E+03  0.00000000000E+00 0.  1.
         -2    1    1    2    0  502 -0.13065823718E+02 -0.22199123802E+02 -0.20859021954E+00  0.25759665310E+02  0.00000000000E+00 0. -1.
</event>
<event>
 4    1  0.1842931E+004  0.2050112E+02  0.7546771E-02  0.1526508E+00
         21   -1    0    0  501  502  0.00000000000E+00  0.00000000000E+00  0.73472266921E+02  0.73472266921E+02  0.00000000000E+00 0.  1.
         21   -1    0    0  502  503 -0.00000000000E+00 -0.00000000000E+00 -0.89585121466E+01  0.89585121466E+01  0.00000000000E+00 0. -1.
          2    1    1    2  501    0  0.20472970417E+02 -0.10739280566E+01  0.57035819915E+02  0.60608420145E+02  0.00000000000E+00 0.  1.
         -2    1    1    2    0  503 -0.20472970417E+02  0.10739280566E+01  0.74779348600E+01  0.21822358922E+02  0.00000000000E+00 0. -1.
</event>
<event>
 4    1  0.1842931E+004  0.2058650E+02  0.7546771E-02  0.1525251E+00
         21   -1    0    0  503  502  0.00000000000E+00  0.00000000000E+00  0.21178020018E+02  0.21178020018E+02  0.00000000000E+00 0. -1.
         21   -1    0    0  501  503 -0.00000000000E+00 -0.00000000000E+00 -0.33557969404E+02  0.33557969404E+02  0.00000000000E+00 0.  1.
          2    1    1    2  501    0  0.20098039343E+02  0.44578871345E+01 -0.23578317915E+02  0.31300814987E+02  0.00000000000E+00 0.  1.
         -2    1    1    2    0  502 -0.20098039343E+02 -0.44578871345E+01  0.11198368529E+02  0.23435174435E+02  0.00000000000E+00 0. -1.
</event>
<event>
 4    1  0.1842931E+004  0.2210952E+02  0.7546771E-02  0.1503993E+00
         21   -1    0    0  501  502  0.00000000000E+00  0.00000000000E+00  0.68944418858E+02  0.68944418858E+02  0.00000000000E+00 0.  1.
         21   -1    0    0  502  503 -0.00000000000E+00 -0.00000000000E+00 -0.10771774412E+02  0.10771774412E+02  0.00000000000E+00 0. -1.
          2    1    1    2  501    0 -0.20221534115E+02  0.89398293713E+01  0.52388077331E+02  0.56862480051E+02  0.00000000000E+00 0.  1.
         -2    1    1    2    0  503  0.20221534115E+02 -0.89398293713E+01  0.57845671158E+01  0.22853713219E+02  0.00000000000E+00 0. -1.
</event>
<event>
 4    1  0.1842931E+004  0.2754141E+02  0.7546771E-02  0.1442244E+00
         21   -1    0    0  501  502  0.00000000000E+00  0.00000000000E+00  0.72172451332E+01  0.72172451332E+01  0.00000000000E+00 0. -1.
         21   -1    0    0  502  503 -0.00000000000E+00 -0.00000000000E+00 -0.88239906346E+03  0.88239906346E+03  0.00000000000E+00 0.  1.
          2    1    1    2  501    0  0.22691715196E+02 -0.15608175749E+02 -0.20112111715E+02  0.34103168861E+02  0.00000000000E+00 0. -1.
         -2    1    1    2    0  503 -0.22691715196E+02  0.15608175749E+02 -0.85506970661E+03  0.85551313973E+03  0.00000000000E+00 0.  1.
</event>
<event>
 4    1  0.1842931E+004  0.2418261E+02  0.7546771E-02  0.1478159E+00
         21   -1    0    0  503  502  0.00000000000E+00  0.00000000000E+00  0.40578739242E+01  0.40578739242E+01  0.00000000000E+00 0.  1.
         21   -1    0    0  501  503 -0.00000000000E+00 -0.00000000000E+00 -0.26765091562E+03  0.26765091562E+03  0.00000000000E+00 0. -1.
          2    1    1    2  501    0 -0.10056601388E+02 -0.21992344910E+02 -0.22409335950E+03  0.22539439265E+03  0.00000000000E+00 0. -1.
         -2    1    1    2    0  502  0.10056601388E+02  0.21992344910E+02 -0.39499682200E+02  0.46314396898E+02  0.00000000000E+00 0.  1.
</event>
<event>
 4    1  0.1842931E+004  0.4298744E+02  0.7546771E-02  0.1331816E+00
         21   -1    0    0  501  502  0.00000000000E+00  0.00000000000E+00  0.12991761294E+02  0.12991761294E+02  0.00000000000E+00 0.  1.
         21   -1    0    0  502  503 -0.00000000000E+00 -0.00000000000E+00 -0.20570682969E+03  0.20570682969E+03  0.00000000000E+00 0. -1.
          2    1    1    2  501    0 -0.56895192840E+01 -0.42609263620E+02 -0.35617861169E+02  0.55826087184E+02  0.00000000000E+00 0.  1.
         -2    1    1    2    0  503  0.56895192840E+01  0.42609263620E+02 -0.15709720722E+03  0.16287250380E+03  0.00000000000E+00 0. -1.
</event>
<event>
 4    1  0.1842931E+004  0.4352431E+02  0.7546771E-02  0.1328985E+00
         21   -1    0    0  503  502  0.00000000000E+00  0.00000000000E+00  0.15671844363E+02  0.15671844363E+02  0.00000000000E+00 0. -1.
         21   -1    0    0  501  503 -0.00000000000E+00 -0.00000000000E+00 -0.45018050920E+03  0.45018050920E+03  0.00000000000E+00 0.  1.
          2    1    1    2  501    0  0.40934046997E+02  0.14790853222E+02 -0.41646983581E+03  0.41873797259E+03  0.00000000000E+00 0.  1.
         -2    1    1    2    0  502 -0.40934046997E+02 -0.14790853222E+02 -0.18038829028E+02  0.47114380981E+02  0.00000000000E+00 0. -1.
</event>
<event>
 4    1  0.1842931E+004  0.2421826E+02  0.7546771E-02  0.1477742E+00
         21   -1    0    0  501  502  0.00000000000E+00  0.00000000000E+00  0.40553522518E+02  0.40553522518E+02  0.00000000000E+00 0. -1.
         21   -1    0    0  502  503 -0.00000000000E+00 -0.00000000000E+00 -0.18270744061E+02  0.18270744061E+02  0.00000000000E+00 0.  1.
          2    1    1    2  501    0 -0.23934766605E+02  0.36947338883E+01  0.24568555648E+02  0.34498377318E+02  0.00000000000E+00 0. -1.
         -2    1    1    2    0  503  0.23934766605E+02 -0.36947338883E+01 -0.22857771909E+01  0.24325889261E+02  0.00000000000E+00 0.  1.
</event>
<event>
 4    1  0.1842931E+004  0.5460637E+02  0.7546771E-02  0.1279348E+00
         21   -1    0    0  503  502  0.00000000000E+00  0.00000000000E+00  0.75722539161E+03  0.75722539161E+03  0.00000000000E+00 0.  1.
         21   -1    0    0  501  503 -0.00000000000E+00 -0.00000000000E+00 -0.39874646380E+01  0.39874646380E+01  0.00000000000E+00 0. -1.
          2    1    1    2  501    0 -0.54219768416E+02  0.64863366462E+01  0.33417254743E+03  0.33860470656E+03  0.00000000000E+00 0.  1.
         -2    1    1    2    0  502  0.54219768416E+02 -0.64863366462E+01  0.41906537954E+03  0.42260814969E+03  0.00000000000E+00 0. -1.
</event>
<event>
 4    1  0.1842931E+004  0.3027369E+02  0.7546771E-02  0.1417233E+00
         21   -1    0    0  501  502  0.00000000000E+00  0.00000000000E+00  0.59390736045E+02  0.59390736045E+02  0.00000000000E+00 0.  1.
         21   -1    0    0  502  503 -0.00000000000E+00 -0.00000000000E+00 -0.15630278769E+02  0.15630278769E+02  0.00000000000E+00 0. -1.
          2    1    1    2  501    0  0.28529610228E+02 -0.10127067517E+02  0.26108931190E+02  0.39977149025E+02  0.00000000000E+00 0. -1.
         -2    1    1    2    0  503 -0.28529610228E+02  0.10127067517E+02  0.17651526086E+02  0.35043865789E+02  0.00000000000E+00 0.  1.
</event>
<event>
 4    1  0.1842931E+004  0.2518008E+02  0.7546771E-02  0.1466799E+00
         21   -1    0    0  503  502  0.00000000000E+00  0.00000000000E+00  0.35262086409E+01  0.35262086409E+01  0.00000000000E+00 0. -1.
         21   -1    0    0  501  503 -0.00000000000E+00 -0.00000000000E+00 -0.50507613764E+03  0.50507613764E+03  0.00000000000E+00 0.  1.
          2    1    1    2  501    0  0.96589800086E+01 -0.23253828598E+02 -0.45485074824E+03  0.45554718703E+03  0.00000000000E+00 0.  1.
         -2    1    1    2    0  502 -0.96589800086E+01  0.23253828598E+02 -0.46699180762E+02  0.53055159251E+02  0.00000000000E+00 0. -1.
</event>
<event>
 4    1  0.1842931E+004  0.3054660E+02  0.7546771E-02  0.1414905E+00
         21   -1    0    0  503  502  0.00000000000E+00  0.00000000000E+00  0.10243931087E+02  0.10243931087E+02  0.00000000000E+00 0. -1.
         21   -1    0    0  501  503 -0.00000000000E+00 -0.00000000000E+00 -0.93357588655E+02  0.93357588655E+02  0.00000000000E+00 0.  1.
          2    1    1    2  501    0 -0.63916262615E+01 -0.29870418338E+02 -0.49634313467E+02  0.58280870372E+02  0.00000000000E+00 0. -1.
         -2    1    1    2    0  502  0.63916262615E+01  0.29870418338E+02 -0.33479344100E+02  0.45320649370E+02  0.00000000000E+00 0.  1.
</event>
<event>
 4    1  0.1842931E+004  0.3880695E+02  0.7546771E-02  0.1355622E+00
         21   -1    0    0  501  502  0.00000000000E+00  0.00000000000E+00  0.11569400726E+03  0.11569400726E+03  0.00000000000E+00 0. -1.
         21   -1    0    0  502  503 -0.00000000000E+00 -0.00000000000E+00 -0.39952952403E+02  0.39952952403E+02  0.00000000000E+00 0.  1.
          2    1    1    2  501    0  0.16965917008E+02 -0.34901815639E+02  0.10177085129E+03  0.10891870935E+03  0.00000000000E+00 0. -1.
         -2    1    1    2    0  503 -0.16965917008E+02  0.34901815639E+02 -0.26029796432E+02  0.46728250311E+02  0.00000000000E+00 0.  1.
</event>
<event>
 4    1  0.1842931E+004  0.2731267E+02  0.7546771E-02  0.1444492E+00
         21   -1    0    0  501  502  0.00000000000E+00  0.00000000000E+00  0.17706792138E+02  0.17706792138E+02  0.00000000000E+00 0.  1.
         21   -1    0    0  502  503 -0.00000000000E+00 -0.00000000000E+00 -0.45093051280E+02  0.45093051280E+02  0.00000000000E+00 0. -1.
          2    1    1    2  501    0  0.95731700421E+01 -0.25580004266E+02 -0.56437237572E+01  0.27889672295E+02  0.00000000000E+00 0.  1.
         -2    1    1    2    0  503 -0.95731700421E+01  0.25580004266E+02 -0.21742535384E+02  0.34910171123E+02  0.00000000000E+00 0. -1.
</event>
<event>
 4    1  0.1842931E+004  0.2710663E+02  0.7546771E-02  0.1446540E+00
         21   -1    0    0  501  502  0.00000000000E+00  0.00000000000E+00  0.11998591147E+04  0.11998591147E+04  0.00000000000E+00 0. -1.
         21   -1    0    0  502  503 -0.00000000000E+00 -0.00000000000E+00 -0.61420430293E+00  0.61420430293E+00  0.00000000000E+00 0.  1.
          2    1    1    2  501    0 -0.15969319037E+02  0.21903203429E+02  0.63233691350E+03  0.63291764207E+03  0.00000000000E+00 0. -1.
         -2    1    1    2    0  503  0.15969319037E+02 -0.21903203429E+02  0.56690799686E+03  0.56755567690E+03  0.00000000000E+00 0.  1.
</event>
<event>
 4    1  0.1842931E+004  0.2185158E+02  0.7546771E-02  0.1507445E+00
         21   -1    0    0  503  502  0.00000000000E+00  0.00000000000E+00  0.24541211344E+01  0.24541211344E+01  0.00000000000E+00 0. -1.
         21   -1    0    0  501  503 -0.00000000000E+00 -0.00000000000E+00 -0.19463405862E+03  0.19463405862E+03  0.00000000000E+00 0.  1.
          2    1    1    2  501    0 -0.21800215024E+02  0.14974531834E+01 -0.97914917884E+02  0.10032359087E+03  0.00000000000E+00 0. -1.
         -2    1    1    2    0  502  0.21800215024E+02 -0.14974531834E+01 -0.94265019602E+02  0.96764588883E+02  0.00000000000E+00 0.  1.
</event>
<event>
 4    1  0.1842931E+004  0.2603785E+02  0.7546771E-02  0.1457520E+00
         21   -1    0    0  501  502  0.00000000000E+00  0.00000000000E+00  0.40083742398E+03  0.40083742398E+03  0.00000000000E+00 0. -1.
         21   -1    0    0  502  503 -0.00000000000E+00 -0.00000000000E+00 -0.17733397562E+01  0.17733397562E+01  0.00000000000E+00 0.  1.
          2    1    1    2  501    0  0.68237084301E+01  0.25127804319E+02  0.24280854659E+03  0.24420065488E+03  0.00000000000E+00 0.  1.
         -2    1    1    2    0  503 -0.68237084301E+01 -0.25127804319E+02  0.15625553763E+03  0.15841010886E+03  0.00000000000E+00 0. -1.
</event>
<event>
 4    1  0.1842931E+004  0.2929625E+02  0.7546771E-02  0.1425812E+00
         21   -1    0    0  501  502  0.00000000000E+00  0.00000000000E+00  0.27166722557E+03  0.27166722557E+03  0.00000000000E+00 0. -1.
         21   -1    0    0  502  503 -0.00000000000E+00 -0.00000000000E+00 -0.22367808191E+02  0.22367808191E+02  0.00000000000E+00 0.  1.
          2    1    1    2  501    0  0.28165434887E+02 -0.80609101817E+01  0.26088967608E+03  0.26252941375E+03  0.00000000000E+00 0. -1.
         -2    1    1    2    0  503 -0.28165434887E+02  0.80609101817E+01 -0.11590258707E+02  0.31505620011E+02  0.00000000000E+00 0.  1.
</event>
<event>
 4    1  0.1842931E+004  0.2450915E+02  0.7546771E-02  0.1474370E+00
         21   -1    0    0  501  502  0.00000000000E+00  0.00000000000E+00  0.17847107960E+02  0.17847107960E+02  0.00000000000E+00 0. -1.
         21   -1    0    0  502  503 -0.00000000000E+00 -0.00000000000E+00 -0.41940751549E+02  0.41940751549E+02  0.00000000000E+00 0.  1.
          2    1    1    2  501    0 -0.96867024769E+01 -0.22513685124E+02  0.12378807995E+01  0.24540386542E+02  0.00000000000E+00 0. -1.
         -2    1    1    2    0  503  0.96867024769E+01  0.22513685124E+02 -0.25331524388E+02  0.35247472967E+02  0.00000000000E+00 0.  1.
</event>
<event>
 4    1  0.1842931E+004  0.2977213E+02  0.7546771E-02  0.1421587E+00
         21   -1    0    0  501  502  0.00000000000E+00  0.00000000000E+00  0.12373381272E+02  0.12373381272E+02  0.00000000000E+00 0. -1.
         21   -1    0    0  502  503 -0.00000000000E+00 -0.00000000000E+00 -0.78532839820E+02  0.78532839820E+02  0.00000000000E+00 0.  1.
          2    1    1    2  501    0  0.27184514481E+02 -0.12140083742E+02 -0.19609864636E+02  0.35650052620E+02  0.00000000000E+00 0. -1.
         -2    1    1    2    0  503 -0.27184514481E+02  0.12140083742E+02 -0.46549593912E+02  0.55256168472E+02  0.00000000000E+00 0.  1.
</event>
<event>
 4    1  0.1842931E+004  0.2341985E+02  0.7546771E-02  0.1487292E+00
         21   -1    0    0  501  502  0.00000000000E+00  0.00000000000E+00  0.19941393576E+01  0.19941393576E+01  0.00000000000E+00 0. -1.
         21   -1    0    0  502  503 -0.00000000000E+00 -0.00000000000E+00 -0.27608831318E+03  0.27608831318E+03  0.00000000000E+00 0.  1.
          2    1    1    2  501    0 -0.23387520823E+02  0.12301241249E+01 -0.14557115328E+03  0.14744303986E+03  0.00000000000E+00 0.  1.
         -2    1    1    2    0  503  0.23387520823E+02 -0.12301241249E+01 -0.12852302054E+03  0.13063941267E+03  0.00000000000E+00 0. -1.
</event>
<event>
 4    1  0.1842931E+004  0.2826851E+02  0.7546771E-02  0.1435266E+00
         21   -1    0    0  503  502  0.00000000000E+00  0.00000000000E+00  0.10965213251E+02  0.10965213251E+02  0.00000000000E+00 0. -1.
         21   -1    0    0  501  503 -0.00000000000E+00 -0.00000000000E+00 -0.11078862190E+03  0.11078862190E+03  0.00000000000E+00 0.  1.
          2    1    1    2  501    0 -0.23887081535E+02 -0.15116740215E+02 -0.85523428824E+02  0.90074221489E+02  0.00000000000E+00 0.  1.
         -2    1    1    2    0  502  0.23887081535E+02  0.15116740215E+02 -0.14299979829E+02  0.31679613667E+02  0.00000000000E+00 0. -1.
</event>
<event>
 4    1  0.1842931E+004  0.2284752E+02  0.7546771E-02  0.1494422E+00
         21   -1    0    0  503  502  0.00000000000E+00  0.00000000000E+00  0.45153670785E+01  0.45153670785E+01  0.00000000000E+00 0. -1.
         21   -1    0    0  501  503 -0.00000000000E+00 -0.00000000000E+00 -0.15156888583E+03  0.15156888583E+03  0.00000000000E+00 0.  1.
          2    1    1    2  501    0 -0.14187302434E+02  0.17908920273E+02 -0.11154080095E+03  0.11385674882E+03  0.00000000000E+00 0.  1.
         -2    1    1    2    0  502  0.14187302434E+02 -0.17908920273E+02 -0.35512717799E+02  0.42227504084E+02  0.00000000000E+00 0. -1.
</event>
<event>
 4    1  0.1842931E+004  0.2233816E+02  0.7546771E-02  0.1500980E+00
         21   -1    0    0  503  502  0.00000000000E+00  0.00000000000E+00  0.90044276730E+02  0.90044276730E+02  0.00000000000E+00 0. -1.
         21   -1    0    0  501  503 -0.00000000000E+00 -0.00000000000E+00 -0.56178867654E+01  0.56178867654E+01  0.00000000000E+00 0.  1.
          2    1    1    2  501    0  0.22310613345E+02  0.11089281177E+01  0.47785403364E+02  0.52748819551E+02  0.00000000000E+00 0.  1.
         -2    1    1    2    0  502 -0.22310613345E+02 -0.11089281177E+01  0.36640986601E+02  0.42913343944E+02  0.00000000000E+00 0. -1.
</event>
<event>
 4    1  0.1842931E+004  0.2767207E+02  0.7546771E-02  0.1440971E+00
         21   -1    0    0  503  502  0.00000000000E+00  0.00000000000E+00  0.31176306536E+02  0.31176306536E+02  0.00000000000E+00 0. -1.
         21   -1    0    0  501  503 -0.00000000000E+00 -0.00000000000E+00 -0.56241039833E+02  0.56241039833E+02  0.00000000000E+00 0.  1.
          2    1    1    2  501    0  0.25600594537E+02  0.10504903571E+02 -0.45336527787E+02  0.53114444283E+02  0.00000000000E+00 0.  1.
         -2    1    1    2    0  502 -0.25600594537E+02 -0.10504903571E+02  0.20271794490E+02  0.34302902087E+02  0.00000000000E+00 0. -1.
</event>
<event>
 4    1  0.1842931E+004  0.2714014E+02  0.7546771E-02  0.1446205E+00
         21   -1    0    0  501  502  0.00000000000E+00  0.00000000000E+00  0.36396018738E+02  0.36396018738E+02  0.00000000000E+00 0.  1.
         21   -1    0    0  502  503 -0.00000000000E+00 -0.00000000000E+00 -0.99473492689E+02  0.99473492689E+02  0.00000000000E+00 0. -1.
          2    1    1    2  501    0  0.26971770777E+02  0.30184170676E+01  0.29092700812E+02  0.39786586948E+02  0.00000000000E+00 0.  1.
         -2    1    1    2    0  503 -0.26971770777E+02 -0.30184170676E+01 -0.92170174764E+02  0.96082924479E+02  0.00000000000E+00 0. -1.
</event>
<event>
 4    1  0.1842931E+004  0.2111637E+02  0.7546771E-02  0.1517610E+00
         21   -1    0    0  501  502  0.00000000000E+00  0.00000000000E+00  0.10052762072E+04  0.10052762072E+04  0.00000000000E+00 0. -1.
         21   -1    0    0  502  503 -0.00000000000E+00 -0.00000000000E+00 -0.57176538334E+00  0.57176538334E+00  0.00000000000E+00 0.  1.
          2    1    1    2  501    0 -0.16833709474E+00 -0.21115702807E+02  0.74049915096E+03  0.74080017131E+03  0.00000000000E+00 0. -1.
         -2    1    1    2    0  503  0.16833709474E+00  0.21115702807E+02  0.26420529082E+03  0.26504780123E+03  0.00000000000E+00 0.  1.
</event>
<event>
 4    1  0.1842931E+004  0.2664174E+02  0.7546771E-02  0.1451240E+00
         21   -1    0    0  503  502  0.00000000000E+00  0.00000000000E+00  0.27496963263E+03  0.27496963263E+03  0.00000000000E+00 0.  1.
         21   -1    0    0  501  503 -0.00000000000E+00 -0.00000000000E+00 -0.47942305122E+01  0.47942305122E+01  0.00000000000E+00 0. -1.
          2    1    1    2  501    0  0.21903470416E+02 -0.15166425033E+02  0.40052421364E+02  0.48103834791E+02  0.00000000000E+00 0. -1.
         -2    1    1    2    0  502 -0.21903470416E+02  0.15166425033E+02  0.23012298075E+03  0.23166002835E+03  0.00000000000E+00 0.  1.
</event>
<event>
 4    1  0.1842931E+004  0.2286275E+02  0.7546771E-02  0.1494229E+00
         21   -1    0    0  501  502  0.00000000000E+00  0.00000000000E+00  0.19465413155E+01  0.19465413155E+01  0.00000000000E+00 0. -1.
         21   -1    0    0  502  503 -0.00000000000E+00 -0.00000000000E+00 -0.34211578365E+03  0.34211578365E+03  0.00000000000E+00 0.  1.
          2    1    1    2  501    0  0.14029930029E+02 -0.18051772209E+02 -0.90300493349E+02  0.93149796111E+02  0.00000000000E+00 0. -1.
         -2    1    1    2    0  503 -0.14029930029E+02  0.18051772209E+02 -0.24986874899E+03  0.25091252886E+03  0.00000000000E+00 0.  1.
</event>
<event>
 4    1  0.1842931E+004  0.3289448E+02  0.7546771E-02  0.1396002E+00
         21   -1    0    0  501  502  0.00000000000E+00  0.00000000000E+00  0.11543113631E+03  0.11543113631E+03  0.00000000000E+00 0. -1.
         21   -1    0    0  502  503 -0.00000000000E+00 -0.00000000000E+00 -0.12775110243E+02  0.12775110243E+02  0.00000000000E+00 0.  1.
          2    1    1    2  501    0  0.26345386775E+02  0.19696889580E+02  0.84403767952E+02  0.90587211614E+02  0.00000000000E+00 0. -1.
         -2    1    1    2    0  503 -0.26345386775E+02 -0.19696889580E+02  0.18252258116E+02  0.37619034939E+02  0.00000000000E+00 0.  1.
</event>
<event>
 4    1  0.1842931E+004  0.3086449E+02  0.7546771E-02  0.1412230E+00
         21   -1    0    0  503  502  0.00000000000E+00  0.00000000000E+00  0.92085962883E+01  0.92085962883E+01  0.00000000000E+00 0. -1.
         21   -1    0    0  501  503 -0.00000000000E+00 -0.00000000000E+00 -0.11179264140E+03  0.11179264140E+03  0.00000000000E+00 0.  1.
          2    1    1    2  501    0  0.92191937324E+01  0.29455445797E+02 -0.67820780846E+02  0.74513590268E+02  0.00000000000E+00 0.  1.
         -2    1    1    2    0  502 -0.92191937324E+01 -0.29455445797E+02 -0.34763264264E+02  0.46487647418E+02  0.00000000000E+00 0. -1.
</event>
<event>
 4    1  0.1842931E+004  0.2824419E+02  0.7546771E-02  0.1435495E+00
         21   -1    0    0  501  502  0.00000000000E+00  0.00000000000E+00  0.11549499594E+03  0.11549499594E+03  0.00000000000E+00 0. -1.
         21   -1    0    0  502  503 -0.00000000000E+00 -0.00000000000E+00 -0.75229540866E+01  0.75229540866E+01  0.00000000000E+00 0.  1.
          2    1    1    2  501    0  0.22567192166E+02  0.16983989140E+02  0.71585004477E+02  0.76955486584E+02  0.00000000000E+00 0. -1.
         -2    1    1    2    0  503 -0.22567192166E+02 -0.16983989140E+02  0.36387037372E+02  0.46062463439E+02  0.00000000000E+00 0.  1.
</event>
<event>
 4    1  0.1842931E+004  0.2109871E+02  0.7546771E-02  0.1517860E+00
         21   -1    0    0  503  502  0.00000000000E+00  0.00000000000E+00  0.44316437331E+03  0.44316437331E+03  0.00000000000E+00 0. -1.
         21   -1    0    0  501  503 -0.00000000000E+00 -0.00000000000E+00 -0.75755137607E+01  0.75755137607E+01  0.00000000000E+00 0.  1.
          2    1    1    2  501    0  0.16392431861E+01  0.21034936407E+02  0.78973685158E+01  0.22528295483E+02  0.00000000000E+00 0.  1.
         -2    1    1    2    0  502 -0.16392431861E+01 -0.21034936407E+02  0.42769149103E+03  0.42821159159E+03  0.00000000000E+00 0. -1.
</event>
<event>
 4    1  0.1842931E+004  0.2099223E+02  0.7546771E-02  0.1519376E+00
         21   -1    0    0  501  502  0.00000000000E+00  0.00000000000E+00  0.28095347474E+02  0.28095347474E+02  0.00000000000E+00 0.  1.
         21   -1    0    0  502  503 -0.00000000000E+00 -0.00000000000E+00 -0.16868466016E+02  0.16868466016E+02  0.00000000000E+00 0. -1.
          2    1    1    2  501    0 -0.15389296419E+02 -0.14277370023E+02  0.11568483796E+02  0.23968803816E+02  0.00000000000E+00 0. -1.
         -2    1    1    2    0  503  0.15389296419E+02  0.14277370023E+02 -0.34160233804E+00  0.20995009674E+02  0.00000000000E+00 0.  1.
</event>
<event>
 4    1  0.1842931E+004  0.2080324E+02  0.7546771E-02  0.1522093E+00
         21   -1    0    0  501  502  0.00000000000E+00  0.00000000000E+00  0.10404915780E+01  0.10404915780E+01  0.00000000000E+00 0.  1.
         21   -1    0    0  502  503 -0.00000000000E+00 -0.00000000000E+00 -0.48848667243E+03  0.48848667243E+03  0.00000000000E+00 0. -1.
          2    1    1    2  501    0  0.92759984952E+00  0.20782547969E+02 -0.14939299773E+03  0.15083448714E+03  0.00000000000E+00 0.  1.
         -2    1    1    2    0  503 -0.92759984952E+00 -0.20782547969E+02 -0.33805318313E+03  0.33869267687E+03  0.00000000000E+00 0. -1.
</event>
<event>
 4    1  0.1842931E+004  0.2888518E+02  0.7546771E-02  0.1429538E+00
         21   -1    0    0  503  502  0.00000000000E+00  0.00000000000E+00  0.28500243906E+01  0.28500243906E+01  0.00000000000E+00 0. -1.
         21   -1    0    0  501  503 -0.00000000000E+00 -0.00000000000E+00 -0.40638486483E+03  0.40638486483E+03  0.00000000000E+00 0.  1.
          2    1    1    2  501    0  0.28378208341E+02 -0.53880183833E+01 -0.30996655468E+03  0.31130952197E+03  0.00000000000E+00 0.  1.
         -2    1    1    2    0  502 -0.28378208341E+02  0.53880183833E+01 -0.93568285768E+02  0.97925367257E+02  0.00000000000E+00 0. -1.
</event>
<event>
 4    1  0.1842931E+004  0.2174718E+02  0.7546771E-02  0.1508859E+00
         21   -1    0    0  501  502  0.00000000000E+00  0.00000000000E+00  0.98540106719E+00  0.98540106719E+00  0.00000000000E+00 0. -1.
         21   -1    0    0  502  503 -0.00000000000E+00 -0.00000000000E+00 -0.13620368299E+04  0.13620368299E+04  0.00000000000E+00 0.  1.
          2    1    1    2  501    0 -0.12750959384E+02  0.17616840482E+02 -0.13207830624E+03  0.13385671075E+03  0.00000000000E+00 0. -1.
         -2    1    1    2    0  503  0.12750959384E+02 -0.17616840482E+02 -0.12289731225E+04  0.12291655202E+04  0.00000000000E+00 0.  1.
</event>
<event>
 4    1  0.1842931E+004  0.2190114E+02  0.7546771E-02  0.1506778E+00
         21   -1    0    0  503  502  0.00000000000E+00  0.00000000000E+00  0.31665491828E+02  0.31665491828E+02  0.00000000000E+00 0.  1.
         21   -1    0    0  501  503 -0.00000000000E+00 -0.00000000000E+00 -0.15207754934E+02  0.15207754934E+02  0.00000000000E+00 0. -1.
          2    1    1    2  501    0  0.17908983870E+02 -0.12606674793E+02  0.97014195088E+01  0.23953653022E+02  0.00000000000E+00 0. -1.
         -2    1    1    2    0  502 -0.17908983870E+02  0.12606674793E+02  0.67563173849E+01  0.22919593740E+02  0.00000000000E+00 0.  1.
</event>
<event>
 4    1  0.1842931E+004  0.4064240E+02  0.7546771E-02  0.1344762E+00
         21   -1    0    0  501  502  0.00000000000E+00  0.00000000000E+00  0.27792655852E+03  0.27792655852E+03  0.00000000000E+00 0. -1.
         21   -1    0    0  502  503 -0.00000000000E+00 -0.00000000000E+00 -0.23643990098E+02  0.23643990098E+02  0.00000000000E+00 0.  1.
          2    1    1    2  501    0  0.33167781704E+01  0.40506833630E+02  0.25760612336E+03  0.26079248336E+03  0.00000000000E+00 0. -1.
         -2    1    1    2    0  503 -0.33167781704E+01 -0.40506833630E+02 -0.33235549380E+01  0.40778065250E+02  0.00000000000E+00 0.  1.
</event>
<event>
 4    1  0.1842931E+004  0.9079258E+02  0.7546771E-02  0.1180796E+00
         21   -1    0    0  503  502  0.00000000000E+00  0.00000000000E+00  0.42994457219E+02  0.42994457219E+02  0.00000000000E+00 0. -1.
         21   -1    0    0  501  503 -0.00000000000E+00 -0.00000000000E+00 -0.19173352536E+03  0.19173352536E+03  0.00000000000E+00 0.  1.
          2    1    1    2  501    0  0.73085150903E+02  0.53868859512E+02 -0.74926341641E+02  0.11771682114E+03  0.00000000000E+00 0.  1.
         -2    1    1    2    0  502 -0.73085150903E+02 -0.53868859512E+02 -0.73812726498E+02  0.11701116144E+03  0.00000000000E+00 0. -1.
</event>
<event>
 4    1  0.1842931E+004  0.2913637E+02  0.7546771E-02  0.1427253E+00
         21   -1    0    0  503  502  0.00000000000E+00  0.00000000000E+00  0.35854279480E+02  0.35854279480E+02  0.00000000000E+00 0.  1.
         21   -1    0    0  501  503 -0.00000000000E+00 -0.00000000000E+00 -0.23881729105E+02  0.23881729105E+02  0.00000000000E+00 0. -1.
          2    1    1    2  501    0  0.29122008886E+02  0.91457824157E+00  0.32219878182E+01  0.29313973808E+02  0.00000000000E+00 0. -1.
         -2    1    1    2    0  502 -0.29122008886E+02 -0.91457824157E+00  0.87505625567E+01  0.30422034777E+02  0.00000000000E+00 0.  1.
</event>
<event>
 4    1  0.1842931E+004  0.2297820E+02  0.7546771E-02  0.1492772E+00
         21   -1    0    0  503  502  0.00000000000E+00  0.00000000000E+00  0.30717895914E+02  0.30717895914E+02  0.00000000000E+00 0. -1.
         21   -1    0    0  501  503 -0.00000000000E+00 -0.00000000000E+00 -0.17729074012E+02  0.17729074012E+02  0.00000000000E+00 0.  1.
          2    1    1    2  501    0 -0.19308384998E+02  0.12457292239E+02  0.22650190848E+01  0.23089568481E+02  0.00000000000E+00 0. -1.
         -2    1    1    2    0  502  0.19308384998E+02 -0.12457292239E+02  0.10723802818E+02  0.25357401445E+02  0.00000000000E+00 0.  1.
</event>
<event>
 4    1  0.1842931E+004  0.3349877E+02  0.7546771E-02  0.1391436E+00
         21   -1    0    0  501  502  0.00000000000E+00  0.00000000000E+00  0.98105031839E+01  0.98105031839E+01  0.00000000000E+00 0.  1.
         21   -1    0    0  502  503 -0.00000000000E+00 -0.00000000000E+00 -0.29890150636E+03  0.29890150636E+03  0.00000000000E+00 0. -1.
          2    1    1    2  501    0 -0.33427758030E+02 -0.21800236004E+01 -0.23268649387E+02  0.40787222927E+02  0.00000000000E+00 0.  1.
         -2    1    1    2    0  503  0.33427758030E+02  0.21800236004E+01 -0.26582235379E+03  0.26792478662E+03  0.00000000000E+00 0. -1.
</event>
<event>
 4    1  0.1842931E+004  0.2654086E+02  0.7546771E-02  0.1452276E+00
         21   -1    0    0  503  502  0.00000000000E+00  0.00000000000E+00  0.20572184667E+02  0.20572184667E+02  0.00000000000E+00 0. -1.
         21   -1    0    0  501  503 -0.00000000000E+00 -0.00000000000E+00 -0.47959120848E+02  0.47959120848E+02  0.00000000000E+00 0.  1.
          2    1    1    2  501    0  0.20427635938E+02 -0.16944884114E+02  0.46324899923E+01  0.26942111484E+02  0.00000000000E+00 0. -1.
         -2    1    1    2    0  502 -0.20427635938E+02  0.16944884114E+02 -0.32019426173E+02  0.41589194031E+02  0.00000000000E+00 0.  1.
</event>
<event>
 4    1  0.1842931E+004  0.2511975E+02  0.7546771E-02  0.1467468E+00
         21   -1    0    0  503  502  0.00000000000E+00  0.00000000000E+00  0.20370981551E+03  0.20370981551E+03  0.00000000000E+00 0.  1.
         21   -1    0    0  501  503 -0.00000000000E+00 -0.00000000000E+00 -0.36342636342E+01  0.36342636342E+01  0.00000000000E+00 0. -1.
          2    1    1    2  501    0 -0.58972458301E+01  0.24417704565E+02  0.60197364235E+02  0.65228248983E+02  0.00000000000E+00 0. -1.
         -2    1    1    2    0  502  0.58972458301E+01 -0.24417704565E+02  0.13987818764E+03  0.14211583016E+03  0.00000000000E+00 0.  1.
</event>
<event>
 4    1  0.1842931E+004  0.2445992E+02  0.7546771E-02  0.1474937E+00
         21   -1    0    0  501  502  0.00000000000E+00  0.00000000000E+00  0.64899204595E+01  0.64899204595E+01  0.00000000000E+00 0. -1.
         21   -1    0    0  502  503 -0.00000000000E+00 -0.00000000000E+00 -0.11576909013E+03  0.11576909013E+03  0.00000000000E+00 0.  1.
          2    1    1    2  501    0 -0.11819282189E+02  0.21414771356E+02 -0.27050106029E+02  0.36469111586E+02  0.00000000000E+00 0. -1.
         -2    1    1    2    0  503  0.11819282189E+02 -0.21414771356E+02 -0.82229063641E+02  0.85789899003E+02  0.00000000000E+00 0.  1.
</event>
<event>
 4    1  0.1842931E+004  0.2328032E+02  0.7546771E-02  0.1489008E+00
         21   -1    0    0  503  502  0.00000000000E+00  0.00000000000E+00  0.15565359358E+03  0.15565359358E+03  0.00000000000E+00 0.  1.
         21   -1    0    0  501  503 -0.00000000000E+00 -0.00000000000E+00 -0.40845772157E+01  0.40845772157E+01  0.00000000000E+00 0. -1.
          2    1    1    2  501    0 -0.18276229322E+02 -0.14420566028E+02  0.45105556427E+02  0.50759082964E+02  0.00000000000E+00 0. -1.
         -2    1    1    2    0  502  0.18276229322E+02  0.14420566028E+02  0.10646345994E+03  0.10897908784E+03  0.00000000000E+00 0.  1.
</event>
<event>
 4    1  0.1842931E+004  0.3237634E+02  0.7546771E-02  0.1400010E+00
         21   -1    0    0  501  502  0.00000000000E+00  0.00000000000E+00  0.15722920256E+03  0.15722920256E+03  0.00000000000E+00 0. -1.
         21   -1    0    0  502  503 -0.00000000000E+00 -0.00000000000E+00 -0.36566331489E+02  0.36566331489E+02  0.00000000000E+00 0.  1.
          2    1    1    2  501    0 -0.17249792074E+02 -0.27398398106E+02  0.14795173134E+03  0.15145277268E+03  0.00000000000E+00 0. -1.
         -2    1    1    2    0  503  0.17249792074E+02  0.27398398106E+02 -0.27288860272E+02  0.42342761369E+02  0.00000000000E+00 0.  1.
</event>
<event>
 4    1  0.1842931E+004  0.3915125E+02  0.7546771E-02  0.1353533E+00
         21   -1    0    0  501  502  0.00000000000E+00  0.00000000000E+00  0.18914996647E+01  0.18914996647E+01  0.00000000000E+00 0. -1.
         21   -1    0    0  502  503 -0.00000000000E+00 -0.00000000000E+00 -0.12144002406E+04  0.12144002406E+04  0.00000000000E+00 0.  1.
          2    1    1    2  501    0  0.31380610514E+02 -0.23411054255E+02 -0.25547650095E+03  0.25845901555E+03  0.00000000000E+00 0. -1.
         -2    1    1    2    0  503 -0.31380610514E+02  0.23411054255E+02 -0.95703224002E+03  0.95783272476E+03  0.00000000000E+00 0.  1.
</event>
<event>
 4    1  0.1842931E+004  0.2925046E+02  0.7546771E-02  0.1426224E+00
         21   -1    0    0  501  502  0.00000000000E+00  0.00000000000E+00  0.93770330507E+02  0.93770330507E+02  0.00000000000E+00 0. -1.
         21   -1    0    0  502  503 -0.00000000000E+00 -0.00000000000E+00 -0.11751227786E+02  0.11751227786E+02  0.00000000000E+00 0.  1.
          2    1    1    2  501    0 -0.86045029506E+01  0.27956246413E+02  0.65955105358E+02  0.72150295268E+02  0.00000000000E+00 0. -1.
         -2    1    1    2    0  503  0.86045029506E+01 -0.27956246413E+02  0.16063997364E+02  0.33371263024E+02  0.00000000000E+00 0.  1.
</event>
<event>
 4    1  0.1842931E+004  0.2005306E+02  0.7546771E-02  0.1533226E+00
         21   -1    0    0  501  502  0.00000000000E+00  0.00000000000E+00  0.43683373617E+02  0.43683373617E+02  0.00000000000E+00 0. -1.
         21   -1    0    0  502  503 -0.00000000000E+00 -0.00000000000E+00 -0.10851270011E+03  0.10851270011E+03  0.00000000000E+00 0.  1.
          2    1    1    2  501    0 -0.17397632280E+02  0.99723438176E+01  0.40384039319E+02  0.45088755604E+02  0.00000000000E+00 0. -1.
         -2    1    1    2    0  503  0.17397632280E+02 -0.99723438176E+01 -0.10521336582E+03  0.10710731813E+03  0.00000000000E+00 0.  1.
</event>
<event>
 4    1  0.1842931E+004  0.4176110E+02  0.7546771E-02  0.1338464E+00
         21   -1    0    0  503  502  0.00000000000E+00  0.00000000000E+00  0.88281642209E+01  0.88281642209E+01  0.00000000000E+00 0.  1.
         21   -1    0    0  501  503 -0.00000000000E+00 -0.00000000000E+00 -0.24641531485E+03  0.24641531485E+03  0.00000000000E+00 0. -1.
          2    1    1    2  501    0  0.29285475682E+02 -0.29771637042E+02 -0.17562629021E+03  0.18052308238E+03  0.00000000000E+00 0. -1.
         -2    1    1    2    0  502 -0.29285475682E+02  0.29771637042E+02 -0.61960860415E+02  0.74720396690E+02  0.00000000000E+00 0.  1.
</event>
<event>
 4    1  0.1842931E+004  0.2561182E+02  0.7546771E-02  0.1462074E+00
         21   -1    0    0  501  502  0.00000000000E+00  0.00000000000E+00  0.32272450733E+02  0.32272450733E+02  0.00000000000E+00 0.  1.
         21   -1    0    0  502  503 -0.00000000000E+00 -0.00000000000E+00 -0.40005801303E+02  0.40005801303E+02  0.00000000000E+00 0. -1.
          2    1    1    2  501    0 -0.25547575841E+02  0.18129913295E+01  0.21480406807E+02  0.33427136364E+02  0.00000000000E+00 0.  1.
         -2    1    1    2    0  503  0.25547575841E+02 -0.18129913295E+01 -0.29213757377E+02  0.38851115672E+02  0.00000000000E+00 0. -1.
</event>
<event>
 4    1  0.1842931E+004  0.2357581E+02  0.7546771E-02  0.1485391E+00
         21   -1    0    0  503  502  0.00000000000E+00  0.00000000000E+00  0.13984203635E+01  0.13984203635E+01  0.00000000000E+00 0.  1.
         21   -1    0    0  501  503 -0.00000000000E+00 -0.00000000000E+00 -0.40963661316E+03  0.40963661316E+03  0.00000000000E+00 0. -1.
          2    1    1    2  501    0  0.18245569007E+02  0.14930446195E+02 -0.23954951739E+03  0.24070685552E+03  0.00000000000E+00 0. -1.
         -2    1    1    2    0  502 -0.18245569007E+02 -0.14930446195E+02 -0.16868867541E+03  0.17032817801E+03  0.00000000000E+00 0.  1.
</event>
<event>
 4    1  0.1842931E+004  0.2134305E+02  0.7546771E-02  0.1514423E+00
         21   -1    0    0  501  502  0.00000000000E+00  0.00000000000E+00  0.12998508558E+03  0.12998508558E+03  0.00000000000E+00 0. -1.
         21   -1    0    0  502  503 -0.00000000000E+00 -0.00000000000E+00 -0.71426460782E+01  0.71426460782E+01  0.00000000000E+00 0.  1.
          2    1    1    2  501    0  0.76328885488E+01 -0.19931506418E+02  0.11035501699E+03  0.11239998092E+03  0.00000000000E+00 0. -1.
         -2    1    1    2    0  503 -0.76328885488E+01  0.19931506418E+02  0.12487422513E+02  0.24727750741E+02  0.00000000000E+00 0.  1.
</event>
<event>
 4    1  0.1842931E+004  0.3465308E+02  0.7546771E-02  0.1383019E+00
         21   -1    0    0  501  502  0.00000000000E+00  0.00000000000E+00  0.41482967886E+02  0.41482967886E+02  0.00000000000E+00 0. -1.
         21   -1    0    0  502  503 -0.00000000000E+00 -0.00000000000E+00 -0.76136176478E+02  0.76136176478E+02  0.00000000000E+00 0.  1.
          2    1    1    2  501    0 -0.29606814575E+02  0.18007558108E+02  0.28972284251E+02  0.45168892758E+02  0.00000000000E+00 0. -1.
         -2    1    1    2    0  503  0.29606814575E+02 -0.18007558108E+02 -0.63625492842E+02  0.72450251606E+02  0.00000000000E+00 0.  1.
</event>
<event>
 4    1  0.1842931E+004  0.2615422E+02  0.7546771E-02  0.1456294E+00
         21   -1    0    0  501  502  0.00000000000E+00  0.00000000000E+00  0.16425627114E+02  0.16425627114E+02  0.00000000000E+00 0. -1.
         21   -1    0    0  502  503 -0.00000000000E+00 -0.00000000000E+00 -0.93263490741E+02  0.93263490741E+02  0.00000000000E+00 0.  1.
          2    1    1    2  501    0  0.94071505377E+01  0.24403864469E+02  0.23830181444E+01  0.26262556192E+02  0.00000000000E+00 0. -1.
         -2    1    1    2    0  503 -0.94071505377E+01 -0.24403864469E+02 -0.79220881771E+02  0.83426561663E+02  0.00000000000E+00 0.  1.
</event>
<event>
 4    1  0.1842931E+004  0.2485473E+02  0.7546771E-02  0.1470435E+00
         21   -1    0    0  501  502  0.00000000000E+00  0.00000000000E+00  0.79089237004E+01  0.79089237004E+01  0.00000000000E+00 0. -1.
         21   -1    0    0  502  503 -0.00000000000E+00 -0.00000000000E+00 -0.16338178397E+03  0.16338178397E+03  0.00000000000E+00 0.  1.
          2    1    1    2  501    0  0.30339959429E+01  0.24668860906E+02 -0.15862556518E+02  0.29485225607E+02  0.00000000000E+00 0. -1.
         -2    1    1    2    0  503 -0.30339959429E+01 -0.24668860906E+02 -0.13961030375E+03  0.14180548206E+03  0.00000000000E+00 0.  1.
</event>
<event>
 4    1  0.1842931E+004  0.4177997E+02  0.7546771E-02  0.1338359E+00
         21   -1    0    0  503  502  0.00000000000E+00  0.00000000000E+00  0.16982774398E+02  0.16982774398E+02  0.00000000000E+00 0.  1.
         21   -1    0    0  501  503 -0.00000000000E+00 -0.00000000000E+00 -0.11470366080E+03  0.11470366080E+03  0.00000000000E+00 0. -1.
          2    1    1    2  501    0 -0.19924465662E+02 -0.36723034237E+02 -0.70085344257E+02  0.81593633668E+02  0.00000000000E+00 0. -1.
         -2    1    1    2    0  502  0.19924465662E+02  0.36723034237E+02 -0.27635542147E+02  0.50092801531E+02  0.00000000000E+00 0.  1.
</event>
<event>
 4    1  0.1842931E+004  0.2239898E+02  0.7546771E-02  0.1500186E+00
         21   -1    0    0  503  502  0.00000000000E+00  0.00000000000E+00  0.32275152892E+01  0.32275152892E+01  0.00000000000E+00 0.  1.
         21   -1    0    0  501  503 -0.00000000000E+00 -0.00000000000E+00 -0.35162463962E+03  0.35162463962E+03  0.00000000000E+00 0. -1.
          2    1    1    2  501    0 -0.20478811471E+01  0.22305170224E+02 -0.30672429019E+03  0.30754106169E+03  0.00000000000E+00 0. -1.
         -2    1    1    2    0  502  0.20478811471E+01 -0.22305170224E+02 -0.41672834149E+02  0.47311093222E+02  0.00000000000E+00 0.  1.
</event>
<event>
 4    1  0.1842931E+004  0.2428228E+02  0.7546771E-02  0.1476995E+00
         21   -1    0    0  503  502  0.00000000000E+00  0.00000000000E+00  0.32292761659E+01  0.32292761659E+01  0.00000000000E+00 0. -1.
         21   -1    0    0  501  503 -0.00000000000E+00 -0.00000000000E+00 -0.40160997991E+03  0.40160997991E+03  0.00000000000E+00 0.  1.
          2    1    1    2  501    0 -0.14516422868E+02  0.19465425113E+02 -0.34867394884E+03  0.34951845718E+03  0.00000000000E+00 0.  1.
         -2    1    1    2    0  502  0.14516422868E+02 -0.19465425113E+02 -0.49706754902E+02  0.55320798897E+02  0.00000000000E+00 0. -1.
</event>
<event>
 4    1  0.1842931E+004  0.3152132E+02  0.7546771E-02  0.1406821E+00
         21   -1    0    0  501  502  0.00000000000E+00  0.00000000000E+00  0.65013337561E+02  0.65013337561E+02  0.00000000000E+00 0. -1.
         21   -1    0    0  502  503 -0.00000000000E+00 -0.00000000000E+00 -0.17248341176E+02  0.17248341176E+02  0.00000000000E+00 0.  1.
          2    1    1    2  501    0  0.30681608340E+02  0.72272246151E+01  0.37766713235E+02  0.49192667081E+02  0.00000000000E+00 0.  1.
         -2    1    1    2    0  503 -0.30681608340E+02 -0.72272246151E+01  0.99982831500E+01  0.33069011656E+02  0.00000000000E+00 0. -1.
</event>
<event>
 4    1  0.1842931E+004  0.2160215E+02  0.7546771E-02  0.1510839E+00
         21   -1    0    0  503  502  0.00000000000E+00  0.00000000000E+00  0.91398310860E+01  0.91398310860E+01  0.00000000000E+00 0. -1.
         21   -1    0    0  501  503 -0.00000000000E+00 -0.00000000000E+00 -0.72272282629E+03  0.72272282629E+03  0.00000000000E+00 0.  1.
          2    1    1    2  501    0 -0.82004902086E+01 -0.19985116866E+02 -0.70956041514E+03  0.70988917140E+03  0.00000000000E+00 0.  1.
         -2    1    1    2    0  502  0.82004902086E+01  0.19985116866E+02 -0.40225800690E+01  0.21973485982E+02  0.00000000000E+00 0. -1.
</event>
<event>
 4    1  0.1842931E+004  0.4556128E+02  0.7546771E-02  0.1318656E+00
         21   -1    0    0  501  502  0.00000000000E+00  0.00000000000E+00  0.90317217394E+01  0.90317217394E+01  0.00000000000E+00 0.  1.
         21   -1    0    0  502  503 -0.00000000000E+00 -0.00000000000E+00 -0.38314148796E+03  0.38314148796E+03  0.00000000000E+00 0. -1.
          2    1    1    2  501    0 -0.38461080388E+02 -0.24424889158E+02 -0.63019721664E+02  0.77764485683E+02  0.00000000000E+00 0.  1.
         -2    1    1    2    0  503  0.38461080388E+02  0.24424889158E+02 -0.31109004456E+03  0.31440872402E+03  0.00000000000E+00 0. -1.
</event>
<event>
 4    1  0.1842931E+004  0.2517851E+02  0.7546771E-02  0.1466816E+00
         21   -1    0    0  503  502  0.00000000000E+00  0.00000000000E+00  0.34726469289E+02  0.34726469289E+02  0.00000000000E+00 0.  1.
         21   -1    0    0  501  503 -0.00000000000E+00 -0.00000000000E+00 -0.18455600459E+02  0.18455600459E+02  0.00000000000E+00 0. -1.
          2    1    1    2  501    0  0.62870856760E-01  0.25178433096E+02  0.53682826380E+01  0.25744434435E+02  0.00000000000E+00 0.  1.
         -2    1    1    2    0  502 -0.62870856760E-01 -0.25178433096E+02  0.10902586192E+02  0.27437635313E+02  0.00000000000E+00 0. -1.
</event>
<event>
 4    1  0.1842931E+004  0.3890452E+02  0.7546771E-02  0.1355028E+00
         21   -1    0    0  503  502  0.00000000000E+00  0.00000000000E+00  0.92734260197E+02  0.92734260197E+02  0.00000000000E+00 0.  1.
         21   -1    0    0  501  503 -0.00000000000E+00 -0.00000000000E+00 -0.16444609199E+02  0.16444609199E+02  0.00000000000E+00 0. -1.
          2    1    1    2  501    0 -0.36325549722E+02 -0.13928956908E+02  0.33421392550E+02  0.51288896295E+02  0.00000000000E+00 0. -1.
         -2    1    1    2    0  502  0.36325549722E+02  0.13928956908E+02  0.42868258449E+02  0.57889973101E+02  0.00000000000E+00 0.  1.
</event>
<event>
 4    1  0.1842931E+004  0.3759453E+02  0.7546771E-02  0.1363189E+00
         21   -1    0    0  501  502  0.00000000000E+00  0.00000000000E+00  0.51911573548E+03  0.51911573548E+03  0.00000000000E+00 0. -1.
         21   -1    0    0  502  503 -0.00000000000E+00 -0.00000000000E+00 -0.80328537111E+01  0.80328537111E+01  0.00000000000E+00 0.  1.
          2    1    1    2  501    0 -0.14668521348E+02 -0.34614786067E+02  0.46984303932E+03  0.47134470457E+03  0.00000000000E+00 0. -1.
         -2    1    1    2    0  503  0.14668521348E+02  0.34614786067E+02  0.41239842446E+02  0.55803884614E+02  0.00000000000E+00 0.  1.
</event>
<event>
 4    1  0.1842931E+004  0.2102959E+02  0.7546771E-02  0.1518843E+00
         21   -1    0    0  501  502  0.00000000000E+00  0.00000000000E+00  0.12944335047E+04  0.12944335047E+04  0.00000000000E+00 0. -1.
         21   -1    0    0  502  503 -0.00000000000E+00 -0.00000000000E+00 -0.36686857152E+00  0.36686857152E+00  0.00000000000E+00 0.  1.
          2    1    1    2  501    0  0.73365566601E+01  0.19708333622E+02  0.81677011606E+03  0.81704079823E+03  0.00000000000E+00 0. -1.
         -2    1    1    2    0  503 -0.73365566601E+01 -0.19708333622E+02  0.47729652002E+03  0.47775957500E+03  0.00000000000E+00 0.  1.
</event>
<event>
 4    1  0.1842931E+004  0.2201814E+02  0.7546771E-02  0.1505210E+00
         21   -1    0    0  501  502  0.00000000000E+00  0.00000000000E+00  0.37344935989E+01  0.37344935989E+01  0.00000000000E+00 0.  1.
         21   -1    0    0  502  503 -0.00000000000E+00 -0.00000000000E+00 -0.13086750653E+03  0.13086750653E+03  0.00000000000E+00 0. -1.
          2    1    1    2  501    0  0.15179150017E+02 -0.15949663792E+02 -0.69598168015E+02  0.72997968200E+02  0.00000000000E+00 0. -1.
         -2    1    1    2    0  503 -0.15179150017E+02  0.15949663792E+02 -0.57534844912E+02  0.61604031925E+02  0.00000000000E+00 0.  1.
</event>
<event>
 4    1  0.1842931E+004  0.2733024E+02  0.7546771E-02  0.1444319E+00
         21   -1    0    0  503  502  0.00000000000E+00  0.00000000000E+00  0.41621618322E+01  0.41621618322E+01  0.00000000000E+00 0.  1.
         21   -1    0    0  501  503 -0.00000000000E+00 -0.00000000000E+00 -0.52062533493E+03  0.52062533493E+03  0.00000000000E+00 0. -1.
          2    1    1    2  501    0 -0.15417476957E+02  0.22566424323E+02 -0.47064072649E+03  0.47143359610E+03  0.00000000000E+00 0. -1.
         -2    1    1    2    0  502  0.15417476957E+02 -0.22566424323E+02 -0.45822446602E+02  0.53353900654E+02  0.00000000000E+00 0.  1.
</event>
<event>
 4    1  0.1842931E+004  0.4120185E+02  0.7546771E-02  0.1341583E+00
         21   -1    0    0  501  502  0.00000000000E+00  0.00000000000E+00  0.50057799789E+02  0.50057799789E+02  0.00000000000E+00 0.  1.
         21   -1    0    0  502  503 -0.00000000000E+00 -0.00000000000E+00 -0.33962098267E+02  0.33962098267E+02  0.00000000000E+00 0. -1.
          2    1    1    2  501    0 -0.34920629344E+02 -0.21866452173E+02  0.96510205493E+01  0.42317068449E+02  0.00000000000E+00 0.  1.
         -2    1    1    2    0  503  0.34920629344E+02  0.21866452173E+02  0.64446809730E+01  0.41702829608E+02  0.00000000000E+00 0. -1.
</event>
<event>
 4    1  0.1842931E+004  0.7742072E+02  0.7546771E-02  0.1209965E+00
         21   -1    0    0  503  502  0.00000000000E+00  0.00000000000E+00  0.10113287722E+02  0.10113287722E+02  0.00000000000E+00 0. -1.
         21   -1    0    0  501  503 -0.00000000000E+00 -0.00000000000E+00 -0.78736637667E+03  0.78736637667E+03  0.00000000000E+00 0.  1.
          2    1    1    2  501    0  0.21736331368E+01  0.77390201323E+02 -0.58690076913E+03  0.59198520315E+03  0.00000000000E+00 0. -1.
         -2    1    1    2    0  502 -0.21736331368E+01 -0.77390201323E+02 -0.19035231982E+03  0.20549446125E+03  0.00000000000E+00 0.  1.
</event>
<event>
 4    1  0.1842931E+004  0.2002990E+02  0.7546771E-02  0.1533579E+00
         21   -1    0    0  501  502  0.00000000000E+00  0.00000000000E+00  0.15596135974E+01  0.15596135974E+01  0.00000000000E+00 0. -1.
         21   -1    0    0  502  503 -0.00000000000E+00 -0.00000000000E+00 -0.46765754288E+03  0.46765754288E+03  0.00000000000E+00 0.  1.
          2    1    1    2  501    0 -0.14038771503E+02  0.14286693491E+02 -0.75679758538E+02  0.78285519533E+02  0.00000000000E+00 0. -1.
         -2    1    1    2    0  503  0.14038771503E+02 -0.14286693491E+02 -0.39041817074E+03  0.39093163694E+03  0.00000000000E+00 0.  1.
</event>
<event>
 4    1  0.1842931E+004  0.2375009E+02  0.7546771E-02  0.1483288E+00
         21   -1    0    0  501  502  0.00000000000E+00  0.00000000000E+00  0.10139042327E+02  0.10139042327E+02  0.00000000000E+00 0. -1.
         21   -1    0    0  502  503 -0.00000000000E+00 -0.00000000000E+00 -0.59082595776E+02  0.59082595776E+02  0.00000000000E+00 0.  1.
          2    1    1    2  501    0  0.59741116890E+01 -0.22986442846E+02 -0.16108844044E+02  0.28697759871E+02  0.00000000000E+00 0. -1.
         -2    1    1    2    0  503 -0.59741116890E+01  0.22986442846E+02 -0.32834709405E+02  0.40523878232E+02  0.00000000000E+00 0.  1.
</event>
<event>
 4    1  0.1842931E+004  0.3502103E+02  0.7546771E-02  0.1380415E+00
         21   -1    0    0  503  502  0.00000000000E+00  0.00000000000E+00  0.31482303184E+01  0.31482303184E+01  0.00000000000E+00 0. -1.
         21   -1    0    0  501  503 -0.00000000000E+00 -0.00000000000E+00 -0.10124871286E+04  0.10124871286E+04  0.00000000000E+00 0.  1.
          2    1    1    2  501    0  0.34710905684E+02 -0.46502939110E+01 -0.90298422065E+03  0.90366308708E+03  0.00000000000E+00 0.  1.
         -2    1    1    2    0  502 -0.34710905684E+02  0.46502939110E+01 -0.10635467765E+03  0.11197227185E+03  0.00000000000E+00 0. -1.
</event>
<event>
 4    1  0.1842931E+004  0.2779800E+02  0.7546771E-02  0.1439753E+00
         21   -1    0    0  501  502  0.00000000000E+00  0.00000000000E+00  0.13433933060E+02  0.13433933060E+02  0.00000000000E+00 0. -1.
         21   -1    0    0  502  503 -0.00000000000E+00 -0.00000000000E+00 -0.76309303193E+02  0.76309303193E+02  0.00000000000E+00 0.  1.
          2    1    1    2  501    0 -0.13627442745E+01  0.27764572758E+02 -0.91722696222E+01  0.29272155752E+02  0.00000000000E+00 0. -1.
         -2    1    1    2    0  503  0.13627442745E+01 -0.27764572758E+02 -0.53703100511E+02  0.60471080500E+02  0.00000000000E+00 0.  1.
</event>
<event>
 4    1  0.1842931E+004  0.4158473E+02  0.7546771E-02  0.1339441E+00
         21   -1    0    0  503  502  0.00000000000E+00  0.00000000000E+00  0.11809075031E+02  0.11809075031E+02  0.00000000000E+00 0.  1.
         21   -1    0    0  501  503 -0.00000000000E+00 -0.00000000000E+00 -0.25661254183E+03  0.25661254183E+03  0.00000000000E+00 0. -1.
          2    1    1    2  501    0  0.28636734847E+02  0.30153393739E+02 -0.21034254045E+03  0.21441379167E+03  0.00000000000E+00 0. -1.
         -2    1    1    2    0  502 -0.28636734847E+02 -0.30153393739E+02 -0.34460926351E+02  0.54007825189E+02  0.00000000000E+00 0.  1.
</event>
<event>
 4    1  0.1842931E+004  0.3342270E+02  0.7546771E-02  0.1392004E+00
         21   -1    0    0  503  502  0.00000000000E+00  0.00000000000E+00  0.14641752811E+03  0.14641752811E+03  0.00000000000E+00 0. -1.
         21   -1    0    0  501  503 -0.00000000000E+00 -0.00000000000E+00 -0.31343249695E+02  0.31343249695E+02  0.00000000000E+00 0.  1.
          2    1    1    2  501    0 -0.88633923784E-01  0.33422577996E+02 -0.19772749580E+02  0.38833467549E+02  0.00000000000E+00 0.  1.
         -2    1    1    2    0  502  0.88633923784E-01 -0.33422577996E+02  0.13484702800E+03  0.13892731026E+03  0.00000000000E+00 0. -1.
</event>
<event>
 4    1  0.1842931E+004  0.2095500E+02  0.7546771E-02  0.1519908E+00
         21   -1    0    0  501  502  0.00000000000E+00  0.00000000000E+00  0.20011994845E+03  0.20011994845E+03  0.00000000000E+00 0. -1.
         21   -1    0    0  502  503 -0.00000000000E+00 -0.00000000000E+00 -0.55790453584E+01  0.55790453584E+01  0.00000000000E+00 0.  1.
          2    1    1    2  501    0  0.20845460409E+02  0.21397836874E+01  0.17738084257E+03  0.17861431971E+03  0.00000000000E+00 0. -1.
         -2    1    1    2    0  503 -0.20845460409E+02 -0.21397836874E+01  0.17160060515E+02  0.27084674094E+02  0.00000000000E+00 0.  1.
</event>
<event>
 4    1  0.1842931E+004  0.2932402E+02  0.7546771E-02  0.1425563E+00
         21   -1    0    0  503  502  0.00000000000E+00  0.00000000000E+00  0.43377443425E+01  0.43377443425E+01  0.00000000000E+00 0. -1.
         21   -1    0    0  501  503 -0.00000000000E+00 -0.00000000000E+00 -0.20353107489E+03  0.20353107489E+03  0.00000000000E+00 0.  1.
          2    1    1    2  501    0  0.22570292153E+02 -0.18721116471E+02 -0.82833011723E+02  0.87870393881E+02  0.00000000000E+00 0.  1.
         -2    1    1    2    0  502 -0.22570292153E+02  0.18721116471E+02 -0.11636031882E+03  0.11999842535E+03  0.00000000000E+00 0. -1.
</event>
<event>
 4    1  0.1842931E+004  0.2637015E+02  0.7546771E-02  0.1454040E+00
         21   -1    0    0  503  502  0.00000000000E+00  0.00000000000E+00  0.47532575828E+02  0.47532575828E+02  0.00000000000E+00 0. -1.
         21   -1    0    0  501  503 -0.00000000000E+00 -0.00000000000E+00 -0.14755637404E+02  0.14755637404E+02  0.00000000000E+00 0.  1.
          2    1    1    2  501    0 -0.19052244460E+02 -0.18231758424E+02  0.19266247467E+02  0.32658434219E+02  0.00000000000E+00 0.  1.
         -2    1    1    2    0  502  0.19052244460E+02  0.18231758424E+02  0.13510690957E+02  0.29629779012E+02  0.00000000000E+00 0. -1.
</event>
<event>
 4    1  0.1842931E+004  0.4210413E+02  0.7546771E-02  0.1336578E+00
         21   -1    0    0  501  502  0.00000000000E+00  0.00000000000E+00  0.58441477376E+03  0.58441477376E+03  0.00000000000E+00 0. -1.
         21   -1    0    0  502  503 -0.00000000000E+00 -0.00000000000E+00 -0.64042115848E+01  0.64042115848E+01  0.00000000000E+00 0.  1.
          2    1    1    2  501    0  0.95907470012E+01 -0.40997260802E+02  0.50332370460E+03  0.50508168590E+03  0.00000000000E+00 0. -1.
         -2    1    1    2    0  503 -0.95907470012E+01  0.40997260802E+02  0.74686857575E+02  0.85737299442E+02  0.00000000000E+00 0.  1.
</event>
<event>
 4    1  0.1842931E+004  0.2243476E+02  0.7546771E-02  0.1499721E+00
         21   -1    0    0  501  502  0.00000000000E+00  0.00000000000E+00  0.64902751773E+01  0.64902751773E+01  0.00000000000E+00 0.  1.
         21   -1    0    0  502  503 -0.00000000000E+00 -0.00000000000E+00 -0.80637914881E+02  0.80637914881E+02  0.00000000000E+00 0. -1.
          2    1    1    2  501    0 -0.22015000438E+02 -0.43195118453E+01 -0.28548359148E+02  0.36308776307E+02  0.00000000000E+00 0.  1.
         -2    1    1    2    0  503  0.22015000438E+02  0.43195118453E+01 -0.45599280556E+02  0.50819413751E+02  0.00000000000E+00 0. -1.
</event>
<event>
 4    1  0.1842931E+004  0.2099152E+02  0.7546771E-02  0.1519386E+00
         21   -1    0    0  501  502  0.00000000000E+00  0.00000000000E+00  0.96354088972E+02  0.96354088972E+02  0.00000000000E+00 0. -1.
         21   -1    0    0  502  503 -0.00000000000E+00 -0.00000000000E+00 -0.15868037050E+02  0.15868037050E+02  0.00000000000E+00 0.  1.
          2    1    1    2  501    0  0.19185224381E+02 -0.85188560158E+01  0.87582936459E+02  0.90063391570E+02  0.00000000000E+00 0. -1.
         -2    1    1    2    0  503 -0.19185224381E+02  0.85188560158E+01 -0.70968845366E+01  0.22158734452E+02  0.00000000000E+00 0.  1.
</event>
<event>
 4    1  0.1842931E+004  0.2248460E+02  0.7546771E-02  0.1499073E+00
         21   -1    0    0  501  502  0.00000000000E+00  0.00000000000E+00  0.12893763891E+03  0.12893763891E+03  0.00000000000E+00 0. -1.
         21   -1    0    0  502  503 -0.00000000000E+00 -0.00000000000E+00 -0.43879538909E+01  0.43879538909E+01  0.00000000000E+00 0.  1.
          2    1    1    2  501    0 -0.21900864868E+02 -0.50901281534E+01  0.84022648477E+02  0.86979093716E+02  0.00000000000E+00 0. -1.
         -2    1    1    2    0  503  0.21900864868E+02  0.50901281534E+01  0.40527036544E+02  0.46346499087E+02  0.00000000000E+00 0.  1.
</event>
<event>
 4    1  0.1842931E+004  0.2228345E+02  0.7546771E-02  0.1501697E+00
         21   -1    0    0  503  502  0.00000000000E+00  0.00000000000E+00  0.11574639259E+01  0.11574639259E+01  0.00000000000E+00 0. -1.
         21   -1    0    0  501  503 -0.00000000000E+00 -0.00000000000E+00 -0.43038109282E+03  0.43038109282E+03  0.00000000000E+00 0.  1.
          2    1    1    2  501    0 -0.64023368489E+01 -0.21343902626E+02 -0.22683444374E+03  0.22792634109E+03  0.00000000000E+00 0.  1.
         -2    1    1    2    0  502  0.64023368489E+01  0.21343902626E+02 -0.20238918515E+03  0.20361221565E+03  0.00000000000E+00 0. -1.
</event>
<event>
 4    1  0.1842931E+004  0.4178660E+02  0.7546771E-02  0.1338323E+00
         21   -1    0    0  501  502  0.00000000000E+00  0.00000000000E+00  0.13132430000E+03  0.13132430000E+03  0.00000000000E+00 0. -1.
         21   -1    0    0  502  503 -0.00000000000E+00 -0.00000000000E+00 -0.16493328128E+02  0.16493328128E+02  0.00000000000E+00 0.  1.
          2    1    1    2  501    0  0.13616035884E+02 -0.39505989009E+02  0.89955616389E+02  0.99187360690E+02  0.00000000000E+00 0. -1.
         -2    1    1    2    0  503 -0.13616035884E+02  0.39505989009E+02  0.24875355485E+02  0.48630267440E+02  0.00000000000E+00 0.  1.
</event>
<event>
 4    1  0.1842931E+004  0.2270938E+02  0.7546771E-02  0.1496180E+00
         21   -1    0    0  503  502  0.00000000000E+00  0.00000000000E+00  0.10075843797E+03  0.10075843797E+03  0.00000000000E+00 0.  1.
         21   -1    0    0  501  503 -0.00000000000E+00 -0.00000000000E+00 -0.51384710653E+01  0.51384710653E+01  0.00000000000E+00 0. -1.
          2    1    1    2  501    0  0.19769827243E+02  0.11174514105E+02  0.51124203540E+02  0.55941040590E+02  0.00000000000E+00 0. -1.
         -2    1    1    2    0  502 -0.19769827243E+02 -0.11174514105E+02  0.44495763366E+02  0.49955868446E+02  0.00000000000E+00 0.  1.
</event>
<event>
 4    1  0.1842931E+004  0.5576261E+02  0.7546771E-02  0.1274952E+00
         21   -1    0    0  501  502  0.00000000000E+00  0.00000000000E+00  0.98236127719E+02  0.98236127719E+02  0.00000000000E+00 0. -1.
         21   -1    0    0  502  503 -0.00000000000E+00 -0.00000000000E+00 -0.80848218901E+03  0.80848218901E+03  0.00000000000E+00 0.  1.
          2    1    1    2  501    0  0.32522348254E+02  0.45296417507E+02  0.89272754881E+02  0.10525727214E+03  0.00000000000E+00 0. -1.
         -2    1    1    2    0  503 -0.32522348254E+02 -0.45296417507E+02 -0.79951881617E+03  0.80146104459E+03  0.00000000000E+00 0.  1.
</event>
<event>
 4    1  0.1842931E+004  0.2085331E+02  0.7546771E-02  0.1521370E+00
         21   -1    0    0  503  502  0.00000000000E+00  0.00000000000E+00  0.11084662036E+03  0.11084662036E+03  0.00000000000E+00 0. -1.
         21   -1    0    0  501  503 -0.00000000000E+00 -0.00000000000E+00 -0.44841853030E+01  0.44841853030E+01  0.00000000000E+00 0.  1.
          2    1    1    2  501    0  0.92395804554E+01  0.18694673941E+02  0.32782920042E+02  0.38853320672E+02  0.00000000000E+00 0.  1.
         -2    1    1    2    0  502 -0.92395804554E+01 -0.18694673941E+02  0.73579515010E+02  0.76477484987E+02  0.00000000000E+00 0. -1.
</event>
<event>
 4    1  0.1842931E+004  0.2033344E+02  0.7546771E-02  0.1528998E+00
         21   -1    0    0  503  502  0.00000000000E+00  0.00000000000E+00  0.90428130715E+01  0.90428130715E+01  0.00000000000E+00 0. -1.
         21   -1    0    0  501  503 -0.00000000000E+00 -0.00000000000E+00 -0.60215538004E+02  0.60215538004E+02  0.00000000000E+00 0.  1.
          2    1    1    2  501    0 -0.19973425008E+02 -0.38093299180E+01 -0.42576086962E+02  0.47182325949E+02  0.00000000000E+00 0.  1.
         -2    1    1    2    0  502  0.19973425008E+02  0.38093299180E+01 -0.85966379706E+01  0.22076025126E+02  0.00000000000E+00 0. -1.
</event>
<event>
 4    1  0.1842931E+004  0.2912464E+02  0.7546771E-02  0.1427359E+00
         21   -1    0    0  503  502  0.00000000000E+00  0.00000000000E+00  0.12016822963E+02  0.12016822963E+02  0.00000000000E+00 0. -1.
         21   -1    0    0  501  503 -0.00000000000E+00 -0.00000000000E+00 -0.17272745063E+03  0.17272745063E+03  0.00000000000E+00 0.  1.
          2    1    1    2  501    0 -0.14805766948E+02  0.25080550791E+02 -0.15138777192E+03  0.15416388114E+03  0.00000000000E+00 0.  1.
         -2    1    1    2    0  502  0.14805766948E+02 -0.25080550791E+02 -0.93228557462E+01  0.30580392446E+02  0.00000000000E+00 0. -1.
</event>
<event>
 4    1  0.1842931E+004  0.2074996E+02  0.7546771E-02  0.1522865E+00
         21   -1    0    0  501  502  0.00000000000E+00  0.00000000000E+00  0.15903083257E+04  0.15903083257E+04  0.00000000000E+00 0.  1.
         21   -1    0    0  502  503 -0.00000000000E+00 -0.00000000000E+00 -0.15185577494E+01  0.15185577494E+01  0.00000000000E+00 0. -1.
          2    1    1    2  501    0 -0.67415198477E+00 -0.20739001328E+02  0.15158772137E+04  0.15160192240E+04  0.00000000000E+00 0.  1.
         -2    1    1    2    0  503  0.67415198477E+00  0.20739001328E+02  0.72912554224E+02  0.75807659379E+02  0.00000000000E+00 0. -1.
</event>
<event>
 4    1  0.1842931E+004  0.2516897E+02  0.7546771E-02  0.1466922E+00
         21   -1    0    0  501  502  0.00000000000E+00  0.00000000000E+00  0.56838463330E+02  0.56838463330E+02  0.00000000000E+00 0. -1.
         21   -1    0    0  502  503 -0.00000000000E+00 -0.00000000000E+00 -0.13425709899E+02  0.13425709899E+02  0.00000000000E+00 0.  1.
          2    1    1    2  501    0 -0.21406831482E+02  0.13237240275E+02  0.72270038986E+01  0.26185999113E+02  0.00000000000E+00 0.  1.
         -2    1    1    2    0  503  0.21406831482E+02 -0.13237240275E+02  0.36185749532E+02  0.44078174116E+02  0.00000000000E+00 0. -1.
</event>
<event>
 4    1  0.1842931E+004  0.2546021E+02  0.7546771E-02  0.1463720E+00
         21   -1    0    0  501  502  0.00000000000E+00  0.00000000000E+00  0.22316054199E+02  0.22316054199E+02  0.00000000000E+00 0. -1.
         21   -1    0    0  502  503 -0.00000000000E+00 -0.00000000000E+00 -0.32090159828E+02  0.32090159828E+02  0.00000000000E+00 0.  1.
          2    1    1    2  501    0 -0.22937042962E+02 -0.11050528786E+02  0.34895963984E+01  0.25698237475E+02  0.00000000000E+00 0. -1.
         -2    1    1    2    0  503  0.22937042962E+02  0.11050528786E+02 -0.13263702026E+02  0.28707976552E+02  0.00000000000E+00 0.  1.
</event>
<event>
 4    1  0.1842931E+004  0.5969234E+02  0.7546771E-02  0.1260882E+00
         21   -1    0    0  501  502  0.00000000000E+00  0.00000000000E+00  0.28277271155E+02  0.28277271155E+02  0.00000000000E+00 0. -1.
         21   -1    0    0  502  503 -0.00000000000E+00 -0.00000000000E+00 -0.16627160181E+03  0.16627160181E+03  0.00000000000E+00 0.  1.
          2    1    1    2  501    0  0.53226959116E+02 -0.27019742159E+02 -0.21129365574E+02  0.63321605575E+02  0.00000000000E+00 0. -1.
         -2    1    1    2    0  503 -0.53226959116E+02  0.27019742159E+02 -0.11686496508E+03  0.13122726738E+03  0.00000000000E+00 0.  1.
</event>
<event>
 4    1  0.1842931E+004  0.3434327E+02  0.7546771E-02  0.1385240E+00
         21   -1    0    0  501  502  0.00000000000E+00  0.00000000000E+00  0.25343096780E+02  0.25343096780E+02  0.00000000000E+00 0.  1.
         21   -1    0    0  502  503 -0.00000000000E+00 -0.00000000000E+00 -0.58328055746E+02  0.58328055746E+02  0.00000000000E+00 0. -1.
          2    1    1    2  501    0 -0.25728356619E+02  0.22748891851E+02  0.23151217761E+01  0.34421217346E+02  0.00000000000E+00 0.  1.
         -2    1    1    2    0  503  0.25728356619E+02 -0.22748891851E+02 -0.35300080742E+02  0.49249935179E+02  0.00000000000E+00 0. -1.
</event>
<event>
 4    1  0.1842931E+004  0.3875547E+02  0.7546771E-02  0.1355937E+00
         21   -1    0    0  501  502  0.00000000000E+00  0.00000000000E+00  0.72676160157E+01  0.72676160157E+01  0.00000000000E+00 0. -1.
         21   -1    0    0  502  503 -0.00000000000E+00 -0.00000000000E+00 -0.21098193503E+03  0.21098193503E+03  0.00000000000E+00 0.  1.
          2    1    1    2  501    0  0.11851105757E+02  0.36899019752E+02 -0.86253774324E+02  0.94560562348E+02  0.00000000000E+00 0. -1.
         -2    1    1    2    0  503 -0.11851105757E+02 -0.36899019752E+02 -0.11746054469E+03  0.12368898870E+03  0.00000000000E+00 0.  1.
</event>
<event>
 4    1  0.1842931E+004  0.2109835E+02  0.7546771E-02  0.1517865E+00
         21   -1    0    0  503  502  0.00000000000E+00  0.00000000000E+00  0.58930853001E+02  0.58930853001E+02  0.00000000000E+00 0. -1.
         21   -1    0    0  501  503 -0.00000000000E+00 -0.00000000000E+00 -0.26769551267E+02  0.26769551267E+02  0.00000000000E+00 0.  1.
          2    1    1    2  501    0 -0.13890896285E+02 -0.15880284968E+02 -0.20224078594E+02  0.29225909827E+02  0.00000000000E+00 0.  1.
         -2    1    1    2    0  502  0.13890896285E+02  0.15880284968E+02  0.52385380328E+02  0.56474494441E+02  0.00000000000E+00 0. -1.
</event>
<event>
 4    1  0.1842931E+004  0.2464351E+02  0.7546771E-02  0.1472831E+00
         21   -1    0    0  503  502  0.00000000000E+00  0.00000000000E+00  0.11752603768E+01  0.11752603768E+01  0.00000000000E+00 0. -1.
         21   -1    0    0  501  503 -0.00000000000E+00 -0.00000000000E+00 -0.18560111213E+04  0.18560111213E+04  0.00000000000E+00 0.  1.
          2    1    1    2  501    0  0.15793847926E+02  0.18917102750E+02 -0.17162229867E+04  0.17163999075E+04  0.00000000000E+00 0.  1.
         -2    1    1    2    0  502 -0.15793847926E+02 -0.18917102750E+02 -0.13861287416E+03  0.14078647411E+03  0.00000000000E+00 0. -1.
</event>
<event>
 4    1  0.1842931E+004  0.2227853E+02  0.7546771E-02  0.1501762E+00
         21   -1    0    0  501  502  0.00000000000E+00  0.00000000000E+00  0.63872102108E+02  0.63872102108E+02  0.00000000000E+00 0.  1.
         21   -1    0    0  502  503 -0.00000000000E+00 -0.00000000000E+00 -0.11898291188E+02  0.11898291188E+02  0.00000000000E+00 0. -1.
          2    1    1    2  501    0  0.10439012891E+02 -0.19681459700E+02  0.48300730358E+02  0.53191102632E+02  0.00000000000E+00 0.  1.
         -2    1    1    2    0  503 -0.10439012891E+02  0.19681459700E+02  0.36730805617E+01  0.22579290663E+02  0.00000000000E+00 0. -1.
</event>
<event>
 4    1  0.1842931E+004  0.2255563E+02  0.7546771E-02  0.1498155E+00
         21   -1    0    0  503  502  0.00000000000E+00  0.00000000000E+00  0.29242324945E+02  0.29242324945E+02  0.00000000000E+00 0. -1.
         21   -1    0    0  501  503 -0.00000000000E+00 -0.00000000000E+00 -0.17405329375E+02  0.17405329375E+02  0.00000000000E+00 0.  1.
          2    1    1    2  501    0  0.96010513875E+00 -0.22535182306E+02  0.63990425403E+01  0.23445766971E+02  0.00000000000E+00 0. -1.
         -2    1    1    2    0  502 -0.96010513875E+00  0.22535182306E+02  0.54379530294E+01  0.23201887349E+02  0.00000000000E+00 0.  1.
</event>
<event>
 4    1  0.1842931E+004  0.3014877E+02  0.7546771E-02  0.1418308E+00
         21   -1    0    0  503  502  0.00000000000E+00  0.00000000000E+00  0.50322934965E+01  0.50322934965E+01  0.00000000000E+00 0. -1.
         21   -1    0    0  501  503 -0.00000000000E+00 -0.00000000000E+00 -0.29619300627E+03  0.29619300627E+03  0.00000000000E+00 0.  1.
          2    1    1    2  501    0 -0.23556041753E+02  0.18816516903E+02 -0.23966016932E+03  0.24154905334E+03  0.00000000000E+00 0.  1.
         -2    1    1    2    0  502  0.23556041753E+02 -0.18816516903E+02 -0.51500543452E+02  0.59676246424E+02  0.00000000000E+00 0. -1.
</event>
<event>
 4    1  0.1842931E+004  0.3662640E+02  0.7546771E-02  0.1369476E+00
         21   -1    0    0  503  502  0.00000000000E+00  0.00000000000E+00  0.33437388931E+01  0.33437388931E+01  0.00000000000E+00 0. -1.
         21   -1    0    0  501  503 -0.00000000000E+00 -0.00000000000E+00 -0.45879451488E+03  0.45879451488E+03  0.00000000000E+00 0.  1.
          2    1    1    2  501    0 -0.32015568957E+02  0.17790340643E+02 -0.30959834562E+03  0.31175732307E+03  0.00000000000E+00 0.  1.
         -2    1    1    2    0  502  0.32015568957E+02 -0.17790340643E+02 -0.14585243037E+03  0.15038093071E+03  0.00000000000E+00 0. -1.
</event>
<event>
 4    1  0.1842931E+004  0.3337158E+02  0.7546771E-02  0.1392388E+00
         21   -1    0    0  501  502  0.00000000000E+00  0.00000000000E+00  0.22142056087E+03  0.22142056087E+03  0.00000000000E+00 0. -1.
         21   -1    0    0  502  503 -0.00000000000E+00 -0.00000000000E+00 -0.77123190817E+01  0.77123190817E+01  0.00000000000E+00 0.  1.
          2    1    1    2  501    0  0.32335602648E+02  0.82505188028E+01  0.17442359616E+03  0.17758731136E+03  0.00000000000E+00 0. -1.
         -2    1    1    2    0  503 -0.32335602648E+02 -0.82505188028E+01  0.39284645626E+02  0.51545568588E+02  0.00000000000E+00 0.  1.
</event>
<event>
 4    1  0.1842931E+004  0.5223012E+02  0.7546771E-02  0.1288783E+00
         21   -1    0    0  503  502  0.00000000000E+00  0.00000000000E+00  0.96430065638E+02  0.96430065638E+02  0.00000000000E+00 0. -1.
         21   -1    0    0  501  503 -0.00000000000E+00 -0.00000000000E+00 -0.52884806115E+02  0.52884806115E+02  0.00000000000E+00 0.  1.
          2    1    1    2  501    0 -0.43610743425E+02 -0.28741763913E+02 -0.29140664872E+02  0.59809399629E+02  0.00000000000E+00 0.  1.
         -2    1    1    2    0  502  0.43610743425E+02  0.28741763913E+02  0.72685924395E+02  0.89505472123E+02  0.00000000000E+00 0. -1.
</event>
<event>
 4    1  0.1842931E+004  0.2054975E+02  0.7546771E-02  0.1525791E+00
         21   -1    0    0  503  502  0.00000000000E+00  0.00000000000E+00  0.58698838049E+01  0.58698838049E+01  0.00000000000E+00 0.  1.
         21   -1    0    0  501  503 -0.00000000000E+00 -0.00000000000E+00 -0.72184073335E+02  0.72184073335E+02  0.00000000000E+00 0. -1.
          2    1    1    2  501    0 -0.18061271034E+02  0.98021845967E+01 -0.30897964037E+02  0.37107634199E+02  0.00000000000E+00 0. -1.
         -2    1    1    2    0  502  0.18061271034E+02 -0.98021845967E+01 -0.35416225493E+02  0.40946322941E+02  0.00000000000E+00 0.  1.
</event>
<event>
 4    1  0.1842931E+004  0.3404913E+02  0.7546771E-02  0.1387374E+00
         21   -1    0    0  501  502  0.00000000000E+00  0.00000000000E+00  0.81740482946E+01  0.81740482946E+01  0.00000000000E+00 0.  1.
         21   -1    0    0  502  503 -0.00000000000E+00 -0.00000000000E+00 -0.14886469188E+03  0.14886469188E+03  0.00000000000E+00 0. -1.
          2    1    1    2  501    0 -0.26756954101E+02  0.21057273172E+02 -0.53279185043E+02  0.63229857702E+02  0.00000000000E+00 0.  1.
         -2    1    1    2    0  503  0.26756954101E+02 -0.21057273172E+02 -0.87411458542E+02  0.93808882472E+02  0.00000000000E+00 0. -1.
</event>
<event>
 4    1  0.1842931E+004  0.2535826E+02  0.7546771E-02  0.1464835E+00
         21   -1    0    0  501  502  0.00000000000E+00  0.00000000000E+00  0.43191333472E+02  0.43191333472E+02  0.00000000000E+00 0. -1.
         21   -1    0    0  502  503 -0.00000000000E+00 -0.00000000000E+00 -0.26670105654E+02  0.26670105654E+02  0.00000000000E+00 0.  1.
          2    1    1    2  501    0 -0.44511252873E+01  0.24964555056E+02  0.31477437430E+02  0.40421165157E+02  0.00000000000E+00 0. -1.
         -2    1    1    2    0  503  0.44511252873E+01 -0.24964555056E+02 -0.14956209612E+02  0.29440273970E+02  0.00000000000E+00 0.  1.
</event>
<event>
 4    1  0.1842931E+004  0.2139561E+02  0.7546771E-02  0.1513691E+00
         21   -1    0    0  501  502  0.00000000000E+00  0.00000000000E+00  0.12893162809E+02  0.12893162809E+02  0.00000000000E+00 0.  1.
         21   -1    0    0  502  503 -0.00000000000E+00 -0.00000000000E+00 -0.73997755479E+02  0.73997755479E+02  0.00000000000E+00 0. -1.
          2    1    1    2  501    0  0.11734579035E+02  0.17890553854E+02  0.78232077609E+00  0.21409910979E+02  0.00000000000E+00 0.  1.
         -2    1    1    2    0  503 -0.11734579035E+02 -0.17890553854E+02 -0.61886913446E+02  0.65481007309E+02  0.00000000000E+00 0. -1.
</event>
<event>
 4    1  0.1842931E+004  0.3296218E+02  0.7546771E-02  0.1395485E+00
         21   -1    0    0  503  502  0.00000000000E+00  0.00000000000E+00  0.12209362801E+02  0.12209362801E+02  0.00000000000E+00 0. -1.
         21   -1    0    0  501  503 -0.00000000000E+00 -0.00000000000E+00 -0.38662979411E+03  0.38662979411E+03  0.00000000000E+00 0.  1.
          2    1    1    2  501    0 -0.11952431997E+02 -0.30718799861E+02 -0.36218117985E+03  0.36367803389E+03  0.00000000000E+00 0.  1.
         -2    1    1    2    0  502  0.11952431997E+02  0.30718799861E+02 -0.12239251451E+02  0.35161123015E+02  0.00000000000E+00 0. -1.
</event>
<event>
 4    1  0.1842931E+004  0.4159810E+02  0.7546771E-02  0.1339367E+00
         21   -1    0    0  501  502  0.00000000000E+00  0.00000000000E+00  0.34352150521E+02  0.34352150521E+02  0.00000000000E+00 0.  1.
         21   -1    0    0  502  503 -0.00000000000E+00 -0.00000000000E+00 -0.58226297844E+02  0.58226297844E+02  0.00000000000E+00 0. -1.
          2    1    1    2  501    0 -0.45996042407E+01  0.41343024532E+02  0.50634192269E+01  0.41905133944E+02  0.00000000000E+00 0.  1.
         -2    1    1    2    0  503  0.45996042407E+01 -0.41343024532E+02 -0.28937566550E+02  0.50673314421E+02  0.00000000000E+00 0. -1.
</event>
<event>
 4    1  0.1842931E+004  0.2149777E+02  0.7546771E-02  0.1512275E+00
         21   -1    0    0  501  502  0.00000000000E+00  0.00000000000E+00  0.20664088364E+02  0.20664088364E+02  0.00000000000E+00 0.  1.
         21   -1    0    0  502  503 -0.00000000000E+00 -0.00000000000E+00 -0.41136174616E+02  0.41136174616E+02  0.00000000000E+00 0. -1.
          2    1    1    2  501    0 -0.13834561981E+02 -0.16454750078E+02  0.10637358166E+02  0.23985564286E+02  0.00000000000E+00 0.  1.
         -2    1    1    2    0  503  0.13834561981E+02  0.16454750078E+02 -0.31109444418E+02  0.37814698694E+02  0.00000000000E+00 0. -1.
</event>
<event>
 4    1  0.1842931E+004  0.2810728E+02  0.7546771E-02  0.1436791E+00
         21   -1    0    0  501  502  0.00000000000E+00  0.00000000000E+00  0.10029225809E+02  0.10029225809E+02  0.00000000000E+00 0. -1.
         21   -1    0    0  502  503 -0.00000000000E+00 -0.00000000000E+00 -0.18905981033E+03  0.18905981033E+03  0.00000000000E+00 0.  1.
          2    1    1    2  501    0  0.26840446020E+02 -0.83432330244E+01 -0.13485797534E+02  0.31175083239E+02  0.00000000000E+00 0. -1.
         -2    1    1    2    0  503 -0.26840446020E+02  0.83432330244E+01 -0.16554478699E+03  0.16791395290E+03  0.00000000000E+00 0.  1.
</event>
<event>
 4    1  0.1842931E+004  0.2332950E+02  0.7546771E-02  0.1488401E+00
         21   -1    0    0  503  502  0.00000000000E+00  0.00000000000E+00  0.99549649033E+01  0.99549649033E+01  0.00000000000E+00 0.  1.
         21   -1    0    0  501  503 -0.00000000000E+00 -0.00000000000E+00 -0.69181590105E+02  0.69181590105E+02  0.00000000000E+00 0. -1.
          2    1    1    2  501    0  0.18213586574E+02  0.14578443969E+02 -0.47733702372E+02  0.53129766671E+02  0.00000000000E+00 0. -1.
         -2    1    1    2    0  502 -0.18213586574E+02 -0.14578443969E+02 -0.11492922830E+02  0.26006788337E+02  0.00000000000E+00 0.  1.
</event>
<event>
 4    1  0.1842931E+004  0.2562559E+02  0.7546771E-02  0.1461925E+00
         21   -1    0    0  503  502  0.00000000000E+00  0.00000000000E+00  0.90794953328E+01  0.90794953328E+01  0.00000000000E+00 0. -1.
         21   -1    0    0  501  503 -0.00000000000E+00 -0.00000000000E+00 -0.12458935971E+03  0.12458935971E+03  0.00000000000E+00 0.  1.
          2    1    1    2  501    0 -0.13196044953E+02  0.21966690659E+02 -0.10104259400E+03  0.10424143563E+03  0.00000000000E+00 0.  1.
         -2    1    1    2    0  502  0.13196044953E+02 -0.21966690659E+02 -0.14467270380E+02  0.29427419411E+02  0.00000000000E+00 0. -1.
</event>
<event>
 4    1  0.1842931E+004  0.2617276E+02  0.7546771E-02  0.1456100E+00
         21   -1    0    0  503  502  0.00000000000E+00  0.00000000000E+00  0.35366473877E+01  0.35366473877E+01  0.00000000000E+00 0. -1.
         21   -1    0    0  501  503 -0.00000000000E+00 -0.00000000000E+00 -0.12743460674E+04  0.12743460674E+04  0.00000000000E+00 0.  1.
          2    1    1    2  501    0  0.18749110724E+02  0.18261550871E+02 -0.12237889716E+04  0.12240688136E+04  0.00000000000E+00 0.  1.
         -2    1    1    2    0  502 -0.18749110724E+02 -0.18261550871E+02 -0.47020448405E+02  0.53813901191E+02  0.00000000000E+00 0. -1.
</event>
<event>
 4    1  0.1842931E+004  0.2210264E+02  0.7546771E-02  0.1504085E+00
         21   -1    0    0  503  502  0.00000000000E+00  0.00000000000E+00  0.12852473577E+03  0.12852473577E+03  0.00000000000E+00 0. -1.
         21   -1    0    0  501  503 -0.00000000000E+00 -0.00000000000E+00 -0.42447937926E+01  0.42447937926E+01  0.00000000000E+00 0.  1.
          2    1    1    2  501    0  0.21363508582E+02  0.56680767018E+01  0.83604196958E+02  0.86476519018E+02  0.00000000000E+00 0. -1.
         -2    1    1    2    0  502 -0.21363508582E+02 -0.56680767018E+01  0.40675745021E+02  0.46293010547E+02  0.00000000000E+00 0.  1.
</event>
<event>
 4    1  0.1842931E+004  0.2212398E+02  0.7546771E-02  0.1503801E+00
         21   -1    0    0  501  502  0.00000000000E+00  0.00000000000E+00  0.97059630049E+02  0.97059630049E+02  0.00000000000E+00 0. -1.
         21   -1    0    0  502  503 -0.00000000000E+00 -0.00000000000E+00 -0.62974820599E+01  0.62974820599E+01  0.00000000000E+00 0.  1.
          2    1    1    2  501    0 -0.20994132244E+02 -0.69797530784E+01  0.68446486172E+02  0.71933246910E+02  0.00000000000E+00 0. -1.
         -2    1    1    2    0  503  0.20994132244E+02  0.69797530784E+01  0.22315661817E+02  0.31423865199E+02  0.00000000000E+00 0.  1.
</event>
<event>
 4    1  0.1842931E+004  0.2453485E+02  0.7546771E-02  0.1474075E+00
         21   -1    0    0  503  502  0.00000000000E+00  0.00000000000E+00  0.14495460292E+03  0.14495460292E+03  0.00000000000E+00 0. -1.
         21   -1    0    0  501  503 -0.00000000000E+00 -0.00000000000E+00 -0.58944821304E+01  0.58944821304E+01  0.00000000000E+00 0.  1.
          2    1    1    2  501    0  0.18284293277E+02  0.16359809611E+02  0.28530253771E+02  0.37628900215E+02  0.00000000000E+00 0. -1.
         -2    1    1    2    0  502 -0.18284293277E+02 -0.16359809611E+02  0.11052986702E+03  0.11322018484E+03  0.00000000000E+00 0.  1.
</event>
<event>
 4    1  0.1842931E+004  0.2238684E+02  0.7546771E-02  0.1500345E+00
         21   -1    0    0  501  502  0.00000000000E+00  0.00000000000E+00  0.15396607600E+03  0.15396607600E+03  0.00000000000E+00 0. -1.
         21   -1    0    0  502  503 -0.00000000000E+00 -0.00000000000E+00 -0.77825965539E+01  0.77825965539E+01  0.00000000000E+00 0.  1.
          2    1    1    2  501    0  0.17544183968E+02 -0.13905832684E+02  0.13477664551E+03  0.13662325844E+03  0.00000000000E+00 0. -1.
         -2    1    1    2    0  503 -0.17544183968E+02  0.13905832684E+02  0.11406833941E+02  0.25125414112E+02  0.00000000000E+00 0.  1.
</event>
<event>
 4    1  0.1842931E+004  0.2223007E+02  0.7546771E-02  0.1502399E+00
         21   -1    0    0  503  502  0.00000000000E+00  0.00000000000E+00  0.13401972118E+02  0.13401972118E+02  0.00000000000E+00 0.  1.
         21   -1    0    0  501  503 -0.00000000000E+00 -0.00000000000E+00 -0.39744665540E+02  0.39744665540E+02  0.00000000000E+00 0. -1.
          2    1    1    2  501    0  0.74984112258E+01  0.20927249057E+02 -0.60289321177E+01  0.23033105446E+02  0.00000000000E+00 0.  1.
         -2    1    1    2    0  502 -0.74984112258E+01 -0.20927249057E+02 -0.20313761304E+02  0.30113532213E+02  0.00000000000E+00 0. -1.
</event>
<event>
 4    1  0.1842931E+004  0.4502175E+02  0.7546771E-02  0.1321331E+00
         21   -1    0    0  503  502  0.00000000000E+00  0.00000000000E+00  0.12939009491E+03  0.12939009491E+03  0.00000000000E+00 0.  1.
         21   -1    0    0  501  503 -0.00000000000E+00 -0.00000000000E+00 -0.37451034054E+02  0.37451034054E+02  0.00000000000E+00 0. -1.
          2    1    1    2  501    0  0.42620210996E+02  0.14507769522E+02 -0.17655138620E+02  0.48359711347E+02  0.00000000000E+00 0. -1.
         -2    1    1    2    0  502 -0.42620210996E+02 -0.14507769522E+02  0.10959419948E+03  0.11848141762E+03  0.00000000000E+00 0.  1.
</event>
<event>
 4    1  0.1842931E+004  0.2761635E+02  0.7546771E-02  0.1441513E+00
         21   -1    0    0  501  502  0.00000000000E+00  0.00000000000E+00  0.11174234716E+03  0.11174234716E+03  0.00000000000E+00 0.  1.
         21   -1    0    0  502  503 -0.00000000000E+00 -0.00000000000E+00 -0.12800234553E+02  0.12800234553E+02  0.00000000000E+00 0. -1.
          2    1    1    2  501    0 -0.85805560868E+01 -0.26249516553E+02  0.92016139500E+02  0.96070978919E+02  0.00000000000E+00 0.  1.
         -2    1    1    2    0  503  0.85805560868E+01  0.26249516553E+02  0.69259731044E+01  0.28471602790E+02  0.00000000000E+00 0. -1.
</event>
<event>
 4    1  0.1842931E+004  0.4210589E+02  0.7546771E-02  0.1336568E+00
         21   -1    0    0  501  502  0.00000000000E+00  0.00000000000E+00  0.29768029487E+02  0.29768029487E+02  0.00000000000E+00 0. -1.
         21   -1    0    0  502  503 -0.00000000000E+00 -0.00000000000E+00 -0.12630429117E+03  0.12630429117E+03  0.00000000000E+00 0.  1.
          2    1    1    2  501    0 -0.41942627395E+02  0.37043303677E+01  0.84605131505E+01  0.42947483501E+02  0.00000000000E+00 0. -1.
         -2    1    1    2    0  503  0.41942627395E+02 -0.37043303677E+01 -0.10499677483E+03  0.11312483715E+03  0.00000000000E+00 0.  1.
</event>
<event>
 4    1  0.1842931E+004  0.2041327E+02  0.7546771E-02  0.1527809E+00
         21   -1    0    0  501  502  0.00000000000E+00  0.00000000000E+00  0.63071992151E+01  0.63071992151E+01  0.00000000000E+00 0. -1.
         21   -1    0    0  502  503 -0.00000000000E+00 -0.00000000000E+00 -0.17863422074E+03  0.17863422074E+03  0.00000000000E+00 0.  1.
          2    1    1    2  501    0  0.18734172895E+02  0.81075513332E+01 -0.12758341642E+02  0.24072326521E+02  0.00000000000E+00 0. -1.
         -2    1    1    2    0  503 -0.18734172895E+02 -0.81075513332E+01 -0.15956867989E+03  0.16086909344E+03  0.00000000000E+00 0.  1.
</event>
<event>
 4    1  0.1842931E+004  0.3045094E+02  0.7546771E-02  0.1415718E+00
         21   -1    0    0  501  502  0.00000000000E+00  0.00000000000E+00  0.18667008867E+02  0.18667008867E+02  0.00000000000E+00 0. -1.
         21   -1    0    0  502  503 -0.00000000000E+00 -0.00000000000E+00 -0.54156498226E+02  0.54156498226E+02  0.00000000000E+00 0.  1.
          2    1    1    2  501    0  0.17122684694E+02  0.25180808705E+02 -0.28220630288E+02  0.41517025809E+02  0.00000000000E+00 0.  1.
         -2    1    1    2    0  503 -0.17122684694E+02 -0.25180808705E+02 -0.72688590713E+01  0.31306481284E+02  0.00000000000E+00 0. -1.
</event>
<event>
 4    1  0.1842931E+004  0.2126337E+02  0.7546771E-02  0.1515538E+00
         21   -1    0    0  503  502  0.00000000000E+00  0.00000000000E+00  0.95947314355E+00  0.95947314355E+00  0.00000000000E+00 0.  1.
         21   -1    0    0  501  503 -0.00000000000E+00 -0.00000000000E+00 -0.73287098387E+03  0.73287098387E+03  0.00000000000E+00 0. -1.
          2    1    1    2  501    0  0.13946135811E+02 -0.16051050131E+02 -0.58518892221E+03  0.58557510671E+03  0.00000000000E+00 0. -1.
         -2    1    1    2    0  502 -0.13946135811E+02  0.16051050131E+02 -0.14672258851E+03  0.14825535030E+03  0.00000000000E+00 0.  1.
</event>
<event>
 4    1  0.1842931E+004  0.2063051E+02  0.7546771E-02  0.1524606E+00
         21   -1    0    0  503  502  0.00000000000E+00  0.00000000000E+00  0.76416875442E+03  0.76416875442E+03  0.00000000000E+00 0. -1.
         21   -1    0    0  501  503 -0.00000000000E+00 -0.00000000000E+00 -0.16934118615E+01  0.16934118615E+01  0.00000000000E+00 0.  1.
          2    1    1    2  501    0  0.31091721224E+00 -0.20628163708E+02  0.67538588531E+02  0.70619251966E+02  0.00000000000E+00 0.  1.
         -2    1    1    2    0  502 -0.31091721224E+00  0.20628163708E+02  0.69493675403E+03  0.69524291431E+03  0.00000000000E+00 0. -1.
</event>
<event>
 4    1  0.1842931E+004  0.6640529E+02  0.7546771E-02  0.1239496E+00
         21   -1    0    0  501  502  0.00000000000E+00  0.00000000000E+00  0.18389160095E+03  0.18389160095E+03  0.00000000000E+00 0. -1.
         21   -1    0    0  502  503 -0.00000000000E+00 -0.00000000000E+00 -0.46088052287E+02  0.46088052287E+02  0.00000000000E+00 0.  1.
          2    1    1    2  501    0 -0.65016809277E+02  0.13508426171E+02  0.14854403071E+03  0.16271137676E+03  0.00000000000E+00 0. -1.
         -2    1    1    2    0  503  0.65016809277E+02 -0.13508426171E+02 -0.10740482047E+02  0.67268276481E+02  0.00000000000E+00 0.  1.
</event>
<event>
 4    1  0.1842931E+004  0.2536269E+02  0.7546771E-02  0.1464787E+00
         21   -1    0    0  501  502  0.00000000000E+00  0.00000000000E+00  0.98151819573E+03  0.98151819573E+03  0.00000000000E+00 0.  1.
         21   -1    0    0  502  503 -0.00000000000E+00 -0.00000000000E+00 -0.18773249889E+01  0.18773249889E+01  0.00000000000E+00 0. -1.
          2    1    1    2  501    0  0.54284305983E+01 -0.24774946686E+02  0.88651350033E+03  0.88687623269E+03  0.00000000000E+00 0.  1.
         -2    1    1    2    0  503 -0.54284305983E+01  0.24774946686E+02  0.93127370418E+02  0.96519288036E+02  0.00000000000E+00 0. -1.
</event>
<event>
 4    1  0.1842931E+004  0.3598529E+02  0.7546771E-02  0.1373766E+00
         21   -1    0    0  503  502  0.00000000000E+00  0.00000000000E+00  0.16738308367E+02  0.16738308367E+02  0.00000000000E+00 0. -1.
         21   -1    0    0  501  503 -0.00000000000E+00 -0.00000000000E+00 -0.84179409156E+02  0.84179409156E+02  0.00000000000E+00 0.  1.
          2    1    1    2  501    0 -0.38673113804E+01  0.35776882237E+02 -0.48078172747E+02  0.60053743386E+02  0.00000000000E+00 0. -1.
         -2    1    1    2    0  502  0.38673113804E+01 -0.35776882237E+02 -0.19362928041E+02  0.40863974137E+02  0.00000000000E+00 0.  1.
</event>
<event>
 4    1  0.1842931E+004  0.2119381E+02  0.7546771E-02  0.1516516E+00
         21   -1    0    0  503  502  0.00000000000E+00  0.00000000000E+00  0.29637968291E+03  0.29637968291E+03  0.00000000000E+00 0.  1.
         21   -1    0    0  501  503 -0.00000000000E+00 -0.00000000000E+00 -0.20646959394E+01  0.20646959394E+01  0.00000000000E+00 0. -1.
          2    1    1    2  501    0  0.10465917033E+02 -0.18429385060E+02  0.70200159888E+02  0.73329667266E+02  0.00000000000E+00 0. -1.
         -2    1    1    2    0  502 -0.10465917033E+02  0.18429385060E+02  0.22411482708E+03  0.22511471158E+03  0.00000000000E+00 0.  1.
</event>
<event>
 4    1  0.1842931E+004  0.2212837E+02  0.7546771E-02  0.1503743E+00
         21   -1    0    0  503  502  0.00000000000E+00  0.00000000000E+00  0.68573041378E+02  0.68573041378E+02  0.00000000000E+00 0.  1.
         21   -1    0    0  501  503 -0.00000000000E+00 -0.00000000000E+00 -0.35180768577E+02  0.35180768577E+02  0.00000000000E+00 0. -1.
          2    1    1    2  501    0 -0.18948205452E+02  0.11429355976E+02 -0.29617656600E+02  0.36971208397E+02  0.00000000000E+00 0. -1.
         -2    1    1    2    0  502  0.18948205452E+02 -0.11429355976E+02  0.63009929400E+02  0.66782601558E+02  0.00000000000E+00 0.  1.
</event>
<event>
 4    1  0.1842931E+004  0.2081310E+02  0.7546771E-02  0.1521950E+00
         21   -1    0    0  501  502  0.00000000000E+00  0.00000000000E+00  0.10875265966E+03  0.10875265966E+03  0.00000000000E+00 0.  1.
         21   -1    0    0  502  503 -0.00000000000E+00 -0.00000000000E+00 -0.67635233465E+01  0.67635233465E+01  0.00000000000E+00 0. -1.
          2    1    1    2  501    0  0.14731705023E+02 -0.14702452984E+02  0.88026195450E+02  0.90453282649E+02  0.00000000000E+00 0.  1.
         -2    1    1    2    0  503 -0.14731705023E+02  0.14702452984E+02  0.13962940859E+02  0.25062900352E+02  0.00000000000E+00 0. -1.
</event>
