<event>
 4    1  0.3586324E+003  0.3101341E+02  0.7546771E-02  0.1410990E+00
          2   -1    0    0  502    0  0.00000000000E+00  0.00000000000E+00  0.11115375233E+03  0.11115375233E+03  0.00000000000E+00 0.  1.
          1   -1    0    0  501    0 -0.00000000000E+00 -0.00000000000E+00 -0.17937528236E+04  0.17937528236E+04  0.00000000000E+00 0. -1.
          2    1    1    2  501    0 -0.19727512154E+02 -0.23930244511E+02  0.10885363176E+03  0.11318544290E+03  0.00000000000E+00 0.  1.
          1    1    1    2  502    0  0.19727512154E+02  0.23930244511E+02 -0.17914527030E+04  0.17917211330E+04  0.00000000000E+00 0. -1.
</event>
<event>
 4    1  0.3586324E+003  0.5366986E+02  0.7546771E-02  0.1283000E+00
          2   -1    0    0  502    0  0.00000000000E+00  0.00000000000E+00  0.19538676713E+02  0.19538676713E+02  0.00000000000E+00 0. -1.
          1   -1    0    0  501    0 -0.00000000000E+00 -0.00000000000E+00 -0.48924695156E+03  0.48924695156E+03  0.00000000000E+00 0.  1.
          2    1    1    2  501    0 -0.24896103466E+02 -0.47546170827E+02 -0.22215641891E+02  0.58086048865E+02  0.00000000000E+00 0. -1.
          1    1    1    2  502    0  0.24896103466E+02  0.47546170827E+02 -0.44749263295E+03  0.45069957940E+03  0.00000000000E+00 0.  1.
</event>
<event>
 4    1  0.3586324E+003  0.3491464E+02  0.7546771E-02  0.1381164E+00
          2   -1    0    0  502    0  0.00000000000E+00  0.00000000000E+00  0.28074390496E+03  0.28074390496E+03  0.00000000000E+00 0. -1.
          1   -1    0    0  501    0 -0.00000000000E+00 -0.00000000000E+00 -0.25253415328E+02  0.25253415328E+02  0.00000000000E+00 0.  1.
          2    1    1    2  501    0 -0.19455016854E+02  0.28991976969E+02  0.26697040090E+03  0.26924380655E+03  0.00000000000E+00 0. -1.
          1    1    1    2  502    0  0.19455016854E+02 -0.28991976969E+02 -0.11479911267E+02  0.36753513738E+02  0.00000000000E+00 0.  1.
</event>
<event>
 4    1  0.3586324E+003  0.2339539E+02  0.7546771E-02  0.1487592E+00
          2   -1    0    0  502    0  0.00000000000E+00  0.00000000000E+00  0.70487212945E+01  0.70487212945E+01  0.00000000000E+00 0. -1.
          1   -1    0    0  501    0 -0.00000000000E+00 -0.00000000000E+00 -0.51879799042E+03  0.51879799042E+03  0.00000000000E+00 0. -1.
          2    1    1    2  501    0  0.82452892655E+01 -0.21894280503E+02 -0.13425073984E+02  0.26973633891E+02  0.00000000000E+00 0. -1.
          1    1    1    2  502    0 -0.82452892655E+01  0.21894280503E+02 -0.49832419514E+03  0.49887307782E+03  0.00000000000E+00 0. -1.
</event>
<event>
 4    1  0.3586324E+003  0.4667106E+02  0.7546771E-02  0.1313289E+00
          2   -1    0    0  502    0  0.00000000000E+00  0.00000000000E+00  0.55130408232E+02  0.55130408232E+02  0.00000000000E+00 0. -1.
          1   -1    0    0  501    0 -0.00000000000E+00 -0.00000000000E+00 -0.15187317759E+03  0.15187317759E+03  0.00000000000E+00 0. -1.
          2    1    1    2  501    0  0.41176402348E+02  0.21970255281E+02  0.40655225471E+02  0.61895359968E+02  0.00000000000E+00 0. -1.
          1    1    1    2  502    0 -0.41176402348E+02 -0.21970255281E+02 -0.13739799483E+03  0.14510822585E+03  0.00000000000E+00 0. -1.
</event>
<event>
 4    1  0.3586324E+003  0.2042409E+02  0.7546771E-02  0.1527648E+00
          2   -1    0    0  502    0  0.00000000000E+00  0.00000000000E+00  0.77870518217E+02  0.77870518217E+02  0.00000000000E+00 0.  1.
          1   -1    0    0  501    0 -0.00000000000E+00 -0.00000000000E+00 -0.14775880644E+02  0.14775880644E+02  0.00000000000E+00 0.  1.
          2    1    1    2  501    0  0.20177601085E+02  0.31635253448E+01  0.68532192352E+02  0.71510872368E+02  0.00000000000E+00 0.  1.
          1    1    1    2  502    0 -0.20177601085E+02 -0.31635253448E+01 -0.54375547797E+01  0.21135526493E+02  0.00000000000E+00 0.  1.
</event>
<event>
 4    1  0.3586324E+003  0.2250208E+02  0.7546771E-02  0.1498847E+00
          2   -1    0    0  502    0  0.00000000000E+00  0.00000000000E+00  0.61431154058E+01  0.61431154058E+01  0.00000000000E+00 0. -1.
          1   -1    0    0  501    0 -0.00000000000E+00 -0.00000000000E+00 -0.14252770430E+03  0.14252770430E+03  0.00000000000E+00 0. -1.
          2    1    1    2  501    0  0.19462477235E+02 -0.11294024079E+02 -0.11646426582E+03  0.11861816140E+03  0.00000000000E+00 0. -1.
          1    1    1    2  502    0 -0.19462477235E+02  0.11294024079E+02 -0.19920323069E+02  0.30052658304E+02  0.00000000000E+00 0. -1.
</event>
<event>
 4    1  0.3586324E+003  0.2191960E+02  0.7546771E-02  0.1506529E+00
          2   -1    0    0  502    0  0.00000000000E+00  0.00000000000E+00  0.16798125693E+04  0.16798125693E+04  0.00000000000E+00 0. -1.
          1   -1    0    0  501    0 -0.00000000000E+00 -0.00000000000E+00 -0.89831786377E+00  0.89831786377E+00  0.00000000000E+00 0. -1.
          2    1    1    2  501    0  0.15377351732E+02 -0.15620683354E+02  0.15332463244E+04  0.15334029999E+04  0.00000000000E+00 0. -1.
          1    1    1    2  502    0 -0.15377351732E+02  0.15620683354E+02  0.14566792703E+03  0.14730788730E+03  0.00000000000E+00 0. -1.
</event>
<event>
 4    1  0.3586324E+003  0.2018199E+02  0.7546771E-02  0.1531272E+00
          2   -1    0    0  502    0  0.00000000000E+00  0.00000000000E+00  0.69428952826E+01  0.69428952826E+01  0.00000000000E+00 0.  1.
          1   -1    0    0  501    0 -0.00000000000E+00 -0.00000000000E+00 -0.34664139597E+03  0.34664139597E+03  0.00000000000E+00 0. -1.
          2    1    1    2  501    0 -0.16073617268E+02 -0.12204564197E+02 -0.87103580024E+01  0.21981421607E+02  0.00000000000E+00 0.  1.
          1    1    1    2  502    0  0.16073617268E+02  0.12204564197E+02 -0.33098814269E+03  0.33160286965E+03  0.00000000000E+00 0. -1.
</event>
<event>
 4    1  0.3586324E+003  0.2212064E+02  0.7546771E-02  0.1503846E+00
          2   -1    0    0  502    0  0.00000000000E+00  0.00000000000E+00  0.22582623265E+02  0.22582623265E+02  0.00000000000E+00 0. -1.
          1   -1    0    0  501    0 -0.00000000000E+00 -0.00000000000E+00 -0.29765962277E+02  0.29765962277E+02  0.00000000000E+00 0. -1.
          2    1    1    2  501    0 -0.21663382897E+02  0.44744533180E+01  0.10060440143E+02  0.24300933046E+02  0.00000000000E+00 0. -1.
          1    1    1    2  502    0  0.21663382897E+02 -0.44744533180E+01 -0.17243779155E+02  0.28047652497E+02  0.00000000000E+00 0. -1.
</event>
<event>
 4    1  0.3586324E+003  0.2346728E+02  0.7546771E-02  0.1486712E+00
          2   -1    0    0  502    0  0.00000000000E+00  0.00000000000E+00  0.57018035976E+03  0.57018035976E+03  0.00000000000E+00 0. -1.
          1   -1    0    0  501    0 -0.00000000000E+00 -0.00000000000E+00 -0.96030871638E+01  0.96030871638E+01  0.00000000000E+00 0. -1.
          2    1    1    2  501    0  0.23264165677E+02  0.30808903315E+01  0.55521576782E+03  0.55571149181E+03  0.00000000000E+00 0. -1.
          1    1    1    2  502    0 -0.23264165677E+02 -0.30808903315E+01  0.53615047814E+01  0.24071955122E+02  0.00000000000E+00 0. -1.
</event>
<event>
 4    1  0.3586324E+003  0.2069584E+02  0.7546771E-02  0.1523652E+00
          2   -1    0    0  502    0  0.00000000000E+00  0.00000000000E+00  0.84316830904E+00  0.84316830904E+00  0.00000000000E+00 0.  1.
          1   -1    0    0  501    0 -0.00000000000E+00 -0.00000000000E+00 -0.82370660991E+03  0.82370660991E+03  0.00000000000E+00 0. -1.
          2    1    1    2  501    0  0.13184286116E+01  0.20653801654E+02 -0.15618979706E+03  0.15755497606E+03  0.00000000000E+00 0.  1.
          1    1    1    2  502    0 -0.13184286116E+01 -0.20653801654E+02 -0.66667364454E+03  0.66699480216E+03  0.00000000000E+00 0. -1.
</event>
<event>
 4    1  0.3586324E+003  0.2509758E+02  0.7546771E-02  0.1467715E+00
          2   -1    0    0  502    0  0.00000000000E+00  0.00000000000E+00  0.35584824289E+02  0.35584824289E+02  0.00000000000E+00 0.  1.
          1   -1    0    0  501    0 -0.00000000000E+00 -0.00000000000E+00 -0.20480602732E+03  0.20480602732E+03  0.00000000000E+00 0. -1.
          2    1    1    2  501    0 -0.93958947500E+01 -0.23272422890E+02  0.30273320103E+02  0.39323814863E+02  0.00000000000E+00 0.  1.
          1    1    1    2  502    0  0.93958947500E+01  0.23272422890E+02 -0.19949452314E+03  0.20106703675E+03  0.00000000000E+00 0. -1.
</event>
<event>
 4    1  0.3586324E+003  0.2351524E+02  0.7546771E-02  0.1486128E+00
          2   -1    0    0  502    0  0.00000000000E+00  0.00000000000E+00  0.40848289942E+03  0.40848289942E+03  0.00000000000E+00 0. -1.
          1   -1    0    0  501    0 -0.00000000000E+00 -0.00000000000E+00 -0.17356627254E+01  0.17356627254E+01  0.00000000000E+00 0. -1.
          2    1    1    2  501    0  0.76647478258E+00 -0.23502749044E+02  0.29959208028E+03  0.30051352925E+03  0.00000000000E+00 0. -1.
          1    1    1    2  502    0 -0.76647478258E+00  0.23502749044E+02  0.10715515642E+03  0.10970503290E+03  0.00000000000E+00 0. -1.
</event>
<event>
 4    1  0.3586324E+003  0.2164408E+02  0.7546771E-02  0.1510264E+00
          2   -1    0    0  502    0  0.00000000000E+00  0.00000000000E+00  0.11250434894E+03  0.11250434894E+03  0.00000000000E+00 0. -1.
          1   -1    0    0  501    0 -0.00000000000E+00 -0.00000000000E+00 -0.73183157909E+02  0.73183157909E+02  0.00000000000E+00 0.  1.
          2    1    1    2  501    0  0.19972593574E+02 -0.83403772632E+01  0.10982435107E+03  0.11193683253E+03  0.00000000000E+00 0. -1.
          1    1    1    2  502    0 -0.19972593574E+02  0.83403772632E+01 -0.70503160043E+02  0.73750674323E+02  0.00000000000E+00 0.  1.
</event>
<event>
 4    1  0.4996093E+003  0.3037852E+02  0.7546771E-02  0.1416335E+00
          2   -1    0    0  502    0  0.00000000000E+00  0.00000000000E+00  0.17802369020E+04  0.17802369020E+04  0.00000000000E+00 0. -1.
          1   -1    0    0  501    0 -0.00000000000E+00 -0.00000000000E+00 -0.10607853802E+04  0.10607853802E+04  0.00000000000E+00 0. -1.
          2    1    1    2  501    0 -0.12628483293E+02 -0.27629253872E+02  0.17798897693E+04  0.17801489952E+04  0.00000000000E+00 0. -1.
          1    1    1    2  502    0  0.12628483293E+02  0.27629253872E+02 -0.10604382475E+04  0.10608732870E+04  0.00000000000E+00 0. -1.
</event>
<event>
 4    1  0.3586324E+003  0.2929555E+02  0.7546771E-02  0.1425818E+00
          2   -1    0    0  502    0  0.00000000000E+00  0.00000000000E+00  0.18334752552E+04  0.18334752552E+04  0.00000000000E+00 0. -1.
          1   -1    0    0  501    0 -0.00000000000E+00 -0.00000000000E+00 -0.43939442991E+01  0.43939442991E+01  0.00000000000E+00 0.  1.
          2    1    1    2  501    0  0.19928811462E+02  0.21472579000E+02  0.17831499799E+04  0.17833906134E+04  0.00000000000E+00 0. -1.
          1    1    1    2  502    0 -0.19928811462E+02 -0.21472579000E+02  0.45931331017E+02  0.54478586107E+02  0.00000000000E+00 0.  1.
</event>
<event>
 4    1  0.3586324E+003  0.2269505E+02  0.7546771E-02  0.1496363E+00
          2   -1    0    0  502    0  0.00000000000E+00  0.00000000000E+00  0.24097466945E+02  0.24097466945E+02  0.00000000000E+00 0. -1.
          1   -1    0    0  501    0 -0.00000000000E+00 -0.00000000000E+00 -0.15116782382E+03  0.15116782382E+03  0.00000000000E+00 0. -1.
          2    1    1    2  501    0  0.18167652975E+02 -0.13601533092E+02  0.17666093944E+02  0.28760323230E+02  0.00000000000E+00 0. -1.
          1    1    1    2  502    0 -0.18167652975E+02  0.13601533092E+02 -0.14473645082E+03  0.14650496754E+03  0.00000000000E+00 0. -1.
</event>
<event>
 4    1  0.3586324E+003  0.2032303E+02  0.7546771E-02  0.1529154E+00
          2   -1    0    0  502    0  0.00000000000E+00  0.00000000000E+00  0.81809094035E+01  0.81809094035E+01  0.00000000000E+00 0. -1.
          1   -1    0    0  501    0 -0.00000000000E+00 -0.00000000000E+00 -0.14722584990E+03  0.14722584990E+03  0.00000000000E+00 0. -1.
          2    1    1    2  501    0  0.17380968651E+02 -0.10532206260E+02 -0.65356814766E+01  0.21348081233E+02  0.00000000000E+00 0. -1.
          1    1    1    2  502    0 -0.17380968651E+02  0.10532206260E+02 -0.13250925902E+03  0.13405867807E+03  0.00000000000E+00 0. -1.
</event>
<event>
 4    1  0.3586324E+003  0.3612923E+02  0.7546771E-02  0.1372794E+00
          2   -1    0    0  502    0  0.00000000000E+00  0.00000000000E+00  0.26610007655E+01  0.26610007655E+01  0.00000000000E+00 0.  1.
          1   -1    0    0  501    0 -0.00000000000E+00 -0.00000000000E+00 -0.15182825119E+04  0.15182825119E+04  0.00000000000E+00 0.  1.
          2    1    1    2  501    0  0.29460133291E+02  0.20914623684E+02 -0.13213480612E+03  0.13698513761E+03  0.00000000000E+00 0.  1.
          1    1    1    2  502    0 -0.29460133291E+02 -0.20914623684E+02 -0.13834867050E+04  0.13839583750E+04  0.00000000000E+00 0.  1.
</event>
<event>
 4    1  0.3586324E+003  0.4048545E+02  0.7546771E-02  0.1345664E+00
          2   -1    0    0  502    0  0.00000000000E+00  0.00000000000E+00  0.79747728420E+03  0.79747728420E+03  0.00000000000E+00 0. -1.
          1   -1    0    0  501    0 -0.00000000000E+00 -0.00000000000E+00 -0.55295386760E+03  0.55295386760E+03  0.00000000000E+00 0.  1.
          2    1    1    2  501    0 -0.32207657071E+02  0.24530356883E+02  0.79622123317E+03  0.79724985025E+03  0.00000000000E+00 0. -1.
          1    1    1    2  502    0  0.32207657071E+02 -0.24530356883E+02 -0.55169781657E+03  0.55318130155E+03  0.00000000000E+00 0.  1.
</event>
<event>
 4    1  0.3586324E+003  0.2660217E+02  0.7546771E-02  0.1451646E+00
          2   -1    0    0  502    0  0.00000000000E+00  0.00000000000E+00  0.66445379305E+03  0.66445379305E+03  0.00000000000E+00 0. -1.
          1   -1    0    0  501    0 -0.00000000000E+00 -0.00000000000E+00 -0.54421549948E+01  0.54421549948E+01  0.00000000000E+00 0. -1.
          2    1    1    2  501    0  0.16871481122E+02 -0.20567663482E+02  0.62989580323E+03  0.63045729322E+03  0.00000000000E+00 0. -1.
          1    1    1    2  502    0 -0.16871481122E+02  0.20567663482E+02  0.29115834829E+02  0.39438654822E+02  0.00000000000E+00 0. -1.
</event>
<event>
 4    1  0.3586324E+003  0.2441214E+02  0.7546771E-02  0.1475488E+00
          2   -1    0    0  502    0  0.00000000000E+00  0.00000000000E+00  0.46079583123E+02  0.46079583123E+02  0.00000000000E+00 0. -1.
          1   -1    0    0  501    0 -0.00000000000E+00 -0.00000000000E+00 -0.17545896080E+02  0.17545896080E+02  0.00000000000E+00 0. -1.
          2    1    1    2  501    0  0.12900067755E+02 -0.20725362682E+02  0.30578379578E+02  0.39127863524E+02  0.00000000000E+00 0. -1.
          1    1    1    2  502    0 -0.12900067755E+02  0.20725362682E+02 -0.20446925348E+01  0.24497615679E+02  0.00000000000E+00 0. -1.
</event>
<event>
 4    1  0.3586324E+003  0.3152221E+02  0.7546771E-02  0.1406814E+00
          2   -1    0    0  502    0  0.00000000000E+00  0.00000000000E+00  0.20441633821E+04  0.20441633821E+04  0.00000000000E+00 0.  1.
          1   -1    0    0  501    0 -0.00000000000E+00 -0.00000000000E+00 -0.12650517508E+01  0.12650517508E+01  0.00000000000E+00 0. -1.
          2    1    1    2  501    0  0.87148897212E+01 -0.30293569772E+02  0.18239729282E+04  0.18242452939E+04  0.00000000000E+00 0.  1.
          1    1    1    2  502    0 -0.87148897212E+01  0.30293569772E+02  0.21892540211E+03  0.22118313987E+03  0.00000000000E+00 0. -1.
</event>
<event>
 4    1  0.3586324E+003  0.2381088E+02  0.7546771E-02  0.1482559E+00
          2   -1    0    0  502    0  0.00000000000E+00  0.00000000000E+00  0.32117956598E+01  0.32117956598E+01  0.00000000000E+00 0.  1.
          1   -1    0    0  501    0 -0.00000000000E+00 -0.00000000000E+00 -0.38697014935E+03  0.38697014935E+03  0.00000000000E+00 0. -1.
          2    1    1    2  501    0 -0.65192934824E+01 -0.22901019425E+02 -0.48009489843E+02  0.53589821732E+02  0.00000000000E+00 0.  1.
          1    1    1    2  502    0  0.65192934824E+01  0.22901019425E+02 -0.33574886384E+03  0.33659212328E+03  0.00000000000E+00 0. -1.
</event>
<event>
 4    1  0.3586324E+003  0.2796791E+02  0.7546771E-02  0.1438120E+00
          2   -1    0    0  502    0  0.00000000000E+00  0.00000000000E+00  0.19003616445E+03  0.19003616445E+03  0.00000000000E+00 0.  1.
          1   -1    0    0  501    0 -0.00000000000E+00 -0.00000000000E+00 -0.18381133811E+03  0.18381133811E+03  0.00000000000E+00 0. -1.
          2    1    1    2  501    0 -0.17421459985E+01  0.27913599436E+02  0.18793142670E+03  0.19000111907E+03  0.00000000000E+00 0.  1.
          1    1    1    2  502    0  0.17421459985E+01 -0.27913599436E+02 -0.18170660037E+03  0.18384638349E+03  0.00000000000E+00 0. -1.
</event>
<event>
 4    1  0.3586324E+003  0.2168167E+02  0.7546771E-02  0.1509751E+00
          2   -1    0    0  502    0  0.00000000000E+00  0.00000000000E+00  0.10177904109E+04  0.10177904109E+04  0.00000000000E+00 0.  1.
          1   -1    0    0  501    0 -0.00000000000E+00 -0.00000000000E+00 -0.12048420220E+03  0.12048420220E+03  0.00000000000E+00 0. -1.
          2    1    1    2  501    0  0.18797665687E+02 -0.10804741701E+02  0.10166984659E+04  0.10169296265E+04  0.00000000000E+00 0.  1.
          1    1    1    2  502    0 -0.18797665687E+02  0.10804741701E+02 -0.11939225723E+03  0.12134498657E+03  0.00000000000E+00 0. -1.
</event>
<event>
 4    1  0.3586324E+003  0.2239451E+02  0.7546771E-02  0.1500244E+00
          2   -1    0    0  502    0  0.00000000000E+00  0.00000000000E+00  0.12189056450E+03  0.12189056450E+03  0.00000000000E+00 0.  1.
          1   -1    0    0  501    0 -0.00000000000E+00 -0.00000000000E+00 -0.53668121282E+01  0.53668121282E+01  0.00000000000E+00 0.  1.
          2    1    1    2  501    0  0.21323253273E+02  0.68434722702E+01  0.88998590980E+02  0.91772890546E+02  0.00000000000E+00 0.  1.
          1    1    1    2  502    0 -0.21323253273E+02 -0.68434722702E+01  0.27525161392E+02  0.35484486082E+02  0.00000000000E+00 0.  1.
</event>
<event>
 4    1  0.3586324E+003  0.6036664E+02  0.7546771E-02  0.1258592E+00
          2   -1    0    0  502    0  0.00000000000E+00  0.00000000000E+00  0.10312041414E+03  0.10312041414E+03  0.00000000000E+00 0.  1.
          1   -1    0    0  501    0 -0.00000000000E+00 -0.00000000000E+00 -0.16718747888E+03  0.16718747888E+03  0.00000000000E+00 0.  1.
          2    1    1    2  501    0 -0.66669908720E+01  0.59997358317E+02  0.87989630348E+02  0.10670663907E+03  0.00000000000E+00 0.  1.
          1    1    1    2  502    0  0.66669908720E+01 -0.59997358317E+02 -0.15205669509E+03  0.16360125395E+03  0.00000000000E+00 0.  1.
</event>
<event>
 4    1  0.3586324E+003  0.3195922E+02  0.7546771E-02  0.1403302E+00
          2   -1    0    0  502    0  0.00000000000E+00  0.00000000000E+00  0.84591617921E+00  0.84591617921E+00  0.00000000000E+00 0. -1.
          1   -1    0    0  501    0 -0.00000000000E+00 -0.00000000000E+00 -0.12546604723E+04  0.12546604723E+04  0.00000000000E+00 0. -1.
          2    1    1    2  501    0 -0.96869050726E+01 -0.30455777538E+02 -0.74869532446E+03  0.74937712761E+03  0.00000000000E+00 0. -1.
          1    1    1    2  502    0  0.96869050726E+01  0.30455777538E+02 -0.50511923162E+03  0.50612926083E+03  0.00000000000E+00 0. -1.
</event>
<event>
 4    1  0.3586324E+003  0.2113018E+02  0.7546771E-02  0.1517414E+00
          2   -1    0    0  502    0  0.00000000000E+00  0.00000000000E+00  0.27218550649E+02  0.27218550649E+02  0.00000000000E+00 0.  1.
          1   -1    0    0  501    0 -0.00000000000E+00 -0.00000000000E+00 -0.40065064649E+02  0.40065064649E+02  0.00000000000E+00 0.  1.
          2    1    1    2  501    0  0.15251792621E+02  0.14624204257E+02  0.19430069583E+02  0.28705611513E+02  0.00000000000E+00 0.  1.
          1    1    1    2  502    0 -0.15251792621E+02 -0.14624204257E+02 -0.32276583583E+02  0.38578003786E+02  0.00000000000E+00 0.  1.
</event>
<event>
 4    1  0.3586324E+003  0.2704889E+02  0.7546771E-02  0.1447118E+00
          2   -1    0    0  502    0  0.00000000000E+00  0.00000000000E+00  0.14470457444E+03  0.14470457444E+03  0.00000000000E+00 0.  1.
          1   -1    0    0  501    0 -0.00000000000E+00 -0.00000000000E+00 -0.75416685561E+01  0.75416685561E+01  0.00000000000E+00 0.  1.
          2    1    1    2  501    0  0.69731730004E+01 -0.26134601423E+02  0.11228278689E+03  0.11549487765E+03  0.00000000000E+00 0.  1.
          1    1    1    2  502    0 -0.69731730004E+01  0.26134601423E+02  0.24880118998E+02  0.36751365343E+02  0.00000000000E+00 0.  1.
</event>
<event>
 4    1  0.3586324E+003  0.2165243E+02  0.7546771E-02  0.1510150E+00
          2   -1    0    0  502    0  0.00000000000E+00  0.00000000000E+00  0.87948711434E+03  0.87948711434E+03  0.00000000000E+00 0. -1.
          1   -1    0    0  501    0 -0.00000000000E+00 -0.00000000000E+00 -0.83430258290E+00  0.83430258290E+00  0.00000000000E+00 0. -1.
          2    1    1    2  501    0 -0.89332982584E+01  0.19723686481E+02  0.70381132758E+03  0.70414431223E+03  0.00000000000E+00 0. -1.
          1    1    1    2  502    0  0.89332982584E+01 -0.19723686481E+02  0.17484148418E+03  0.17617710469E+03  0.00000000000E+00 0. -1.
</event>
<event>
 4    1  0.3586324E+003  0.3929714E+02  0.7546771E-02  0.1352654E+00
          2   -1    0    0  502    0  0.00000000000E+00  0.00000000000E+00  0.51244401373E+03  0.51244401373E+03  0.00000000000E+00 0.  1.
          1   -1    0    0  501    0 -0.00000000000E+00 -0.00000000000E+00 -0.13554683791E+04  0.13554683791E+04  0.00000000000E+00 0. -1.
          2    1    1    2  501    0  0.35640261571E+02 -0.16554067596E+02  0.51140523219E+03  0.51291283559E+03  0.00000000000E+00 0.  1.
          1    1    1    2  502    0 -0.35640261571E+02  0.16554067596E+02 -0.13544295975E+04  0.13549995572E+04  0.00000000000E+00 0. -1.
</event>
<event>
 4    1  0.3586324E+003  0.2021515E+02  0.7546771E-02  0.1530772E+00
          2   -1    0    0  502    0  0.00000000000E+00  0.00000000000E+00  0.61478106235E+02  0.61478106235E+02  0.00000000000E+00 0.  1.
          1   -1    0    0  501    0 -0.00000000000E+00 -0.00000000000E+00 -0.28322896326E+03  0.28322896326E+03  0.00000000000E+00 0.  1.
          2    1    1    2  501    0 -0.17083921694E+02 -0.10807024702E+02  0.59443610888E+02  0.62786901809E+02  0.00000000000E+00 0.  1.
          1    1    1    2  502    0  0.17083921694E+02  0.10807024702E+02 -0.28119446792E+03  0.28192016769E+03  0.00000000000E+00 0.  1.
</event>
<event>
 4    1  0.3586324E+003  0.6001556E+02  0.7546771E-02  0.1259780E+00
          2   -1    0    0  502    0  0.00000000000E+00  0.00000000000E+00  0.37753611647E+03  0.37753611647E+03  0.00000000000E+00 0. -1.
          1   -1    0    0  501    0 -0.00000000000E+00 -0.00000000000E+00 -0.28607322628E+04  0.28607322628E+04  0.00000000000E+00 0.  1.
          2    1    1    2  501    0  0.12707419377E+02  0.58654831621E+02  0.37483397900E+03  0.37960819221E+03  0.00000000000E+00 0. -1.
          1    1    1    2  502    0 -0.12707419377E+02 -0.58654831621E+02 -0.28580301254E+04  0.28586601871E+04  0.00000000000E+00 0.  1.
</event>
<event>
 4    1  0.3586324E+003  0.2869813E+02  0.7546771E-02  0.1431257E+00
          2   -1    0    0  502    0  0.00000000000E+00  0.00000000000E+00  0.18695117662E+02  0.18695117662E+02  0.00000000000E+00 0. -1.
          1   -1    0    0  501    0 -0.00000000000E+00 -0.00000000000E+00 -0.22506009435E+03  0.22506009435E+03  0.00000000000E+00 0. -1.
          2    1    1    2  501    0 -0.25665872071E+02 -0.12839232250E+02  0.61179805750E+01  0.29343015528E+02  0.00000000000E+00 0. -1.
          1    1    1    2  502    0  0.25665872071E+02  0.12839232250E+02 -0.21248295726E+03  0.21441219648E+03  0.00000000000E+00 0. -1.
</event>
<event>
 4    1  0.3586324E+003  0.2867198E+02  0.7546771E-02  0.1431499E+00
          2   -1    0    0  502    0  0.00000000000E+00  0.00000000000E+00  0.22675759377E+03  0.22675759377E+03  0.00000000000E+00 0. -1.
          1   -1    0    0  501    0 -0.00000000000E+00 -0.00000000000E+00 -0.24681683073E+02  0.24681683073E+02  0.00000000000E+00 0.  1.
          2    1    1    2  501    0  0.19795116946E+02  0.20742119500E+02  0.21715789764E+03  0.21904254080E+03  0.00000000000E+00 0. -1.
          1    1    1    2  502    0 -0.19795116946E+02 -0.20742119500E+02 -0.15081986936E+02  0.32396736043E+02  0.00000000000E+00 0.  1.
</event>
<event>
 4    1  0.3586324E+003  0.3315656E+02  0.7546771E-02  0.1394008E+00
          2   -1    0    0  502    0  0.00000000000E+00  0.00000000000E+00  0.37863149367E+03  0.37863149367E+03  0.00000000000E+00 0. -1.
          1   -1    0    0  501    0 -0.00000000000E+00 -0.00000000000E+00 -0.29804967391E+01  0.29804967391E+01  0.00000000000E+00 0. -1.
          2    1    1    2  501    0 -0.15512316849E+02 -0.29304004707E+02  0.15715767649E+03  0.16061722182E+03  0.00000000000E+00 0. -1.
          1    1    1    2  502    0  0.15512316849E+02  0.29304004707E+02  0.21849332045E+03  0.22099476859E+03  0.00000000000E+00 0. -1.
</event>
<event>
 4    1  0.3586324E+003  0.2139628E+02  0.7546771E-02  0.1513682E+00
          2   -1    0    0  502    0  0.00000000000E+00  0.00000000000E+00  0.87586923381E+03  0.87586923381E+03  0.00000000000E+00 0. -1.
          1   -1    0    0  501    0 -0.00000000000E+00 -0.00000000000E+00 -0.24587887820E+03  0.24587887820E+03  0.00000000000E+00 0. -1.
          2    1    1    2  501    0  0.10318122344E+02  0.18743987047E+02  0.87527277247E+03  0.87553425228E+03  0.00000000000E+00 0. -1.
          1    1    1    2  502    0 -0.10318122344E+02 -0.18743987047E+02 -0.24528241686E+03  0.24621385972E+03  0.00000000000E+00 0. -1.
</event>
<event>
 4    1  0.3586324E+003  0.2197238E+02  0.7546771E-02  0.1505822E+00
          2   -1    0    0  502    0  0.00000000000E+00  0.00000000000E+00  0.80280962565E+03  0.80280962565E+03  0.00000000000E+00 0.  1.
          1   -1    0    0  501    0 -0.00000000000E+00 -0.00000000000E+00 -0.10428935907E+03  0.10428935907E+03  0.00000000000E+00 0.  1.
          2    1    1    2  501    0 -0.20640613180E+02  0.75332886653E+01  0.80150007097E+03  0.80180119052E+03  0.00000000000E+00 0.  1.
          1    1    1    2  502    0  0.20640613180E+02 -0.75332886653E+01 -0.10297980439E+03  0.10529779419E+03  0.00000000000E+00 0.  1.
</event>
<event>
 4    1  0.3586324E+003  0.9278220E+02  0.7546771E-02  0.1176939E+00
          2   -1    0    0  502    0  0.00000000000E+00  0.00000000000E+00  0.11100835450E+04  0.11100835450E+04  0.00000000000E+00 0. -1.
          1   -1    0    0  501    0 -0.00000000000E+00 -0.00000000000E+00 -0.18671272639E+02  0.18671272639E+02  0.00000000000E+00 0.  1.
          2    1    1    2  501    0 -0.91539035250E+02 -0.15137446999E+02  0.97724779436E+03  0.98164239357E+03  0.00000000000E+00 0. -1.
          1    1    1    2  502    0  0.91539035250E+02  0.15137446999E+02  0.11416447798E+03  0.14711242404E+03  0.00000000000E+00 0.  1.
</event>
<event>
 4    1  0.3586324E+003  0.3053949E+02  0.7546771E-02  0.1414965E+00
          2   -1    0    0  502    0  0.00000000000E+00  0.00000000000E+00  0.14694959845E+04  0.14694959845E+04  0.00000000000E+00 0.  1.
          1   -1    0    0  501    0 -0.00000000000E+00 -0.00000000000E+00 -0.12249364233E+03  0.12249364233E+03  0.00000000000E+00 0.  1.
          2    1    1    2  501    0  0.13280524917E+02  0.27500696131E+02  0.14674311484E+04  0.14677489008E+04  0.00000000000E+00 0.  1.
          1    1    1    2  502    0 -0.13280524917E+02 -0.27500696131E+02 -0.12042880621E+03  0.12424072600E+03  0.00000000000E+00 0.  1.
</event>
<event>
 4    1  0.3586324E+003  0.2563061E+02  0.7546771E-02  0.1461871E+00
          2   -1    0    0  502    0  0.00000000000E+00  0.00000000000E+00  0.76939098714E+01  0.76939098714E+01  0.00000000000E+00 0. -1.
          1   -1    0    0  501    0 -0.00000000000E+00 -0.00000000000E+00 -0.29754813042E+03  0.29754813042E+03  0.00000000000E+00 0. -1.
          2    1    1    2  501    0  0.75740785630E+01  0.24485941195E+02 -0.16050859542E+02  0.30241661236E+02  0.00000000000E+00 0. -1.
          1    1    1    2  502    0 -0.75740785630E+01 -0.24485941195E+02 -0.27380336101E+03  0.27500037905E+03  0.00000000000E+00 0. -1.
</event>
<event>
 4    1  0.3586324E+003  0.2031328E+02  0.7546771E-02  0.1529299E+00
          2   -1    0    0  502    0  0.00000000000E+00  0.00000000000E+00  0.59001223413E+02  0.59001223413E+02  0.00000000000E+00 0. -1.
          1   -1    0    0  501    0 -0.00000000000E+00 -0.00000000000E+00 -0.46247310982E+03  0.46247310982E+03  0.00000000000E+00 0.  1.
          2    1    1    2  501    0  0.69438609621E+00  0.20301411976E+02  0.57022263621E+02  0.60532371908E+02  0.00000000000E+00 0. -1.
          1    1    1    2  502    0 -0.69438609621E+00 -0.20301411976E+02 -0.46049415003E+03  0.46094196133E+03  0.00000000000E+00 0.  1.
</event>
<event>
 4    1  0.3586324E+003  0.3470220E+02  0.7546771E-02  0.1382669E+00
          2   -1    0    0  502    0  0.00000000000E+00  0.00000000000E+00  0.59196701079E+03  0.59196701079E+03  0.00000000000E+00 0.  1.
          1   -1    0    0  501    0 -0.00000000000E+00 -0.00000000000E+00 -0.14245992604E+03  0.14245992604E+03  0.00000000000E+00 0.  1.
          2    1    1    2  501    0 -0.62557630673E+01  0.34133678383E+02  0.58933570606E+03  0.59035651687E+03  0.00000000000E+00 0.  1.
          1    1    1    2  502    0  0.62557630673E+01 -0.34133678383E+02 -0.13982862131E+03  0.14407041996E+03  0.00000000000E+00 0.  1.
</event>
<event>
 4    1  0.3586324E+003  0.2739578E+02  0.7546771E-02  0.1443672E+00
          2   -1    0    0  502    0  0.00000000000E+00  0.00000000000E+00  0.56802246809E+02  0.56802246809E+02  0.00000000000E+00 0. -1.
          1   -1    0    0  501    0 -0.00000000000E+00 -0.00000000000E+00 -0.14522261975E+02  0.14522261975E+02  0.00000000000E+00 0. -1.
          2    1    1    2  501    0 -0.35459255853E+01  0.27165316192E+02  0.10432070020E+02  0.29314775745E+02  0.00000000000E+00 0. -1.
          1    1    1    2  502    0  0.35459255853E+01 -0.27165316192E+02  0.31847914814E+02  0.42009733040E+02  0.00000000000E+00 0. -1.
</event>
<event>
 4    1  0.3586324E+003  0.2215626E+02  0.7546771E-02  0.1503374E+00
          2   -1    0    0  502    0  0.00000000000E+00  0.00000000000E+00  0.34554297133E+03  0.34554297133E+03  0.00000000000E+00 0.  1.
          1   -1    0    0  501    0 -0.00000000000E+00 -0.00000000000E+00 -0.25388890591E+02  0.25388890591E+02  0.00000000000E+00 0.  1.
          2    1    1    2  501    0  0.18894605505E+02  0.11571249251E+02  0.34027930590E+03  0.34099986209E+03  0.00000000000E+00 0.  1.
          1    1    1    2  502    0 -0.18894605505E+02 -0.11571249251E+02 -0.20125225154E+02  0.29931999832E+02  0.00000000000E+00 0.  1.
</event>
<event>
 4    1  0.3586324E+003  0.2363485E+02  0.7546771E-02  0.1484677E+00
          2   -1    0    0  502    0  0.00000000000E+00  0.00000000000E+00  0.10523011309E+03  0.10523011309E+03  0.00000000000E+00 0.  1.
          1   -1    0    0  501    0 -0.00000000000E+00 -0.00000000000E+00 -0.45878444212E+03  0.45878444212E+03  0.00000000000E+00 0.  1.
          2    1    1    2  501    0 -0.13251078041E+02 -0.19570764884E+02  0.10359386604E+03  0.10625579979E+03  0.00000000000E+00 0.  1.
          1    1    1    2  502    0  0.13251078041E+02  0.19570764884E+02 -0.45714819507E+03  0.45775875542E+03  0.00000000000E+00 0.  1.
</event>
<event>
 4    1  0.3586324E+003  0.3165555E+02  0.7546771E-02  0.1405735E+00
          2   -1    0    0  502    0  0.00000000000E+00  0.00000000000E+00  0.27827530030E+03  0.27827530030E+03  0.00000000000E+00 0.  1.
          1   -1    0    0  501    0 -0.00000000000E+00 -0.00000000000E+00 -0.16002196986E+02  0.16002196986E+02  0.00000000000E+00 0.  1.
          2    1    1    2  501    0  0.28884204617E+02  0.12952853258E+02  0.26066607961E+03  0.26258118505E+03  0.00000000000E+00 0.  1.
          1    1    1    2  502    0 -0.28884204617E+02 -0.12952853258E+02  0.16070237020E+01  0.31696312231E+02  0.00000000000E+00 0.  1.
</event>
<event>
 4    1  0.3586324E+003  0.2208133E+02  0.7546771E-02  0.1504368E+00
          2   -1    0    0  502    0  0.00000000000E+00  0.00000000000E+00  0.39405832417E+03  0.39405832417E+03  0.00000000000E+00 0.  1.
          1   -1    0    0  501    0 -0.00000000000E+00 -0.00000000000E+00 -0.57529963374E+01  0.57529963374E+01  0.00000000000E+00 0. -1.
          2    1    1    2  501    0  0.63640386480E+01 -0.21144361769E+02  0.37126074370E+03  0.37191682516E+03  0.00000000000E+00 0.  1.
          1    1    1    2  502    0 -0.63640386480E+01  0.21144361769E+02  0.17044584131E+02  0.27894495348E+02  0.00000000000E+00 0. -1.
</event>
<event>
 4    1  0.3586324E+003  0.2290384E+02  0.7546771E-02  0.1493709E+00
          2   -1    0    0  502    0  0.00000000000E+00  0.00000000000E+00  0.72425189551E+01  0.72425189551E+01  0.00000000000E+00 0. -1.
          1   -1    0    0  501    0 -0.00000000000E+00 -0.00000000000E+00 -0.15129084336E+04  0.15129084336E+04  0.00000000000E+00 0.  1.
          2    1    1    2  501    0 -0.13590850395E+02 -0.18435695871E+02 -0.11175169902E+02  0.25484711477E+02  0.00000000000E+00 0. -1.
          1    1    1    2  502    0  0.13590850395E+02  0.18435695871E+02 -0.14944907448E+04  0.14946662411E+04  0.00000000000E+00 0.  1.
</event>
<event>
 4    1  0.3586324E+003  0.2219438E+02  0.7546771E-02  0.1502870E+00
          2   -1    0    0  502    0  0.00000000000E+00  0.00000000000E+00  0.17146220362E+04  0.17146220362E+04  0.00000000000E+00 0. -1.
          1   -1    0    0  501    0 -0.00000000000E+00 -0.00000000000E+00 -0.29068135210E+00  0.29068135210E+00  0.00000000000E+00 0. -1.
          2    1    1    2  501    0  0.16920124403E+02 -0.14363118787E+02  0.76451721409E+03  0.76483930366E+03  0.00000000000E+00 0. -1.
          1    1    1    2  502    0 -0.16920124403E+02  0.14363118787E+02  0.94981414077E+03  0.95007341390E+03  0.00000000000E+00 0. -1.
</event>
<event>
 4    1  0.3586324E+003  0.3038664E+02  0.7546771E-02  0.1416266E+00
          2   -1    0    0  502    0  0.00000000000E+00  0.00000000000E+00  0.95091653777E+03  0.95091653777E+03  0.00000000000E+00 0. -1.
          1   -1    0    0  501    0 -0.00000000000E+00 -0.00000000000E+00 -0.16225373603E+02  0.16225373603E+02  0.00000000000E+00 0.  1.
          2    1    1    2  501    0 -0.17211849791E+02 -0.25041962086E+02  0.93622366199E+03  0.93671665562E+03  0.00000000000E+00 0. -1.
          1    1    1    2  502    0  0.17211849791E+02  0.25041962086E+02 -0.15324978224E+01  0.30425255758E+02  0.00000000000E+00 0.  1.
</event>
<event>
 4    1  0.3586324E+003  0.2336596E+02  0.7546771E-02  0.1487953E+00
          2   -1    0    0  502    0  0.00000000000E+00  0.00000000000E+00  0.71182821959E+02  0.71182821959E+02  0.00000000000E+00 0.  1.
          1   -1    0    0  501    0 -0.00000000000E+00 -0.00000000000E+00 -0.16189056666E+02  0.16189056666E+02  0.00000000000E+00 0.  1.
          2    1    1    2  501    0 -0.61531023987E+01  0.22541233062E+02  0.59187319870E+02  0.63632591418E+02  0.00000000000E+00 0.  1.
          1    1    1    2  502    0  0.61531023987E+01 -0.22541233062E+02 -0.41935545774E+01  0.23739287207E+02  0.00000000000E+00 0.  1.
</event>
<event>
 4    1  0.3586324E+003  0.2611727E+02  0.7546771E-02  0.1456683E+00
          2   -1    0    0  502    0  0.00000000000E+00  0.00000000000E+00  0.39539357389E+03  0.39539357389E+03  0.00000000000E+00 0.  1.
          1   -1    0    0  501    0 -0.00000000000E+00 -0.00000000000E+00 -0.18214416459E+03  0.18214416459E+03  0.00000000000E+00 0.  1.
          2    1    1    2  501    0 -0.25793523258E+02  0.40994914398E+01  0.39402280892E+03  0.39488743412E+03  0.00000000000E+00 0.  1.
          1    1    1    2  502    0  0.25793523258E+02 -0.40994914398E+01 -0.18077339963E+03  0.18265030437E+03  0.00000000000E+00 0.  1.
</event>
<event>
 4    1  0.3586324E+003  0.2693223E+02  0.7546771E-02  0.1448290E+00
          2   -1    0    0  502    0  0.00000000000E+00  0.00000000000E+00  0.15184399448E+04  0.15184399448E+04  0.00000000000E+00 0. -1.
          1   -1    0    0  501    0 -0.00000000000E+00 -0.00000000000E+00 -0.97628115110E+01  0.97628115110E+01  0.00000000000E+00 0.  1.
          2    1    1    2  501    0 -0.26923331738E+02 -0.69236424412E+00  0.14995118952E+04  0.14997537361E+04  0.00000000000E+00 0. -1.
          1    1    1    2  502    0  0.26923331738E+02  0.69236424412E+00  0.91652380769E+01  0.28449020179E+02  0.00000000000E+00 0.  1.
</event>
<event>
 4    1  0.3586324E+003  0.4368684E+02  0.7546771E-02  0.1328138E+00
          2   -1    0    0  502    0  0.00000000000E+00  0.00000000000E+00  0.56659073449E+03  0.56659073449E+03  0.00000000000E+00 0. -1.
          1   -1    0    0  501    0 -0.00000000000E+00 -0.00000000000E+00 -0.55268996157E+03  0.55268996157E+03  0.00000000000E+00 0. -1.
          2    1    1    2  501    0 -0.43130655206E+02  0.69488764654E+01  0.56488271607E+03  0.56656952196E+03  0.00000000000E+00 0. -1.
          1    1    1    2  502    0  0.43130655206E+02 -0.69488764654E+01 -0.55098194315E+03  0.55271117410E+03  0.00000000000E+00 0. -1.
</event>
<event>
 4    1  0.3586324E+003  0.2194624E+02  0.7546771E-02  0.1506172E+00
          2   -1    0    0  502    0  0.00000000000E+00  0.00000000000E+00  0.12430608984E+04  0.12430608984E+04  0.00000000000E+00 0.  1.
          1   -1    0    0  501    0 -0.00000000000E+00 -0.00000000000E+00 -0.44368437183E+00  0.44368437183E+00  0.00000000000E+00 0.  1.
          2    1    1    2  501    0 -0.13130348240E+02  0.17584970823E+02  0.84263843044E+03  0.84292417316E+03  0.00000000000E+00 0.  1.
          1    1    1    2  502    0  0.13130348240E+02 -0.17584970823E+02  0.39997878354E+03  0.40058040956E+03  0.00000000000E+00 0.  1.
</event>
<event>
 4    1  0.3586324E+003  0.2187413E+02  0.7546771E-02  0.1507141E+00
          2   -1    0    0  502    0  0.00000000000E+00  0.00000000000E+00  0.20010114571E+03  0.20010114571E+03  0.00000000000E+00 0. -1.
          1   -1    0    0  501    0 -0.00000000000E+00 -0.00000000000E+00 -0.20452734574E+03  0.20452734574E+03  0.00000000000E+00 0.  1.
          2    1    1    2  501    0 -0.18772747167E+02  0.11227704131E+02  0.19891501683E+03  0.20011412068E+03  0.00000000000E+00 0. -1.
          1    1    1    2  502    0  0.18772747167E+02 -0.11227704131E+02 -0.20334121686E+03  0.20451437077E+03  0.00000000000E+00 0.  1.
</event>
<event>
 4    1  0.3586324E+003  0.3639474E+02  0.7546771E-02  0.1371014E+00
          2   -1    0    0  502    0  0.00000000000E+00  0.00000000000E+00  0.69475831322E+03  0.69475831322E+03  0.00000000000E+00 0.  1.
          1   -1    0    0  501    0 -0.00000000000E+00 -0.00000000000E+00 -0.12453342121E+03  0.12453342121E+03  0.00000000000E+00 0. -1.
          2    1    1    2  501    0 -0.29454140910E+02 -0.21378279508E+02  0.69161050676E+03  0.69256744820E+03  0.00000000000E+00 0.  1.
          1    1    1    2  502    0  0.29454140910E+02  0.21378279508E+02 -0.12138561475E+03  0.12672428622E+03  0.00000000000E+00 0. -1.
</event>
<event>
 4    1  0.3586324E+003  0.2535626E+02  0.7546771E-02  0.1464857E+00
          2   -1    0    0  502    0  0.00000000000E+00  0.00000000000E+00  0.14895324645E+04  0.14895324645E+04  0.00000000000E+00 0.  1.
          1   -1    0    0  501    0 -0.00000000000E+00 -0.00000000000E+00 -0.44264896870E+00  0.44264896870E+00  0.00000000000E+00 0.  1.
          2    1    1    2  501    0  0.25077087547E+02  0.37521979144E+01  0.62704825376E+03  0.62756071567E+03  0.00000000000E+00 0.  1.
          1    1    1    2  502    0 -0.25077087547E+02 -0.37521979144E+01  0.86204156176E+03  0.86241439778E+03  0.00000000000E+00 0.  1.
</event>
<event>
 4    1  0.3586324E+003  0.2119255E+02  0.7546771E-02  0.1516533E+00
          2   -1    0    0  502    0  0.00000000000E+00  0.00000000000E+00  0.11421552477E+04  0.11421552477E+04  0.00000000000E+00 0.  1.
          1   -1    0    0  501    0 -0.00000000000E+00 -0.00000000000E+00 -0.40773671761E+00  0.40773671761E+00  0.00000000000E+00 0.  1.
          2    1    1    2  501    0  0.21183900703E+02 -0.60555070271E+00  0.67864804141E+03  0.67897885715E+03  0.00000000000E+00 0.  1.
          1    1    1    2  502    0 -0.21183900703E+02  0.60555070271E+00  0.46309946957E+03  0.46358412727E+03  0.00000000000E+00 0.  1.
</event>
<event>
 4    1  0.3973557E+003  0.2554311E+02  0.7546771E-02  0.1462818E+00
          2   -1    0    0  502    0  0.00000000000E+00  0.00000000000E+00  0.16632282468E+04  0.16632282468E+04  0.00000000000E+00 0. -1.
          1   -1    0    0  501    0 -0.00000000000E+00 -0.00000000000E+00 -0.36206335790E+03  0.36206335790E+03  0.00000000000E+00 0.  1.
          2    1    1    2  501    0 -0.18995211423E+02 -0.17077247874E+02  0.16626795197E+04  0.16628757126E+04  0.00000000000E+00 0. -1.
          1    1    1    2  502    0  0.18995211423E+02  0.17077247874E+02 -0.36151463086E+03  0.36241589201E+03  0.00000000000E+00 0.  1.
</event>
<event>
 4    1  0.3586324E+003  0.2791236E+02  0.7546771E-02  0.1438652E+00
          2   -1    0    0  502    0  0.00000000000E+00  0.00000000000E+00  0.68674311095E+03  0.68674311095E+03  0.00000000000E+00 0.  1.
          1   -1    0    0  501    0 -0.00000000000E+00 -0.00000000000E+00 -0.24696270950E+01  0.24696270950E+01  0.00000000000E+00 0.  1.
          2    1    1    2  501    0 -0.20021418615E+02 -0.19448468129E+02  0.59551612177E+03  0.59616990146E+03  0.00000000000E+00 0.  1.
          1    1    1    2  502    0  0.20021418615E+02  0.19448468129E+02  0.88757362078E+02  0.93042836581E+02  0.00000000000E+00 0.  1.
</event>
<event>
 4    1  0.3586324E+003  0.5527372E+02  0.7546771E-02  0.1276795E+00
          2   -1    0    0  502    0  0.00000000000E+00  0.00000000000E+00  0.19769416522E+04  0.19769416522E+04  0.00000000000E+00 0.  1.
          1   -1    0    0  501    0 -0.00000000000E+00 -0.00000000000E+00 -0.50024870220E+02  0.50024870220E+02  0.00000000000E+00 0.  1.
          2    1    1    2  501    0 -0.23179469960E+02 -0.50178644515E+02  0.19611641647E+04  0.19619429312E+04  0.00000000000E+00 0.  1.
          1    1    1    2  502    0  0.23179469960E+02  0.50178644515E+02 -0.34247382746E+02  0.65023591242E+02  0.00000000000E+00 0.  1.
</event>
<event>
 4    1  0.3586324E+003  0.2372014E+02  0.7546771E-02  0.1483648E+00
          2   -1    0    0  502    0  0.00000000000E+00  0.00000000000E+00  0.52317510944E+03  0.52317510944E+03  0.00000000000E+00 0. -1.
          1   -1    0    0  501    0 -0.00000000000E+00 -0.00000000000E+00 -0.55812301417E+01  0.55812301417E+01  0.00000000000E+00 0.  1.
          2    1    1    2  501    0  0.13954565032E+02 -0.19181109905E+02  0.49634198445E+03  0.49690845273E+03  0.00000000000E+00 0. -1.
          1    1    1    2  502    0 -0.13954565032E+02  0.19181109905E+02  0.21251894843E+02  0.31847886851E+02  0.00000000000E+00 0.  1.
</event>
<event>
 4    1  0.3586324E+003  0.5985085E+02  0.7546771E-02  0.1260340E+00
          2   -1    0    0  502    0  0.00000000000E+00  0.00000000000E+00  0.18769357877E+03  0.18769357877E+03  0.00000000000E+00 0.  1.
          1   -1    0    0  501    0 -0.00000000000E+00 -0.00000000000E+00 -0.33015191927E+02  0.33015191927E+02  0.00000000000E+00 0.  1.
          2    1    1    2  501    0  0.32964581425E+02 -0.49954587044E+02  0.14902148168E+03  0.16059117784E+03  0.00000000000E+00 0.  1.
          1    1    1    2  502    0 -0.32964581425E+02  0.49954587044E+02  0.56569051583E+01  0.60117592860E+02  0.00000000000E+00 0.  1.
</event>
<event>
 4    1  0.3586324E+003  0.2114788E+02  0.7546771E-02  0.1517164E+00
          2   -1    0    0  502    0  0.00000000000E+00  0.00000000000E+00  0.21507658538E+02  0.21507658538E+02  0.00000000000E+00 0. -1.
          1   -1    0    0  501    0 -0.00000000000E+00 -0.00000000000E+00 -0.19224138096E+03  0.19224138096E+03  0.00000000000E+00 0. -1.
          2    1    1    2  501    0  0.17516439250E+02 -0.11849347815E+02  0.15562150702E+02  0.26256679571E+02  0.00000000000E+00 0. -1.
          1    1    1    2  502    0 -0.17516439250E+02  0.11849347815E+02 -0.18629587312E+03  0.18749235993E+03  0.00000000000E+00 0. -1.
</event>
<event>
 4    1  0.3586324E+003  0.2588212E+02  0.7546771E-02  0.1459172E+00
          2   -1    0    0  502    0  0.00000000000E+00  0.00000000000E+00  0.16600798409E+04  0.16600798409E+04  0.00000000000E+00 0. -1.
          1   -1    0    0  501    0 -0.00000000000E+00 -0.00000000000E+00 -0.40643224907E+01  0.40643224907E+01  0.00000000000E+00 0. -1.
          2    1    1    2  501    0 -0.25212402003E+02  0.58497055859E+01  0.16176942399E+04  0.16179012757E+04  0.00000000000E+00 0. -1.
          1    1    1    2  502    0  0.25212402003E+02 -0.58497055859E+01  0.38321278477E+02  0.46242887608E+02  0.00000000000E+00 0. -1.
</event>
<event>
 4    1  0.3586324E+003  0.2535257E+02  0.7546771E-02  0.1464898E+00
          2   -1    0    0  502    0  0.00000000000E+00  0.00000000000E+00  0.38552562424E+03  0.38552562424E+03  0.00000000000E+00 0.  1.
          1   -1    0    0  501    0 -0.00000000000E+00 -0.00000000000E+00 -0.14740689504E+03  0.14740689504E+03  0.00000000000E+00 0.  1.
          2    1    1    2  501    0  0.21024039695E+02  0.14168364701E+02  0.38401443658E+03  0.38485041289E+03  0.00000000000E+00 0.  1.
          1    1    1    2  502    0 -0.21024039695E+02 -0.14168364701E+02 -0.14589570737E+03  0.14808210639E+03  0.00000000000E+00 0.  1.
</event>
<event>
 4    1  0.3586324E+003  0.2581335E+02  0.7546771E-02  0.1459907E+00
          2   -1    0    0  502    0  0.00000000000E+00  0.00000000000E+00  0.84270637090E+01  0.84270637090E+01  0.00000000000E+00 0. -1.
          1   -1    0    0  501    0 -0.00000000000E+00 -0.00000000000E+00 -0.39642136178E+03  0.39642136178E+03  0.00000000000E+00 0. -1.
          2    1    1    2  501    0 -0.13295912460E+01 -0.25779084744E+02 -0.12882312372E+02  0.28849315333E+02  0.00000000000E+00 0. -1.
          1    1    1    2  502    0  0.13295912460E+01  0.25779084744E+02 -0.37511198570E+03  0.37599911016E+03  0.00000000000E+00 0. -1.
</event>
<event>
 4    1  0.3586324E+003  0.5378576E+02  0.7546771E-02  0.1282543E+00
          2   -1    0    0  502    0  0.00000000000E+00  0.00000000000E+00  0.10575706175E+01  0.10575706175E+01  0.00000000000E+00 0.  1.
          1   -1    0    0  501    0 -0.00000000000E+00 -0.00000000000E+00 -0.28297016262E+04  0.28297016262E+04  0.00000000000E+00 0.  1.
          2    1    1    2  501    0 -0.51074587888E+02  0.16861032541E+02 -0.11559779916E+04  0.11572285967E+04  0.00000000000E+00 0.  1.
          1    1    1    2  502    0  0.51074587888E+02 -0.16861032541E+02 -0.16726660640E+04  0.16735306001E+04  0.00000000000E+00 0.  1.
</event>
<event>
 4    1  0.3586324E+003  0.2438875E+02  0.7546771E-02  0.1475759E+00
          2   -1    0    0  502    0  0.00000000000E+00  0.00000000000E+00  0.41929072763E+02  0.41929072763E+02  0.00000000000E+00 0. -1.
          1   -1    0    0  501    0 -0.00000000000E+00 -0.00000000000E+00 -0.48595606901E+03  0.48595606901E+03  0.00000000000E+00 0. -1.
          2    1    1    2  501    0 -0.14558099774E+02 -0.19567135728E+02  0.38048007074E+02  0.45193604768E+02  0.00000000000E+00 0. -1.
          1    1    1    2  502    0  0.14558099774E+02  0.19567135728E+02 -0.48207500332E+03  0.48269153700E+03  0.00000000000E+00 0. -1.
</event>
<event>
 4    1  0.3586324E+003  0.3651241E+02  0.7546771E-02  0.1370231E+00
          2   -1    0    0  502    0  0.00000000000E+00  0.00000000000E+00  0.95831600320E+03  0.95831600320E+03  0.00000000000E+00 0.  1.
          1   -1    0    0  501    0 -0.00000000000E+00 -0.00000000000E+00 -0.30950180802E+01  0.30950180802E+01  0.00000000000E+00 0.  1.
          2    1    1    2  501    0 -0.32860469556E+02 -0.15916830560E+02  0.83428017985E+03  0.83507878337E+03  0.00000000000E+00 0.  1.
          1    1    1    2  502    0  0.32860469556E+02  0.15916830560E+02  0.12094080527E+03  0.12633223790E+03  0.00000000000E+00 0.  1.
</event>
<event>
 4    1  0.3586324E+003  0.2460543E+02  0.7546771E-02  0.1473266E+00
          2   -1    0    0  502    0  0.00000000000E+00  0.00000000000E+00  0.17864202574E+04  0.17864202574E+04  0.00000000000E+00 0.  1.
          1   -1    0    0  501    0 -0.00000000000E+00 -0.00000000000E+00 -0.45205917269E+00  0.45205917269E+00  0.00000000000E+00 0. -1.
          2    1    1    2  501    0 -0.93416329977E+01 -0.22763155289E+02  0.13399769082E+04  0.13402027988E+04  0.00000000000E+00 0.  1.
          1    1    1    2  502    0  0.93416329977E+01  0.22763155289E+02  0.44599128998E+03  0.44666951775E+03  0.00000000000E+00 0. -1.
</event>
<event>
 4    1  0.3586324E+003  0.2175284E+02  0.7546771E-02  0.1508782E+00
          2   -1    0    0  502    0  0.00000000000E+00  0.00000000000E+00  0.79090878037E+00  0.79090878037E+00  0.00000000000E+00 0.  1.
          1   -1    0    0  501    0 -0.00000000000E+00 -0.00000000000E+00 -0.65496664108E+03  0.65496664108E+03  0.00000000000E+00 0. -1.
          2    1    1    2  501    0  0.21230945780E+02 -0.47363390803E+01 -0.23062971485E+03  0.23165329987E+03  0.00000000000E+00 0.  1.
          1    1    1    2  502    0 -0.21230945780E+02  0.47363390803E+01 -0.42354601744E+03  0.42410424999E+03  0.00000000000E+00 0. -1.
</event>
<event>
 4    1  0.3586324E+003  0.2292971E+02  0.7546771E-02  0.1493383E+00
          2   -1    0    0  502    0  0.00000000000E+00  0.00000000000E+00  0.10791533608E+04  0.10791533608E+04  0.00000000000E+00 0. -1.
          1   -1    0    0  501    0 -0.00000000000E+00 -0.00000000000E+00 -0.57739377275E+00  0.57739377275E+00  0.00000000000E+00 0. -1.
          2    1    1    2  501    0 -0.54486226881E+01 -0.22272938147E+02  0.32592433739E+03  0.32672992664E+03  0.00000000000E+00 0. -1.
          1    1    1    2  502    0  0.54486226881E+01  0.22272938147E+02  0.75265162963E+03  0.75300082792E+03  0.00000000000E+00 0. -1.
</event>
<event>
 4    1  0.3586324E+003  0.4125783E+02  0.7546771E-02  0.1341269E+00
          2   -1    0    0  502    0  0.00000000000E+00  0.00000000000E+00  0.45978968442E+02  0.45978968442E+02  0.00000000000E+00 0.  1.
          1   -1    0    0  501    0 -0.00000000000E+00 -0.00000000000E+00 -0.51969277932E+02  0.51969277932E+02  0.00000000000E+00 0.  1.
          2    1    1    2  501    0 -0.12374946134E+02 -0.39358216625E+02  0.23270137545E+02  0.47367792951E+02  0.00000000000E+00 0.  1.
          1    1    1    2  502    0  0.12374946134E+02  0.39358216625E+02 -0.29260447036E+02  0.50580453423E+02  0.00000000000E+00 0.  1.
</event>
<event>
 4    1  0.3586324E+003  0.4298373E+02  0.7546771E-02  0.1331836E+00
          2   -1    0    0  502    0  0.00000000000E+00  0.00000000000E+00  0.68300310832E+03  0.68300310832E+03  0.00000000000E+00 0.  1.
          1   -1    0    0  501    0 -0.00000000000E+00 -0.00000000000E+00 -0.83807239215E+01  0.83807239215E+01  0.00000000000E+00 0.  1.
          2    1    1    2  501    0  0.42955055736E+02  0.15698676544E+01  0.62179314780E+03  0.62327708120E+03  0.00000000000E+00 0.  1.
          1    1    1    2  502    0 -0.42955055736E+02 -0.15698676544E+01  0.52829236593E+02  0.68106751036E+02  0.00000000000E+00 0.  1.
</event>
<event>
 4    1  0.3586324E+003  0.2244851E+02  0.7546771E-02  0.1499542E+00
          2   -1    0    0  502    0  0.00000000000E+00  0.00000000000E+00  0.17045391917E+03  0.17045391917E+03  0.00000000000E+00 0. -1.
          1   -1    0    0  501    0 -0.00000000000E+00 -0.00000000000E+00 -0.60127329339E+01  0.60127329339E+01  0.00000000000E+00 0.  1.
          2    1    1    2  501    0  0.11120215821E+02  0.19500677803E+02  0.14512696842E+03  0.14685289441E+03  0.00000000000E+00 0. -1.
          1    1    1    2  502    0 -0.11120215821E+02 -0.19500677803E+02  0.19314217813E+02  0.29613757688E+02  0.00000000000E+00 0.  1.
</event>
<event>
 4    1  0.3586324E+003  0.3147525E+02  0.7546771E-02  0.1407196E+00
          2   -1    0    0  502    0  0.00000000000E+00  0.00000000000E+00  0.79888053519E+03  0.79888053519E+03  0.00000000000E+00 0.  1.
          1   -1    0    0  501    0 -0.00000000000E+00 -0.00000000000E+00 -0.14722300353E+02  0.14722300353E+02  0.00000000000E+00 0.  1.
          2    1    1    2  501    0  0.23898448261E+02  0.20483053835E+02  0.78137070420E+03  0.78200439175E+03  0.00000000000E+00 0.  1.
          1    1    1    2  502    0 -0.23898448261E+02 -0.20483053835E+02  0.27875306390E+01  0.31598443803E+02  0.00000000000E+00 0.  1.
</event>
<event>
 4    1  0.3586324E+003  0.4459175E+02  0.7546771E-02  0.1323494E+00
          2   -1    0    0  502    0  0.00000000000E+00  0.00000000000E+00  0.18543760014E+04  0.18543760014E+04  0.00000000000E+00 0. -1.
          1   -1    0    0  501    0 -0.00000000000E+00 -0.00000000000E+00 -0.14609901188E+01  0.14609901188E+01  0.00000000000E+00 0. -1.
          2    1    1    2  501    0 -0.43445701108E+02  0.10044650139E+02  0.14050820935E+04  0.14057894982E+04  0.00000000000E+00 0. -1.
          1    1    1    2  502    0  0.43445701108E+02 -0.10044650139E+02  0.44783291781E+03  0.45004749329E+03  0.00000000000E+00 0. -1.
</event>
<event>
 4    1  0.3586324E+003  0.3183620E+02  0.7546771E-02  0.1404284E+00
          2   -1    0    0  502    0  0.00000000000E+00  0.00000000000E+00  0.51076823113E+01  0.51076823113E+01  0.00000000000E+00 0. -1.
          1   -1    0    0  501    0 -0.00000000000E+00 -0.00000000000E+00 -0.34449789742E+03  0.34449789742E+03  0.00000000000E+00 0. -1.
          2    1    1    2  501    0 -0.68829607151E+01 -0.31083253809E+02 -0.55873484916E+02  0.64306999092E+02  0.00000000000E+00 0. -1.
          1    1    1    2  502    0  0.68829607151E+01  0.31083253809E+02 -0.28351673020E+03  0.28529858064E+03  0.00000000000E+00 0. -1.
</event>
<event>
 4    1  0.3586324E+003  0.2173021E+02  0.7546771E-02  0.1509090E+00
          2   -1    0    0  502    0  0.00000000000E+00  0.00000000000E+00  0.95268198437E+01  0.95268198437E+01  0.00000000000E+00 0.  1.
          1   -1    0    0  501    0 -0.00000000000E+00 -0.00000000000E+00 -0.10793090063E+03  0.10793090063E+03  0.00000000000E+00 0.  1.
          2    1    1    2  501    0  0.14237091057E+02 -0.16416674150E+02 -0.60147192943E+01  0.22547257042E+02  0.00000000000E+00 0.  1.
          1    1    1    2  502    0 -0.14237091057E+02  0.16416674150E+02 -0.92389361493E+02  0.94910463433E+02  0.00000000000E+00 0.  1.
</event>
<event>
 4    1  0.3586324E+003  0.2380484E+02  0.7546771E-02  0.1482632E+00
          2   -1    0    0  502    0  0.00000000000E+00  0.00000000000E+00  0.20203805341E+02  0.20203805341E+02  0.00000000000E+00 0. -1.
          1   -1    0    0  501    0 -0.00000000000E+00 -0.00000000000E+00 -0.26346595819E+03  0.26346595819E+03  0.00000000000E+00 0. -1.
          2    1    1    2  501    0 -0.20896415457E+02 -0.11402212864E+02  0.12441776509E+02  0.26860164554E+02  0.00000000000E+00 0. -1.
          1    1    1    2  502    0  0.20896415457E+02  0.11402212864E+02 -0.25570392936E+03  0.25680959897E+03  0.00000000000E+00 0. -1.
</event>
<event>
 4    1  0.3586324E+003  0.3112843E+02  0.7546771E-02  0.1410037E+00
          2   -1    0    0  502    0  0.00000000000E+00  0.00000000000E+00  0.19611317813E+03  0.19611317813E+03  0.00000000000E+00 0. -1.
          1   -1    0    0  501    0 -0.00000000000E+00 -0.00000000000E+00 -0.57559737220E+01  0.57559737220E+01  0.00000000000E+00 0.  1.
          2    1    1    2  501    0 -0.22031330054E+02 -0.21990892766E+02  0.13316031709E+03  0.13675031597E+03  0.00000000000E+00 0. -1.
          1    1    1    2  502    0  0.22031330054E+02  0.21990892766E+02  0.57196887315E+02  0.65118835886E+02  0.00000000000E+00 0.  1.
</event>
<event>
 4    1  0.3586324E+003  0.2020705E+02  0.7546771E-02  0.1530894E+00
          2   -1    0    0  502    0  0.00000000000E+00  0.00000000000E+00  0.74332499113E+03  0.74332499113E+03  0.00000000000E+00 0.  1.
          1   -1    0    0  501    0 -0.00000000000E+00 -0.00000000000E+00 -0.35618257000E+02  0.35618257000E+02  0.00000000000E+00 0. -1.
          2    1    1    2  501    0  0.44312738099E+01 -0.19715185452E+02  0.74031001173E+03  0.74058573993E+03  0.00000000000E+00 0.  1.
          1    1    1    2  502    0 -0.44312738099E+01  0.19715185452E+02 -0.32603277599E+02  0.38357508198E+02  0.00000000000E+00 0. -1.
</event>
<event>
 4    1  0.3586324E+003  0.3458577E+02  0.7546771E-02  0.1383499E+00
          2   -1    0    0  502    0  0.00000000000E+00  0.00000000000E+00  0.43380877194E+02  0.43380877194E+02  0.00000000000E+00 0.  1.
          1   -1    0    0  501    0 -0.00000000000E+00 -0.00000000000E+00 -0.27803684149E+02  0.27803684149E+02  0.00000000000E+00 0.  1.
          2    1    1    2  501    0 -0.35659037687E+01 -0.34401449369E+02  0.11025013367E+02  0.36300500108E+02  0.00000000000E+00 0.  1.
          1    1    1    2  502    0  0.35659037687E+01  0.34401449369E+02  0.45521796783E+01  0.34884061234E+02  0.00000000000E+00 0.  1.
</event>
<event>
 4    1  0.3586324E+003  0.2664307E+02  0.7546771E-02  0.1451227E+00
          2   -1    0    0  502    0  0.00000000000E+00  0.00000000000E+00  0.26392524952E+02  0.26392524952E+02  0.00000000000E+00 0.  1.
          1   -1    0    0  501    0 -0.00000000000E+00 -0.00000000000E+00 -0.41798523087E+02  0.41798523087E+02  0.00000000000E+00 0. -1.
          2    1    1    2  501    0  0.20515143761E+02 -0.16999467964E+02  0.12655557247E+02  0.29496036408E+02  0.00000000000E+00 0.  1.
          1    1    1    2  502    0 -0.20515143761E+02  0.16999467964E+02 -0.28061555382E+02  0.38695011630E+02  0.00000000000E+00 0. -1.
</event>
<event>
 4    1  0.3586324E+003  0.2268429E+02  0.7546771E-02  0.1496501E+00
          2   -1    0    0  502    0  0.00000000000E+00  0.00000000000E+00  0.45526248696E+03  0.45526248696E+03  0.00000000000E+00 0. -1.
          1   -1    0    0  501    0 -0.00000000000E+00 -0.00000000000E+00 -0.25651984008E+01  0.25651984008E+01  0.00000000000E+00 0.  1.
          2    1    1    2  501    0 -0.21429196348E+02 -0.74408755655E+01  0.39755669403E+03  0.39820334260E+03  0.00000000000E+00 0. -1.
          1    1    1    2  502    0  0.21429196348E+02  0.74408755655E+01  0.55140594529E+02  0.59624342766E+02  0.00000000000E+00 0.  1.
</event>
<event>
 4    1  0.3586324E+003  0.2276073E+02  0.7546771E-02  0.1495525E+00
          2   -1    0    0  502    0  0.00000000000E+00  0.00000000000E+00  0.11915066223E+04  0.11915066223E+04  0.00000000000E+00 0.  1.
          1   -1    0    0  501    0 -0.00000000000E+00 -0.00000000000E+00 -0.40073201808E+01  0.40073201808E+01  0.00000000000E+00 0. -1.
          2    1    1    2  501    0  0.17937573441E+02  0.14010509724E+02  0.11581480816E+04  0.11583717149E+04  0.00000000000E+00 0.  1.
          1    1    1    2  502    0 -0.17937573441E+02 -0.14010509724E+02  0.29351220430E+02  0.37142227510E+02  0.00000000000E+00 0. -1.
</event>
<event>
 4    1  0.3586324E+003  0.2316360E+02  0.7546771E-02  0.1490454E+00
          2   -1    0    0  502    0  0.00000000000E+00  0.00000000000E+00  0.24359804329E+01  0.24359804329E+01  0.00000000000E+00 0. -1.
          1   -1    0    0  501    0 -0.00000000000E+00 -0.00000000000E+00 -0.28712419553E+03  0.28712419553E+03  0.00000000000E+00 0.  1.
          2    1    1    2  501    0 -0.22439408251E+02  0.57467848705E+01 -0.72478080477E+02  0.76089583575E+02  0.00000000000E+00 0. -1.
          1    1    1    2  502    0  0.22439408251E+02 -0.57467848705E+01 -0.21221013462E+03  0.21347059239E+03  0.00000000000E+00 0.  1.
</event>
<event>
 4    1  0.3586324E+003  0.2504782E+02  0.7546771E-02  0.1468269E+00
          2   -1    0    0  502    0  0.00000000000E+00  0.00000000000E+00  0.28311655851E+03  0.28311655851E+03  0.00000000000E+00 0.  1.
          1   -1    0    0  501    0 -0.00000000000E+00 -0.00000000000E+00 -0.21430334034E+02  0.21430334034E+02  0.00000000000E+00 0. -1.
          2    1    1    2  501    0  0.60501879480E+01 -0.24306136454E+02  0.27502878409E+03  0.27616702396E+03  0.00000000000E+00 0.  1.
          1    1    1    2  502    0 -0.60501879480E+01  0.24306136454E+02 -0.13342559619E+02  0.28379868582E+02  0.00000000000E+00 0. -1.
</event>
<event>
 4    1  0.3586324E+003  0.2438750E+02  0.7546771E-02  0.1475773E+00
          2   -1    0    0  502    0  0.00000000000E+00  0.00000000000E+00  0.15078388499E+03  0.15078388499E+03  0.00000000000E+00 0.  1.
          1   -1    0    0  501    0 -0.00000000000E+00 -0.00000000000E+00 -0.11968145600E+03  0.11968145600E+03  0.00000000000E+00 0. -1.
          2    1    1    2  501    0  0.10710287140E+02 -0.21909810402E+02  0.14853675771E+03  0.15052547437E+03  0.00000000000E+00 0.  1.
          1    1    1    2  502    0 -0.10710287140E+02  0.21909810402E+02 -0.11743432872E+03  0.11993986662E+03  0.00000000000E+00 0. -1.
</event>
<event>
 4    1  0.3586324E+003  0.2204846E+02  0.7546771E-02  0.1504805E+00
          2   -1    0    0  502    0  0.00000000000E+00  0.00000000000E+00  0.36406987733E+03  0.36406987733E+03  0.00000000000E+00 0.  1.
          1   -1    0    0  501    0 -0.00000000000E+00 -0.00000000000E+00 -0.25494876435E+03  0.25494876435E+03  0.00000000000E+00 0.  1.
          2    1    1    2  501    0 -0.21214655752E+02  0.60060744917E+01  0.36325829546E+03  0.36392681101E+03  0.00000000000E+00 0.  1.
          1    1    1    2  502    0  0.21214655752E+02 -0.60060744917E+01 -0.25413718248E+03  0.25509183066E+03  0.00000000000E+00 0.  1.
</event>
<event>
 4    1  0.3586324E+003  0.3297355E+02  0.7546771E-02  0.1395398E+00
          2   -1    0    0  502    0  0.00000000000E+00  0.00000000000E+00  0.17419310495E+03  0.17419310495E+03  0.00000000000E+00 0. -1.
          1   -1    0    0  501    0 -0.00000000000E+00 -0.00000000000E+00 -0.10687371465E+02  0.10687371465E+02  0.00000000000E+00 0. -1.
          2    1    1    2  501    0  0.20528403062E+02  0.25803866631E+02  0.14137342460E+03  0.14516783407E+03  0.00000000000E+00 0. -1.
          1    1    1    2  502    0 -0.20528403062E+02 -0.25803866631E+02  0.22132308882E+02  0.39712642343E+02  0.00000000000E+00 0. -1.
</event>
<event>
 4    1  0.3586324E+003  0.2323243E+02  0.7546771E-02  0.1489600E+00
          2   -1    0    0  502    0  0.00000000000E+00  0.00000000000E+00  0.11690741244E+04  0.11690741244E+04  0.00000000000E+00 0. -1.
          1   -1    0    0  501    0 -0.00000000000E+00 -0.00000000000E+00 -0.64369059634E+00  0.64369059634E+00  0.00000000000E+00 0. -1.
          2    1    1    2  501    0 -0.22359273377E+02  0.63094270375E+01  0.89520983125E+03  0.89551124389E+03  0.00000000000E+00 0. -1.
          1    1    1    2  502    0  0.22359273377E+02 -0.63094270375E+01  0.27322060258E+03  0.27420657112E+03  0.00000000000E+00 0. -1.
</event>
<event>
 4    1  0.3586324E+003  0.2542598E+02  0.7546771E-02  0.1464094E+00
          2   -1    0    0  502    0  0.00000000000E+00  0.00000000000E+00  0.26684678139E+03  0.26684678139E+03  0.00000000000E+00 0.  1.
          1   -1    0    0  501    0 -0.00000000000E+00 -0.00000000000E+00 -0.35449107094E+02  0.35449107094E+02  0.00000000000E+00 0. -1.
          2    1    1    2  501    0  0.92748868975E+00 -0.25409061872E+02  0.26159050260E+03  0.26282327087E+03  0.00000000000E+00 0.  1.
          1    1    1    2  502    0 -0.92748868975E+00  0.25409061872E+02 -0.30192828303E+02  0.39472617616E+02  0.00000000000E+00 0. -1.
</event>
<event>
 4    1  0.3586324E+003  0.2394728E+02  0.7546771E-02  0.1480934E+00
          2   -1    0    0  502    0  0.00000000000E+00  0.00000000000E+00  0.10366161442E+02  0.10366161442E+02  0.00000000000E+00 0. -1.
          1   -1    0    0  501    0 -0.00000000000E+00 -0.00000000000E+00 -0.35575136905E+03  0.35575136905E+03  0.00000000000E+00 0.  1.
          2    1    1    2  501    0  0.21435357105E+01 -0.23851156926E+02 -0.44683018504E+01  0.24360586066E+02  0.00000000000E+00 0. -1.
          1    1    1    2  502    0 -0.21435357105E+01  0.23851156926E+02 -0.34091690576E+03  0.34175694443E+03  0.00000000000E+00 0.  1.
</event>
<event>
 4    1  0.3586324E+003  0.3007128E+02  0.7546771E-02  0.1418978E+00
          2   -1    0    0  502    0  0.00000000000E+00  0.00000000000E+00  0.29271842588E+03  0.29271842588E+03  0.00000000000E+00 0. -1.
          1   -1    0    0  501    0 -0.00000000000E+00 -0.00000000000E+00 -0.99464980107E+03  0.99464980107E+03  0.00000000000E+00 0. -1.
          2    1    1    2  501    0 -0.29762357449E+02  0.42992965683E+01  0.29171804825E+03  0.29326387699E+03  0.00000000000E+00 0. -1.
          1    1    1    2  502    0  0.29762357449E+02 -0.42992965683E+01 -0.99364942345E+03  0.99410434995E+03  0.00000000000E+00 0. -1.
</event>
<event>
 4    1  0.3586324E+003  0.4120861E+02  0.7546771E-02  0.1341545E+00
          2   -1    0    0  502    0  0.00000000000E+00  0.00000000000E+00  0.24845812158E+03  0.24845812158E+03  0.00000000000E+00 0. -1.
          1   -1    0    0  501    0 -0.00000000000E+00 -0.00000000000E+00 -0.32702322487E+03  0.32702322487E+03  0.00000000000E+00 0.  1.
          2    1    1    2  501    0  0.41193108359E+02 -0.11302408685E+01  0.24543536908E+03  0.24887078980E+03  0.00000000000E+00 0. -1.
          1    1    1    2  502    0 -0.41193108359E+02  0.11302408685E+01 -0.32400047237E+03  0.32661055665E+03  0.00000000000E+00 0.  1.
</event>
<event>
 4    1  0.3586324E+003  0.2172879E+02  0.7546771E-02  0.1509109E+00
          2   -1    0    0  502    0  0.00000000000E+00  0.00000000000E+00  0.55082125702E+01  0.55082125702E+01  0.00000000000E+00 0. -1.
          1   -1    0    0  501    0 -0.00000000000E+00 -0.00000000000E+00 -0.13668805933E+04  0.13668805933E+04  0.00000000000E+00 0.  1.
          2    1    1    2  501    0 -0.17566989346E+02 -0.12788322306E+02 -0.16355376138E+02  0.27196298107E+02  0.00000000000E+00 0. -1.
          1    1    1    2  502    0  0.17566989346E+02  0.12788322306E+02 -0.13450170046E+04  0.13451925078E+04  0.00000000000E+00 0.  1.
</event>
<event>
 4    1  0.3586324E+003  0.3984433E+02  0.7546771E-02  0.1349400E+00
          2   -1    0    0  502    0  0.00000000000E+00  0.00000000000E+00  0.24027579212E+04  0.24027579212E+04  0.00000000000E+00 0.  1.
          1   -1    0    0  501    0 -0.00000000000E+00 -0.00000000000E+00 -0.23671399770E+01  0.23671399770E+01  0.00000000000E+00 0.  1.
          2    1    1    2  501    0  0.15841285144E+02  0.36559869967E+02  0.22212232492E+04  0.22215805844E+04  0.00000000000E+00 0.  1.
          1    1    1    2  502    0 -0.15841285144E+02 -0.36559869967E+02  0.17916753205E+03  0.18354447676E+03  0.00000000000E+00 0.  1.
</event>
<event>
 4    1  0.3586324E+003  0.2031243E+02  0.7546771E-02  0.1529312E+00
          2   -1    0    0  502    0  0.00000000000E+00  0.00000000000E+00  0.12142157478E+04  0.12142157478E+04  0.00000000000E+00 0.  1.
          1   -1    0    0  501    0 -0.00000000000E+00 -0.00000000000E+00 -0.64305249775E+00  0.64305249775E+00  0.00000000000E+00 0.  1.
          2    1    1    2  501    0 -0.16903235099E+02  0.11263892398E+02  0.10239172440E+04  0.10241187026E+04  0.00000000000E+00 0.  1.
          1    1    1    2  502    0  0.16903235099E+02 -0.11263892398E+02  0.18965545137E+03  0.19074009768E+03  0.00000000000E+00 0.  1.
</event>
<event>
 4    1  0.3586324E+003  0.2221652E+02  0.7546771E-02  0.1502578E+00
          2   -1    0    0  502    0  0.00000000000E+00  0.00000000000E+00  0.49583363635E+03  0.49583363635E+03  0.00000000000E+00 0.  1.
          1   -1    0    0  501    0 -0.00000000000E+00 -0.00000000000E+00 -0.59003292118E+03  0.59003292118E+03  0.00000000000E+00 0.  1.
          2    1    1    2  501    0 -0.17820925102E+02  0.13266060241E+02  0.49537545272E+03  0.49587338393E+03  0.00000000000E+00 0.  1.
          1    1    1    2  502    0  0.17820925102E+02 -0.13266060241E+02 -0.58957473756E+03  0.58999317360E+03  0.00000000000E+00 0.  1.
</event>
<event>
 4    1  0.3586324E+003  0.2258952E+02  0.7546771E-02  0.1497718E+00
          2   -1    0    0  502    0  0.00000000000E+00  0.00000000000E+00  0.17566071850E+02  0.17566071850E+02  0.00000000000E+00 0. -1.
          1   -1    0    0  501    0 -0.00000000000E+00 -0.00000000000E+00 -0.63518470872E+02  0.63518470872E+02  0.00000000000E+00 0.  1.
          2    1    1    2  501    0  0.22244209841E+02  0.39346563813E+01  0.68894479861E+01  0.23616750112E+02  0.00000000000E+00 0. -1.
          1    1    1    2  502    0 -0.22244209841E+02 -0.39346563813E+01 -0.52841847009E+02  0.57467792611E+02  0.00000000000E+00 0.  1.
</event>
<event>
 4    1  0.3586324E+003  0.2080885E+02  0.7546771E-02  0.1522012E+00
          2   -1    0    0  502    0  0.00000000000E+00  0.00000000000E+00  0.11770589475E+03  0.11770589475E+03  0.00000000000E+00 0. -1.
          1   -1    0    0  501    0 -0.00000000000E+00 -0.00000000000E+00 -0.22987557566E+02  0.22987557566E+02  0.00000000000E+00 0.  1.
          2    1    1    2  501    0 -0.65358055776E+01 -0.19755794224E+02  0.11183180540E+03  0.11375131146E+03  0.00000000000E+00 0. -1.
          1    1    1    2  502    0  0.65358055776E+01  0.19755794224E+02 -0.17113468210E+02  0.26942140860E+02  0.00000000000E+00 0.  1.
</event>
<event>
 4    1  0.3586324E+003  0.2166230E+02  0.7546771E-02  0.1510015E+00
          2   -1    0    0  502    0  0.00000000000E+00  0.00000000000E+00  0.11233844045E+04  0.11233844045E+04  0.00000000000E+00 0. -1.
          1   -1    0    0  501    0 -0.00000000000E+00 -0.00000000000E+00 -0.67211134877E+00  0.67211134877E+00  0.00000000000E+00 0. -1.
          2    1    1    2  501    0  0.16799152583E+02 -0.13676399316E+02  0.90713010635E+03  0.90738871785E+03  0.00000000000E+00 0. -1.
          1    1    1    2  502    0 -0.16799152583E+02  0.13676399316E+02  0.21558218677E+03  0.21666779797E+03  0.00000000000E+00 0. -1.
</event>
<event>
 4    1  0.3586324E+003  0.3671826E+02  0.7546771E-02  0.1368870E+00
          2   -1    0    0  502    0  0.00000000000E+00  0.00000000000E+00  0.23380869468E+03  0.23380869468E+03  0.00000000000E+00 0. -1.
          1   -1    0    0  501    0 -0.00000000000E+00 -0.00000000000E+00 -0.57825043914E+01  0.57825043914E+01  0.00000000000E+00 0. -1.
          2    1    1    2  501    0  0.10624909951E+02 -0.35147426579E+02  0.12033858643E+03  0.12581576089E+03  0.00000000000E+00 0. -1.
          1    1    1    2  502    0 -0.10624909951E+02  0.35147426579E+02  0.10768760387E+03  0.11377543818E+03  0.00000000000E+00 0. -1.
</event>
<event>
 4    1  0.3586324E+003  0.4563379E+02  0.7546771E-02  0.1318300E+00
          2   -1    0    0  502    0  0.00000000000E+00  0.00000000000E+00  0.13997790376E+03  0.13997790376E+03  0.00000000000E+00 0.  1.
          1   -1    0    0  501    0 -0.00000000000E+00 -0.00000000000E+00 -0.50417953463E+02  0.50417953463E+02  0.00000000000E+00 0. -1.
          2    1    1    2  501    0  0.21611524548E+02 -0.40191845649E+02  0.12470813502E+03  0.13279518587E+03  0.00000000000E+00 0.  1.
          1    1    1    2  502    0 -0.21611524548E+02  0.40191845649E+02 -0.35148184730E+02  0.57600671348E+02  0.00000000000E+00 0. -1.
</event>
<event>
 4    1  0.3586324E+003  0.2192352E+02  0.7546771E-02  0.1506477E+00
          2   -1    0    0  502    0  0.00000000000E+00  0.00000000000E+00  0.73777089562E+02  0.73777089562E+02  0.00000000000E+00 0.  1.
          1   -1    0    0  501    0 -0.00000000000E+00 -0.00000000000E+00 -0.69548044128E+01  0.69548044128E+01  0.00000000000E+00 0. -1.
          2    1    1    2  501    0  0.77102970584E+01 -0.20522959890E+02  0.43564680290E+02  0.48770092600E+02  0.00000000000E+00 0.  1.
          1    1    1    2  502    0 -0.77102970584E+01  0.20522959890E+02  0.23257604859E+02  0.31961801375E+02  0.00000000000E+00 0. -1.
</event>
<event>
 4    1  0.3586324E+003  0.2191368E+02  0.7546771E-02  0.1506609E+00
          2   -1    0    0  502    0  0.00000000000E+00  0.00000000000E+00  0.16856161469E+04  0.16856161469E+04  0.00000000000E+00 0. -1.
          1   -1    0    0  501    0 -0.00000000000E+00 -0.00000000000E+00 -0.59948949034E+00  0.59948949034E+00  0.00000000000E+00 0. -1.
          2    1    1    2  501    0  0.18266705055E+02  0.12105222087E+02  0.23174366320E+03  0.23277743523E+03  0.00000000000E+00 0. -1.
          1    1    1    2  502    0 -0.18266705055E+02 -0.12105222087E+02  0.14532729943E+04  0.14534382012E+04  0.00000000000E+00 0. -1.
</event>
<event>
 4    1  0.3586324E+003  0.3477045E+02  0.7546771E-02  0.1382184E+00
          2   -1    0    0  502    0  0.00000000000E+00  0.00000000000E+00  0.76054957625E+03  0.76054957625E+03  0.00000000000E+00 0.  1.
          1   -1    0    0  501    0 -0.00000000000E+00 -0.00000000000E+00 -0.12449819999E+03  0.12449819999E+03  0.00000000000E+00 0. -1.
          2    1    1    2  501    0  0.27563042122E+02 -0.21195819841E+02  0.75771538158E+03  0.75851274449E+03  0.00000000000E+00 0.  1.
          1    1    1    2  502    0 -0.27563042122E+02  0.21195819841E+02 -0.12166400532E+03  0.12653503175E+03  0.00000000000E+00 0. -1.
</event>
<event>
 4    1  0.3586324E+003  0.2181242E+02  0.7546771E-02  0.1507974E+00
          2   -1    0    0  502    0  0.00000000000E+00  0.00000000000E+00  0.22576448377E+01  0.22576448377E+01  0.00000000000E+00 0.  1.
          1   -1    0    0  501    0 -0.00000000000E+00 -0.00000000000E+00 -0.23087605338E+03  0.23087605338E+03  0.00000000000E+00 0.  1.
          2    1    1    2  501    0  0.14192981428E+02  0.16563228907E+02 -0.14873214321E+03  0.15032309103E+03  0.00000000000E+00 0.  1.
          1    1    1    2  502    0 -0.14192981428E+02 -0.16563228907E+02 -0.79886265330E+02  0.82810607183E+02  0.00000000000E+00 0.  1.
</event>
<event>
 4    1  0.3586324E+003  0.3518595E+02  0.7546771E-02  0.1379261E+00
          2   -1    0    0  502    0  0.00000000000E+00  0.00000000000E+00  0.22430365551E+03  0.22430365551E+03  0.00000000000E+00 0. -1.
          1   -1    0    0  501    0 -0.00000000000E+00 -0.00000000000E+00 -0.11107057281E+02  0.11107057281E+02  0.00000000000E+00 0. -1.
          2    1    1    2  501    0 -0.27436198075E+02 -0.22029659966E+02  0.19008292918E+03  0.19331210735E+03  0.00000000000E+00 0. -1.
          1    1    1    2  502    0  0.27436198075E+02  0.22029659966E+02  0.23113669049E+02  0.42098605440E+02  0.00000000000E+00 0. -1.
</event>
<event>
 4    1  0.3586324E+003  0.2294146E+02  0.7546771E-02  0.1493235E+00
          2   -1    0    0  502    0  0.00000000000E+00  0.00000000000E+00  0.20993530848E+03  0.20993530848E+03  0.00000000000E+00 0.  1.
          1   -1    0    0  501    0 -0.00000000000E+00 -0.00000000000E+00 -0.11938141815E+03  0.11938141815E+03  0.00000000000E+00 0.  1.
          2    1    1    2  501    0  0.13881905066E+02 -0.18264810616E+02  0.20819721989E+03  0.20945737744E+03  0.00000000000E+00 0.  1.
          1    1    1    2  502    0 -0.13881905066E+02  0.18264810616E+02 -0.11764332957E+03  0.11985934918E+03  0.00000000000E+00 0.  1.
</event>
<event>
 4    1  0.3586324E+003  0.2835165E+02  0.7546771E-02  0.1434483E+00
          2   -1    0    0  502    0  0.00000000000E+00  0.00000000000E+00  0.89801972093E+03  0.89801972093E+03  0.00000000000E+00 0. -1.
          1   -1    0    0  501    0 -0.00000000000E+00 -0.00000000000E+00 -0.20378488732E+01  0.20378488732E+01  0.00000000000E+00 0.  1.
          2    1    1    2  501    0 -0.17019636192E+01  0.28300516959E+02  0.78499103400E+03  0.78550285767E+03  0.00000000000E+00 0. -1.
          1    1    1    2  502    0  0.17019636192E+01 -0.28300516959E+02  0.11099083805E+03  0.11455471213E+03  0.00000000000E+00 0.  1.
</event>
<event>
 4    1  0.3586324E+003  0.2397280E+02  0.7546771E-02  0.1480631E+00
          2   -1    0    0  502    0  0.00000000000E+00  0.00000000000E+00  0.57654118419E+03  0.57654118419E+03  0.00000000000E+00 0.  1.
          1   -1    0    0  501    0 -0.00000000000E+00 -0.00000000000E+00 -0.16007270860E+02  0.16007270860E+02  0.00000000000E+00 0.  1.
          2    1    1    2  501    0  0.62619949871E+00  0.23964624683E+02  0.56716818511E+03  0.56767459479E+03  0.00000000000E+00 0.  1.
          1    1    1    2  502    0 -0.62619949871E+00 -0.23964624683E+02 -0.66342717874E+01  0.24873860259E+02  0.00000000000E+00 0.  1.
</event>
<event>
 4    1  0.3586324E+003  0.3472871E+02  0.7546771E-02  0.1382480E+00
          2   -1    0    0  502    0  0.00000000000E+00  0.00000000000E+00  0.57735892212E+03  0.57735892212E+03  0.00000000000E+00 0. -1.
          1   -1    0    0  501    0 -0.00000000000E+00 -0.00000000000E+00 -0.30109134387E+01  0.30109134387E+01  0.00000000000E+00 0. -1.
          2    1    1    2  501    0  0.30932341068E+02 -0.15788410004E+02  0.44774925045E+03  0.44909406019E+03  0.00000000000E+00 0. -1.
          1    1    1    2  502    0 -0.30932341068E+02  0.15788410004E+02  0.12659875823E+03  0.13127577538E+03  0.00000000000E+00 0. -1.
</event>
<event>
 4    1  0.3586324E+003  0.3640212E+02  0.7546771E-02  0.1370965E+00
          2   -1    0    0  502    0  0.00000000000E+00  0.00000000000E+00  0.43513636667E+03  0.43513636667E+03  0.00000000000E+00 0. -1.
          1   -1    0    0  501    0 -0.00000000000E+00 -0.00000000000E+00 -0.18305685887E+03  0.18305685887E+03  0.00000000000E+00 0. -1.
          2    1    1    2  501    0 -0.36375903880E+02 -0.13813659302E+01  0.43255455914E+03  0.43408358779E+03  0.00000000000E+00 0. -1.
          1    1    1    2  502    0  0.36375903880E+02  0.13813659302E+01 -0.18047505134E+03  0.18410963775E+03  0.00000000000E+00 0. -1.
</event>
<event>
 4    1  0.3586324E+003  0.2484557E+02  0.7546771E-02  0.1470538E+00
          2   -1    0    0  502    0  0.00000000000E+00  0.00000000000E+00  0.11990185099E+03  0.11990185099E+03  0.00000000000E+00 0.  1.
          1   -1    0    0  501    0 -0.00000000000E+00 -0.00000000000E+00 -0.53155907628E+01  0.53155907628E+01  0.00000000000E+00 0.  1.
          2    1    1    2  501    0 -0.21016174370E+02  0.13252248868E+02  0.46189216311E+02  0.52447548929E+02  0.00000000000E+00 0.  1.
          1    1    1    2  502    0  0.21016174370E+02 -0.13252248868E+02  0.68397043919E+02  0.72769892827E+02  0.00000000000E+00 0.  1.
</event>
<event>
 4    1  0.3586324E+003  0.2156946E+02  0.7546771E-02  0.1511288E+00
          2   -1    0    0  502    0  0.00000000000E+00  0.00000000000E+00  0.38184277777E+02  0.38184277777E+02  0.00000000000E+00 0.  1.
          1   -1    0    0  501    0 -0.00000000000E+00 -0.00000000000E+00 -0.43399467776E+03  0.43399467776E+03  0.00000000000E+00 0. -1.
          2    1    1    2  501    0  0.21231143511E+02  0.38052948844E+01  0.34846656605E+02  0.40982083897E+02  0.00000000000E+00 0.  1.
          1    1    1    2  502    0 -0.21231143511E+02 -0.38052948844E+01 -0.43065705659E+03  0.43119687164E+03  0.00000000000E+00 0. -1.
</event>
<event>
 4    1  0.3586324E+003  0.6498053E+02  0.7546771E-02  0.1243789E+00
          2   -1    0    0  502    0  0.00000000000E+00  0.00000000000E+00  0.35098361793E+03  0.35098361793E+03  0.00000000000E+00 0.  1.
          1   -1    0    0  501    0 -0.00000000000E+00 -0.00000000000E+00 -0.23600619375E+03  0.23600619375E+03  0.00000000000E+00 0. -1.
          2    1    1    2  501    0 -0.12262866143E+02  0.63812941616E+02  0.34340534469E+03  0.34949921340E+03  0.00000000000E+00 0.  1.
          1    1    1    2  502    0  0.12262866143E+02 -0.63812941616E+02 -0.22842792051E+03  0.23749059828E+03  0.00000000000E+00 0. -1.
</event>
<event>
 4    1  0.3586324E+003  0.3094806E+02  0.7546771E-02  0.1411533E+00
          2   -1    0    0  502    0  0.00000000000E+00  0.00000000000E+00  0.88352961162E+03  0.88352961162E+03  0.00000000000E+00 0. -1.
          1   -1    0    0  501    0 -0.00000000000E+00 -0.00000000000E+00 -0.28341619177E+02  0.28341619177E+02  0.00000000000E+00 0.  1.
          2    1    1    2  501    0  0.29002573527E+02  0.10799680227E+02  0.87472503864E+03  0.87527234367E+03  0.00000000000E+00 0. -1.
          1    1    1    2  502    0 -0.29002573527E+02 -0.10799680227E+02 -0.19537046205E+02  0.36598887123E+02  0.00000000000E+00 0.  1.
</event>
<event>
 4    1  0.3586324E+003  0.2545293E+02  0.7546771E-02  0.1463800E+00
          2   -1    0    0  502    0  0.00000000000E+00  0.00000000000E+00  0.34964057099E+03  0.34964057099E+03  0.00000000000E+00 0. -1.
          1   -1    0    0  501    0 -0.00000000000E+00 -0.00000000000E+00 -0.34383829861E+02  0.34383829861E+02  0.00000000000E+00 0. -1.
          2    1    1    2  501    0  0.74310906920E+01 -0.24344008320E+02  0.34439525946E+03  0.34533454300E+03  0.00000000000E+00 0. -1.
          1    1    1    2  502    0 -0.74310906920E+01  0.24344008320E+02 -0.29138518332E+02  0.38689857851E+02  0.00000000000E+00 0. -1.
</event>
<event>
 4    1  0.3586324E+003  0.4389550E+02  0.7546771E-02  0.1327055E+00
          2   -1    0    0  502    0  0.00000000000E+00  0.00000000000E+00  0.33354912264E+03  0.33354912264E+03  0.00000000000E+00 0.  1.
          1   -1    0    0  501    0 -0.00000000000E+00 -0.00000000000E+00 -0.28389408762E+02  0.28389408762E+02  0.00000000000E+00 0.  1.
          2    1    1    2  501    0  0.43853588601E+02  0.19176396878E+01  0.31409115433E+03  0.31714360754E+03  0.00000000000E+00 0.  1.
          1    1    1    2  502    0 -0.43853588601E+02 -0.19176396878E+01 -0.89314404532E+01  0.44794923861E+02  0.00000000000E+00 0.  1.
</event>
<event>
 4    1  0.3586324E+003  0.2160541E+02  0.7546771E-02  0.1510794E+00
          2   -1    0    0  502    0  0.00000000000E+00  0.00000000000E+00  0.34810909387E+02  0.34810909387E+02  0.00000000000E+00 0.  1.
          1   -1    0    0  501    0 -0.00000000000E+00 -0.00000000000E+00 -0.21362415105E+02  0.21362415105E+02  0.00000000000E+00 0.  1.
          2    1    1    2  501    0 -0.21592296249E+02 -0.75259120057E+00  0.23861478909E+02  0.32189498700E+02  0.00000000000E+00 0.  1.
          1    1    1    2  502    0  0.21592296249E+02  0.75259120057E+00 -0.10412984627E+02  0.23983825793E+02  0.00000000000E+00 0.  1.
</event>
<event>
 4    1  0.3586324E+003  0.3746030E+02  0.7546771E-02  0.1364047E+00
          2   -1    0    0  502    0  0.00000000000E+00  0.00000000000E+00  0.11461155340E+04  0.11461155340E+04  0.00000000000E+00 0. -1.
          1   -1    0    0  501    0 -0.00000000000E+00 -0.00000000000E+00 -0.49717756534E+02  0.49717756534E+02  0.00000000000E+00 0. -1.
          2    1    1    2  501    0  0.29782322363E+02 -0.22721964408E+02  0.11387073434E+04  0.11393233466E+04  0.00000000000E+00 0. -1.
          1    1    1    2  502    0 -0.29782322363E+02  0.22721964408E+02 -0.42309565894E+02  0.56509943887E+02  0.00000000000E+00 0. -1.
</event>
<event>
 4    1  0.3586324E+003  0.2570104E+02  0.7546771E-02  0.1461112E+00
          2   -1    0    0  502    0  0.00000000000E+00  0.00000000000E+00  0.56064741637E+01  0.56064741637E+01  0.00000000000E+00 0.  1.
          1   -1    0    0  501    0 -0.00000000000E+00 -0.00000000000E+00 -0.46857028619E+03  0.46857028619E+03  0.00000000000E+00 0. -1.
          2    1    1    2  501    0 -0.15736817115E+02 -0.20319843306E+02 -0.26354746395E+02  0.36811901642E+02  0.00000000000E+00 0.  1.
          1    1    1    2  502    0  0.15736817115E+02  0.20319843306E+02 -0.43660906563E+03  0.43736485872E+03  0.00000000000E+00 0. -1.
</event>
<event>
 4    1  0.3586324E+003  0.2863206E+02  0.7546771E-02  0.1431868E+00
          2   -1    0    0  502    0  0.00000000000E+00  0.00000000000E+00  0.27451697005E+03  0.27451697005E+03  0.00000000000E+00 0.  1.
          1   -1    0    0  501    0 -0.00000000000E+00 -0.00000000000E+00 -0.39645582205E+01  0.39645582205E+01  0.00000000000E+00 0. -1.
          2    1    1    2  501    0 -0.23917633907E+02  0.15739810358E+02  0.20444207818E+03  0.20643729840E+03  0.00000000000E+00 0.  1.
          1    1    1    2  502    0  0.23917633907E+02 -0.15739810358E+02  0.66110333652E+02  0.72044229869E+02  0.00000000000E+00 0. -1.
</event>
<event>
 4    1  0.3586324E+003  0.3128800E+02  0.7546771E-02  0.1408724E+00
          2   -1    0    0  502    0  0.00000000000E+00  0.00000000000E+00  0.31727933687E+02  0.31727933687E+02  0.00000000000E+00 0. -1.
          1   -1    0    0  501    0 -0.00000000000E+00 -0.00000000000E+00 -0.29433704258E+03  0.29433704258E+03  0.00000000000E+00 0. -1.
          2    1    1    2  501    0 -0.20832686163E+02  0.23343905784E+02  0.22946413698E+02  0.38800472312E+02  0.00000000000E+00 0. -1.
          1    1    1    2  502    0  0.20832686163E+02 -0.23343905784E+02 -0.28555552259E+03  0.28726450396E+03  0.00000000000E+00 0. -1.
</event>
<event>
 4    1  0.3586324E+003  0.2102058E+02  0.7546771E-02  0.1518971E+00
          2   -1    0    0  502    0  0.00000000000E+00  0.00000000000E+00  0.22723908472E+02  0.22723908472E+02  0.00000000000E+00 0.  1.
          1   -1    0    0  501    0 -0.00000000000E+00 -0.00000000000E+00 -0.43590552056E+02  0.43590552056E+02  0.00000000000E+00 0. -1.
          2    1    1    2  501    0 -0.13576341679E+02 -0.16048288108E+02  0.14244188463E+02  0.25392154488E+02  0.00000000000E+00 0.  1.
          1    1    1    2  502    0  0.13576341679E+02  0.16048288108E+02 -0.35110832047E+02  0.40922306040E+02  0.00000000000E+00 0. -1.
</event>
<event>
 4    1  0.3586324E+003  0.2601692E+02  0.7546771E-02  0.1457741E+00
          2   -1    0    0  502    0  0.00000000000E+00  0.00000000000E+00  0.63864750793E+00  0.63864750793E+00  0.00000000000E+00 0. -1.
          1   -1    0    0  501    0 -0.00000000000E+00 -0.00000000000E+00 -0.16767708233E+04  0.16767708233E+04  0.00000000000E+00 0.  1.
          2    1    1    2  501    0  0.88822856501E+01  0.24453735715E+02 -0.32934276417E+03  0.33036878863E+03  0.00000000000E+00 0. -1.
          1    1    1    2  502    0 -0.88822856501E+01 -0.24453735715E+02 -0.13467894117E+04  0.13470406822E+04  0.00000000000E+00 0.  1.
</event>
<event>
 4    1  0.3586324E+003  0.2209698E+02  0.7546771E-02  0.1504160E+00
          2   -1    0    0  502    0  0.00000000000E+00  0.00000000000E+00  0.98635326172E+03  0.98635326172E+03  0.00000000000E+00 0.  1.
          1   -1    0    0  501    0 -0.00000000000E+00 -0.00000000000E+00 -0.34481379656E+01  0.34481379656E+01  0.00000000000E+00 0.  1.
          2    1    1    2  501    0 -0.16723899259E+02  0.14442571279E+02  0.94945231940E+03  0.94970942055E+03  0.00000000000E+00 0.  1.
          1    1    1    2  502    0  0.16723899259E+02 -0.14442571279E+02  0.33452804347E+02  0.40091979126E+02  0.00000000000E+00 0.  1.
</event>
<event>
 4    1  0.3586324E+003  0.4062012E+02  0.7546771E-02  0.1344890E+00
          2   -1    0    0  502    0  0.00000000000E+00  0.00000000000E+00  0.17410135906E+04  0.17410135906E+04  0.00000000000E+00 0.  1.
          1   -1    0    0  501    0 -0.00000000000E+00 -0.00000000000E+00 -0.11723605483E+01  0.11723605483E+01  0.00000000000E+00 0.  1.
          2    1    1    2  501    0  0.12034130820E+01 -0.40602288343E+02  0.12512301314E+04  0.12518893065E+04  0.00000000000E+00 0.  1.
          1    1    1    2  502    0 -0.12034130820E+01  0.40602288343E+02  0.48861109868E+03  0.49029664467E+03  0.00000000000E+00 0.  1.
</event>
<event>
 4    1  0.3586324E+003  0.2605118E+02  0.7546771E-02  0.1457379E+00
          2   -1    0    0  502    0  0.00000000000E+00  0.00000000000E+00  0.49143181053E+02  0.49143181053E+02  0.00000000000E+00 0.  1.
          1   -1    0    0  501    0 -0.00000000000E+00 -0.00000000000E+00 -0.46618946417E+02  0.46618946417E+02  0.00000000000E+00 0. -1.
          2    1    1    2  501    0 -0.25314603959E+02 -0.61510187469E+01  0.41430017217E+02  0.48939866488E+02  0.00000000000E+00 0.  1.
          1    1    1    2  502    0  0.25314603959E+02  0.61510187469E+01 -0.38905782581E+02  0.46822260982E+02  0.00000000000E+00 0. -1.
</event>
<event>
 4    1  0.3586324E+003  0.5935465E+02  0.7546771E-02  0.1262041E+00
          2   -1    0    0  502    0  0.00000000000E+00  0.00000000000E+00  0.17871960218E+03  0.17871960218E+03  0.00000000000E+00 0. -1.
          1   -1    0    0  501    0 -0.00000000000E+00 -0.00000000000E+00 -0.20512583146E+02  0.20512583146E+02  0.00000000000E+00 0. -1.
          2    1    1    2  501    0  0.80350458566E+01  0.58808236631E+02  0.59427054177E+02  0.83991341373E+02  0.00000000000E+00 0. -1.
          1    1    1    2  502    0 -0.80350458566E+01 -0.58808236631E+02  0.98779964857E+02  0.11524084395E+03  0.00000000000E+00 0. -1.
</event>
<event>
 4    1  0.3586324E+003  0.2173500E+02  0.7546771E-02  0.1509024E+00
          2   -1    0    0  502    0  0.00000000000E+00  0.00000000000E+00  0.47838113556E+01  0.47838113556E+01  0.00000000000E+00 0. -1.
          1   -1    0    0  501    0 -0.00000000000E+00 -0.00000000000E+00 -0.11782592778E+03  0.11782592778E+03  0.00000000000E+00 0. -1.
          2    1    1    2  501    0 -0.19645284836E+02  0.92990849863E+01 -0.31855192125E+02  0.38563758416E+02  0.00000000000E+00 0. -1.
          1    1    1    2  502    0  0.19645284836E+02 -0.92990849863E+01 -0.81186924301E+02  0.84045980721E+02  0.00000000000E+00 0. -1.
</event>
<event>
 4    1  0.3586324E+003  0.2765673E+02  0.7546771E-02  0.1441120E+00
          2   -1    0    0  502    0  0.00000000000E+00  0.00000000000E+00  0.12286229946E+03  0.12286229946E+03  0.00000000000E+00 0. -1.
          1   -1    0    0  501    0 -0.00000000000E+00 -0.00000000000E+00 -0.37635769712E+03  0.37635769712E+03  0.00000000000E+00 0.  1.
          2    1    1    2  501    0  0.84674851794E+01 -0.26328621176E+02  0.12078919408E+03  0.12391498700E+03  0.00000000000E+00 0. -1.
          1    1    1    2  502    0 -0.84674851794E+01  0.26328621176E+02 -0.37428459174E+03  0.37530500958E+03  0.00000000000E+00 0.  1.
</event>
<event>
 4    1  0.3586324E+003  0.5880191E+02  0.7546771E-02  0.1263959E+00
          2   -1    0    0  502    0  0.00000000000E+00  0.00000000000E+00  0.36724731425E+04  0.36724731425E+04  0.00000000000E+00 0.  1.
          1   -1    0    0  501    0 -0.00000000000E+00 -0.00000000000E+00 -0.63217748836E+03  0.63217748836E+03  0.00000000000E+00 0.  1.
          2    1    1    2  501    0 -0.41963627290E+02 -0.41191248321E+02  0.36708698049E+04  0.36713407346E+04  0.00000000000E+00 0.  1.
          1    1    1    2  502    0  0.41963627290E+02  0.41191248321E+02 -0.63057415082E+03  0.63330989621E+03  0.00000000000E+00 0.  1.
</event>
<event>
 4    1  0.3586324E+003  0.2279995E+02  0.7546771E-02  0.1495026E+00
          2   -1    0    0  502    0  0.00000000000E+00  0.00000000000E+00  0.35487727653E+02  0.35487727653E+02  0.00000000000E+00 0.  1.
          1   -1    0    0  501    0 -0.00000000000E+00 -0.00000000000E+00 -0.84563025935E+02  0.84563025935E+02  0.00000000000E+00 0.  1.
          2    1    1    2  501    0  0.27849884332E+01  0.22629215330E+02  0.30041747937E+02  0.37713978392E+02  0.00000000000E+00 0.  1.
          1    1    1    2  502    0 -0.27849884332E+01 -0.22629215330E+02 -0.79117046220E+02  0.82336775195E+02  0.00000000000E+00 0.  1.
</event>
<event>
 4    1  0.3586324E+003  0.2093019E+02  0.7546771E-02  0.1520264E+00
          2   -1    0    0  502    0  0.00000000000E+00  0.00000000000E+00  0.22063705087E+00  0.22063705087E+00  0.00000000000E+00 0. -1.
          1   -1    0    0  501    0 -0.00000000000E+00 -0.00000000000E+00 -0.19902524004E+04  0.19902524004E+04  0.00000000000E+00 0. -1.
          2    1    1    2  501    0 -0.18344647524E+02 -0.10077041600E+02 -0.94633668322E+03  0.94656811211E+03  0.00000000000E+00 0. -1.
          1    1    1    2  502    0  0.18344647524E+02  0.10077041600E+02 -0.10436950801E+04  0.10439049253E+04  0.00000000000E+00 0. -1.
</event>
<event>
 4    1  0.3586324E+003  0.2666293E+02  0.7546771E-02  0.1451024E+00
          2   -1    0    0  502    0  0.00000000000E+00  0.00000000000E+00  0.37210863520E+03  0.37210863520E+03  0.00000000000E+00 0. -1.
          1   -1    0    0  501    0 -0.00000000000E+00 -0.00000000000E+00 -0.82968507150E+01  0.82968507150E+01  0.00000000000E+00 0. -1.
          2    1    1    2  501    0 -0.21653396425E+01  0.26574861379E+02  0.34877911977E+03  0.34979677863E+03  0.00000000000E+00 0. -1.
          1    1    1    2  502    0  0.21653396425E+01 -0.26574861379E+02  0.15032664713E+02  0.30608707282E+02  0.00000000000E+00 0. -1.
</event>
<event>
 4    1  0.3586324E+003  0.2702315E+02  0.7546771E-02  0.1447376E+00
          2   -1    0    0  502    0  0.00000000000E+00  0.00000000000E+00  0.18320151174E+04  0.18320151174E+04  0.00000000000E+00 0.  1.
          1   -1    0    0  501    0 -0.00000000000E+00 -0.00000000000E+00 -0.12095888839E+01  0.12095888839E+01  0.00000000000E+00 0. -1.
          2    1    1    2  501    0 -0.15940138102E+02  0.21821149076E+02  0.16659411354E+04  0.16661602916E+04  0.00000000000E+00 0.  1.
          1    1    1    2  502    0  0.15940138102E+02 -0.21821149076E+02  0.16486439308E+03  0.16706441469E+03  0.00000000000E+00 0. -1.
</event>
<event>
 4    1  0.3586324E+003  0.2298569E+02  0.7546771E-02  0.1492678E+00
          2   -1    0    0  502    0  0.00000000000E+00  0.00000000000E+00  0.15746982129E+03  0.15746982129E+03  0.00000000000E+00 0.  1.
          1   -1    0    0  501    0 -0.00000000000E+00 -0.00000000000E+00 -0.21338594233E+02  0.21338594233E+02  0.00000000000E+00 0.  1.
          2    1    1    2  501    0  0.14303355952E+01 -0.22941148406E+02  0.15014062170E+03  0.15188992210E+03  0.00000000000E+00 0.  1.
          1    1    1    2  502    0 -0.14303355952E+01  0.22941148406E+02 -0.14009394643E+02  0.26918493426E+02  0.00000000000E+00 0.  1.
</event>
<event>
 4    1  0.3586324E+003  0.3001571E+02  0.7546771E-02  0.1419460E+00
          2   -1    0    0  502    0  0.00000000000E+00  0.00000000000E+00  0.90884875232E+02  0.90884875232E+02  0.00000000000E+00 0. -1.
          1   -1    0    0  501    0 -0.00000000000E+00 -0.00000000000E+00 -0.13298466243E+02  0.13298466243E+02  0.00000000000E+00 0. -1.
          2    1    1    2  501    0  0.29326508090E+02 -0.63952371589E+01  0.65076256139E+02  0.71664930392E+02  0.00000000000E+00 0. -1.
          1    1    1    2  502    0 -0.29326508090E+02  0.63952371589E+01  0.12510152850E+02  0.32518411084E+02  0.00000000000E+00 0. -1.
</event>
<event>
 4    1  0.3586324E+003  0.2183780E+02  0.7546771E-02  0.1507631E+00
          2   -1    0    0  502    0  0.00000000000E+00  0.00000000000E+00  0.16951721090E+03  0.16951721090E+03  0.00000000000E+00 0. -1.
          1   -1    0    0  501    0 -0.00000000000E+00 -0.00000000000E+00 -0.62995528361E+02  0.62995528361E+02  0.00000000000E+00 0. -1.
          2    1    1    2  501    0 -0.21409065105E+02  0.43059854181E+01  0.16689170516E+03  0.16831438094E+03  0.00000000000E+00 0. -1.
          1    1    1    2  502    0  0.21409065105E+02 -0.43059854181E+01 -0.60370022625E+02  0.64198358319E+02  0.00000000000E+00 0. -1.
</event>
<event>
 4    1  0.3586324E+003  0.3315824E+02  0.7546771E-02  0.1393995E+00
          2   -1    0    0  502    0  0.00000000000E+00  0.00000000000E+00  0.93511197678E+02  0.93511197678E+02  0.00000000000E+00 0.  1.
          1   -1    0    0  501    0 -0.00000000000E+00 -0.00000000000E+00 -0.67428489550E+02  0.67428489550E+02  0.00000000000E+00 0.  1.
          2    1    1    2  501    0  0.94864859317E+01 -0.31772242596E+02  0.86159548276E+02  0.92319751809E+02  0.00000000000E+00 0.  1.
          1    1    1    2  502    0 -0.94864859317E+01  0.31772242596E+02 -0.60076840148E+02  0.68619935420E+02  0.00000000000E+00 0.  1.
</event>
<event>
 4    1  0.3586324E+003  0.2486788E+02  0.7546771E-02  0.1470287E+00
          2   -1    0    0  502    0  0.00000000000E+00  0.00000000000E+00  0.10736313496E+04  0.10736313496E+04  0.00000000000E+00 0.  1.
          1   -1    0    0  501    0 -0.00000000000E+00 -0.00000000000E+00 -0.96871623518E+02  0.96871623518E+02  0.00000000000E+00 0. -1.
          2    1    1    2  501    0 -0.16860789087E+02 -0.18279098299E+02  0.10718887988E+04  0.10721772282E+04  0.00000000000E+00 0.  1.
          1    1    1    2  502    0  0.16860789087E+02  0.18279098299E+02 -0.95129072711E+02  0.98325744941E+02  0.00000000000E+00 0. -1.
</event>
<event>
 4    1  0.3586324E+003  0.2549454E+02  0.7546771E-02  0.1463346E+00
          2   -1    0    0  502    0  0.00000000000E+00  0.00000000000E+00  0.28985590293E+03  0.28985590293E+03  0.00000000000E+00 0.  1.
          1   -1    0    0  501    0 -0.00000000000E+00 -0.00000000000E+00 -0.76537132190E+02  0.76537132190E+02  0.00000000000E+00 0.  1.
          2    1    1    2  501    0  0.22515034886E+02 -0.11960132163E+02  0.28715229464E+03  0.28828182716E+03  0.00000000000E+00 0.  1.
          1    1    1    2  502    0 -0.22515034886E+02  0.11960132163E+02 -0.73833523898E+02  0.78111207957E+02  0.00000000000E+00 0.  1.
</event>
<event>
 4    1  0.3586324E+003  0.3989571E+02  0.7546771E-02  0.1349098E+00
          2   -1    0    0  502    0  0.00000000000E+00  0.00000000000E+00  0.15399575466E+04  0.15399575466E+04  0.00000000000E+00 0. -1.
          1   -1    0    0  501    0 -0.00000000000E+00 -0.00000000000E+00 -0.57700804155E+01  0.57700804155E+01  0.00000000000E+00 0.  1.
          2    1    1    2  501    0 -0.35666206036E+02 -0.17877055340E+02  0.14673240161E+04  0.14678662867E+04  0.00000000000E+00 0. -1.
          1    1    1    2  502    0  0.35666206036E+02  0.17877055340E+02  0.66863450071E+02  0.77861340317E+02  0.00000000000E+00 0.  1.
</event>
<event>
 4    1  0.3586324E+003  0.2259555E+02  0.7546771E-02  0.1497640E+00
          2   -1    0    0  502    0  0.00000000000E+00  0.00000000000E+00  0.60281757737E+03  0.60281757737E+03  0.00000000000E+00 0.  1.
          1   -1    0    0  501    0 -0.00000000000E+00 -0.00000000000E+00 -0.23696860646E+01  0.23696860646E+01  0.00000000000E+00 0.  1.
          2    1    1    2  501    0 -0.20826499079E+02 -0.87644511562E+01  0.54278783316E+03  0.54325794103E+03  0.00000000000E+00 0.  1.
          1    1    1    2  502    0  0.20826499079E+02  0.87644511562E+01  0.57660058150E+02  0.61929322407E+02  0.00000000000E+00 0.  1.
</event>
<event>
 4    1  0.3586324E+003  0.3637816E+02  0.7546771E-02  0.1371125E+00
          2   -1    0    0  502    0  0.00000000000E+00  0.00000000000E+00  0.17557823236E+03  0.17557823236E+03  0.00000000000E+00 0. -1.
          1   -1    0    0  501    0 -0.00000000000E+00 -0.00000000000E+00 -0.56254553753E+02  0.56254553753E+02  0.00000000000E+00 0. -1.
          2    1    1    2  501    0  0.86015290328E+01 -0.35346625072E+02  0.16753361116E+03  0.17143768860E+03  0.00000000000E+00 0. -1.
          1    1    1    2  502    0 -0.86015290328E+01  0.35346625072E+02 -0.48209932556E+02  0.60395097505E+02  0.00000000000E+00 0. -1.
</event>
<event>
 4    1  0.3586324E+003  0.2216273E+02  0.7546771E-02  0.1503288E+00
          2   -1    0    0  502    0  0.00000000000E+00  0.00000000000E+00  0.50166711843E+02  0.50166711843E+02  0.00000000000E+00 0. -1.
          1   -1    0    0  501    0 -0.00000000000E+00 -0.00000000000E+00 -0.30342015264E+02  0.30342015264E+02  0.00000000000E+00 0. -1.
          2    1    1    2  501    0 -0.60885454954E+01  0.21310007366E+02  0.43041204450E+02  0.48412106757E+02  0.00000000000E+00 0. -1.
          1    1    1    2  502    0  0.60885454954E+01 -0.21310007366E+02 -0.23216507870E+02  0.32096620350E+02  0.00000000000E+00 0. -1.
</event>
<event>
 4    1  0.3586324E+003  0.2031467E+02  0.7546771E-02  0.1529279E+00
          2   -1    0    0  502    0  0.00000000000E+00  0.00000000000E+00  0.75925669177E+03  0.75925669177E+03  0.00000000000E+00 0.  1.
          1   -1    0    0  501    0 -0.00000000000E+00 -0.00000000000E+00 -0.95099957638E+03  0.95099957638E+03  0.00000000000E+00 0. -1.
          2    1    1    2  501    0 -0.14737331243E+02 -0.13982019037E+02  0.75901228466E+03  0.75928409312E+03  0.00000000000E+00 0.  1.
          1    1    1    2  502    0  0.14737331243E+02  0.13982019037E+02 -0.95075516928E+03  0.95097217504E+03  0.00000000000E+00 0. -1.
</event>
<event>
 4    1  0.3586324E+003  0.4649418E+02  0.7546771E-02  0.1314133E+00
          2   -1    0    0  502    0  0.00000000000E+00  0.00000000000E+00  0.59836097706E+03  0.59836097706E+03  0.00000000000E+00 0. -1.
          1   -1    0    0  501    0 -0.00000000000E+00 -0.00000000000E+00 -0.38663054805E+01  0.38663054805E+01  0.00000000000E+00 0. -1.
          2    1    1    2  501    0 -0.26453338038E+02  0.38235184702E+02  0.37436390961E+03  0.37724003666E+03  0.00000000000E+00 0. -1.
          1    1    1    2  502    0  0.26453338038E+02 -0.38235184702E+02  0.22013076197E+03  0.22498724588E+03  0.00000000000E+00 0. -1.
</event>
<event>
 4    1  0.3586324E+003  0.2381952E+02  0.7546771E-02  0.1482456E+00
          2   -1    0    0  502    0  0.00000000000E+00  0.00000000000E+00  0.81261099955E+03  0.81261099955E+03  0.00000000000E+00 0.  1.
          1   -1    0    0  501    0 -0.00000000000E+00 -0.00000000000E+00 -0.92104735745E+00  0.92104735745E+00  0.00000000000E+00 0. -1.
          2    1    1    2  501    0  0.19673642731E+02 -0.13428222272E+02  0.60592429082E+03  0.60639229512E+03  0.00000000000E+00 0.  1.
          1    1    1    2  502    0 -0.19673642731E+02  0.13428222272E+02  0.20576566137E+03  0.20713975179E+03  0.00000000000E+00 0. -1.
</event>
<event>
 4    1  0.3586324E+003  0.2023086E+02  0.7546771E-02  0.1530535E+00
          2   -1    0    0  502    0  0.00000000000E+00  0.00000000000E+00  0.31886841979E+02  0.31886841979E+02  0.00000000000E+00 0. -1.
          1   -1    0    0  501    0 -0.00000000000E+00 -0.00000000000E+00 -0.37588856632E+02  0.37588856632E+02  0.00000000000E+00 0.  1.
          2    1    1    2  501    0  0.18087386525E+02  0.90627828936E+01  0.25338618491E+02  0.32424268259E+02  0.00000000000E+00 0. -1.
          1    1    1    2  502    0 -0.18087386525E+02 -0.90627828936E+01 -0.31040633145E+02  0.37051430352E+02  0.00000000000E+00 0.  1.
</event>
<event>
 4    1  0.3586324E+003  0.2468126E+02  0.7546771E-02  0.1472401E+00
          2   -1    0    0  502    0  0.00000000000E+00  0.00000000000E+00  0.11761733503E+04  0.11761733503E+04  0.00000000000E+00 0. -1.
          1   -1    0    0  501    0 -0.00000000000E+00 -0.00000000000E+00 -0.42681233755E+01  0.42681233755E+01  0.00000000000E+00 0. -1.
          2    1    1    2  501    0  0.80003898543E+01 -0.23348622148E+02  0.11392050785E+04  0.11394724110E+04  0.00000000000E+00 0. -1.
          1    1    1    2  502    0 -0.80003898543E+01  0.23348622148E+02  0.32700148359E+02  0.40969062678E+02  0.00000000000E+00 0. -1.
</event>
<event>
 4    1  0.3586324E+003  0.2026631E+02  0.7546771E-02  0.1530003E+00
          2   -1    0    0  502    0  0.00000000000E+00  0.00000000000E+00  0.10315951209E+03  0.10315951209E+03  0.00000000000E+00 0. -1.
          1   -1    0    0  501    0 -0.00000000000E+00 -0.00000000000E+00 -0.13588593426E+04  0.13588593426E+04  0.00000000000E+00 0. -1.
          2    1    1    2  501    0 -0.18160035867E+02 -0.89964692162E+01  0.10208780261E+03  0.10407998272E+03  0.00000000000E+00 0. -1.
          1    1    1    2  502    0  0.18160035867E+02  0.89964692162E+01 -0.13577876331E+04  0.13579388720E+04  0.00000000000E+00 0. -1.
</event>
<event>
 4    1  0.3586324E+003  0.2486173E+02  0.7546771E-02  0.1470356E+00
          2   -1    0    0  502    0  0.00000000000E+00  0.00000000000E+00  0.24508704858E+02  0.24508704858E+02  0.00000000000E+00 0. -1.
          1   -1    0    0  501    0 -0.00000000000E+00 -0.00000000000E+00 -0.18904531623E+03  0.18904531623E+03  0.00000000000E+00 0. -1.
          2    1    1    2  501    0  0.12992806603E+02 -0.21196518462E+02  0.17131498067E+02  0.30192609102E+02  0.00000000000E+00 0. -1.
          1    1    1    2  502    0 -0.12992806603E+02  0.21196518462E+02 -0.18166810944E+03  0.18336141199E+03  0.00000000000E+00 0. -1.
</event>
<event>
 4    1  0.3586324E+003  0.2609127E+02  0.7546771E-02  0.1456956E+00
          2   -1    0    0  502    0  0.00000000000E+00  0.00000000000E+00  0.34037368484E+01  0.34037368484E+01  0.00000000000E+00 0.  1.
          1   -1    0    0  501    0 -0.00000000000E+00 -0.00000000000E+00 -0.23408728819E+03  0.23408728819E+03  0.00000000000E+00 0.  1.
          2    1    1    2  501    0  0.25704981499E+02  0.44730814845E+01 -0.70029996786E+02  0.74732556370E+02  0.00000000000E+00 0.  1.
          1    1    1    2  502    0 -0.25704981499E+02 -0.44730814845E+01 -0.16065355455E+03  0.16275846867E+03  0.00000000000E+00 0.  1.
</event>
<event>
 4    1  0.3586324E+003  0.2045876E+02  0.7546771E-02  0.1527135E+00
          2   -1    0    0  502    0  0.00000000000E+00  0.00000000000E+00  0.36458869075E+00  0.36458869075E+00  0.00000000000E+00 0.  1.
          1   -1    0    0  501    0 -0.00000000000E+00 -0.00000000000E+00 -0.11483461237E+04  0.11483461237E+04  0.00000000000E+00 0.  1.
          2    1    1    2  501    0  0.74103077775E+01  0.19069559388E+02 -0.56454433582E+03  0.56491492091E+03  0.00000000000E+00 0.  1.
          1    1    1    2  502    0 -0.74103077775E+01 -0.19069559388E+02 -0.58343719917E+03  0.58379579147E+03  0.00000000000E+00 0.  1.
</event>
<event>
 4    1  0.3586324E+003  0.2183020E+02  0.7546771E-02  0.1507734E+00
          2   -1    0    0  502    0  0.00000000000E+00  0.00000000000E+00  0.50927874615E+03  0.50927874615E+03  0.00000000000E+00 0. -1.
          1   -1    0    0  501    0 -0.00000000000E+00 -0.00000000000E+00 -0.95726405785E+00  0.95726405785E+00  0.00000000000E+00 0. -1.
          2    1    1    2  501    0 -0.21312256785E+02 -0.47270670565E+01  0.29240700916E+03  0.29322076403E+03  0.00000000000E+00 0. -1.
          1    1    1    2  502    0  0.21312256785E+02  0.47270670565E+01  0.21591447293E+03  0.21701524618E+03  0.00000000000E+00 0. -1.
</event>
<event>
 4    1  0.3586324E+003  0.2031933E+02  0.7546771E-02  0.1529209E+00
          2   -1    0    0  502    0  0.00000000000E+00  0.00000000000E+00  0.36778142320E+00  0.36778142320E+00  0.00000000000E+00 0. -1.
          1   -1    0    0  501    0 -0.00000000000E+00 -0.00000000000E+00 -0.13320332776E+04  0.13320332776E+04  0.00000000000E+00 0. -1.
          2    1    1    2  501    0 -0.17253653321E+02  0.10732497045E+02 -0.40167699415E+03  0.40219060490E+03  0.00000000000E+00 0. -1.
          1    1    1    2  502    0  0.17253653321E+02 -0.10732497045E+02 -0.92998850203E+03  0.93021045412E+03  0.00000000000E+00 0. -1.
</event>
<event>
 4    1  0.3586324E+003  0.2124227E+02  0.7546771E-02  0.1515834E+00
          2   -1    0    0  502    0  0.00000000000E+00  0.00000000000E+00  0.84876287879E+01  0.84876287879E+01  0.00000000000E+00 0. -1.
          1   -1    0    0  501    0 -0.00000000000E+00 -0.00000000000E+00 -0.10164652441E+04  0.10164652441E+04  0.00000000000E+00 0.  1.
          2    1    1    2  501    0  0.20315325437E+02  0.62065744718E+01 -0.50942619689E+01  0.21844576428E+02  0.00000000000E+00 0. -1.
          1    1    1    2  502    0 -0.20315325437E+02 -0.62065744718E+01 -0.10028833534E+04  0.10031082965E+04  0.00000000000E+00 0.  1.
</event>
<event>
 4    1  0.3586324E+003  0.4473437E+02  0.7546771E-02  0.1322773E+00
          2   -1    0    0  502    0  0.00000000000E+00  0.00000000000E+00  0.19232915293E+03  0.19232915293E+03  0.00000000000E+00 0. -1.
          1   -1    0    0  501    0 -0.00000000000E+00 -0.00000000000E+00 -0.30929480919E+03  0.30929480919E+03  0.00000000000E+00 0. -1.
          2    1    1    2  501    0  0.33655072473E+02  0.29470317194E+02  0.18807431959E+03  0.19332126936E+03  0.00000000000E+00 0. -1.
          1    1    1    2  502    0 -0.33655072473E+02 -0.29470317194E+02 -0.30503997584E+03  0.30830269276E+03  0.00000000000E+00 0. -1.
</event>
<event>
 4    1  0.3586324E+003  0.2049253E+02  0.7546771E-02  0.1526635E+00
          2   -1    0    0  502    0  0.00000000000E+00  0.00000000000E+00  0.43924115389E+02  0.43924115389E+02  0.00000000000E+00 0.  1.
          1   -1    0    0  501    0 -0.00000000000E+00 -0.00000000000E+00 -0.25934834722E+02  0.25934834722E+02  0.00000000000E+00 0. -1.
          2    1    1    2  501    0 -0.20199950082E+02 -0.34504794204E+01  0.36748919259E+02  0.42076440656E+02  0.00000000000E+00 0.  1.
          1    1    1    2  502    0  0.20199950082E+02  0.34504794204E+01 -0.18759638592E+02  0.27782509456E+02  0.00000000000E+00 0. -1.
</event>
<event>
 4    1  0.3586324E+003  0.4153940E+02  0.7546771E-02  0.1339694E+00
          2   -1    0    0  502    0  0.00000000000E+00  0.00000000000E+00  0.87295710110E+03  0.87295710110E+03  0.00000000000E+00 0.  1.
          1   -1    0    0  501    0 -0.00000000000E+00 -0.00000000000E+00 -0.52064733408E+01  0.52064733408E+01  0.00000000000E+00 0.  1.
          2    1    1    2  501    0  0.24501403304E+02 -0.33544049617E+02  0.77970609646E+03  0.78081183321E+03  0.00000000000E+00 0.  1.
          1    1    1    2  502    0 -0.24501403304E+02  0.33544049617E+02  0.88044531308E+02  0.97351741237E+02  0.00000000000E+00 0.  1.
</event>
<event>
 4    1  0.3586324E+003  0.2334168E+02  0.7546771E-02  0.1488252E+00
          2   -1    0    0  502    0  0.00000000000E+00  0.00000000000E+00  0.87609498098E+03  0.87609498098E+03  0.00000000000E+00 0. -1.
          1   -1    0    0  501    0 -0.00000000000E+00 -0.00000000000E+00 -0.58328065963E+01  0.58328065963E+01  0.00000000000E+00 0. -1.
          2    1    1    2  501    0 -0.10570163116E+02 -0.20811190174E+02  0.85192497169E+03  0.85224467812E+03  0.00000000000E+00 0. -1.
          1    1    1    2  502    0  0.10570163116E+02  0.20811190174E+02  0.18337202695E+02  0.29683109464E+02  0.00000000000E+00 0. -1.
</event>
<event>
 4    1  0.3586324E+003  0.3459129E+02  0.7546771E-02  0.1383459E+00
          2   -1    0    0  502    0  0.00000000000E+00  0.00000000000E+00  0.57587290433E+01  0.57587290433E+01  0.00000000000E+00 0.  1.
          1   -1    0    0  501    0 -0.00000000000E+00 -0.00000000000E+00 -0.28835885801E+03  0.28835885801E+03  0.00000000000E+00 0.  1.
          2    1    1    2  501    0  0.98504203001E+01  0.33159113472E+02 -0.63562531250E+02  0.72365412769E+02  0.00000000000E+00 0.  1.
          1    1    1    2  502    0 -0.98504203001E+01 -0.33159113472E+02 -0.21903759772E+03  0.22175217429E+03  0.00000000000E+00 0.  1.
</event>
<event>
 4    1  0.3586324E+003  0.3397748E+02  0.7546771E-02  0.1387898E+00
          2   -1    0    0  502    0  0.00000000000E+00  0.00000000000E+00  0.28701319352E+03  0.28701319352E+03  0.00000000000E+00 0. -1.
          1   -1    0    0  501    0 -0.00000000000E+00 -0.00000000000E+00 -0.43797522207E+02  0.43797522207E+02  0.00000000000E+00 0.  1.
          2    1    1    2  501    0  0.12982078610E+02 -0.31399599655E+02  0.27923490620E+03  0.28129451125E+03  0.00000000000E+00 0. -1.
          1    1    1    2  502    0 -0.12982078610E+02  0.31399599655E+02 -0.36019234885E+02  0.49516204471E+02  0.00000000000E+00 0.  1.
</event>
<event>
 4    1  0.3586324E+003  0.2522970E+02  0.7546771E-02  0.1466250E+00
          2   -1    0    0  502    0  0.00000000000E+00  0.00000000000E+00  0.59997704524E+03  0.59997704524E+03  0.00000000000E+00 0.  1.
          1   -1    0    0  501    0 -0.00000000000E+00 -0.00000000000E+00 -0.21855818122E+01  0.21855818122E+01  0.00000000000E+00 0. -1.
          2    1    1    2  501    0  0.24229555342E+02 -0.70332442908E+01  0.51487295347E+03  0.51549073327E+03  0.00000000000E+00 0.  1.
          1    1    1    2  502    0 -0.24229555342E+02  0.70332442908E+01  0.82918509958E+02  0.86671893778E+02  0.00000000000E+00 0. -1.
</event>
<event>
 4    1  0.3586324E+003  0.2187002E+02  0.7546771E-02  0.1507197E+00
          2   -1    0    0  502    0  0.00000000000E+00  0.00000000000E+00  0.17730614865E+04  0.17730614865E+04  0.00000000000E+00 0. -1.
          1   -1    0    0  501    0 -0.00000000000E+00 -0.00000000000E+00 -0.60608390620E+00  0.60608390620E+00  0.00000000000E+00 0. -1.
          2    1    1    2  501    0  0.20460469212E+02 -0.77244382309E+01  0.15468541121E+04  0.15470087077E+04  0.00000000000E+00 0. -1.
          1    1    1    2  502    0 -0.20460469212E+02  0.77244382309E+01  0.22560129053E+03  0.22665886269E+03  0.00000000000E+00 0. -1.
</event>
<event>
 4    1  0.3586324E+003  0.6089027E+02  0.7546771E-02  0.1256837E+00
          2   -1    0    0  502    0  0.00000000000E+00  0.00000000000E+00  0.17217457712E+03  0.17217457712E+03  0.00000000000E+00 0. -1.
          1   -1    0    0  501    0 -0.00000000000E+00 -0.00000000000E+00 -0.32956571607E+02  0.32956571607E+02  0.00000000000E+00 0.  1.
          2    1    1    2  501    0 -0.47398394089E+02 -0.38223253888E+02  0.12999143590E+03  0.14354580561E+03  0.00000000000E+00 0. -1.
          1    1    1    2  502    0  0.47398394089E+02  0.38223253888E+02  0.92265696090E+01  0.61585343116E+02  0.00000000000E+00 0.  1.
</event>
<event>
 4    1  0.3586324E+003  0.2642331E+02  0.7546771E-02  0.1453489E+00
          2   -1    0    0  502    0  0.00000000000E+00  0.00000000000E+00  0.52090877158E+03  0.52090877158E+03  0.00000000000E+00 0.  1.
          1   -1    0    0  501    0 -0.00000000000E+00 -0.00000000000E+00 -0.17580196600E+01  0.17580196600E+01  0.00000000000E+00 0. -1.
          2    1    1    2  501    0  0.13802956895E+02 -0.22531522505E+02  0.38695748677E+03  0.38785859239E+03  0.00000000000E+00 0.  1.
          1    1    1    2  502    0 -0.13802956895E+02  0.22531522505E+02  0.13219326515E+03  0.13480819885E+03  0.00000000000E+00 0. -1.
</event>
<event>
 4    1  0.3586324E+003  0.4646276E+02  0.7546771E-02  0.1314283E+00
          2   -1    0    0  502    0  0.00000000000E+00  0.00000000000E+00  0.13082018185E+02  0.13082018185E+02  0.00000000000E+00 0. -1.
          1   -1    0    0  501    0 -0.00000000000E+00 -0.00000000000E+00 -0.77731469017E+03  0.77731469017E+03  0.00000000000E+00 0. -1.
          2    1    1    2  501    0  0.45885187982E+02  0.73032555652E+01 -0.31366791442E+02  0.56059465065E+02  0.00000000000E+00 0. -1.
          1    1    1    2  502    0 -0.45885187982E+02 -0.73032555652E+01 -0.73286588055E+03  0.73433724329E+03  0.00000000000E+00 0. -1.
</event>
<event>
 4    1  0.3586324E+003  0.2041114E+02  0.7546771E-02  0.1527841E+00
          2   -1    0    0  502    0  0.00000000000E+00  0.00000000000E+00  0.28139114145E+02  0.28139114145E+02  0.00000000000E+00 0. -1.
          1   -1    0    0  501    0 -0.00000000000E+00 -0.00000000000E+00 -0.95459905852E+02  0.95459905852E+02  0.00000000000E+00 0.  1.
          2    1    1    2  501    0 -0.16038577735E+02 -0.12624533744E+02  0.23144852985E+02  0.30859342957E+02  0.00000000000E+00 0. -1.
          1    1    1    2  502    0  0.16038577735E+02  0.12624533744E+02 -0.90465644692E+02  0.92739677040E+02  0.00000000000E+00 0.  1.
</event>
<event>
 4    1  0.3586324E+003  0.2150980E+02  0.7546771E-02  0.1512109E+00
          2   -1    0    0  502    0  0.00000000000E+00  0.00000000000E+00  0.11505952673E+01  0.11505952673E+01  0.00000000000E+00 0.  1.
          1   -1    0    0  501    0 -0.00000000000E+00 -0.00000000000E+00 -0.10391428606E+04  0.10391428606E+04  0.00000000000E+00 0. -1.
          2    1    1    2  501    0  0.10366095293E+02 -0.18847165347E+02 -0.11174015480E+03  0.11379162433E+03  0.00000000000E+00 0.  1.
          1    1    1    2  502    0 -0.10366095293E+02  0.18847165347E+02 -0.92625211051E+03  0.92650183151E+03  0.00000000000E+00 0. -1.
</event>
<event>
 4    1  0.3586324E+003  0.3117709E+02  0.7546771E-02  0.1409636E+00
          2   -1    0    0  502    0  0.00000000000E+00  0.00000000000E+00  0.41894724465E+02  0.41894724465E+02  0.00000000000E+00 0. -1.
          1   -1    0    0  501    0 -0.00000000000E+00 -0.00000000000E+00 -0.59846495737E+03  0.59846495737E+03  0.00000000000E+00 0. -1.
          2    1    1    2  501    0 -0.15658784916E+02 -0.26959471814E+02  0.35627017577E+02  0.47342317719E+02  0.00000000000E+00 0. -1.
          1    1    1    2  502    0  0.15658784916E+02  0.26959471814E+02 -0.59219725048E+03  0.59301736411E+03  0.00000000000E+00 0. -1.
</event>
<event>
 4    1  0.3586324E+003  0.4185996E+02  0.7546771E-02  0.1337918E+00
          2   -1    0    0  502    0  0.00000000000E+00  0.00000000000E+00  0.26101999468E+04  0.26101999468E+04  0.00000000000E+00 0. -1.
          1   -1    0    0  501    0 -0.00000000000E+00 -0.00000000000E+00 -0.10418873950E+01  0.10418873950E+01  0.00000000000E+00 0. -1.
          2    1    1    2  501    0 -0.36192070566E+02  0.21033072223E+02  0.20832348727E+04  0.20836553916E+04  0.00000000000E+00 0. -1.
          1    1    1    2  502    0  0.36192070566E+02 -0.21033072223E+02  0.52592318671E+03  0.52758644260E+03  0.00000000000E+00 0. -1.
</event>
<event>
 4    1  0.3586324E+003  0.2624908E+02  0.7546771E-02  0.1455301E+00
          2   -1    0    0  502    0  0.00000000000E+00  0.00000000000E+00  0.92147192801E+01  0.92147192801E+01  0.00000000000E+00 0. -1.
          1   -1    0    0  501    0 -0.00000000000E+00 -0.00000000000E+00 -0.81738159575E+03  0.81738159575E+03  0.00000000000E+00 0.  1.
          2    1    1    2  501    0 -0.24144279691E+02 -0.10298932853E+02 -0.10142638246E+02  0.28140493427E+02  0.00000000000E+00 0. -1.
          1    1    1    2  502    0  0.24144279691E+02  0.10298932853E+02 -0.79802423822E+03  0.79845582160E+03  0.00000000000E+00 0.  1.
</event>
<event>
 4    1  0.3586324E+003  0.3387999E+02  0.7546771E-02  0.1388613E+00
          2   -1    0    0  502    0  0.00000000000E+00  0.00000000000E+00  0.58417132967E+03  0.58417132967E+03  0.00000000000E+00 0. -1.
          1   -1    0    0  501    0 -0.00000000000E+00 -0.00000000000E+00 -0.13329455643E+02  0.13329455643E+02  0.00000000000E+00 0.  1.
          2    1    1    2  501    0  0.33731336417E+02  0.31702802575E+01  0.56127412092E+03  0.56229573407E+03  0.00000000000E+00 0. -1.
          1    1    1    2  502    0 -0.33731336417E+02 -0.31702802575E+01  0.95677530990E+01  0.35205051239E+02  0.00000000000E+00 0.  1.
</event>
<event>
 4    1  0.3586324E+003  0.2849480E+02  0.7546771E-02  0.1433144E+00
          2   -1    0    0  502    0  0.00000000000E+00  0.00000000000E+00  0.16858273633E+04  0.16858273633E+04  0.00000000000E+00 0.  1.
          1   -1    0    0  501    0 -0.00000000000E+00 -0.00000000000E+00 -0.78459816354E+00  0.78459816354E+00  0.00000000000E+00 0. -1.
          2    1    1    2  501    0 -0.96418835018E+01 -0.26813945861E+02  0.13665516684E+04  0.13668487173E+04  0.00000000000E+00 0.  1.
          1    1    1    2  502    0  0.96418835018E+01  0.26813945861E+02  0.31849109675E+03  0.31976324416E+03  0.00000000000E+00 0. -1.
</event>
<event>
 4    1  0.3586324E+003  0.2237434E+02  0.7546771E-02  0.1500508E+00
          2   -1    0    0  502    0  0.00000000000E+00  0.00000000000E+00  0.52429647501E+03  0.52429647501E+03  0.00000000000E+00 0.  1.
          1   -1    0    0  501    0 -0.00000000000E+00 -0.00000000000E+00 -0.10334934917E+01  0.10334934917E+01  0.00000000000E+00 0. -1.
          2    1    1    2  501    0 -0.28522076348E+01 -0.22191802115E+02  0.33410008508E+03  0.33484844037E+03  0.00000000000E+00 0.  1.
          1    1    1    2  502    0  0.28522076348E+01  0.22191802115E+02  0.18916289644E+03  0.19048152814E+03  0.00000000000E+00 0. -1.
</event>
<event>
 4    1  0.3586324E+003  0.2134536E+02  0.7546771E-02  0.1514391E+00
          2   -1    0    0  502    0  0.00000000000E+00  0.00000000000E+00  0.54554320235E+03  0.54554320235E+03  0.00000000000E+00 0. -1.
          1   -1    0    0  501    0 -0.00000000000E+00 -0.00000000000E+00 -0.17629392617E+01  0.17629392617E+01  0.00000000000E+00 0.  1.
          2    1    1    2  501    0  0.37921260475E+01 -0.21005811384E+02  0.47040833993E+03  0.47089237689E+03  0.00000000000E+00 0. -1.
          1    1    1    2  502    0 -0.37921260475E+01  0.21005811384E+02  0.73371923150E+02  0.76413764719E+02  0.00000000000E+00 0.  1.
</event>
<event>
 4    1  0.3586324E+003  0.2432765E+02  0.7546771E-02  0.1476467E+00
          2   -1    0    0  502    0  0.00000000000E+00  0.00000000000E+00  0.13582241323E+03  0.13582241323E+03  0.00000000000E+00 0. -1.
          1   -1    0    0  501    0 -0.00000000000E+00 -0.00000000000E+00 -0.14818458372E+03  0.14818458372E+03  0.00000000000E+00 0.  1.
          2    1    1    2  501    0 -0.11116883360E+02 -0.21639078044E+02  0.13371900528E+03  0.13591396973E+03  0.00000000000E+00 0. -1.
          1    1    1    2  502    0  0.11116883360E+02  0.21639078044E+02 -0.14608117578E+03  0.14809302722E+03  0.00000000000E+00 0.  1.
</event>
<event>
 4    1  0.3586324E+003  0.2612269E+02  0.7546771E-02  0.1456626E+00
          2   -1    0    0  502    0  0.00000000000E+00  0.00000000000E+00  0.77128553160E+03  0.77128553160E+03  0.00000000000E+00 0. -1.
          1   -1    0    0  501    0 -0.00000000000E+00 -0.00000000000E+00 -0.92265711248E+01  0.92265711248E+01  0.00000000000E+00 0. -1.
          2    1    1    2  501    0  0.97017878670E+01  0.24254283342E+02  0.75210295670E+03  0.75255647790E+03  0.00000000000E+00 0. -1.
          1    1    1    2  502    0 -0.97017878670E+01 -0.24254283342E+02  0.99560037730E+01  0.27955624825E+02  0.00000000000E+00 0. -1.
</event>
<event>
 4    1  0.3586324E+003  0.2158285E+02  0.7546771E-02  0.1511104E+00
          2   -1    0    0  502    0  0.00000000000E+00  0.00000000000E+00  0.17575018948E+03  0.17575018948E+03  0.00000000000E+00 0.  1.
          1   -1    0    0  501    0 -0.00000000000E+00 -0.00000000000E+00 -0.62552190996E+01  0.62552190996E+01  0.00000000000E+00 0. -1.
          2    1    1    2  501    0 -0.47284105986E+01  0.21058524336E+02  0.15383045490E+03  0.15533714355E+03  0.00000000000E+00 0.  1.
          1    1    1    2  502    0  0.47284105986E+01 -0.21058524336E+02  0.15664515479E+02  0.26668265020E+02  0.00000000000E+00 0. -1.
</event>
<event>
 4    1  0.3586324E+003  0.2071098E+02  0.7546771E-02  0.1523432E+00
          2   -1    0    0  502    0  0.00000000000E+00  0.00000000000E+00  0.13937951296E+03  0.13937951296E+03  0.00000000000E+00 0.  1.
          1   -1    0    0  501    0 -0.00000000000E+00 -0.00000000000E+00 -0.26371583892E+02  0.26371583892E+02  0.00000000000E+00 0. -1.
          2    1    1    2  501    0 -0.18200515481E+02  0.98836226000E+01  0.13439380916E+03  0.13598029527E+03  0.00000000000E+00 0.  1.
          1    1    1    2  502    0  0.18200515481E+02 -0.98836226000E+01 -0.21385880097E+02  0.29770801584E+02  0.00000000000E+00 0. -1.
</event>
<event>
 4    1  0.3586324E+003  0.6135278E+02  0.7546771E-02  0.1255304E+00
          2   -1    0    0  502    0  0.00000000000E+00  0.00000000000E+00  0.65718428569E+03  0.65718428569E+03  0.00000000000E+00 0. -1.
          1   -1    0    0  501    0 -0.00000000000E+00 -0.00000000000E+00 -0.22909300517E+02  0.22909300517E+02  0.00000000000E+00 0.  1.
          2    1    1    2  501    0  0.32929290887E+02  0.51767033896E+02  0.61162331663E+03  0.61469280575E+03  0.00000000000E+00 0. -1.
          1    1    1    2  502    0 -0.32929290887E+02 -0.51767033896E+02  0.22651668545E+02  0.65400780459E+02  0.00000000000E+00 0.  1.
</event>
<event>
 4    1  0.4991610E+003  0.2821683E+02  0.7546771E-02  0.1435753E+00
          2   -1    0    0  502    0  0.00000000000E+00  0.00000000000E+00  0.89032964408E+03  0.89032964408E+03  0.00000000000E+00 0.  1.
          1   -1    0    0  501    0 -0.00000000000E+00 -0.00000000000E+00 -0.15448794434E+04  0.15448794434E+04  0.00000000000E+00 0. -1.
          2    1    1    2  501    0  0.13151928272E+02  0.24964304800E+02  0.88997718373E+03  0.89042438045E+03  0.00000000000E+00 0.  1.
          1    1    1    2  502    0 -0.13151928272E+02 -0.24964304800E+02 -0.15445269830E+04  0.15447847070E+04  0.00000000000E+00 0. -1.
</event>
<event>
 4    1  0.3586324E+003  0.2699789E+02  0.7546771E-02  0.1447629E+00
          2   -1    0    0  502    0  0.00000000000E+00  0.00000000000E+00  0.12975423811E+03  0.12975423811E+03  0.00000000000E+00 0.  1.
          1   -1    0    0  501    0 -0.00000000000E+00 -0.00000000000E+00 -0.60423726060E+01  0.60423726060E+01  0.00000000000E+00 0.  1.
          2    1    1    2  501    0 -0.17824601545E+02 -0.20277315938E+02  0.79861960344E+02  0.84301949395E+02  0.00000000000E+00 0.  1.
          1    1    1    2  502    0  0.17824601545E+02  0.20277315938E+02  0.43849905156E+02  0.51494661317E+02  0.00000000000E+00 0.  1.
</event>
<event>
 4    1  0.3586324E+003  0.2048095E+02  0.7546771E-02  0.1526806E+00
          2   -1    0    0  502    0  0.00000000000E+00  0.00000000000E+00  0.38077466938E+03  0.38077466938E+03  0.00000000000E+00 0. -1.
          1   -1    0    0  501    0 -0.00000000000E+00 -0.00000000000E+00 -0.22581613527E+01  0.22581613527E+01  0.00000000000E+00 0. -1.
          2    1    1    2  501    0 -0.14095282734E+02 -0.14859081432E+02  0.32631769358E+03  0.32695979331E+03  0.00000000000E+00 0. -1.
          1    1    1    2  502    0  0.14095282734E+02  0.14859081432E+02  0.52198814448E+02  0.56073037425E+02  0.00000000000E+00 0. -1.
</event>
<event>
 4    1  0.3586324E+003  0.2191735E+02  0.7546771E-02  0.1506560E+00
          2   -1    0    0  502    0  0.00000000000E+00  0.00000000000E+00  0.72960769569E+03  0.72960769569E+03  0.00000000000E+00 0. -1.
          1   -1    0    0  501    0 -0.00000000000E+00 -0.00000000000E+00 -0.65839723165E+00  0.65839723165E+00  0.00000000000E+00 0. -1.
          2    1    1    2  501    0 -0.14744783363E+02 -0.16216072953E+02  0.36372430692E+03  0.36438405715E+03  0.00000000000E+00 0. -1.
          1    1    1    2  502    0  0.14744783363E+02  0.16216072953E+02  0.36522499153E+03  0.36588203577E+03  0.00000000000E+00 0. -1.
</event>
<event>
 4    1  0.3586324E+003  0.2072129E+02  0.7546771E-02  0.1523282E+00
          2   -1    0    0  502    0  0.00000000000E+00  0.00000000000E+00  0.58044879934E+02  0.58044879934E+02  0.00000000000E+00 0. -1.
          1   -1    0    0  501    0 -0.00000000000E+00 -0.00000000000E+00 -0.30705329214E+02  0.30705329214E+02  0.00000000000E+00 0. -1.
          2    1    1    2  501    0  0.19156810205E+02 -0.78986486533E+01  0.52331909833E+02  0.56284996354E+02  0.00000000000E+00 0. -1.
          1    1    1    2  502    0 -0.19156810205E+02  0.78986486533E+01 -0.24992359112E+02  0.32465212794E+02  0.00000000000E+00 0. -1.
</event>
<event>
 4    1  0.3586324E+003  0.2164134E+02  0.7546771E-02  0.1510302E+00
          2   -1    0    0  502    0  0.00000000000E+00  0.00000000000E+00  0.48310029070E+00  0.48310029070E+00  0.00000000000E+00 0.  1.
          1   -1    0    0  501    0 -0.00000000000E+00 -0.00000000000E+00 -0.10805640701E+04  0.10805640701E+04  0.00000000000E+00 0. -1.
          2    1    1    2  501    0  0.27011490413E+01  0.21472107622E+02 -0.36672015758E+03  0.36735816527E+03  0.00000000000E+00 0.  1.
          1    1    1    2  502    0 -0.27011490413E+01 -0.21472107622E+02 -0.71336081227E+03  0.71368900517E+03  0.00000000000E+00 0. -1.
</event>
<event>
 4    1  0.3586324E+003  0.2313251E+02  0.7546771E-02  0.1490841E+00
          2   -1    0    0  502    0  0.00000000000E+00  0.00000000000E+00  0.45834258138E+02  0.45834258138E+02  0.00000000000E+00 0. -1.
          1   -1    0    0  501    0 -0.00000000000E+00 -0.00000000000E+00 -0.28418743541E+03  0.28418743541E+03  0.00000000000E+00 0.  1.
          2    1    1    2  501    0  0.23029602129E+01 -0.23017584148E+02  0.42409235094E+02  0.48307929235E+02  0.00000000000E+00 0. -1.
          1    1    1    2  502    0 -0.23029602129E+01  0.23017584148E+02 -0.28076241237E+03  0.28171376432E+03  0.00000000000E+00 0.  1.
</event>
<event>
 4    1  0.3586324E+003  0.3519001E+02  0.7546771E-02  0.1379232E+00
          2   -1    0    0  502    0  0.00000000000E+00  0.00000000000E+00  0.57576188197E+03  0.57576188197E+03  0.00000000000E+00 0. -1.
          1   -1    0    0  501    0 -0.00000000000E+00 -0.00000000000E+00 -0.69861655611E+01  0.69861655611E+01  0.00000000000E+00 0.  1.
          2    1    1    2  501    0 -0.14638138693E+02 -0.32000961200E+02  0.52679588129E+03  0.52796992070E+03  0.00000000000E+00 0. -1.
          1    1    1    2  502    0  0.14638138693E+02  0.32000961200E+02  0.41979835114E+02  0.54778126824E+02  0.00000000000E+00 0.  1.
</event>
<event>
 4    1  0.3586324E+003  0.2441759E+02  0.7546771E-02  0.1475425E+00
          2   -1    0    0  502    0  0.00000000000E+00  0.00000000000E+00  0.18319741911E+04  0.18319741911E+04  0.00000000000E+00 0. -1.
          1   -1    0    0  501    0 -0.00000000000E+00 -0.00000000000E+00 -0.37634748421E+01  0.37634748421E+01  0.00000000000E+00 0.  1.
          2    1    1    2  501    0  0.18116250826E+02 -0.16371325772E+02  0.17913899901E+04  0.17915563947E+04  0.00000000000E+00 0. -1.
          1    1    1    2  502    0 -0.18116250826E+02  0.16371325772E+02  0.36820726159E+02  0.44181271218E+02  0.00000000000E+00 0.  1.
</event>
<event>
 4    1  0.3586324E+003  0.2354759E+02  0.7546771E-02  0.1485734E+00
          2   -1    0    0  502    0  0.00000000000E+00  0.00000000000E+00  0.15113270838E+02  0.15113270838E+02  0.00000000000E+00 0.  1.
          1   -1    0    0  501    0 -0.00000000000E+00 -0.00000000000E+00 -0.96258196461E+02  0.96258196461E+02  0.00000000000E+00 0.  1.
          2    1    1    2  501    0  0.68674711585E+01 -0.22523917275E+02  0.32338184184E+01  0.23768605156E+02  0.00000000000E+00 0.  1.
          1    1    1    2  502    0 -0.68674711585E+01  0.22523917275E+02 -0.84378744042E+02  0.87602862143E+02  0.00000000000E+00 0.  1.
</event>
<event>
 4    1  0.3586324E+003  0.3259307E+02  0.7546771E-02  0.1398323E+00
          2   -1    0    0  502    0  0.00000000000E+00  0.00000000000E+00  0.67880091303E+01  0.67880091303E+01  0.00000000000E+00 0.  1.
          1   -1    0    0  501    0 -0.00000000000E+00 -0.00000000000E+00 -0.56367359127E+03  0.56367359127E+03  0.00000000000E+00 0. -1.
          2    1    1    2  501    0  0.12210376013E+02  0.30219446308E+02 -0.36019929927E+02  0.48577191865E+02  0.00000000000E+00 0.  1.
          1    1    1    2  502    0 -0.12210376013E+02 -0.30219446308E+02 -0.52086565221E+03  0.52188440853E+03  0.00000000000E+00 0. -1.
</event>
<event>
 4    1  0.3586324E+003  0.4311284E+02  0.7546771E-02  0.1331151E+00
          2   -1    0    0  502    0  0.00000000000E+00  0.00000000000E+00  0.19329266435E+03  0.19329266435E+03  0.00000000000E+00 0. -1.
          1   -1    0    0  501    0 -0.00000000000E+00 -0.00000000000E+00 -0.38699853267E+02  0.38699853267E+02  0.00000000000E+00 0. -1.
          2    1    1    2  501    0 -0.13847747988E+02 -0.40828385021E+02  0.17785396409E+03  0.18300478051E+03  0.00000000000E+00 0. -1.
          1    1    1    2  502    0  0.13847747988E+02  0.40828385021E+02 -0.23261153004E+02  0.48987737107E+02  0.00000000000E+00 0. -1.
</event>
<event>
 4    1  0.3586324E+003  0.3866027E+02  0.7546771E-02  0.1356521E+00
          2   -1    0    0  502    0  0.00000000000E+00  0.00000000000E+00  0.85837769780E+03  0.85837769780E+03  0.00000000000E+00 0.  1.
          1   -1    0    0  501    0 -0.00000000000E+00 -0.00000000000E+00 -0.17431443795E+01  0.17431443795E+01  0.00000000000E+00 0.  1.
          2    1    1    2  501    0 -0.32871298101E+02  0.20349304303E+02  0.44264100396E+03  0.44432609062E+03  0.00000000000E+00 0.  1.
          1    1    1    2  502    0  0.32871298101E+02 -0.20349304303E+02  0.41399354947E+03  0.41579475156E+03  0.00000000000E+00 0.  1.
</event>
<event>
 4    1  0.3586324E+003  0.3790593E+02  0.7546771E-02  0.1361214E+00
          2   -1    0    0  502    0  0.00000000000E+00  0.00000000000E+00  0.47622816198E+02  0.47622816198E+02  0.00000000000E+00 0.  1.
          1   -1    0    0  501    0 -0.00000000000E+00 -0.00000000000E+00 -0.45933169185E+02  0.45933169185E+02  0.00000000000E+00 0. -1.
          2    1    1    2  501    0  0.20428492151E+02  0.31930183307E+02  0.28246500171E+02  0.47272874563E+02  0.00000000000E+00 0.  1.
          1    1    1    2  502    0 -0.20428492151E+02 -0.31930183307E+02 -0.26556853158E+02  0.46283110820E+02  0.00000000000E+00 0. -1.
</event>
<event>
 4    1  0.3586324E+003  0.2070011E+02  0.7546771E-02  0.1523590E+00
          2   -1    0    0  502    0  0.00000000000E+00  0.00000000000E+00  0.12771032118E+03  0.12771032118E+03  0.00000000000E+00 0.  1.
          1   -1    0    0  501    0 -0.00000000000E+00 -0.00000000000E+00 -0.34839805442E+01  0.34839805442E+01  0.00000000000E+00 0.  1.
          2    1    1    2  501    0  0.11437014907E+02 -0.17253661684E+02  0.49501695362E+02  0.53655493616E+02  0.00000000000E+00 0.  1.
          1    1    1    2  502    0 -0.11437014907E+02  0.17253661684E+02  0.74724645269E+02  0.77538808103E+02  0.00000000000E+00 0.  1.
</event>
<event>
 4    1  0.3586324E+003  0.2615091E+02  0.7546771E-02  0.1456329E+00
          2   -1    0    0  502    0  0.00000000000E+00  0.00000000000E+00  0.95701020644E+03  0.95701020644E+03  0.00000000000E+00 0. -1.
          1   -1    0    0  501    0 -0.00000000000E+00 -0.00000000000E+00 -0.12145081472E+01  0.12145081472E+01  0.00000000000E+00 0.  1.
          2    1    1    2  501    0 -0.24125515019E+02  0.10091067094E+02  0.78528557538E+03  0.78572088238E+03  0.00000000000E+00 0. -1.
          1    1    1    2  502    0  0.24125515019E+02 -0.10091067094E+02  0.17051012291E+03  0.17250383220E+03  0.00000000000E+00 0.  1.
</event>
<event>
 4    1  0.3586324E+003  0.3412359E+02  0.7546771E-02  0.1386831E+00
          2   -1    0    0  502    0  0.00000000000E+00  0.00000000000E+00  0.58725007262E+01  0.58725007262E+01  0.00000000000E+00 0. -1.
          1   -1    0    0  501    0 -0.00000000000E+00 -0.00000000000E+00 -0.65779774797E+03  0.65779774797E+03  0.00000000000E+00 0.  1.
          2    1    1    2  501    0 -0.26314257097E+01  0.34021982202E+02 -0.48614214233E+02  0.59394961905E+02  0.00000000000E+00 0. -1.
          1    1    1    2  502    0  0.26314257097E+01 -0.34021982202E+02 -0.60331103301E+03  0.60427528679E+03  0.00000000000E+00 0.  1.
</event>
<event>
 4    1  0.3586324E+003  0.2459590E+02  0.7546771E-02  0.1473375E+00
          2   -1    0    0  502    0  0.00000000000E+00  0.00000000000E+00  0.39285026602E+03  0.39285026602E+03  0.00000000000E+00 0.  1.
          1   -1    0    0  501    0 -0.00000000000E+00 -0.00000000000E+00 -0.10621919811E+02  0.10621919811E+02  0.00000000000E+00 0.  1.
          2    1    1    2  501    0 -0.23781718718E+02 -0.62759967473E+01  0.37765453815E+03  0.37845463198E+03  0.00000000000E+00 0.  1.
          1    1    1    2  502    0  0.23781718718E+02  0.62759967473E+01  0.45738080536E+01  0.25017553847E+02  0.00000000000E+00 0.  1.
</event>
<event>
 4    1  0.3586324E+003  0.2584704E+02  0.7546771E-02  0.1459547E+00
          2   -1    0    0  502    0  0.00000000000E+00  0.00000000000E+00  0.13199169569E+03  0.13199169569E+03  0.00000000000E+00 0. -1.
          1   -1    0    0  501    0 -0.00000000000E+00 -0.00000000000E+00 -0.78769623458E+01  0.78769623458E+01  0.00000000000E+00 0.  1.
          2    1    1    2  501    0 -0.18965099642E+02  0.17561164266E+02  0.10386828165E+03  0.10703592588E+03  0.00000000000E+00 0. -1.
          1    1    1    2  502    0  0.18965099642E+02 -0.17561164266E+02  0.20246451686E+02  0.32832732153E+02  0.00000000000E+00 0.  1.
</event>
<event>
 4    1  0.3586324E+003  0.5786455E+02  0.7546771E-02  0.1267266E+00
          2   -1    0    0  502    0  0.00000000000E+00  0.00000000000E+00  0.15373909358E+03  0.15373909358E+03  0.00000000000E+00 0. -1.
          1   -1    0    0  501    0 -0.00000000000E+00 -0.00000000000E+00 -0.26600103458E+04  0.26600103458E+04  0.00000000000E+00 0. -1.
          2    1    1    2  501    0 -0.47905031446E+02 -0.32456347119E+02  0.14796777968E+03  0.15887973543E+03  0.00000000000E+00 0. -1.
          1    1    1    2  502    0  0.47905031446E+02  0.32456347119E+02 -0.26542390319E+04  0.26548697039E+04  0.00000000000E+00 0. -1.
</event>
<event>
 4    1  0.3586324E+003  0.3486996E+02  0.7546771E-02  0.1381480E+00
          2   -1    0    0  502    0  0.00000000000E+00  0.00000000000E+00  0.20183055109E+03  0.20183055109E+03  0.00000000000E+00 0. -1.
          1   -1    0    0  501    0 -0.00000000000E+00 -0.00000000000E+00 -0.33288700544E+03  0.33288700544E+03  0.00000000000E+00 0.  1.
          2    1    1    2  501    0  0.33084973816E+02  0.11013550775E+02  0.19940023998E+03  0.20242620754E+03  0.00000000000E+00 0. -1.
          1    1    1    2  502    0 -0.33084973816E+02 -0.11013550775E+02 -0.33045669432E+03  0.33229134899E+03  0.00000000000E+00 0.  1.
</event>
<event>
 4    1  0.3586324E+003  0.2117104E+02  0.7546771E-02  0.1516837E+00
          2   -1    0    0  502    0  0.00000000000E+00  0.00000000000E+00  0.50607487700E+01  0.50607487700E+01  0.00000000000E+00 0. -1.
          1   -1    0    0  501    0 -0.00000000000E+00 -0.00000000000E+00 -0.17314250851E+03  0.17314250851E+03  0.00000000000E+00 0. -1.
          2    1    1    2  501    0 -0.35159635875E+01 -0.20877045044E+02 -0.21766805805E+02  0.30364565610E+02  0.00000000000E+00 0. -1.
          1    1    1    2  502    0  0.35159635875E+01  0.20877045044E+02 -0.14631495394E+03  0.14783869167E+03  0.00000000000E+00 0. -1.
</event>
<event>
 4    1  0.3586324E+003  0.2342677E+02  0.7546771E-02  0.1487208E+00
          2   -1    0    0  502    0  0.00000000000E+00  0.00000000000E+00  0.20108469825E+03  0.20108469825E+03  0.00000000000E+00 0.  1.
          1   -1    0    0  501    0 -0.00000000000E+00 -0.00000000000E+00 -0.64285756710E+01  0.64285756710E+01  0.00000000000E+00 0.  1.
          2    1    1    2  501    0  0.21747144986E+02  0.87106272252E+01  0.17603607173E+03  0.17758803983E+03  0.00000000000E+00 0.  1.
          1    1    1    2  502    0 -0.21747144986E+02 -0.87106272252E+01  0.18620050855E+02  0.29925234093E+02  0.00000000000E+00 0.  1.
</event>
<event>
 4    1  0.3586324E+003  0.2808947E+02  0.7546771E-02  0.1436961E+00
          2   -1    0    0  502    0  0.00000000000E+00  0.00000000000E+00  0.20960283503E+04  0.20960283503E+04  0.00000000000E+00 0.  1.
          1   -1    0    0  501    0 -0.00000000000E+00 -0.00000000000E+00 -0.39923006147E+00  0.39923006147E+00  0.00000000000E+00 0.  1.
          2    1    1    2  501    0  0.27759082452E+02  0.42955200654E+01  0.12982869798E+04  0.12985908132E+04  0.00000000000E+00 0.  1.
          1    1    1    2  502    0 -0.27759082452E+02 -0.42955200654E+01  0.79734214042E+03  0.79783676717E+03  0.00000000000E+00 0.  1.
</event>
<event>
 4    1  0.3586324E+003  0.2167038E+02  0.7546771E-02  0.1509905E+00
          2   -1    0    0  502    0  0.00000000000E+00  0.00000000000E+00  0.55009783852E+00  0.55009783852E+00  0.00000000000E+00 0.  1.
          1   -1    0    0  501    0 -0.00000000000E+00 -0.00000000000E+00 -0.89034269795E+03  0.89034269795E+03  0.00000000000E+00 0.  1.
          2    1    1    2  501    0 -0.20307105329E+02 -0.75648533701E+01 -0.35450003644E+03  0.35516176789E+03  0.00000000000E+00 0.  1.
          1    1    1    2  502    0  0.20307105329E+02  0.75648533701E+01 -0.53529256367E+03  0.53573102790E+03  0.00000000000E+00 0.  1.
</event>
<event>
 4    1  0.3586324E+003  0.4062808E+02  0.7546771E-02  0.1344844E+00
          2   -1    0    0  502    0  0.00000000000E+00  0.00000000000E+00  0.27042996810E+03  0.27042996810E+03  0.00000000000E+00 0. -1.
          1   -1    0    0  501    0 -0.00000000000E+00 -0.00000000000E+00 -0.10404355427E+02  0.10404355427E+02  0.00000000000E+00 0. -1.
          2    1    1    2  501    0  0.39244995843E+02 -0.10510512041E+02  0.22028972335E+03  0.22400491686E+03  0.00000000000E+00 0. -1.
          1    1    1    2  502    0 -0.39244995843E+02  0.10510512041E+02  0.39735889315E+02  0.56829406664E+02  0.00000000000E+00 0. -1.
</event>
<event>
 4    1  0.3586324E+003  0.2447704E+02  0.7546771E-02  0.1474740E+00
          2   -1    0    0  502    0  0.00000000000E+00  0.00000000000E+00  0.12876612288E+04  0.12876612288E+04  0.00000000000E+00 0.  1.
          1   -1    0    0  501    0 -0.00000000000E+00 -0.00000000000E+00 -0.11467292513E+01  0.11467292513E+01  0.00000000000E+00 0.  1.
          2    1    1    2  501    0  0.12859466812E+02 -0.20826892301E+02  0.11400142032E+04  0.11402769439E+04  0.00000000000E+00 0.  1.
          1    1    1    2  502    0 -0.12859466812E+02  0.20826892301E+02  0.14650029633E+03  0.14853101412E+03  0.00000000000E+00 0.  1.
</event>
<event>
 4    1  0.3586324E+003  0.2343904E+02  0.7546771E-02  0.1487058E+00
          2   -1    0    0  502    0  0.00000000000E+00  0.00000000000E+00  0.53767765675E+03  0.53767765675E+03  0.00000000000E+00 0. -1.
          1   -1    0    0  501    0 -0.00000000000E+00 -0.00000000000E+00 -0.78432634467E+02  0.78432634467E+02  0.00000000000E+00 0.  1.
          2    1    1    2  501    0  0.23382674202E+02  0.16245023146E+01  0.53566448599E+03  0.53617705099E+03  0.00000000000E+00 0. -1.
          1    1    1    2  502    0 -0.23382674202E+02 -0.16245023146E+01 -0.76419463703E+02  0.79933240228E+02  0.00000000000E+00 0.  1.
</event>
<event>
 4    1  0.3586324E+003  0.2958957E+02  0.7546771E-02  0.1423197E+00
          2   -1    0    0  502    0  0.00000000000E+00  0.00000000000E+00  0.11426941785E+03  0.11426941785E+03  0.00000000000E+00 0. -1.
          1   -1    0    0  501    0 -0.00000000000E+00 -0.00000000000E+00 -0.32617353173E+02  0.32617353173E+02  0.00000000000E+00 0. -1.
          2    1    1    2  501    0  0.23108552140E+02 -0.18480733354E+02  0.10506660415E+03  0.10915371727E+03  0.00000000000E+00 0. -1.
          1    1    1    2  502    0 -0.23108552140E+02  0.18480733354E+02 -0.23414539465E+02  0.37733053755E+02  0.00000000000E+00 0. -1.
</event>
<event>
 4    1  0.3586324E+003  0.2794044E+02  0.7546771E-02  0.1438383E+00
          2   -1    0    0  502    0  0.00000000000E+00  0.00000000000E+00  0.65021158581E+02  0.65021158581E+02  0.00000000000E+00 0. -1.
          1   -1    0    0  501    0 -0.00000000000E+00 -0.00000000000E+00 -0.13782233011E+04  0.13782233011E+04  0.00000000000E+00 0.  1.
          2    1    1    2  501    0  0.20792145080E+02 -0.18664272667E+02  0.61871081777E+02  0.67887400389E+02  0.00000000000E+00 0. -1.
          1    1    1    2  502    0 -0.20792145080E+02  0.18664272667E+02 -0.13750732243E+04  0.13753570593E+04  0.00000000000E+00 0.  1.
</event>
<event>
 4    1  0.3586324E+003  0.2349631E+02  0.7546771E-02  0.1486358E+00
          2   -1    0    0  502    0  0.00000000000E+00  0.00000000000E+00  0.10838851801E+04  0.10838851801E+04  0.00000000000E+00 0. -1.
          1   -1    0    0  501    0 -0.00000000000E+00 -0.00000000000E+00 -0.93143974828E+01  0.93143974828E+01  0.00000000000E+00 0.  1.
          2    1    1    2  501    0  0.21002862447E+02 -0.10533580598E+02  0.10687299141E+04  0.10689881692E+04  0.00000000000E+00 0. -1.
          1    1    1    2  502    0 -0.21002862447E+02  0.10533580598E+02  0.58408684981E+01  0.24211408385E+02  0.00000000000E+00 0.  1.
</event>
<event>
 4    1  0.3586324E+003  0.2304153E+02  0.7546771E-02  0.1491977E+00
          2   -1    0    0  502    0  0.00000000000E+00  0.00000000000E+00  0.76449153664E+01  0.76449153664E+01  0.00000000000E+00 0. -1.
          1   -1    0    0  501    0 -0.00000000000E+00 -0.00000000000E+00 -0.14031658474E+04  0.14031658474E+04  0.00000000000E+00 0.  1.
          2    1    1    2  501    0 -0.43912780951E+01 -0.22619208559E+02 -0.10032783244E+02  0.25131029799E+02  0.00000000000E+00 0. -1.
          1    1    1    2  502    0  0.43912780951E+01  0.22619208559E+02 -0.13854881488E+04  0.13856797329E+04  0.00000000000E+00 0.  1.
</event>
<event>
 4    1  0.3586324E+003  0.2112332E+02  0.7546771E-02  0.1517511E+00
          2   -1    0    0  502    0  0.00000000000E+00  0.00000000000E+00  0.36437040791E+03  0.36437040791E+03  0.00000000000E+00 0. -1.
          1   -1    0    0  501    0 -0.00000000000E+00 -0.00000000000E+00 -0.90767586209E+01  0.90767586209E+01  0.00000000000E+00 0. -1.
          2    1    1    2  501    0  0.20152147510E+02 -0.63313262250E+01  0.35131862976E+03  0.35195308545E+03  0.00000000000E+00 0. -1.
          1    1    1    2  502    0 -0.20152147510E+02  0.63313262250E+01  0.39750195226E+01  0.21494081075E+02  0.00000000000E+00 0. -1.
</event>
<event>
 4    1  0.3586324E+003  0.2493254E+02  0.7546771E-02  0.1469559E+00
          2   -1    0    0  502    0  0.00000000000E+00  0.00000000000E+00  0.70533925291E+03  0.70533925291E+03  0.00000000000E+00 0.  1.
          1   -1    0    0  501    0 -0.00000000000E+00 -0.00000000000E+00 -0.50510513571E+01  0.50510513571E+01  0.00000000000E+00 0. -1.
          2    1    1    2  501    0 -0.22083709227E+02  0.11573308310E+02  0.67286717744E+03  0.67332894647E+03  0.00000000000E+00 0.  1.
          1    1    1    2  502    0  0.22083709227E+02 -0.11573308310E+02  0.27421024117E+02  0.37061357801E+02  0.00000000000E+00 0. -1.
</event>
<event>
 4    1  0.3586324E+003  0.2169464E+02  0.7546771E-02  0.1509574E+00
          2   -1    0    0  502    0  0.00000000000E+00  0.00000000000E+00  0.78035294512E+03  0.78035294512E+03  0.00000000000E+00 0.  1.
          1   -1    0    0  501    0 -0.00000000000E+00 -0.00000000000E+00 -0.12238597931E+03  0.12238597931E+03  0.00000000000E+00 0.  1.
          2    1    1    2  501    0 -0.19686305147E+02 -0.91162941631E+01  0.77923936771E+03  0.77954130719E+03  0.00000000000E+00 0.  1.
          1    1    1    2  502    0  0.19686305147E+02  0.91162941631E+01 -0.12127240190E+03  0.12319761723E+03  0.00000000000E+00 0.  1.
</event>
<event>
 4    1  0.3586324E+003  0.2551512E+02  0.7546771E-02  0.1463122E+00
          2   -1    0    0  502    0  0.00000000000E+00  0.00000000000E+00  0.10167552327E+04  0.10167552327E+04  0.00000000000E+00 0. -1.
          1   -1    0    0  501    0 -0.00000000000E+00 -0.00000000000E+00 -0.22478942991E+01  0.22478942991E+01  0.00000000000E+00 0.  1.
          2    1    1    2  501    0 -0.56803546457E+01  0.24874788301E+02  0.93812412621E+03  0.93847104254E+03  0.00000000000E+00 0. -1.
          1    1    1    2  502    0  0.56803546457E+01 -0.24874788301E+02  0.76383212232E+02  0.80532084493E+02  0.00000000000E+00 0.  1.
</event>
<event>
 4    1  0.3586324E+003  0.4717725E+02  0.7546771E-02  0.1310898E+00
          2   -1    0    0  502    0  0.00000000000E+00  0.00000000000E+00  0.59367429235E+03  0.59367429235E+03  0.00000000000E+00 0.  1.
          1   -1    0    0  501    0 -0.00000000000E+00 -0.00000000000E+00 -0.18642471712E+03  0.18642471712E+03  0.00000000000E+00 0. -1.
          2    1    1    2  501    0  0.45262341957E+02 -0.13304646343E+02  0.58973241256E+03  0.59161643962E+03  0.00000000000E+00 0.  1.
          1    1    1    2  502    0 -0.45262341957E+02  0.13304646343E+02 -0.18248283733E+03  0.18848256984E+03  0.00000000000E+00 0. -1.
</event>
<event>
 4    1  0.3586324E+003  0.3064422E+02  0.7546771E-02  0.1414079E+00
          2   -1    0    0  502    0  0.00000000000E+00  0.00000000000E+00  0.63932013560E+03  0.63932013560E+03  0.00000000000E+00 0.  1.
          1   -1    0    0  501    0 -0.00000000000E+00 -0.00000000000E+00 -0.17102162884E+02  0.17102162884E+02  0.00000000000E+00 0.  1.
          2    1    1    2  501    0  0.22383899694E+02 -0.20929149673E+02  0.62490921651E+03  0.62566012911E+03  0.00000000000E+00 0.  1.
          1    1    1    2  502    0 -0.22383899694E+02  0.20929149673E+02 -0.26912437989E+01  0.30762169376E+02  0.00000000000E+00 0.  1.
</event>
<event>
 4    1  0.3586324E+003  0.2099126E+02  0.7546771E-02  0.1519390E+00
          2   -1    0    0  502    0  0.00000000000E+00  0.00000000000E+00  0.58083991694E+00  0.58083991694E+00  0.00000000000E+00 0.  1.
          1   -1    0    0  501    0 -0.00000000000E+00 -0.00000000000E+00 -0.77262390750E+03  0.77262390750E+03  0.00000000000E+00 0.  1.
          2    1    1    2  501    0 -0.14825695649E+02 -0.14860398984E+02 -0.43808267018E+03  0.43858529230E+03  0.00000000000E+00 0.  1.
          1    1    1    2  502    0  0.14825695649E+02  0.14860398984E+02 -0.33396039740E+03  0.33461945512E+03  0.00000000000E+00 0.  1.
</event>
<event>
 4    1  0.3586324E+003  0.2367543E+02  0.7546771E-02  0.1484187E+00
          2   -1    0    0  502    0  0.00000000000E+00  0.00000000000E+00  0.23003652765E+03  0.23003652765E+03  0.00000000000E+00 0. -1.
          1   -1    0    0  501    0 -0.00000000000E+00 -0.00000000000E+00 -0.11050139213E+02  0.11050139213E+02  0.00000000000E+00 0. -1.
          2    1    1    2  501    0 -0.22715727435E+02  0.66724627541E+01  0.21591927138E+03  0.21721339228E+03  0.00000000000E+00 0. -1.
          1    1    1    2  502    0  0.22715727435E+02 -0.66724627541E+01  0.30671170528E+01  0.23873274579E+02  0.00000000000E+00 0. -1.
</event>
<event>
 4    1  0.3586324E+003  0.2031105E+02  0.7546771E-02  0.1529333E+00
          2   -1    0    0  502    0  0.00000000000E+00  0.00000000000E+00  0.49100240499E+03  0.49100240499E+03  0.00000000000E+00 0. -1.
          1   -1    0    0  501    0 -0.00000000000E+00 -0.00000000000E+00 -0.22810402406E+02  0.22810402406E+02  0.00000000000E+00 0. -1.
          2    1    1    2  501    0  0.17596350125E+02 -0.10144311115E+02  0.48622657857E+03  0.48665061830E+03  0.00000000000E+00 0. -1.
          1    1    1    2  502    0 -0.17596350125E+02  0.10144311115E+02 -0.18034575982E+02  0.27162189098E+02  0.00000000000E+00 0. -1.
</event>
<event>
 4    1  0.3586324E+003  0.2170309E+02  0.7546771E-02  0.1509459E+00
          2   -1    0    0  502    0  0.00000000000E+00  0.00000000000E+00  0.24051308825E+03  0.24051308825E+03  0.00000000000E+00 0. -1.
          1   -1    0    0  501    0 -0.00000000000E+00 -0.00000000000E+00 -0.30366518060E+01  0.30366518060E+01  0.00000000000E+00 0. -1.
          2    1    1    2  501    0 -0.60851437527E+01  0.20832550569E+02  0.19130159846E+03  0.19252876593E+03  0.00000000000E+00 0. -1.
          1    1    1    2  502    0  0.60851437527E+01 -0.20832550569E+02  0.46174837977E+02  0.51020974118E+02  0.00000000000E+00 0. -1.
</event>
<event>
 4    1  0.3586324E+003  0.2115885E+02  0.7546771E-02  0.1517009E+00
          2   -1    0    0  502    0  0.00000000000E+00  0.00000000000E+00  0.39613678136E+03  0.39613678136E+03  0.00000000000E+00 0. -1.
          1   -1    0    0  501    0 -0.00000000000E+00 -0.00000000000E+00 -0.25266216548E+01  0.25266216548E+01  0.00000000000E+00 0.  1.
          2    1    1    2  501    0  0.21156127830E+02 -0.33922254759E+00  0.34499587122E+03  0.34564410594E+03  0.00000000000E+00 0. -1.
          1    1    1    2  502    0 -0.21156127830E+02  0.33922254759E+00  0.48614288488E+02  0.53019297071E+02  0.00000000000E+00 0.  1.
</event>
<event>
 4    1  0.3586324E+003  0.2996794E+02  0.7546771E-02  0.1419875E+00
          2   -1    0    0  502    0  0.00000000000E+00  0.00000000000E+00  0.11591979089E+03  0.11591979089E+03  0.00000000000E+00 0.  1.
          1   -1    0    0  501    0 -0.00000000000E+00 -0.00000000000E+00 -0.97499333223E+01  0.97499333223E+01  0.00000000000E+00 0. -1.
          2    1    1    2  501    0  0.20775376908E+02 -0.21597713629E+02  0.81561600052E+02  0.86892877284E+02  0.00000000000E+00 0.  1.
          1    1    1    2  502    0 -0.20775376908E+02  0.21597713629E+02  0.24608257514E+02  0.38776846926E+02  0.00000000000E+00 0. -1.
</event>
<event>
 4    1  0.3586324E+003  0.2367380E+02  0.7546771E-02  0.1484206E+00
          2   -1    0    0  502    0  0.00000000000E+00  0.00000000000E+00  0.43799109528E+01  0.43799109528E+01  0.00000000000E+00 0. -1.
          1   -1    0    0  501    0 -0.00000000000E+00 -0.00000000000E+00 -0.19503285317E+03  0.19503285317E+03  0.00000000000E+00 0. -1.
          2    1    1    2  501    0 -0.88105963163E+01  0.21973215059E+02 -0.36854750379E+02  0.43803212359E+02  0.00000000000E+00 0. -1.
          1    1    1    2  502    0  0.88105963163E+01 -0.21973215059E+02 -0.15379819184E+03  0.15560955177E+03  0.00000000000E+00 0. -1.
</event>
<event>
 4    1  0.3586324E+003  0.2984446E+02  0.7546771E-02  0.1420953E+00
          2   -1    0    0  502    0  0.00000000000E+00  0.00000000000E+00  0.41604196573E+03  0.41604196573E+03  0.00000000000E+00 0.  1.
          1   -1    0    0  501    0 -0.00000000000E+00 -0.00000000000E+00 -0.69471659191E+02  0.69471659191E+02  0.00000000000E+00 0. -1.
          2    1    1    2  501    0 -0.63753190275E+01  0.29155566976E+02  0.41227224431E+03  0.41335105565E+03  0.00000000000E+00 0.  1.
          1    1    1    2  502    0  0.63753190275E+01 -0.29155566976E+02 -0.65701937765E+02  0.72162569276E+02  0.00000000000E+00 0. -1.
</event>
<event>
 4    1  0.3586324E+003  0.3610213E+02  0.7546771E-02  0.1372976E+00
          2   -1    0    0  502    0  0.00000000000E+00  0.00000000000E+00  0.93334506161E+02  0.93334506161E+02  0.00000000000E+00 0. -1.
          1   -1    0    0  501    0 -0.00000000000E+00 -0.00000000000E+00 -0.16548260327E+02  0.16548260327E+02  0.00000000000E+00 0.  1.
          2    1    1    2  501    0  0.29815605336E+02  0.20356662276E+02  0.60102864504E+02  0.70112183978E+02  0.00000000000E+00 0. -1.
          1    1    1    2  502    0 -0.29815605336E+02 -0.20356662276E+02  0.16683381330E+02  0.39770582510E+02  0.00000000000E+00 0.  1.
</event>
<event>
 4    1  0.3586324E+003  0.4147515E+02  0.7546771E-02  0.1340052E+00
          2   -1    0    0  502    0  0.00000000000E+00  0.00000000000E+00  0.26522032556E+03  0.26522032556E+03  0.00000000000E+00 0. -1.
          1   -1    0    0  501    0 -0.00000000000E+00 -0.00000000000E+00 -0.14258637339E+02  0.14258637339E+02  0.00000000000E+00 0. -1.
          2    1    1    2  501    0  0.38040405042E+02 -0.16526201791E+02  0.22865421306E+03  0.23238531992E+03  0.00000000000E+00 0. -1.
          1    1    1    2  502    0 -0.38040405042E+02  0.16526201791E+02  0.22307475158E+02  0.47093642982E+02  0.00000000000E+00 0. -1.
</event>
<event>
 4    1  0.3586324E+003  0.2134232E+02  0.7546771E-02  0.1514433E+00
          2   -1    0    0  502    0  0.00000000000E+00  0.00000000000E+00  0.10372049997E+04  0.10372049997E+04  0.00000000000E+00 0.  1.
          1   -1    0    0  501    0 -0.00000000000E+00 -0.00000000000E+00 -0.10508934069E+02  0.10508934069E+02  0.00000000000E+00 0. -1.
          2    1    1    2  501    0 -0.29448216342E+01  0.21138178391E+02  0.10261425168E+04  0.10263644379E+04  0.00000000000E+00 0.  1.
          1    1    1    2  502    0  0.29448216342E+01 -0.21138178391E+02  0.55354887250E+00  0.21349495931E+02  0.00000000000E+00 0. -1.
</event>
<event>
 4    1  0.3586324E+003  0.3890512E+02  0.7546771E-02  0.1355024E+00
          2   -1    0    0  502    0  0.00000000000E+00  0.00000000000E+00  0.19842383595E+04  0.19842383595E+04  0.00000000000E+00 0.  1.
          1   -1    0    0  501    0 -0.00000000000E+00 -0.00000000000E+00 -0.80066121362E+00  0.80066121362E+00  0.00000000000E+00 0.  1.
          2    1    1    2  501    0 -0.87450327673E+01 -0.37909518926E+02  0.77593218275E+03  0.77690691814E+03  0.00000000000E+00 0.  1.
          1    1    1    2  502    0  0.87450327673E+01  0.37909518926E+02  0.12075055155E+04  0.12081321025E+04  0.00000000000E+00 0.  1.
</event>
<event>
 4    1  0.3586324E+003  0.2071114E+02  0.7546771E-02  0.1523429E+00
          2   -1    0    0  502    0  0.00000000000E+00  0.00000000000E+00  0.48590308920E+03  0.48590308920E+03  0.00000000000E+00 0. -1.
          1   -1    0    0  501    0 -0.00000000000E+00 -0.00000000000E+00 -0.14001472255E+02  0.14001472255E+02  0.00000000000E+00 0.  1.
          2    1    1    2  501    0 -0.18200166689E+02 -0.98846031760E+01  0.47789506802E+03  0.47834364999E+03  0.00000000000E+00 0. -1.
          1    1    1    2  502    0  0.18200166689E+02  0.98846031760E+01 -0.59934510745E+01  0.21560911466E+02  0.00000000000E+00 0.  1.
</event>
<event>
 4    1  0.3586324E+003  0.2198974E+02  0.7546771E-02  0.1505589E+00
          2   -1    0    0  502    0  0.00000000000E+00  0.00000000000E+00  0.11476256102E+04  0.11476256102E+04  0.00000000000E+00 0.  1.
          1   -1    0    0  501    0 -0.00000000000E+00 -0.00000000000E+00 -0.45813390514E+00  0.45813390514E+00  0.00000000000E+00 0.  1.
          2    1    1    2  501    0 -0.12681194757E+02  0.17964855301E+02  0.73624845882E+03  0.73657677253E+03  0.00000000000E+00 0.  1.
          1    1    1    2  502    0  0.12681194757E+02 -0.17964855301E+02  0.41091901744E+03  0.41150697153E+03  0.00000000000E+00 0.  1.
</event>
<event>
 4    1  0.3586324E+003  0.2117942E+02  0.7546771E-02  0.1516719E+00
          2   -1    0    0  502    0  0.00000000000E+00  0.00000000000E+00  0.81556653708E+02  0.81556653708E+02  0.00000000000E+00 0.  1.
          1   -1    0    0  501    0 -0.00000000000E+00 -0.00000000000E+00 -0.14180837794E+02  0.14180837794E+02  0.00000000000E+00 0.  1.
          2    1    1    2  501    0  0.11273584420E+01  0.21149395487E+02  0.71140337942E+02  0.74226110965E+02  0.00000000000E+00 0.  1.
          1    1    1    2  502    0 -0.11273584420E+01 -0.21149395487E+02 -0.37645220286E+01  0.21511380537E+02  0.00000000000E+00 0.  1.
</event>
<event>
 4    1  0.3586324E+003  0.3250375E+02  0.7546771E-02  0.1399016E+00
          2   -1    0    0  502    0  0.00000000000E+00  0.00000000000E+00  0.18158269365E+01  0.18158269365E+01  0.00000000000E+00 0. -1.
          1   -1    0    0  501    0 -0.00000000000E+00 -0.00000000000E+00 -0.94687060868E+03  0.94687060868E+03  0.00000000000E+00 0. -1.
          2    1    1    2  501    0 -0.32370566471E+02 -0.29392821780E+01 -0.76705168450E+03  0.76774004692E+03  0.00000000000E+00 0. -1.
          1    1    1    2  502    0  0.32370566471E+02  0.29392821780E+01 -0.17800309724E+03  0.18094638869E+03  0.00000000000E+00 0. -1.
</event>
<event>
 4    1  0.3586324E+003  0.2377251E+02  0.7546771E-02  0.1483019E+00
          2   -1    0    0  502    0  0.00000000000E+00  0.00000000000E+00  0.14405447798E+04  0.14405447798E+04  0.00000000000E+00 0. -1.
          1   -1    0    0  501    0 -0.00000000000E+00 -0.00000000000E+00 -0.42950928758E+02  0.42950928758E+02  0.00000000000E+00 0. -1.
          2    1    1    2  501    0 -0.22525530544E+02  0.75981924972E+01  0.14371495277E+04  0.14373461298E+04  0.00000000000E+00 0. -1.
          1    1    1    2  502    0  0.22525530544E+02 -0.75981924972E+01 -0.39555676674E+02  0.46149578683E+02  0.00000000000E+00 0. -1.
</event>
<event>
 4    1  0.3586324E+003  0.2367866E+02  0.7546771E-02  0.1484148E+00
          2   -1    0    0  502    0  0.00000000000E+00  0.00000000000E+00  0.32369792018E+01  0.32369792018E+01  0.00000000000E+00 0. -1.
          1   -1    0    0  501    0 -0.00000000000E+00 -0.00000000000E+00 -0.11529558396E+04  0.11529558396E+04  0.00000000000E+00 0.  1.
          2    1    1    2  501    0  0.33497076786E+01  0.23440527208E+02 -0.41953523975E+02  0.48174443757E+02  0.00000000000E+00 0. -1.
          1    1    1    2  502    0 -0.33497076786E+01 -0.23440527208E+02 -0.11077653364E+04  0.11080183751E+04  0.00000000000E+00 0.  1.
</event>
<event>
 4    1  0.3586324E+003  0.8110197E+02  0.7546771E-02  0.1201312E+00
          2   -1    0    0  502    0  0.00000000000E+00  0.00000000000E+00  0.17039983666E+04  0.17039983666E+04  0.00000000000E+00 0. -1.
          1   -1    0    0  501    0 -0.00000000000E+00 -0.00000000000E+00 -0.30698993884E+03  0.30698993884E+03  0.00000000000E+00 0. -1.
          2    1    1    2  501    0  0.56627963819E+02  0.58058613692E+02  0.16976568859E+04  0.16995930192E+04  0.00000000000E+00 0. -1.
          1    1    1    2  502    0 -0.56627963819E+02 -0.58058613692E+02 -0.30064845811E+03  0.31139528621E+03  0.00000000000E+00 0. -1.
</event>
<event>
 4    1  0.3586324E+003  0.3130653E+02  0.7546771E-02  0.1408573E+00
          2   -1    0    0  502    0  0.00000000000E+00  0.00000000000E+00  0.13759005303E+02  0.13759005303E+02  0.00000000000E+00 0.  1.
          1   -1    0    0  501    0 -0.00000000000E+00 -0.00000000000E+00 -0.16992475051E+03  0.16992475051E+03  0.00000000000E+00 0. -1.
          2    1    1    2  501    0  0.15005489540E+02  0.27476066302E+02 -0.80902498867E+01  0.32334982279E+02  0.00000000000E+00 0.  1.
          1    1    1    2  502    0 -0.15005489540E+02 -0.27476066302E+02 -0.14807549532E+03  0.15134877354E+03  0.00000000000E+00 0. -1.
</event>
<event>
 4    1  0.3586324E+003  0.3475957E+02  0.7546771E-02  0.1382261E+00
          2   -1    0    0  502    0  0.00000000000E+00  0.00000000000E+00  0.10618017140E+04  0.10618017140E+04  0.00000000000E+00 0.  1.
          1   -1    0    0  501    0 -0.00000000000E+00 -0.00000000000E+00 -0.50427195717E+02  0.50427195717E+02  0.00000000000E+00 0. -1.
          2    1    1    2  501    0  0.33883034669E+02 -0.77568018481E+01  0.10554914745E+04  0.10560636727E+04  0.00000000000E+00 0.  1.
          1    1    1    2  502    0 -0.33883034669E+02  0.77568018481E+01 -0.44116956278E+02  0.56165236975E+02  0.00000000000E+00 0. -1.
</event>
<event>
 4    1  0.3586324E+003  0.3458328E+02  0.7546771E-02  0.1383517E+00
          2   -1    0    0  502    0  0.00000000000E+00  0.00000000000E+00  0.20469733865E+03  0.20469733865E+03  0.00000000000E+00 0.  1.
          1   -1    0    0  501    0 -0.00000000000E+00 -0.00000000000E+00 -0.48359792969E+02  0.48359792969E+02  0.00000000000E+00 0.  1.
          2    1    1    2  501    0  0.19886303761E+02 -0.28293788692E+02  0.19680783114E+03  0.19982323677E+03  0.00000000000E+00 0.  1.
          1    1    1    2  502    0 -0.19886303761E+02  0.28293788692E+02 -0.40470285457E+02  0.53233894849E+02  0.00000000000E+00 0.  1.
</event>
<event>
 4    1  0.3586324E+003  0.5349765E+02  0.7546771E-02  0.1283681E+00
          2   -1    0    0  502    0  0.00000000000E+00  0.00000000000E+00  0.43576013400E+02  0.43576013400E+02  0.00000000000E+00 0. -1.
          1   -1    0    0  501    0 -0.00000000000E+00 -0.00000000000E+00 -0.13408357939E+03  0.13408357939E+03  0.00000000000E+00 0.  1.
          2    1    1    2  501    0  0.49777659521E+02 -0.19600583501E+02  0.18193889585E+02  0.56506777285E+02  0.00000000000E+00 0. -1.
          1    1    1    2  502    0 -0.49777659521E+02  0.19600583501E+02 -0.10870145558E+03  0.12115281551E+03  0.00000000000E+00 0.  1.
</event>
<event>
 4    1  0.3586324E+003  0.7647545E+02  0.7546771E-02  0.1212275E+00
          2   -1    0    0  502    0  0.00000000000E+00  0.00000000000E+00  0.67794122176E+02  0.67794122176E+02  0.00000000000E+00 0.  1.
          1   -1    0    0  501    0 -0.00000000000E+00 -0.00000000000E+00 -0.50426053047E+03  0.50426053047E+03  0.00000000000E+00 0.  1.
          2    1    1    2  501    0 -0.36562309190E+02  0.67169133685E+02  0.42180632711E+02  0.87336709059E+02  0.00000000000E+00 0.  1.
          1    1    1    2  502    0  0.36562309190E+02 -0.67169133685E+02 -0.47864704101E+03  0.48471794359E+03  0.00000000000E+00 0.  1.
</event>
<event>
 4    1  0.3586324E+003  0.2652465E+02  0.7546771E-02  0.1452442E+00
          2   -1    0    0  502    0  0.00000000000E+00  0.00000000000E+00  0.72667854442E+03  0.72667854442E+03  0.00000000000E+00 0. -1.
          1   -1    0    0  501    0 -0.00000000000E+00 -0.00000000000E+00 -0.28509118586E+01  0.28509118586E+01  0.00000000000E+00 0.  1.
          2    1    1    2  501    0 -0.26517514829E+02  0.61507834488E+00  0.65833891537E+03  0.65887304119E+03  0.00000000000E+00 0. -1.
          1    1    1    2  502    0  0.26517514829E+02 -0.61507834488E+00  0.65488717196E+02  0.70656415095E+02  0.00000000000E+00 0.  1.
</event>
<event>
 4    1  0.3586324E+003  0.2159382E+02  0.7546771E-02  0.1510953E+00
          2   -1    0    0  502    0  0.00000000000E+00  0.00000000000E+00  0.61429597180E+03  0.61429597180E+03  0.00000000000E+00 0. -1.
          1   -1    0    0  501    0 -0.00000000000E+00 -0.00000000000E+00 -0.90969987026E+01  0.90969987026E+01  0.00000000000E+00 0.  1.
          2    1    1    2  501    0  0.21561102394E+02  0.11882240480E+01  0.60100851180E+03  0.60139631215E+03  0.00000000000E+00 0. -1.
          1    1    1    2  502    0 -0.21561102394E+02 -0.11882240480E+01  0.41904612999E+01  0.21996658354E+02  0.00000000000E+00 0.  1.
</event>
<event>
 4    1  0.3586324E+003  0.2040354E+02  0.7546771E-02  0.1527954E+00
          2   -1    0    0  502    0  0.00000000000E+00  0.00000000000E+00  0.15523866290E+02  0.15523866290E+02  0.00000000000E+00 0. -1.
          1   -1    0    0  501    0 -0.00000000000E+00 -0.00000000000E+00 -0.34607631052E+03  0.34607631052E+03  0.00000000000E+00 0.  1.
          2    1    1    2  501    0 -0.19909512519E+02  0.44627261079E+01  0.83776374924E+01  0.22056505231E+02  0.00000000000E+00 0. -1.
          1    1    1    2  502    0  0.19909512519E+02 -0.44627261079E+01 -0.33893008172E+03  0.33954367158E+03  0.00000000000E+00 0.  1.
</event>
<event>
 4    1  0.3586324E+003  0.3724335E+02  0.7546771E-02  0.1365444E+00
          2   -1    0    0  502    0  0.00000000000E+00  0.00000000000E+00  0.27003524571E+02  0.27003524571E+02  0.00000000000E+00 0.  1.
          1   -1    0    0  501    0 -0.00000000000E+00 -0.00000000000E+00 -0.20627166244E+03  0.20627166244E+03  0.00000000000E+00 0.  1.
          2    1    1    2  501    0 -0.37132424807E+02  0.28722705656E+01  0.11442900503E+02  0.38961607797E+02  0.00000000000E+00 0.  1.
          1    1    1    2  502    0  0.37132424807E+02 -0.28722705656E+01 -0.19071103837E+03  0.19431357921E+03  0.00000000000E+00 0.  1.
</event>
<event>
 4    1  0.3586324E+003  0.2730025E+02  0.7546771E-02  0.1444615E+00
          2   -1    0    0  502    0  0.00000000000E+00  0.00000000000E+00  0.62273551981E+01  0.62273551981E+01  0.00000000000E+00 0. -1.
          1   -1    0    0  501    0 -0.00000000000E+00 -0.00000000000E+00 -0.13184159403E+03  0.13184159403E+03  0.00000000000E+00 0. -1.
          2    1    1    2  501    0 -0.39152344538E+00 -0.27297439208E+02 -0.41842063147E+02  0.49960601741E+02  0.00000000000E+00 0. -1.
          1    1    1    2  502    0  0.39152344538E+00  0.27297439208E+02 -0.83772175682E+02  0.88108347484E+02  0.00000000000E+00 0. -1.
</event>
<event>
 4    1  0.3586324E+003  0.5217404E+02  0.7546771E-02  0.1289012E+00
          2   -1    0    0  502    0  0.00000000000E+00  0.00000000000E+00  0.28228448099E+03  0.28228448099E+03  0.00000000000E+00 0. -1.
          1   -1    0    0  501    0 -0.00000000000E+00 -0.00000000000E+00 -0.11486378131E+04  0.11486378131E+04  0.00000000000E+00 0.  1.
          2    1    1    2  501    0  0.17176437700E+02 -0.49265610615E+02  0.27927487759E+03  0.28410664838E+03  0.00000000000E+00 0. -1.
          1    1    1    2  502    0 -0.17176437700E+02  0.49265610615E+02 -0.11456282097E+04  0.11468156457E+04  0.00000000000E+00 0.  1.
</event>
<event>
 4    1  0.3586324E+003  0.2842639E+02  0.7546771E-02  0.1433783E+00
          2   -1    0    0  502    0  0.00000000000E+00  0.00000000000E+00  0.13416078233E+02  0.13416078233E+02  0.00000000000E+00 0. -1.
          1   -1    0    0  501    0 -0.00000000000E+00 -0.00000000000E+00 -0.30932671103E+03  0.30932671103E+03  0.00000000000E+00 0. -1.
          2    1    1    2  501    0  0.15166127853E+02 -0.24042627742E+02 -0.31444163366E+01  0.28599768127E+02  0.00000000000E+00 0. -1.
          1    1    1    2  502    0 -0.15166127853E+02  0.24042627742E+02 -0.29276621646E+03  0.29414302114E+03  0.00000000000E+00 0. -1.
</event>
<event>
 4    1  0.3586324E+003  0.2230343E+02  0.7546771E-02  0.1501435E+00
          2   -1    0    0  502    0  0.00000000000E+00  0.00000000000E+00  0.12425261504E+01  0.12425261504E+01  0.00000000000E+00 0. -1.
          1   -1    0    0  501    0 -0.00000000000E+00 -0.00000000000E+00 -0.63673736913E+03  0.63673736913E+03  0.00000000000E+00 0. -1.
          2    1    1    2  501    0 -0.22072176314E+02  0.32034204856E+01 -0.12338567593E+03  0.12538527782E+03  0.00000000000E+00 0. -1.
          1    1    1    2  502    0  0.22072176314E+02 -0.32034204856E+01 -0.51210916706E+03  0.51259461747E+03  0.00000000000E+00 0. -1.
</event>
<event>
 4    1  0.3586324E+003  0.2915597E+02  0.7546771E-02  0.1427076E+00
          2   -1    0    0  502    0  0.00000000000E+00  0.00000000000E+00  0.59878273700E+03  0.59878273700E+03  0.00000000000E+00 0. -1.
          1   -1    0    0  501    0 -0.00000000000E+00 -0.00000000000E+00 -0.16634286446E+02  0.16634286446E+02  0.00000000000E+00 0.  1.
          2    1    1    2  501    0 -0.27263974893E+02 -0.10331800102E+02  0.58535914561E+03  0.58608480595E+03  0.00000000000E+00 0. -1.
          1    1    1    2  502    0  0.27263974893E+02  0.10331800102E+02 -0.32106950550E+01  0.29332217493E+02  0.00000000000E+00 0.  1.
</event>
<event>
 4    1  0.3586324E+003  0.2132065E+02  0.7546771E-02  0.1514736E+00
          2   -1    0    0  502    0  0.00000000000E+00  0.00000000000E+00  0.26035580140E+02  0.26035580140E+02  0.00000000000E+00 0. -1.
          1   -1    0    0  501    0 -0.00000000000E+00 -0.00000000000E+00 -0.23949018127E+02  0.23949018127E+02  0.00000000000E+00 0.  1.
          2    1    1    2  501    0  0.16989329428E+02  0.12881486729E+02  0.14052950430E+02  0.25535376060E+02  0.00000000000E+00 0. -1.
          1    1    1    2  502    0 -0.16989329428E+02 -0.12881486729E+02 -0.11966388417E+02  0.24449222206E+02  0.00000000000E+00 0.  1.
</event>
<event>
 4    1  0.3586324E+003  0.2493943E+02  0.7546771E-02  0.1469482E+00
          2   -1    0    0  502    0  0.00000000000E+00  0.00000000000E+00  0.39678919797E+03  0.39678919797E+03  0.00000000000E+00 0.  1.
          1   -1    0    0  501    0 -0.00000000000E+00 -0.00000000000E+00 -0.19007390572E+02  0.19007390572E+02  0.00000000000E+00 0.  1.
          2    1    1    2  501    0  0.20081651891E+02  0.14788584947E+02  0.38803218906E+03  0.38883281078E+03  0.00000000000E+00 0.  1.
          1    1    1    2  502    0 -0.20081651891E+02 -0.14788584947E+02 -0.10250381660E+02  0.26963777770E+02  0.00000000000E+00 0.  1.
</event>
<event>
 4    1  0.3586324E+003  0.3071753E+02  0.7546771E-02  0.1413462E+00
          2   -1    0    0  502    0  0.00000000000E+00  0.00000000000E+00  0.18297541061E+04  0.18297541061E+04  0.00000000000E+00 0. -1.
          1   -1    0    0  501    0 -0.00000000000E+00 -0.00000000000E+00 -0.13052803530E+01  0.13052803530E+01  0.00000000000E+00 0.  1.
          2    1    1    2  501    0  0.30451264824E+02  0.40357605690E+01  0.16262970650E+04  0.16265871358E+04  0.00000000000E+00 0. -1.
          1    1    1    2  502    0 -0.30451264824E+02 -0.40357605690E+01  0.20215176078E+03  0.20447225063E+03  0.00000000000E+00 0.  1.
</event>
<event>
 4    1  0.3586324E+003  0.2510287E+02  0.7546771E-02  0.1467656E+00
          2   -1    0    0  502    0  0.00000000000E+00  0.00000000000E+00  0.14763366463E+02  0.14763366463E+02  0.00000000000E+00 0.  1.
          1   -1    0    0  501    0 -0.00000000000E+00 -0.00000000000E+00 -0.76840615788E+02  0.76840615788E+02  0.00000000000E+00 0. -1.
          2    1    1    2  501    0  0.17277085520E+02 -0.18211436176E+02 -0.50146070349E+00  0.25107878336E+02  0.00000000000E+00 0.  1.
          1    1    1    2  502    0 -0.17277085520E+02  0.18211436176E+02 -0.61575788621E+02  0.66496103916E+02  0.00000000000E+00 0. -1.
</event>
<event>
 4    1  0.3586324E+003  0.6026007E+02  0.7546771E-02  0.1258952E+00
          2   -1    0    0  502    0  0.00000000000E+00  0.00000000000E+00  0.20850654746E+03  0.20850654746E+03  0.00000000000E+00 0.  1.
          1   -1    0    0  501    0 -0.00000000000E+00 -0.00000000000E+00 -0.21303062549E+02  0.21303062549E+02  0.00000000000E+00 0. -1.
          2    1    1    2  501    0  0.22988801660E+01 -0.60216206276E+02  0.14268661569E+03  0.15488946590E+03  0.00000000000E+00 0.  1.
          1    1    1    2  502    0 -0.22988801660E+01  0.60216206276E+02  0.44516869216E+02  0.74920144108E+02  0.00000000000E+00 0. -1.
</event>
<event>
 4    1  0.3586324E+003  0.2146830E+02  0.7546771E-02  0.1512683E+00
          2   -1    0    0  502    0  0.00000000000E+00  0.00000000000E+00  0.22197786110E+03  0.22197786110E+03  0.00000000000E+00 0. -1.
          1   -1    0    0  501    0 -0.00000000000E+00 -0.00000000000E+00 -0.11062646737E+04  0.11062646737E+04  0.00000000000E+00 0. -1.
          2    1    1    2  501    0 -0.20883979148E+02 -0.49746486399E+01  0.22135434491E+03  0.22239297139E+03  0.00000000000E+00 0. -1.
          1    1    1    2  502    0  0.20883979148E+02  0.49746486399E+01 -0.11056411575E+04  0.11058495634E+04  0.00000000000E+00 0. -1.
</event>
<event>
 4    1  0.3586324E+003  0.2123882E+02  0.7546771E-02  0.1515882E+00
          2   -1    0    0  502    0  0.00000000000E+00  0.00000000000E+00  0.17396712598E+03  0.17396712598E+03  0.00000000000E+00 0.  1.
          1   -1    0    0  501    0 -0.00000000000E+00 -0.00000000000E+00 -0.91274524646E+01  0.91274524646E+01  0.00000000000E+00 0. -1.
          2    1    1    2  501    0  0.59617612307E+01  0.20384920312E+02  0.15987975871E+03  0.16128429812E+03  0.00000000000E+00 0.  1.
          1    1    1    2  502    0 -0.59617612307E+01 -0.20384920312E+02  0.49599148019E+01  0.21810280327E+02  0.00000000000E+00 0. -1.
</event>
<event>
 4    1  0.3586324E+003  0.2584229E+02  0.7546771E-02  0.1459597E+00
          2   -1    0    0  502    0  0.00000000000E+00  0.00000000000E+00  0.12790171235E+03  0.12790171235E+03  0.00000000000E+00 0. -1.
          1   -1    0    0  501    0 -0.00000000000E+00 -0.00000000000E+00 -0.85670017547E+01  0.85670017547E+01  0.00000000000E+00 0. -1.
          2    1    1    2  501    0  0.12405414818E+02 -0.22670014693E+02  0.10230830533E+03  0.10552162443E+03  0.00000000000E+00 0. -1.
          1    1    1    2  502    0 -0.12405414818E+02  0.22670014693E+02  0.17026405265E+02  0.30947089674E+02  0.00000000000E+00 0. -1.
</event>
<event>
 4    1  0.3586324E+003  0.2408599E+02  0.7546771E-02  0.1479294E+00
          2   -1    0    0  502    0  0.00000000000E+00  0.00000000000E+00  0.46577671903E+03  0.46577671903E+03  0.00000000000E+00 0. -1.
          1   -1    0    0  501    0 -0.00000000000E+00 -0.00000000000E+00 -0.13536105769E+04  0.13536105769E+04  0.00000000000E+00 0. -1.
          2    1    1    2  501    0 -0.13364634508E+02  0.20037996189E+02  0.46535809663E+03  0.46598100052E+03  0.00000000000E+00 0. -1.
          1    1    1    2  502    0  0.13364634508E+02 -0.20037996189E+02 -0.13531919545E+04  0.13534062954E+04  0.00000000000E+00 0. -1.
</event>
<event>
 4    1  0.3586324E+003  0.2629259E+02  0.7546771E-02  0.1454847E+00
          2   -1    0    0  502    0  0.00000000000E+00  0.00000000000E+00  0.22563367030E+02  0.22563367030E+02  0.00000000000E+00 0. -1.
          1   -1    0    0  501    0 -0.00000000000E+00 -0.00000000000E+00 -0.87641115263E+03  0.87641115263E+03  0.00000000000E+00 0. -1.
          2    1    1    2  501    0  0.26289126527E+02 -0.42654956804E+00  0.14636737611E+02  0.30092095407E+02  0.00000000000E+00 0. -1.
          1    1    1    2  502    0 -0.26289126527E+02  0.42654956804E+00 -0.86848452321E+03  0.86888242425E+03  0.00000000000E+00 0. -1.
</event>
<event>
 4    1  0.5355633E+003  0.2368955E+02  0.7546771E-02  0.1484016E+00
          2   -1    0    0  502    0  0.00000000000E+00  0.00000000000E+00  0.12088935336E+04  0.12088935336E+04  0.00000000000E+00 0.  1.
          1   -1    0    0  501    0 -0.00000000000E+00 -0.00000000000E+00 -0.71297274747E+03  0.71297274747E+03  0.00000000000E+00 0.  1.
          2    1    1    2  501    0 -0.71100787420E+01 -0.22597384390E+02  0.12085806472E+04  0.12088127960E+04  0.00000000000E+00 0.  1.
          1    1    1    2  502    0  0.71100787420E+01  0.22597384390E+02 -0.71265986106E+03  0.71305348507E+03  0.00000000000E+00 0.  1.
</event>
<event>
 4    1  0.3586324E+003  0.2027786E+02  0.7546771E-02  0.1529830E+00
          2   -1    0    0  502    0  0.00000000000E+00  0.00000000000E+00  0.46722379223E+03  0.46722379223E+03  0.00000000000E+00 0. -1.
          1   -1    0    0  501    0 -0.00000000000E+00 -0.00000000000E+00 -0.31518445328E+03  0.31518445328E+03  0.00000000000E+00 0. -1.
          2    1    1    2  501    0 -0.15183874007E+02  0.13440296896E+02  0.46667724031E+03  0.46711758502E+03  0.00000000000E+00 0. -1.
          1    1    1    2  502    0  0.15183874007E+02 -0.13440296896E+02 -0.31463790137E+03  0.31529066049E+03  0.00000000000E+00 0. -1.
</event>
<event>
 4    1  0.3586324E+003  0.4924838E+02  0.7546771E-02  0.1301465E+00
          2   -1    0    0  502    0  0.00000000000E+00  0.00000000000E+00  0.81344583850E+02  0.81344583850E+02  0.00000000000E+00 0.  1.
          1   -1    0    0  501    0 -0.00000000000E+00 -0.00000000000E+00 -0.17738545440E+03  0.17738545440E+03  0.00000000000E+00 0.  1.
          2    1    1    2  501    0  0.85609517813E+01 -0.48498587127E+02  0.69972362298E+02  0.85565964812E+02  0.00000000000E+00 0.  1.
          1    1    1    2  502    0 -0.85609517813E+01  0.48498587127E+02 -0.16601323285E+03  0.17316407344E+03  0.00000000000E+00 0.  1.
</event>
<event>
 4    1  0.3586324E+003  0.2708243E+02  0.7546771E-02  0.1446782E+00
          2   -1    0    0  502    0  0.00000000000E+00  0.00000000000E+00  0.13141079241E+03  0.13141079241E+03  0.00000000000E+00 0. -1.
          1   -1    0    0  501    0 -0.00000000000E+00 -0.00000000000E+00 -0.61486471443E+01  0.61486471443E+01  0.00000000000E+00 0. -1.
          2    1    1    2  501    0 -0.23953296935E+02  0.12637153785E+02  0.83521689349E+02  0.87802794270E+02  0.00000000000E+00 0. -1.
          1    1    1    2  502    0  0.23953296935E+02 -0.12637153785E+02  0.41740455913E+02  0.49756645281E+02  0.00000000000E+00 0. -1.
</event>
<event>
 4    1  0.3586324E+003  0.2105124E+02  0.7546771E-02  0.1518534E+00
          2   -1    0    0  502    0  0.00000000000E+00  0.00000000000E+00  0.13651539637E+03  0.13651539637E+03  0.00000000000E+00 0.  1.
          1   -1    0    0  501    0 -0.00000000000E+00 -0.00000000000E+00 -0.16581813866E+02  0.16581813866E+02  0.00000000000E+00 0.  1.
          2    1    1    2  501    0 -0.95639200685E+01  0.18753291834E+02  0.12861480550E+03  0.13032621653E+03  0.00000000000E+00 0.  1.
          1    1    1    2  502    0  0.95639200685E+01 -0.18753291834E+02 -0.86812229939E+01  0.22770993706E+02  0.00000000000E+00 0.  1.
</event>
<event>
 4    1  0.4714900E+003  0.2914797E+02  0.7546771E-02  0.1427148E+00
          2   -1    0    0  502    0  0.00000000000E+00  0.00000000000E+00  0.10313962757E+04  0.10313962757E+04  0.00000000000E+00 0.  1.
          1   -1    0    0  501    0 -0.00000000000E+00 -0.00000000000E+00 -0.68755919972E+03  0.68755919972E+03  0.00000000000E+00 0. -1.
          2    1    1    2  501    0  0.63880821905E+01  0.28439351500E+02  0.10308812655E+04  0.10312932599E+04  0.00000000000E+00 0.  1.
          1    1    1    2  502    0 -0.63880821905E+01 -0.28439351500E+02 -0.68704418953E+03  0.68766221553E+03  0.00000000000E+00 0. -1.
</event>
<event>
 4    1  0.3586324E+003  0.3214218E+02  0.7546771E-02  0.1401851E+00
          2   -1    0    0  502    0  0.00000000000E+00  0.00000000000E+00  0.24580448549E+01  0.24580448549E+01  0.00000000000E+00 0.  1.
          1   -1    0    0  501    0 -0.00000000000E+00 -0.00000000000E+00 -0.14091998800E+04  0.14091998800E+04  0.00000000000E+00 0.  1.
          2    1    1    2  501    0 -0.53482655287E+01  0.31694097725E+02 -0.11209658904E+03  0.11661374297E+03  0.00000000000E+00 0.  1.
          1    1    1    2  502    0  0.53482655287E+01 -0.31694097725E+02 -0.12946452461E+04  0.12950441819E+04  0.00000000000E+00 0.  1.
</event>
<event>
 4    1  0.3586324E+003  0.2025533E+02  0.7546771E-02  0.1530168E+00
          2   -1    0    0  502    0  0.00000000000E+00  0.00000000000E+00  0.60151329675E+02  0.60151329675E+02  0.00000000000E+00 0. -1.
          1   -1    0    0  501    0 -0.00000000000E+00 -0.00000000000E+00 -0.69810249490E+01  0.69810249490E+01  0.00000000000E+00 0. -1.
          2    1    1    2  501    0 -0.13429702445E+02 -0.15163164855E+02  0.31670796387E+02  0.37594119487E+02  0.00000000000E+00 0. -1.
          1    1    1    2  502    0  0.13429702445E+02  0.15163164855E+02  0.21499508339E+02  0.29538235137E+02  0.00000000000E+00 0. -1.
</event>
<event>
 4    1  0.3586324E+003  0.2745412E+02  0.7546771E-02  0.1443099E+00
          2   -1    0    0  502    0  0.00000000000E+00  0.00000000000E+00  0.22684288059E+02  0.22684288059E+02  0.00000000000E+00 0. -1.
          1   -1    0    0  501    0 -0.00000000000E+00 -0.00000000000E+00 -0.20264547682E+04  0.20264547682E+04  0.00000000000E+00 0. -1.
          2    1    1    2  501    0 -0.18300649366E+02  0.20464971903E+02  0.14249857090E+02  0.30931978102E+02  0.00000000000E+00 0. -1.
          1    1    1    2  502    0  0.18300649366E+02 -0.20464971903E+02 -0.20180203372E+04  0.20182070781E+04  0.00000000000E+00 0. -1.
</event>
<event>
 4    1  0.3586324E+003  0.2628920E+02  0.7546771E-02  0.1454882E+00
          2   -1    0    0  502    0  0.00000000000E+00  0.00000000000E+00  0.15272268639E+03  0.15272268639E+03  0.00000000000E+00 0.  1.
          1   -1    0    0  501    0 -0.00000000000E+00 -0.00000000000E+00 -0.30902669510E+02  0.30902669510E+02  0.00000000000E+00 0. -1.
          2    1    1    2  501    0  0.24442255542E+02 -0.96797866655E+01  0.14573426582E+03  0.14808645570E+03  0.00000000000E+00 0.  1.
          1    1    1    2  502    0 -0.24442255542E+02  0.96797866655E+01 -0.23914248937E+02  0.35538900209E+02  0.00000000000E+00 0. -1.
</event>
<event>
 4    1  0.3586324E+003  0.2157911E+02  0.7546771E-02  0.1511155E+00
          2   -1    0    0  502    0  0.00000000000E+00  0.00000000000E+00  0.22993609646E+03  0.22993609646E+03  0.00000000000E+00 0. -1.
          1   -1    0    0  501    0 -0.00000000000E+00 -0.00000000000E+00 -0.70444500989E+01  0.70444500989E+01  0.00000000000E+00 0. -1.
          2    1    1    2  501    0  0.20783706675E+02 -0.58047857254E+01  0.21146428826E+03  0.21256246896E+03  0.00000000000E+00 0. -1.
          1    1    1    2  502    0 -0.20783706675E+02  0.58047857254E+01  0.11427358099E+02  0.24418077599E+02  0.00000000000E+00 0. -1.
</event>
<event>
 4    1  0.3586324E+003  0.2726372E+02  0.7546771E-02  0.1444977E+00
          2   -1    0    0  502    0  0.00000000000E+00  0.00000000000E+00  0.31732523665E+02  0.31732523665E+02  0.00000000000E+00 0.  1.
          1   -1    0    0  501    0 -0.00000000000E+00 -0.00000000000E+00 -0.12720431306E+04  0.12720431306E+04  0.00000000000E+00 0. -1.
          2    1    1    2  501    0  0.21598461503E+02  0.16637817068E+02  0.25702486514E+02  0.37469031334E+02  0.00000000000E+00 0.  1.
          1    1    1    2  502    0 -0.21598461503E+02 -0.16637817068E+02 -0.12660130934E+04  0.12663066229E+04  0.00000000000E+00 0. -1.
</event>
<event>
 4    1  0.3586324E+003  0.2969003E+02  0.7546771E-02  0.1422309E+00
          2   -1    0    0  502    0  0.00000000000E+00  0.00000000000E+00  0.79533300997E+00  0.79533300997E+00  0.00000000000E+00 0.  1.
          1   -1    0    0  501    0 -0.00000000000E+00 -0.00000000000E+00 -0.22358679432E+04  0.22358679432E+04  0.00000000000E+00 0.  1.
          2    1    1    2  501    0 -0.50753860348E+01 -0.29253007380E+02 -0.32336985960E+03  0.32472998642E+03  0.00000000000E+00 0.  1.
          1    1    1    2  502    0  0.50753860348E+01  0.29253007380E+02 -0.19117027506E+04  0.19119332898E+04  0.00000000000E+00 0.  1.
</event>
<event>
 4    1  0.3586324E+003  0.2623104E+02  0.7546771E-02  0.1455489E+00
          2   -1    0    0  502    0  0.00000000000E+00  0.00000000000E+00  0.17064647508E+01  0.17064647508E+01  0.00000000000E+00 0. -1.
          1   -1    0    0  501    0 -0.00000000000E+00 -0.00000000000E+00 -0.17253556676E+04  0.17253556676E+04  0.00000000000E+00 0. -1.
          2    1    1    2  501    0 -0.25659165398E+02  0.54474324729E+01 -0.10590091850E+03  0.10910119994E+03  0.00000000000E+00 0. -1.
          1    1    1    2  502    0  0.25659165398E+02 -0.54474324729E+01 -0.16177482844E+04  0.16179609324E+04  0.00000000000E+00 0. -1.
</event>
<event>
 4    1  0.3586324E+003  0.1101988E+03  0.7546771E-02  0.1147219E+00
          2   -1    0    0  502    0  0.00000000000E+00  0.00000000000E+00  0.10212770088E+04  0.10212770088E+04  0.00000000000E+00 0. -1.
          1   -1    0    0  501    0 -0.00000000000E+00 -0.00000000000E+00 -0.96037637736E+02  0.96037637736E+02  0.00000000000E+00 0. -1.
          2    1    1    2  501    0  0.63856603920E+01 -0.11001360889E+03  0.98554990146E+03  0.99169167541E+03  0.00000000000E+00 0. -1.
          1    1    1    2  502    0 -0.63856603920E+01  0.11001360889E+03 -0.60310530392E+02  0.12562297113E+03  0.00000000000E+00 0. -1.
</event>
<event>
 4    1  0.3586324E+003  0.3259727E+02  0.7546771E-02  0.1398291E+00
          2   -1    0    0  502    0  0.00000000000E+00  0.00000000000E+00  0.79477182832E+00  0.79477182832E+00  0.00000000000E+00 0.  1.
          1   -1    0    0  501    0 -0.00000000000E+00 -0.00000000000E+00 -0.13384914596E+04  0.13384914596E+04  0.00000000000E+00 0.  1.
          2    1    1    2  501    0  0.32234653194E+02  0.48484801092E+01 -0.69147628628E+03  0.69224420193E+03  0.00000000000E+00 0.  1.
          1    1    1    2  502    0 -0.32234653194E+02 -0.48484801092E+01 -0.64622040148E+03  0.64704202948E+03  0.00000000000E+00 0.  1.
</event>
<event>
 4    1  0.3586324E+003  0.3977277E+02  0.7546771E-02  0.1349823E+00
          2   -1    0    0  502    0  0.00000000000E+00  0.00000000000E+00  0.15003716705E+02  0.15003716705E+02  0.00000000000E+00 0. -1.
          1   -1    0    0  501    0 -0.00000000000E+00 -0.00000000000E+00 -0.74145676772E+03  0.74145676772E+03  0.00000000000E+00 0. -1.
          2    1    1    2  501    0  0.38525335123E+02 -0.98829160674E+01 -0.12918319144E+02  0.41818135370E+02  0.00000000000E+00 0. -1.
          1    1    1    2  502    0 -0.38525335123E+02  0.98829160674E+01 -0.71353473187E+03  0.71464234905E+03  0.00000000000E+00 0. -1.
</event>
<event>
 4    1  0.3586324E+003  0.3356493E+02  0.7546771E-02  0.1390943E+00
          2   -1    0    0  502    0  0.00000000000E+00  0.00000000000E+00  0.19934573221E+04  0.19934573221E+04  0.00000000000E+00 0. -1.
          1   -1    0    0  501    0 -0.00000000000E+00 -0.00000000000E+00 -0.12443567477E+01  0.12443567477E+01  0.00000000000E+00 0.  1.
          2    1    1    2  501    0 -0.25525578366E+02 -0.21795625485E+02  0.17329515378E+04  0.17332765610E+04  0.00000000000E+00 0. -1.
          1    1    1    2  502    0  0.25525578366E+02  0.21795625485E+02  0.25926142749E+03  0.26142511782E+03  0.00000000000E+00 0.  1.
</event>
<event>
 4    1  0.3586324E+003  0.4784930E+02  0.7546771E-02  0.1307776E+00
          2   -1    0    0  502    0  0.00000000000E+00  0.00000000000E+00  0.34881950405E+04  0.34881950405E+04  0.00000000000E+00 0. -1.
          1   -1    0    0  501    0 -0.00000000000E+00 -0.00000000000E+00 -0.22876754640E+01  0.22876754640E+01  0.00000000000E+00 0. -1.
          2    1    1    2  501    0  0.11532562862E+02  0.46438726757E+02  0.32167097285E+04  0.32170655935E+04  0.00000000000E+00 0. -1.
          1    1    1    2  502    0 -0.11532562862E+02 -0.46438726757E+02  0.26919763655E+03  0.27341712249E+03  0.00000000000E+00 0. -1.
</event>
<event>
 4    1  0.3586324E+003  0.3058103E+02  0.7546771E-02  0.1414613E+00
          2   -1    0    0  502    0  0.00000000000E+00  0.00000000000E+00  0.11897962905E+04  0.11897962905E+04  0.00000000000E+00 0.  1.
          1   -1    0    0  501    0 -0.00000000000E+00 -0.00000000000E+00 -0.10114150218E+01  0.10114150218E+01  0.00000000000E+00 0.  1.
          2    1    1    2  501    0 -0.14233922779E+02 -0.27066485833E+02  0.87546776043E+03  0.87600171162E+03  0.00000000000E+00 0.  1.
          1    1    1    2  502    0  0.14233922779E+02  0.27066485833E+02  0.31331711510E+03  0.31480599395E+03  0.00000000000E+00 0.  1.
</event>
<event>
 4    1  0.3586324E+003  0.2458758E+02  0.7546771E-02  0.1473470E+00
          2   -1    0    0  502    0  0.00000000000E+00  0.00000000000E+00  0.46276606896E+02  0.46276606896E+02  0.00000000000E+00 0. -1.
          1   -1    0    0  501    0 -0.00000000000E+00 -0.00000000000E+00 -0.43769158431E+02  0.43769158431E+02  0.00000000000E+00 0.  1.
          2    1    1    2  501    0 -0.94178303489E+01  0.22712412311E+02  0.38963691324E+02  0.46072968681E+02  0.00000000000E+00 0. -1.
          1    1    1    2  502    0  0.94178303489E+01 -0.22712412311E+02 -0.36456242859E+02  0.43972796646E+02  0.00000000000E+00 0.  1.
</event>
<event>
 4    1  0.3586324E+003  0.2612200E+02  0.7546771E-02  0.1456633E+00
          2   -1    0    0  502    0  0.00000000000E+00  0.00000000000E+00  0.70080346758E+00  0.70080346758E+00  0.00000000000E+00 0.  1.
          1   -1    0    0  501    0 -0.00000000000E+00 -0.00000000000E+00 -0.15324532547E+04  0.15324532547E+04  0.00000000000E+00 0.  1.
          2    1    1    2  501    0 -0.25992295990E+02  0.25999016515E+01 -0.30298425730E+03  0.30410823585E+03  0.00000000000E+00 0.  1.
          1    1    1    2  502    0  0.25992295990E+02 -0.25999016515E+01 -0.12287681940E+04  0.12290458223E+04  0.00000000000E+00 0.  1.
</event>
<event>
 4    1  0.3586324E+003  0.2088174E+02  0.7546771E-02  0.1520960E+00
          2   -1    0    0  502    0  0.00000000000E+00  0.00000000000E+00  0.16556930464E+03  0.16556930464E+03  0.00000000000E+00 0. -1.
          1   -1    0    0  501    0 -0.00000000000E+00 -0.00000000000E+00 -0.88162459525E+03  0.88162459525E+03  0.00000000000E+00 0. -1.
          2    1    1    2  501    0  0.18998630675E+02  0.86659724122E+01  0.16478666536E+03  0.16610446149E+03  0.00000000000E+00 0. -1.
          1    1    1    2  502    0 -0.18998630675E+02 -0.86659724122E+01 -0.88084195597E+03  0.88108943839E+03  0.00000000000E+00 0. -1.
</event>
<event>
 4    1  0.3586324E+003  0.4137171E+02  0.7546771E-02  0.1340630E+00
          2   -1    0    0  502    0  0.00000000000E+00  0.00000000000E+00  0.10565084099E+04  0.10565084099E+04  0.00000000000E+00 0. -1.
          1   -1    0    0  501    0 -0.00000000000E+00 -0.00000000000E+00 -0.21955704525E+01  0.21955704525E+01  0.00000000000E+00 0.  1.
          2    1    1    2  501    0  0.37088903229E+02 -0.18331162171E+02  0.79817149983E+03  0.79924299271E+03  0.00000000000E+00 0. -1.
          1    1    1    2  502    0 -0.37088903229E+02  0.18331162171E+02  0.25614133962E+03  0.25946098765E+03  0.00000000000E+00 0.  1.
</event>
<event>
 4    1  0.3586324E+003  0.2309208E+02  0.7546771E-02  0.1491345E+00
          2   -1    0    0  502    0  0.00000000000E+00  0.00000000000E+00  0.71957464513E+03  0.71957464513E+03  0.00000000000E+00 0. -1.
          1   -1    0    0  501    0 -0.00000000000E+00 -0.00000000000E+00 -0.22626939745E+01  0.22626939745E+01  0.00000000000E+00 0.  1.
          2    1    1    2  501    0  0.19286553635E+02  0.12699324503E+02  0.65462913444E+03  0.65503629491E+03  0.00000000000E+00 0. -1.
          1    1    1    2  502    0 -0.19286553635E+02 -0.12699324503E+02  0.62682816724E+02  0.66801044201E+02  0.00000000000E+00 0.  1.
</event>
<event>
 4    1  0.3586324E+003  0.3740560E+02  0.7546771E-02  0.1364398E+00
          2   -1    0    0  502    0  0.00000000000E+00  0.00000000000E+00  0.71771691801E+03  0.71771691801E+03  0.00000000000E+00 0. -1.
          1   -1    0    0  501    0 -0.00000000000E+00 -0.00000000000E+00 -0.19559363798E+01  0.19559363798E+01  0.00000000000E+00 0. -1.
          2    1    1    2  501    0 -0.28752735574E+02 -0.23926120642E+02  0.37854484764E+03  0.38038846030E+03  0.00000000000E+00 0. -1.
          1    1    1    2  502    0  0.28752735574E+02  0.23926120642E+02  0.33721613399E+03  0.33928439409E+03  0.00000000000E+00 0. -1.
</event>
<event>
 4    1  0.3586324E+003  0.2433945E+02  0.7546771E-02  0.1476330E+00
          2   -1    0    0  502    0  0.00000000000E+00  0.00000000000E+00  0.17764833701E+03  0.17764833701E+03  0.00000000000E+00 0. -1.
          1   -1    0    0  501    0 -0.00000000000E+00 -0.00000000000E+00 -0.17223940678E+03  0.17223940678E+03  0.00000000000E+00 0. -1.
          2    1    1    2  501    0 -0.17441038010E+02  0.16977008396E+02  0.17594651568E+03  0.17762202848E+03  0.00000000000E+00 0. -1.
          1    1    1    2  502    0  0.17441038010E+02 -0.16977008396E+02 -0.17053758545E+03  0.17226571531E+03  0.00000000000E+00 0. -1.
</event>
<event>
 4    1  0.3586324E+003  0.2246794E+02  0.7546771E-02  0.1499290E+00
          2   -1    0    0  502    0  0.00000000000E+00  0.00000000000E+00  0.18006947850E+03  0.18006947850E+03  0.00000000000E+00 0.  1.
          1   -1    0    0  501    0 -0.00000000000E+00 -0.00000000000E+00 -0.83171020350E+01  0.83171020350E+01  0.00000000000E+00 0.  1.
          2    1    1    2  501    0  0.22460372088E+02 -0.58295687906E+00  0.16256911257E+03  0.16411436414E+03  0.00000000000E+00 0.  1.
          1    1    1    2  502    0 -0.22460372088E+02  0.58295687906E+00  0.91832638875E+01  0.24272216394E+02  0.00000000000E+00 0.  1.
</event>
<event>
 4    1  0.3586324E+003  0.2475872E+02  0.7546771E-02  0.1471521E+00
          2   -1    0    0  502    0  0.00000000000E+00  0.00000000000E+00  0.54323096052E+03  0.54323096052E+03  0.00000000000E+00 0. -1.
          1   -1    0    0  501    0 -0.00000000000E+00 -0.00000000000E+00 -0.14301369125E+03  0.14301369125E+03  0.00000000000E+00 0.  1.
          2    1    1    2  501    0 -0.23789417518E+02  0.68598614348E+01  0.54187460868E+03  0.54243993734E+03  0.00000000000E+00 0. -1.
          1    1    1    2  502    0  0.23789417518E+02 -0.68598614348E+01 -0.14165733941E+03  0.14380471444E+03  0.00000000000E+00 0.  1.
</event>
<event>
 4    1  0.3586324E+003  0.6273013E+02  0.7546771E-02  0.1250828E+00
          2   -1    0    0  502    0  0.00000000000E+00  0.00000000000E+00  0.11436655031E+03  0.11436655031E+03  0.00000000000E+00 0. -1.
          1   -1    0    0  501    0 -0.00000000000E+00 -0.00000000000E+00 -0.39256252921E+03  0.39256252921E+03  0.00000000000E+00 0.  1.
          2    1    1    2  501    0 -0.25189435225E+02  0.57450510949E+02  0.10300397043E+03  0.12060218398E+03  0.00000000000E+00 0. -1.
          1    1    1    2  502    0  0.25189435225E+02 -0.57450510949E+02 -0.38119994933E+03  0.38632689555E+03  0.00000000000E+00 0.  1.
</event>
<event>
 4    1  0.3586324E+003  0.2251820E+02  0.7546771E-02  0.1498638E+00
          2   -1    0    0  502    0  0.00000000000E+00  0.00000000000E+00  0.25137342615E+01  0.25137342615E+01  0.00000000000E+00 0.  1.
          1   -1    0    0  501    0 -0.00000000000E+00 -0.00000000000E+00 -0.15524076489E+04  0.15524076489E+04  0.00000000000E+00 0.  1.
          2    1    1    2  501    0  0.10119104297E+02 -0.20116489134E+02 -0.49754821264E+02  0.54613291842E+02  0.00000000000E+00 0.  1.
          1    1    1    2  502    0 -0.10119104297E+02  0.20116489134E+02 -0.15001390934E+04  0.15003080913E+04  0.00000000000E+00 0.  1.
</event>
<event>
 4    1  0.3586324E+003  0.3009146E+02  0.7546771E-02  0.1418803E+00
          2   -1    0    0  502    0  0.00000000000E+00  0.00000000000E+00  0.14262499958E+02  0.14262499958E+02  0.00000000000E+00 0. -1.
          1   -1    0    0  501    0 -0.00000000000E+00 -0.00000000000E+00 -0.80344289895E+02  0.80344289895E+02  0.00000000000E+00 0. -1.
          2    1    1    2  501    0  0.19610013064E+02  0.22824189585E+02 -0.11373982844E+02  0.32169297915E+02  0.00000000000E+00 0. -1.
          1    1    1    2  502    0 -0.19610013064E+02 -0.22824189585E+02 -0.54707807093E+02  0.62437491938E+02  0.00000000000E+00 0. -1.
</event>
<event>
 4    1  0.3586324E+003  0.2547356E+02  0.7546771E-02  0.1463575E+00
          2   -1    0    0  502    0  0.00000000000E+00  0.00000000000E+00  0.25276653841E+03  0.25276653841E+03  0.00000000000E+00 0. -1.
          1   -1    0    0  501    0 -0.00000000000E+00 -0.00000000000E+00 -0.56747588799E+02  0.56747588799E+02  0.00000000000E+00 0. -1.
          2    1    1    2  501    0  0.94824123010E+01 -0.23642889108E+02  0.24922550458E+03  0.25052395989E+03  0.00000000000E+00 0. -1.
          1    1    1    2  502    0 -0.94824123010E+01  0.23642889108E+02 -0.53206554967E+02  0.58990167316E+02  0.00000000000E+00 0. -1.
</event>
<event>
 4    1  0.3586324E+003  0.2036535E+02  0.7546771E-02  0.1528522E+00
          2   -1    0    0  502    0  0.00000000000E+00  0.00000000000E+00  0.82454250015E+00  0.82454250015E+00  0.00000000000E+00 0.  1.
          1   -1    0    0  501    0 -0.00000000000E+00 -0.00000000000E+00 -0.85172219916E+03  0.85172219916E+03  0.00000000000E+00 0. -1.
          2    1    1    2  501    0 -0.20070225105E+02  0.34544868724E+01 -0.15269107739E+03  0.15404321643E+03  0.00000000000E+00 0.  1.
          1    1    1    2  502    0  0.20070225105E+02 -0.34544868724E+01 -0.69820657927E+03  0.69850352523E+03  0.00000000000E+00 0. -1.
</event>
<event>
 4    1  0.3586324E+003  0.2043796E+02  0.7546771E-02  0.1527443E+00
          2   -1    0    0  502    0  0.00000000000E+00  0.00000000000E+00  0.16880865318E+04  0.16880865318E+04  0.00000000000E+00 0. -1.
          1   -1    0    0  501    0 -0.00000000000E+00 -0.00000000000E+00 -0.27425231732E+00  0.27425231732E+00  0.00000000000E+00 0. -1.
          2    1    1    2  501    0  0.11315208740E+02 -0.17019875131E+02  0.11078304896E+04  0.11080189997E+04  0.00000000000E+00 0. -1.
          1    1    1    2  502    0 -0.11315208740E+02  0.17019875131E+02  0.57998178988E+03  0.58034178438E+03  0.00000000000E+00 0. -1.
</event>
<event>
 4    1  0.3586324E+003  0.2410651E+02  0.7546771E-02  0.1479052E+00
          2   -1    0    0  502    0  0.00000000000E+00  0.00000000000E+00  0.12036708914E+03  0.12036708914E+03  0.00000000000E+00 0. -1.
          1   -1    0    0  501    0 -0.00000000000E+00 -0.00000000000E+00 -0.96068315811E+02  0.96068315811E+02  0.00000000000E+00 0. -1.
          2    1    1    2  501    0 -0.22519390097E+02 -0.86023649354E+01  0.11761279014E+03  0.12005786946E+03  0.00000000000E+00 0. -1.
          1    1    1    2  502    0  0.22519390097E+02  0.86023649354E+01 -0.93314016818E+02  0.96377535492E+02  0.00000000000E+00 0. -1.
</event>
<event>
 4    1  0.3586324E+003  0.3038839E+02  0.7546771E-02  0.1416251E+00
          2   -1    0    0  502    0  0.00000000000E+00  0.00000000000E+00  0.84732129536E+00  0.84732129536E+00  0.00000000000E+00 0.  1.
          1   -1    0    0  501    0 -0.00000000000E+00 -0.00000000000E+00 -0.11309356841E+04  0.11309356841E+04  0.00000000000E+00 0.  1.
          2    1    1    2  501    0 -0.30387509791E+02 -0.22884493289E+00 -0.67290393737E+03  0.67358975798E+03  0.00000000000E+00 0.  1.
          1    1    1    2  502    0  0.30387509791E+02  0.22884493289E+00 -0.45718442548E+03  0.45819324746E+03  0.00000000000E+00 0.  1.
</event>
<event>
 4    1  0.3586324E+003  0.6694801E+02  0.7546771E-02  0.1237893E+00
          2   -1    0    0  502    0  0.00000000000E+00  0.00000000000E+00  0.19065405467E+04  0.19065405467E+04  0.00000000000E+00 0.  1.
          1   -1    0    0  501    0 -0.00000000000E+00 -0.00000000000E+00 -0.84907750969E+02  0.84907750969E+02  0.00000000000E+00 0.  1.
          2    1    1    2  501    0 -0.48092384507E+02 -0.46574233031E+02  0.18926592869E+04  0.18938429747E+04  0.00000000000E+00 0.  1.
          1    1    1    2  502    0  0.48092384507E+02  0.46574233031E+02 -0.71026491137E+02  0.97605322976E+02  0.00000000000E+00 0.  1.
</event>
<event>
 4    1  0.3586324E+003  0.3011468E+02  0.7546771E-02  0.1418602E+00
          2   -1    0    0  502    0  0.00000000000E+00  0.00000000000E+00  0.46986680656E+02  0.46986680656E+02  0.00000000000E+00 0. -1.
          1   -1    0    0  501    0 -0.00000000000E+00 -0.00000000000E+00 -0.12152854392E+03  0.12152854392E+03  0.00000000000E+00 0.  1.
          2    1    1    2  501    0  0.29165546576E+02 -0.75009860638E+01  0.40006696558E+02  0.50074241567E+02  0.00000000000E+00 0. -1.
          1    1    1    2  502    0 -0.29165546576E+02  0.75009860638E+01 -0.11454855982E+03  0.11844098301E+03  0.00000000000E+00 0.  1.
</event>
<event>
 4    1  0.3586324E+003  0.2086787E+02  0.7546771E-02  0.1521160E+00
          2   -1    0    0  502    0  0.00000000000E+00  0.00000000000E+00  0.36594005599E+02  0.36594005599E+02  0.00000000000E+00 0.  1.
          1   -1    0    0  501    0 -0.00000000000E+00 -0.00000000000E+00 -0.11819015017E+03  0.11819015017E+03  0.00000000000E+00 0.  1.
          2    1    1    2  501    0 -0.18868427478E+02  0.89134991466E+01  0.32594551019E+02  0.38702361410E+02  0.00000000000E+00 0.  1.
          1    1    1    2  502    0  0.18868427478E+02 -0.89134991466E+01 -0.11419069559E+03  0.11608179436E+03  0.00000000000E+00 0.  1.
</event>
<event>
 4    1  0.3586324E+003  0.3619604E+02  0.7546771E-02  0.1372344E+00
          2   -1    0    0  502    0  0.00000000000E+00  0.00000000000E+00  0.10997452579E+02  0.10997452579E+02  0.00000000000E+00 0. -1.
          1   -1    0    0  501    0 -0.00000000000E+00 -0.00000000000E+00 -0.48021516422E+03  0.48021516422E+03  0.00000000000E+00 0. -1.
          2    1    1    2  501    0  0.26619439234E+02  0.24526692268E+02 -0.21635660174E+02  0.42169360559E+02  0.00000000000E+00 0. -1.
          1    1    1    2  502    0 -0.26619439234E+02 -0.24526692268E+02 -0.44758205146E+03  0.44904325624E+03  0.00000000000E+00 0. -1.
</event>
<event>
 4    1  0.3586324E+003  0.2267361E+02  0.7546771E-02  0.1496638E+00
          2   -1    0    0  502    0  0.00000000000E+00  0.00000000000E+00  0.46663285160E+02  0.46663285160E+02  0.00000000000E+00 0. -1.
          1   -1    0    0  501    0 -0.00000000000E+00 -0.00000000000E+00 -0.13661889590E+04  0.13661889590E+04  0.00000000000E+00 0.  1.
          2    1    1    2  501    0 -0.80235836036E+01  0.21206472995E+02  0.43809179446E+02  0.49328861678E+02  0.00000000000E+00 0. -1.
          1    1    1    2  502    0  0.80235836036E+01 -0.21206472995E+02 -0.13633348533E+04  0.13635233825E+04  0.00000000000E+00 0.  1.
</event>
<event>
 4    1  0.3586324E+003  0.3230929E+02  0.7546771E-02  0.1400535E+00
          2   -1    0    0  502    0  0.00000000000E+00  0.00000000000E+00  0.10701565492E+04  0.10701565492E+04  0.00000000000E+00 0.  1.
          1   -1    0    0  501    0 -0.00000000000E+00 -0.00000000000E+00 -0.17451233697E+01  0.17451233697E+01  0.00000000000E+00 0.  1.
          2    1    1    2  501    0 -0.27166651945E+02  0.17488938797E+02  0.89013489736E+03  0.89072107052E+03  0.00000000000E+00 0.  1.
          1    1    1    2  502    0  0.27166651945E+02 -0.17488938797E+02  0.17827652847E+03  0.18118060205E+03  0.00000000000E+00 0.  1.
</event>
<event>
 4    1  0.3586324E+003  0.2033738E+02  0.7546771E-02  0.1528939E+00
          2   -1    0    0  502    0  0.00000000000E+00  0.00000000000E+00  0.14275256397E+04  0.14275256397E+04  0.00000000000E+00 0. -1.
          1   -1    0    0  501    0 -0.00000000000E+00 -0.00000000000E+00 -0.14863615699E+01  0.14863615699E+01  0.00000000000E+00 0. -1.
          2    1    1    2  501    0 -0.69103945406E+01  0.19127350989E+02  0.13541145595E+04  0.13542672740E+04  0.00000000000E+00 0. -1.
          1    1    1    2  502    0  0.69103945406E+01 -0.19127350989E+02  0.71924718653E+02  0.74744727318E+02  0.00000000000E+00 0. -1.
</event>
<event>
 4    1  0.3586324E+003  0.2097808E+02  0.7546771E-02  0.1519578E+00
          2   -1    0    0  502    0  0.00000000000E+00  0.00000000000E+00  0.20677878904E+01  0.20677878904E+01  0.00000000000E+00 0. -1.
          1   -1    0    0  501    0 -0.00000000000E+00 -0.00000000000E+00 -0.13388225256E+04  0.13388225256E+04  0.00000000000E+00 0. -1.
          2    1    1    2  501    0  0.17220171417E+02 -0.11981041080E+02 -0.53525893430E+02  0.57490007102E+02  0.00000000000E+00 0. -1.
          1    1    1    2  502    0 -0.17220171417E+02  0.11981041080E+02 -0.12832288443E+04  0.12834003064E+04  0.00000000000E+00 0. -1.
</event>
<event>
 4    1  0.3586324E+003  0.2232961E+02  0.7546771E-02  0.1501092E+00
          2   -1    0    0  502    0  0.00000000000E+00  0.00000000000E+00  0.71756419467E+03  0.71756419467E+03  0.00000000000E+00 0.  1.
          1   -1    0    0  501    0 -0.00000000000E+00 -0.00000000000E+00 -0.16429707814E+01  0.16429707814E+01  0.00000000000E+00 0.  1.
          2    1    1    2  501    0  0.10939470878E+02 -0.19466368862E+02  0.63113317271E+03  0.63152806212E+03  0.00000000000E+00 0.  1.
          1    1    1    2  502    0 -0.10939470878E+02  0.19466368862E+02  0.84788051178E+02  0.87679103338E+02  0.00000000000E+00 0.  1.
</event>
<event>
 4    1  0.3586324E+003  0.4434088E+02  0.7546771E-02  0.1324768E+00
          2   -1    0    0  502    0  0.00000000000E+00  0.00000000000E+00  0.37758760129E+03  0.37758760129E+03  0.00000000000E+00 0.  1.
          1   -1    0    0  501    0 -0.00000000000E+00 -0.00000000000E+00 -0.31467496325E+02  0.31467496325E+02  0.00000000000E+00 0.  1.
          2    1    1    2  501    0  0.18136601843E+02 -0.40462049808E+02  0.35990090982E+03  0.36262208798E+03  0.00000000000E+00 0.  1.
          1    1    1    2  502    0 -0.18136601843E+02  0.40462049808E+02 -0.13780804858E+02  0.46433009633E+02  0.00000000000E+00 0.  1.
</event>
<event>
 4    1  0.3586324E+003  0.4209287E+02  0.7546771E-02  0.1336640E+00
          2   -1    0    0  502    0  0.00000000000E+00  0.00000000000E+00  0.15218609609E+03  0.15218609609E+03  0.00000000000E+00 0.  1.
          1   -1    0    0  501    0 -0.00000000000E+00 -0.00000000000E+00 -0.16825383973E+02  0.16825383973E+02  0.00000000000E+00 0.  1.
          2    1    1    2  501    0  0.17046337392E+02 -0.38486775955E+02  0.11458265853E+03  0.12206963250E+03  0.00000000000E+00 0.  1.
          1    1    1    2  502    0 -0.17046337392E+02  0.38486775955E+02  0.20778053582E+02  0.46941847563E+02  0.00000000000E+00 0.  1.
</event>
<event>
 4    1  0.3586324E+003  0.2238657E+02  0.7546771E-02  0.1500348E+00
          2   -1    0    0  502    0  0.00000000000E+00  0.00000000000E+00  0.18944991883E+02  0.18944991883E+02  0.00000000000E+00 0. -1.
          1   -1    0    0  501    0 -0.00000000000E+00 -0.00000000000E+00 -0.65504950151E+03  0.65504950151E+03  0.00000000000E+00 0.  1.
          2    1    1    2  501    0 -0.22379527651E+02  0.56152237320E+00  0.12070264035E+02  0.25433242796E+02  0.00000000000E+00 0. -1.
          1    1    1    2  502    0  0.22379527651E+02 -0.56152237320E+00 -0.64817477366E+03  0.64856125060E+03  0.00000000000E+00 0.  1.
</event>
<event>
 4    1  0.3586324E+003  0.2903601E+02  0.7546771E-02  0.1428162E+00
          2   -1    0    0  502    0  0.00000000000E+00  0.00000000000E+00  0.60746534451E+02  0.60746534451E+02  0.00000000000E+00 0. -1.
          1   -1    0    0  501    0 -0.00000000000E+00 -0.00000000000E+00 -0.42588767115E+02  0.42588767115E+02  0.00000000000E+00 0. -1.
          2    1    1    2  501    0 -0.28678143908E+02 -0.45446882695E+01  0.51500517279E+02  0.59121852217E+02  0.00000000000E+00 0. -1.
          1    1    1    2  502    0  0.28678143908E+02  0.45446882695E+01 -0.33342749943E+02  0.44213449348E+02  0.00000000000E+00 0. -1.
</event>
<event>
 4    1  0.3586324E+003  0.2334800E+02  0.7546771E-02  0.1488174E+00
          2   -1    0    0  502    0  0.00000000000E+00  0.00000000000E+00  0.42468667556E+03  0.42468667556E+03  0.00000000000E+00 0. -1.
          1   -1    0    0  501    0 -0.00000000000E+00 -0.00000000000E+00 -0.25567585170E+03  0.25567585170E+03  0.00000000000E+00 0.  1.
          2    1    1    2  501    0 -0.20859413970E+02 -0.10488756895E+02  0.42383167266E+03  0.42447428181E+03  0.00000000000E+00 0. -1.
          1    1    1    2  502    0  0.20859413970E+02  0.10488756895E+02 -0.25482084880E+03  0.25588824544E+03  0.00000000000E+00 0.  1.
</event>
<event>
 4    1  0.3586324E+003  0.3194423E+02  0.7546771E-02  0.1403421E+00
          2   -1    0    0  502    0  0.00000000000E+00  0.00000000000E+00  0.56513696854E+03  0.56513696854E+03  0.00000000000E+00 0. -1.
          1   -1    0    0  501    0 -0.00000000000E+00 -0.00000000000E+00 -0.53219767012E+02  0.53219767012E+02  0.00000000000E+00 0. -1.
          2    1    1    2  501    0  0.11940768237E+02  0.29628569629E+02  0.55984680825E+03  0.56075741884E+03  0.00000000000E+00 0. -1.
          1    1    1    2  502    0 -0.11940768237E+02 -0.29628569629E+02 -0.47929606722E+02  0.57599316705E+02  0.00000000000E+00 0. -1.
</event>
<event>
 4    1  0.3586324E+003  0.4100543E+02  0.7546771E-02  0.1342693E+00
          2   -1    0    0  502    0  0.00000000000E+00  0.00000000000E+00  0.21185693243E+04  0.21185693243E+04  0.00000000000E+00 0. -1.
          1   -1    0    0  501    0 -0.00000000000E+00 -0.00000000000E+00 -0.95109191176E+00  0.95109191176E+00  0.00000000000E+00 0. -1.
          2    1    1    2  501    0  0.35262827990E+02  0.20927930776E+02  0.14899594129E+04  0.14905235649E+04  0.00000000000E+00 0. -1.
          1    1    1    2  502    0 -0.35262827990E+02 -0.20927930776E+02  0.62765881947E+03  0.62899685133E+03  0.00000000000E+00 0. -1.
</event>
<event>
 4    1  0.3586324E+003  0.3997959E+02  0.7546771E-02  0.1348605E+00
          2   -1    0    0  502    0  0.00000000000E+00  0.00000000000E+00  0.13745668707E+04  0.13745668707E+04  0.00000000000E+00 0. -1.
          1   -1    0    0  501    0 -0.00000000000E+00 -0.00000000000E+00 -0.14016009614E+02  0.14016009614E+02  0.00000000000E+00 0. -1.
          2    1    1    2  501    0 -0.33278551456E+02  0.22156391839E+02  0.13451430013E+04  0.13457369957E+04  0.00000000000E+00 0. -1.
          1    1    1    2  502    0  0.33278551456E+02 -0.22156391839E+02  0.15407859830E+02  0.42845884643E+02  0.00000000000E+00 0. -1.
</event>
<event>
 4    1  0.3586324E+003  0.2456833E+02  0.7546771E-02  0.1473691E+00
          2   -1    0    0  502    0  0.00000000000E+00  0.00000000000E+00  0.11997360279E+04  0.11997360279E+04  0.00000000000E+00 0.  1.
          1   -1    0    0  501    0 -0.00000000000E+00 -0.00000000000E+00 -0.53665537960E+01  0.53665537960E+01  0.00000000000E+00 0.  1.
          2    1    1    2  501    0 -0.23770562868E+02 -0.62099071369E+01  0.11707965694E+04  0.11710543153E+04  0.00000000000E+00 0.  1.
          1    1    1    2  502    0  0.23770562868E+02  0.62099071369E+01  0.23572904773E+02  0.34048266405E+02  0.00000000000E+00 0.  1.
</event>
<event>
 4    1  0.3586324E+003  0.4256797E+02  0.7546771E-02  0.1334061E+00
          2   -1    0    0  502    0  0.00000000000E+00  0.00000000000E+00  0.21807457351E+03  0.21807457351E+03  0.00000000000E+00 0. -1.
          1   -1    0    0  501    0 -0.00000000000E+00 -0.00000000000E+00 -0.14355780283E+03  0.14355780283E+03  0.00000000000E+00 0.  1.
          2    1    1    2  501    0 -0.12190558106E+02  0.40785077344E+02  0.21276369111E+03  0.21698023066E+03  0.00000000000E+00 0. -1.
          1    1    1    2  502    0  0.12190558106E+02 -0.40785077344E+02 -0.13824692044E+03  0.14465214568E+03  0.00000000000E+00 0.  1.
</event>
<event>
 4    1  0.3586324E+003  0.2749094E+02  0.7546771E-02  0.1442738E+00
          2   -1    0    0  502    0  0.00000000000E+00  0.00000000000E+00  0.22795834635E+03  0.22795834635E+03  0.00000000000E+00 0.  1.
          1   -1    0    0  501    0 -0.00000000000E+00 -0.00000000000E+00 -0.11997660219E+03  0.11997660219E+03  0.00000000000E+00 0.  1.
          2    1    1    2  501    0  0.27053836034E+02  0.48828093686E+01  0.22553789130E+03  0.22720715720E+03  0.00000000000E+00 0.  1.
          1    1    1    2  502    0 -0.27053836034E+02 -0.48828093686E+01 -0.11755614714E+03  0.12072779134E+03  0.00000000000E+00 0.  1.
</event>
<event>
 4    1  0.3586324E+003  0.2741411E+02  0.7546771E-02  0.1443492E+00
          2   -1    0    0  502    0  0.00000000000E+00  0.00000000000E+00  0.10650792600E+04  0.10650792600E+04  0.00000000000E+00 0.  1.
          1   -1    0    0  501    0 -0.00000000000E+00 -0.00000000000E+00 -0.35661975805E+02  0.35661975805E+02  0.00000000000E+00 0.  1.
          2    1    1    2  501    0  0.25828490422E+02  0.91881788806E+01  0.10596072024E+04  0.10599617715E+04  0.00000000000E+00 0.  1.
          1    1    1    2  502    0 -0.25828490422E+02 -0.91881788806E+01 -0.30189918230E+02  0.40779464334E+02  0.00000000000E+00 0.  1.
</event>
<event>
 4    1  0.3586324E+003  0.4623496E+02  0.7546771E-02  0.1315377E+00
          2   -1    0    0  502    0  0.00000000000E+00  0.00000000000E+00  0.27274957272E+02  0.27274957272E+02  0.00000000000E+00 0. -1.
          1   -1    0    0  501    0 -0.00000000000E+00 -0.00000000000E+00 -0.93973534922E+03  0.93973534922E+03  0.00000000000E+00 0.  1.
          2    1    1    2  501    0 -0.53361809087E+01  0.45925988281E+02  0.66736576441E+01  0.46714119200E+02  0.00000000000E+00 0. -1.
          1    1    1    2  502    0  0.53361809087E+01 -0.45925988281E+02 -0.91913404959E+03  0.92029618729E+03  0.00000000000E+00 0.  1.
</event>
<event>
 4    1  0.3586324E+003  0.2098400E+02  0.7546771E-02  0.1519493E+00
          2   -1    0    0  502    0  0.00000000000E+00  0.00000000000E+00  0.74427072303E+01  0.74427072303E+01  0.00000000000E+00 0. -1.
          1   -1    0    0  501    0 -0.00000000000E+00 -0.00000000000E+00 -0.19464985378E+03  0.19464985378E+03  0.00000000000E+00 0. -1.
          2    1    1    2  501    0  0.18415998090E+02  0.10058800146E+02 -0.93006127344E+01  0.22952774195E+02  0.00000000000E+00 0. -1.
          1    1    1    2  502    0 -0.18415998090E+02 -0.10058800146E+02 -0.17790653382E+03  0.17913978682E+03  0.00000000000E+00 0. -1.
</event>
<event>
 4    1  0.3586324E+003  0.2570204E+02  0.7546771E-02  0.1461101E+00
          2   -1    0    0  502    0  0.00000000000E+00  0.00000000000E+00  0.25050951299E+03  0.25050951299E+03  0.00000000000E+00 0.  1.
          1   -1    0    0  501    0 -0.00000000000E+00 -0.00000000000E+00 -0.42073397506E+01  0.42073397506E+01  0.00000000000E+00 0.  1.
          2    1    1    2  501    0  0.15067631353E+02  0.20822141465E+02  0.20095830231E+03  0.20259524761E+03  0.00000000000E+00 0.  1.
          1    1    1    2  502    0 -0.15067631353E+02 -0.20822141465E+02  0.45343870930E+02  0.52121605124E+02  0.00000000000E+00 0.  1.
</event>
<event>
 4    1  0.3586324E+003  0.2348977E+02  0.7546771E-02  0.1486438E+00
          2   -1    0    0  502    0  0.00000000000E+00  0.00000000000E+00  0.10026610919E+04  0.10026610919E+04  0.00000000000E+00 0. -1.
          1   -1    0    0  501    0 -0.00000000000E+00 -0.00000000000E+00 -0.12161483026E+01  0.12161483026E+01  0.00000000000E+00 0.  1.
          2    1    1    2  501    0  0.23255679838E+02  0.33079546130E+01  0.87212377862E+03  0.87244005779E+03  0.00000000000E+00 0. -1.
          1    1    1    2  502    0 -0.23255679838E+02 -0.33079546130E+01  0.12932116496E+03  0.13143718239E+03  0.00000000000E+00 0.  1.
</event>
<event>
 4    1  0.3586324E+003  0.2101618E+02  0.7546771E-02  0.1519034E+00
          2   -1    0    0  502    0  0.00000000000E+00  0.00000000000E+00  0.79307573004E+01  0.79307573004E+01  0.00000000000E+00 0.  1.
          1   -1    0    0  501    0 -0.00000000000E+00 -0.00000000000E+00 -0.14951435340E+04  0.14951435340E+04  0.00000000000E+00 0. -1.
          2    1    1    2  501    0 -0.21011266943E+02 -0.45449541198E+00 -0.61989268726E+01  0.21911334943E+02  0.00000000000E+00 0.  1.
          1    1    1    2  502    0  0.21011266943E+02  0.45449541198E+00 -0.14810138499E+04  0.14811629564E+04  0.00000000000E+00 0. -1.
</event>
<event>
 4    1  0.3586324E+003  0.3145431E+02  0.7546771E-02  0.1407366E+00
          2   -1    0    0  502    0  0.00000000000E+00  0.00000000000E+00  0.10340526294E+03  0.10340526294E+03  0.00000000000E+00 0.  1.
          1   -1    0    0  501    0 -0.00000000000E+00 -0.00000000000E+00 -0.10533010880E+02  0.10533010880E+02  0.00000000000E+00 0.  1.
          2    1    1    2  501    0 -0.11036659853E+02 -0.29454465541E+02  0.63680491696E+02  0.71025195696E+02  0.00000000000E+00 0.  1.
          1    1    1    2  502    0  0.11036659853E+02  0.29454465541E+02  0.29191760367E+02  0.42913078127E+02  0.00000000000E+00 0.  1.
</event>
<event>
 4    1  0.3586324E+003  0.2400556E+02  0.7546771E-02  0.1480243E+00
          2   -1    0    0  502    0  0.00000000000E+00  0.00000000000E+00  0.17148542065E+04  0.17148542065E+04  0.00000000000E+00 0.  1.
          1   -1    0    0  501    0 -0.00000000000E+00 -0.00000000000E+00 -0.55384505813E+00  0.55384505813E+00  0.00000000000E+00 0.  1.
          2    1    1    2  501    0  0.29117971740E+01 -0.23828302549E+02  0.31928523411E+03  0.32018639460E+03  0.00000000000E+00 0.  1.
          1    1    1    2  502    0 -0.29117971740E+01  0.23828302549E+02  0.13950151273E+04  0.13952216570E+04  0.00000000000E+00 0.  1.
</event>
<event>
 4    1  0.3586324E+003  0.2526232E+02  0.7546771E-02  0.1465890E+00
          2   -1    0    0  502    0  0.00000000000E+00  0.00000000000E+00  0.11974548477E+04  0.11974548477E+04  0.00000000000E+00 0. -1.
          1   -1    0    0  501    0 -0.00000000000E+00 -0.00000000000E+00 -0.65180166048E+00  0.65180166048E+00  0.00000000000E+00 0.  1.
          2    1    1    2  501    0  0.17855286215E+02  0.17871029165E+02  0.85420608828E+03  0.85457956107E+03  0.00000000000E+00 0. -1.
          1    1    1    2  502    0 -0.17855286215E+02 -0.17871029165E+02  0.34259695778E+03  0.34352708832E+03  0.00000000000E+00 0.  1.
</event>
<event>
 4    1  0.3586324E+003  0.2571644E+02  0.7546771E-02  0.1460946E+00
          2   -1    0    0  502    0  0.00000000000E+00  0.00000000000E+00  0.10191118262E+04  0.10191118262E+04  0.00000000000E+00 0.  1.
          1   -1    0    0  501    0 -0.00000000000E+00 -0.00000000000E+00 -0.43660910488E+01  0.43660910488E+01  0.00000000000E+00 0. -1.
          2    1    1    2  501    0  0.17373696412E+02  0.18960226754E+02  0.97955286705E+03  0.97989037901E+03  0.00000000000E+00 0.  1.
          1    1    1    2  502    0 -0.17373696412E+02 -0.18960226754E+02  0.35192868153E+02  0.43587538293E+02  0.00000000000E+00 0. -1.
</event>
<event>
 4    1  0.3586324E+003  0.2215838E+02  0.7546771E-02  0.1503346E+00
          2   -1    0    0  502    0  0.00000000000E+00  0.00000000000E+00  0.48985837841E+01  0.48985837841E+01  0.00000000000E+00 0. -1.
          1   -1    0    0  501    0 -0.00000000000E+00 -0.00000000000E+00 -0.10074692924E+03  0.10074692924E+03  0.00000000000E+00 0. -1.
          2    1    1    2  501    0 -0.18080819476E+02  0.12809277554E+02 -0.44146847327E+02  0.49395726063E+02  0.00000000000E+00 0. -1.
          1    1    1    2  502    0  0.18080819476E+02 -0.12809277554E+02 -0.51701498126E+02  0.56249786959E+02  0.00000000000E+00 0. -1.
</event>
<event>
 4    1  0.3586324E+003  0.2026737E+02  0.7546771E-02  0.1529987E+00
          2   -1    0    0  502    0  0.00000000000E+00  0.00000000000E+00  0.18470570627E+03  0.18470570627E+03  0.00000000000E+00 0.  1.
          1   -1    0    0  501    0 -0.00000000000E+00 -0.00000000000E+00 -0.28995328075E+03  0.28995328075E+03  0.00000000000E+00 0.  1.
          2    1    1    2  501    0  0.69826604985E+01  0.19026529537E+02  0.18379381426E+03  0.18490790284E+03  0.00000000000E+00 0.  1.
          1    1    1    2  502    0 -0.69826604985E+01 -0.19026529537E+02 -0.28904138875E+03  0.28975108418E+03  0.00000000000E+00 0.  1.
</event>
<event>
 4    1  0.3586324E+003  0.2100142E+02  0.7546771E-02  0.1519244E+00
          2   -1    0    0  502    0  0.00000000000E+00  0.00000000000E+00  0.11026763465E+03  0.11026763465E+03  0.00000000000E+00 0.  1.
          1   -1    0    0  501    0 -0.00000000000E+00 -0.00000000000E+00 -0.81426526513E+03  0.81426526513E+03  0.00000000000E+00 0. -1.
          2    1    1    2  501    0  0.20763771341E+02  0.31504743290E+01  0.10913084501E+03  0.11113325794E+03  0.00000000000E+00 0.  1.
          1    1    1    2  502    0 -0.20763771341E+02 -0.31504743290E+01 -0.81312847549E+03  0.81339964183E+03  0.00000000000E+00 0. -1.
</event>
<event>
 4    1  0.3586324E+003  0.2821515E+02  0.7546771E-02  0.1435769E+00
          2   -1    0    0  502    0  0.00000000000E+00  0.00000000000E+00  0.15922274524E+02  0.15922274524E+02  0.00000000000E+00 0. -1.
          1   -1    0    0  501    0 -0.00000000000E+00 -0.00000000000E+00 -0.90978181308E+02  0.90978181308E+02  0.00000000000E+00 0. -1.
          2    1    1    2  501    0 -0.24774148005E+02  0.13503205093E+02 -0.16552982713E+01  0.28263668720E+02  0.00000000000E+00 0. -1.
          1    1    1    2  502    0  0.24774148005E+02 -0.13503205093E+02 -0.73400608513E+02  0.78636787112E+02  0.00000000000E+00 0. -1.
</event>
<event>
 4    1  0.3586324E+003  0.2154557E+02  0.7546771E-02  0.1511616E+00
          2   -1    0    0  502    0  0.00000000000E+00  0.00000000000E+00  0.23557792171E+02  0.23557792171E+02  0.00000000000E+00 0.  1.
          1   -1    0    0  501    0 -0.00000000000E+00 -0.00000000000E+00 -0.47413577795E+02  0.47413577795E+02  0.00000000000E+00 0.  1.
          2    1    1    2  501    0 -0.20978467329E+02  0.49107475297E+01  0.15199446767E+02  0.26367303897E+02  0.00000000000E+00 0.  1.
          1    1    1    2  502    0  0.20978467329E+02 -0.49107475297E+01 -0.39055232391E+02  0.44604066069E+02  0.00000000000E+00 0.  1.
</event>
<event>
 4    1  0.3586324E+003  0.2063481E+02  0.7546771E-02  0.1524543E+00
          2   -1    0    0  502    0  0.00000000000E+00  0.00000000000E+00  0.22564222465E+03  0.22564222465E+03  0.00000000000E+00 0.  1.
          1   -1    0    0  501    0 -0.00000000000E+00 -0.00000000000E+00 -0.85851139498E+02  0.85851139498E+02  0.00000000000E+00 0.  1.
          2    1    1    2  501    0  0.17548753916E+02 -0.10855261324E+02  0.22392103074E+03  0.22486979225E+03  0.00000000000E+00 0.  1.
          1    1    1    2  502    0 -0.17548753916E+02  0.10855261324E+02 -0.84129945588E+02  0.86623571890E+02  0.00000000000E+00 0.  1.
</event>
<event>
 4    1  0.3586324E+003  0.5225907E+02  0.7546771E-02  0.1288664E+00
          2   -1    0    0  502    0  0.00000000000E+00  0.00000000000E+00  0.13669651991E+04  0.13669651991E+04  0.00000000000E+00 0. -1.
          1   -1    0    0  501    0 -0.00000000000E+00 -0.00000000000E+00 -0.36749149563E+01  0.36749149563E+01  0.00000000000E+00 0.  1.
          2    1    1    2  501    0  0.23805495488E+02  0.46522134032E+02  0.11446045608E+04  0.11457969328E+04  0.00000000000E+00 0. -1.
          1    1    1    2  502    0 -0.23805495488E+02 -0.46522134032E+02  0.21868572330E+03  0.22484318123E+03  0.00000000000E+00 0.  1.
</event>
<event>
 4    1  0.3586324E+003  0.5027592E+02  0.7546771E-02  0.1296981E+00
          2   -1    0    0  502    0  0.00000000000E+00  0.00000000000E+00  0.21554502736E+03  0.21554502736E+03  0.00000000000E+00 0. -1.
          1   -1    0    0  501    0 -0.00000000000E+00 -0.00000000000E+00 -0.55998034469E+03  0.55998034469E+03  0.00000000000E+00 0.  1.
          2    1    1    2  501    0  0.41463698448E+02 -0.28432903318E+02  0.21146336502E+03  0.21735782255E+03  0.00000000000E+00 0. -1.
          1    1    1    2  502    0 -0.41463698448E+02  0.28432903318E+02 -0.55589868235E+03  0.55816754950E+03  0.00000000000E+00 0.  1.
</event>
<event>
 4    1  0.3586324E+003  0.2259876E+02  0.7546771E-02  0.1497599E+00
          2   -1    0    0  502    0  0.00000000000E+00  0.00000000000E+00  0.35502482163E+02  0.35502482163E+02  0.00000000000E+00 0. -1.
          1   -1    0    0  501    0 -0.00000000000E+00 -0.00000000000E+00 -0.14460826215E+02  0.14460826215E+02  0.00000000000E+00 0. -1.
          2    1    1    2  501    0  0.10926044718E+02 -0.19781953134E+02  0.12329502170E+02  0.25743363159E+02  0.00000000000E+00 0. -1.
          1    1    1    2  502    0 -0.10926044718E+02  0.19781953134E+02  0.87121537777E+01  0.24219945219E+02  0.00000000000E+00 0. -1.
</event>
<event>
 4    1  0.3586324E+003  0.2314477E+02  0.7546771E-02  0.1490688E+00
          2   -1    0    0  502    0  0.00000000000E+00  0.00000000000E+00  0.10971427811E+04  0.10971427811E+04  0.00000000000E+00 0. -1.
          1   -1    0    0  501    0 -0.00000000000E+00 -0.00000000000E+00 -0.65543119712E+00  0.65543119712E+00  0.00000000000E+00 0. -1.
          2    1    1    2  501    0 -0.18527176183E+02 -0.13871710279E+02  0.82546199424E+03  0.82578640371E+03  0.00000000000E+00 0. -1.
          1    1    1    2  502    0  0.18527176183E+02  0.13871710279E+02  0.27102535570E+03  0.27201180864E+03  0.00000000000E+00 0. -1.
</event>
<event>
 4    1  0.3586324E+003  0.7107978E+02  0.7546771E-02  0.1226223E+00
          2   -1    0    0  502    0  0.00000000000E+00  0.00000000000E+00  0.50453145710E+03  0.50453145710E+03  0.00000000000E+00 0.  1.
          1   -1    0    0  501    0 -0.00000000000E+00 -0.00000000000E+00 -0.90176351638E+03  0.90176351638E+03  0.00000000000E+00 0. -1.
          2    1    1    2  501    0 -0.70551341696E+02  0.86511892694E+01  0.50061639734E+03  0.50563733266E+03  0.00000000000E+00 0.  1.
          1    1    1    2  502    0  0.70551341696E+02 -0.86511892694E+01 -0.89784845663E+03  0.90065764081E+03  0.00000000000E+00 0. -1.
</event>
<event>
 4    1  0.3586324E+003  0.2982997E+02  0.7546771E-02  0.1421080E+00
          2   -1    0    0  502    0  0.00000000000E+00  0.00000000000E+00  0.20458508227E+03  0.20458508227E+03  0.00000000000E+00 0. -1.
          1   -1    0    0  501    0 -0.00000000000E+00 -0.00000000000E+00 -0.52353450765E+01  0.52353450765E+01  0.00000000000E+00 0. -1.
          2    1    1    2  501    0 -0.16931408235E+01 -0.29781879320E+02  0.14283103689E+03  0.14591275530E+03  0.00000000000E+00 0. -1.
          1    1    1    2  502    0  0.16931408235E+01  0.29781879320E+02  0.56518700302E+02  0.63907672040E+02  0.00000000000E+00 0. -1.
</event>
<event>
 4    1  0.3586324E+003  0.3152312E+02  0.7546771E-02  0.1406807E+00
          2   -1    0    0  502    0  0.00000000000E+00  0.00000000000E+00  0.10544360391E+04  0.10544360391E+04  0.00000000000E+00 0.  1.
          1   -1    0    0  501    0 -0.00000000000E+00 -0.00000000000E+00 -0.12207401261E+02  0.12207401261E+02  0.00000000000E+00 0. -1.
          2    1    1    2  501    0  0.24120906213E+02  0.20295041229E+02  0.10334365109E+04  0.10339171770E+04  0.00000000000E+00 0.  1.
          1    1    1    2  502    0 -0.24120906213E+02 -0.20295041229E+02  0.87921268755E+01  0.32726263307E+02  0.00000000000E+00 0. -1.
</event>
<event>
 4    1  0.3586324E+003  0.3522011E+02  0.7546771E-02  0.1379022E+00
          2   -1    0    0  502    0  0.00000000000E+00  0.00000000000E+00  0.50034970463E+03  0.50034970463E+03  0.00000000000E+00 0.  1.
          1   -1    0    0  501    0 -0.00000000000E+00 -0.00000000000E+00 -0.76660021056E+01  0.76660021056E+01  0.00000000000E+00 0.  1.
          2    1    1    2  501    0 -0.12266484460E+02  0.33014994343E+02  0.45527790828E+03  0.45663818309E+03  0.00000000000E+00 0.  1.
          1    1    1    2  502    0  0.12266484460E+02 -0.33014994343E+02  0.37405794248E+02  0.51377523644E+02  0.00000000000E+00 0.  1.
</event>
<event>
 4    1  0.3586324E+003  0.2683361E+02  0.7546771E-02  0.1449287E+00
          2   -1    0    0  502    0  0.00000000000E+00  0.00000000000E+00  0.15182901441E+03  0.15182901441E+03  0.00000000000E+00 0. -1.
          1   -1    0    0  501    0 -0.00000000000E+00 -0.00000000000E+00 -0.85412838429E+02  0.85412838429E+02  0.00000000000E+00 0.  1.
          2    1    1    2  501    0  0.19558173900E+02 -0.18371729420E+02  0.14848883681E+03  0.15089392719E+03  0.00000000000E+00 0. -1.
          1    1    1    2  502    0 -0.19558173900E+02  0.18371729420E+02 -0.82072660826E+02  0.86347925645E+02  0.00000000000E+00 0.  1.
</event>
<event>
 4    1  0.3586324E+003  0.6343578E+02  0.7546771E-02  0.1248585E+00
          2   -1    0    0  502    0  0.00000000000E+00  0.00000000000E+00  0.23235944226E+04  0.23235944226E+04  0.00000000000E+00 0.  1.
          1   -1    0    0  501    0 -0.00000000000E+00 -0.00000000000E+00 -0.12164608704E+03  0.12164608704E+03  0.00000000000E+00 0.  1.
          2    1    1    2  501    0  0.11588376509E+02 -0.62368327099E+02  0.23148601690E+04  0.23157291942E+04  0.00000000000E+00 0.  1.
          1    1    1    2  502    0 -0.11588376509E+02  0.62368327099E+02 -0.11291183346E+03  0.12951131545E+03  0.00000000000E+00 0.  1.
</event>
<event>
 4    1  0.3586324E+003  0.2560328E+02  0.7546771E-02  0.1462166E+00
          2   -1    0    0  502    0  0.00000000000E+00  0.00000000000E+00  0.10538367759E+03  0.10538367759E+03  0.00000000000E+00 0. -1.
          1   -1    0    0  501    0 -0.00000000000E+00 -0.00000000000E+00 -0.58085645986E+02  0.58085645986E+02  0.00000000000E+00 0. -1.
          2    1    1    2  501    0  0.63438226947E+01 -0.24804921024E+02  0.10088329475E+03  0.10408154184E+03  0.00000000000E+00 0. -1.
          1    1    1    2  502    0 -0.63438226947E+01  0.24804921024E+02 -0.53585263141E+02  0.59387781734E+02  0.00000000000E+00 0. -1.
</event>
<event>
 4    1  0.3586324E+003  0.6389736E+02  0.7546771E-02  0.1247136E+00
          2   -1    0    0  502    0  0.00000000000E+00  0.00000000000E+00  0.58941148974E+02  0.58941148974E+02  0.00000000000E+00 0. -1.
          1   -1    0    0  501    0 -0.00000000000E+00 -0.00000000000E+00 -0.10962165272E+03  0.10962165272E+03  0.00000000000E+00 0. -1.
          2    1    1    2  501    0  0.21221202847E+02  0.60270495319E+02  0.25794073670E+02  0.68907229611E+02  0.00000000000E+00 0. -1.
          1    1    1    2  502    0 -0.21221202847E+02 -0.60270495319E+02 -0.76474577411E+02  0.99655572079E+02  0.00000000000E+00 0. -1.
</event>
<event>
 4    1  0.3586324E+003  0.5767865E+02  0.7546771E-02  0.1267930E+00
          2   -1    0    0  502    0  0.00000000000E+00  0.00000000000E+00  0.15081814301E+03  0.15081814301E+03  0.00000000000E+00 0. -1.
          1   -1    0    0  501    0 -0.00000000000E+00 -0.00000000000E+00 -0.24729792868E+02  0.24729792868E+02  0.00000000000E+00 0. -1.
          2    1    1    2  501    0  0.49292672039E+02 -0.29950948448E+02  0.91892037977E+02  0.10849411723E+03  0.00000000000E+00 0. -1.
          1    1    1    2  502    0 -0.49292672039E+02  0.29950948448E+02  0.34196312162E+02  0.67053818647E+02  0.00000000000E+00 0. -1.
</event>
<event>
 4    1  0.3586324E+003  0.2067287E+02  0.7546771E-02  0.1523987E+00
          2   -1    0    0  502    0  0.00000000000E+00  0.00000000000E+00  0.21327380018E+01  0.21327380018E+01  0.00000000000E+00 0. -1.
          1   -1    0    0  501    0 -0.00000000000E+00 -0.00000000000E+00 -0.27250000094E+03  0.27250000094E+03  0.00000000000E+00 0. -1.
          2    1    1    2  501    0 -0.93022301702E+00  0.20651932414E+02 -0.64543193030E+02  0.67773087533E+02  0.00000000000E+00 0. -1.
          1    1    1    2  502    0  0.93022301702E+00 -0.20651932414E+02 -0.20582406991E+03  0.20685965141E+03  0.00000000000E+00 0. -1.
</event>
<event>
 4    1  0.3586324E+003  0.2869394E+02  0.7546771E-02  0.1431296E+00
          2   -1    0    0  502    0  0.00000000000E+00  0.00000000000E+00  0.17700639499E+01  0.17700639499E+01  0.00000000000E+00 0. -1.
          1   -1    0    0  501    0 -0.00000000000E+00 -0.00000000000E+00 -0.58534302796E+03  0.58534302796E+03  0.00000000000E+00 0.  1.
          2    1    1    2  501    0  0.25963279410E+02 -0.12216804340E+02 -0.15876269550E+03  0.16133485572E+03  0.00000000000E+00 0. -1.
          1    1    1    2  502    0 -0.25963279410E+02  0.12216804340E+02 -0.42481026851E+03  0.42577823620E+03  0.00000000000E+00 0.  1.
</event>
<event>
 4    1  0.3586324E+003  0.2775265E+02  0.7546771E-02  0.1440191E+00
          2   -1    0    0  502    0  0.00000000000E+00  0.00000000000E+00  0.34842751441E+02  0.34842751441E+02  0.00000000000E+00 0.  1.
          1   -1    0    0  501    0 -0.00000000000E+00 -0.00000000000E+00 -0.22660450596E+02  0.22660450596E+02  0.00000000000E+00 0.  1.
          2    1    1    2  501    0  0.27618991578E+02 -0.27203491727E+01  0.15908808044E+01  0.27798199531E+02  0.00000000000E+00 0.  1.
          1    1    1    2  502    0 -0.27618991578E+02  0.27203491727E+01  0.10591420041E+02  0.29705002506E+02  0.00000000000E+00 0.  1.
</event>
<event>
 4    1  0.3586324E+003  0.2033200E+02  0.7546771E-02  0.1529020E+00
          2   -1    0    0  502    0  0.00000000000E+00  0.00000000000E+00  0.11586083588E+04  0.11586083588E+04  0.00000000000E+00 0. -1.
          1   -1    0    0  501    0 -0.00000000000E+00 -0.00000000000E+00 -0.18709796884E+01  0.18709796884E+01  0.00000000000E+00 0.  1.
          2    1    1    2  501    0 -0.98052131061E+01  0.17811456139E+02  0.11003581666E+04  0.11005459941E+04  0.00000000000E+00 0. -1.
          1    1    1    2  502    0  0.98052131061E+01 -0.17811456139E+02  0.56379212427E+02  0.59933344373E+02  0.00000000000E+00 0.  1.
</event>
<event>
 4    1  0.3586324E+003  0.3499493E+02  0.7546771E-02  0.1380599E+00
          2   -1    0    0  502    0  0.00000000000E+00  0.00000000000E+00  0.39927297912E+03  0.39927297912E+03  0.00000000000E+00 0. -1.
          1   -1    0    0  501    0 -0.00000000000E+00 -0.00000000000E+00 -0.23859091212E+02  0.23859091212E+02  0.00000000000E+00 0. -1.
          2    1    1    2  501    0  0.29132013003E+02 -0.19389967537E+02  0.38520650192E+03  0.38679283104E+03  0.00000000000E+00 0. -1.
          1    1    1    2  502    0 -0.29132013003E+02  0.19389967537E+02 -0.97926140171E+01  0.36339239288E+02  0.00000000000E+00 0. -1.
</event>
<event>
 4    1  0.3586324E+003  0.2007130E+02  0.7546771E-02  0.1532948E+00
          2   -1    0    0  502    0  0.00000000000E+00  0.00000000000E+00  0.60162047517E+02  0.60162047517E+02  0.00000000000E+00 0.  1.
          1   -1    0    0  501    0 -0.00000000000E+00 -0.00000000000E+00 -0.67355312311E+01  0.67355312311E+01  0.00000000000E+00 0. -1.
          2    1    1    2  501    0 -0.26966653077E+01 -0.19889324974E+02  0.29269191715E+02  0.35490038537E+02  0.00000000000E+00 0.  1.
          1    1    1    2  502    0  0.26966653077E+01  0.19889324974E+02  0.24157324571E+02  0.31407540211E+02  0.00000000000E+00 0. -1.
</event>
<event>
 4    1  0.3586324E+003  0.2502844E+02  0.7546771E-02  0.1468485E+00
          2   -1    0    0  502    0  0.00000000000E+00  0.00000000000E+00  0.21838133466E+04  0.21838133466E+04  0.00000000000E+00 0.  1.
          1   -1    0    0  501    0 -0.00000000000E+00 -0.00000000000E+00 -0.45148949068E+00  0.45148949068E+00  0.00000000000E+00 0.  1.
          2    1    1    2  501    0  0.67497956765E+01  0.24101102617E+02  0.17511901617E+04  0.17513690089E+04  0.00000000000E+00 0.  1.
          1    1    1    2  502    0 -0.67497956765E+01 -0.24101102617E+02  0.43217169546E+03  0.43289582724E+03  0.00000000000E+00 0.  1.
</event>
<event>
 4    1  0.3586324E+003  0.2088243E+02  0.7546771E-02  0.1520950E+00
          2   -1    0    0  502    0  0.00000000000E+00  0.00000000000E+00  0.95278038383E+02  0.95278038383E+02  0.00000000000E+00 0.  1.
          1   -1    0    0  501    0 -0.00000000000E+00 -0.00000000000E+00 -0.16786494740E+02  0.16786494740E+02  0.00000000000E+00 0. -1.
          2    1    1    2  501    0  0.20603786676E+02 -0.34000064248E+01  0.87032706811E+02  0.89502894501E+02  0.00000000000E+00 0.  1.
          1    1    1    2  502    0 -0.20603786676E+02  0.34000064248E+01 -0.85411631678E+01  0.22561638622E+02  0.00000000000E+00 0. -1.
</event>
<event>
 4    1  0.3586324E+003  0.3653360E+02  0.7546771E-02  0.1370091E+00
          2   -1    0    0  502    0  0.00000000000E+00  0.00000000000E+00  0.31344140748E+02  0.31344140748E+02  0.00000000000E+00 0. -1.
          1   -1    0    0  501    0 -0.00000000000E+00 -0.00000000000E+00 -0.82237858269E+02  0.82237858269E+02  0.00000000000E+00 0. -1.
          2    1    1    2  501    0 -0.31317782508E+02 -0.18812232867E+02  0.13989426524E+02  0.39120425115E+02  0.00000000000E+00 0. -1.
          1    1    1    2  502    0  0.31317782508E+02  0.18812232867E+02 -0.64883144046E+02  0.74461573902E+02  0.00000000000E+00 0. -1.
</event>
<event>
 4    1  0.3586324E+003  0.2356511E+02  0.7546771E-02  0.1485521E+00
          2   -1    0    0  502    0  0.00000000000E+00  0.00000000000E+00  0.15420226527E+04  0.15420226527E+04  0.00000000000E+00 0. -1.
          1   -1    0    0  501    0 -0.00000000000E+00 -0.00000000000E+00 -0.53943614941E+00  0.53943614941E+00  0.00000000000E+00 0. -1.
          2    1    1    2  501    0  0.23110814776E+02  0.46048142013E+01  0.32605745925E+03  0.32690790875E+03  0.00000000000E+00 0. -1.
          1    1    1    2  502    0 -0.23110814776E+02 -0.46048142013E+01  0.12154257573E+04  0.12156541801E+04  0.00000000000E+00 0. -1.
</event>
<event>
 4    1  0.3586324E+003  0.7728368E+02  0.7546771E-02  0.1210298E+00
          2   -1    0    0  502    0  0.00000000000E+00  0.00000000000E+00  0.46482265599E+03  0.46482265599E+03  0.00000000000E+00 0.  1.
          1   -1    0    0  501    0 -0.00000000000E+00 -0.00000000000E+00 -0.14228646122E+04  0.14228646122E+04  0.00000000000E+00 0.  1.
          2    1    1    2  501    0  0.56772850159E+02  0.52436726327E+02  0.46055117392E+03  0.46699052516E+03  0.00000000000E+00 0.  1.
          1    1    1    2  502    0 -0.56772850159E+02 -0.52436726327E+02 -0.14185931302E+04  0.14206967431E+04  0.00000000000E+00 0.  1.
</event>
<event>
 4    1  0.3586324E+003  0.2855526E+02  0.7546771E-02  0.1432581E+00
          2   -1    0    0  502    0  0.00000000000E+00  0.00000000000E+00  0.20388916381E+04  0.20388916381E+04  0.00000000000E+00 0.  1.
          1   -1    0    0  501    0 -0.00000000000E+00 -0.00000000000E+00 -0.60689027193E+01  0.60689027193E+01  0.00000000000E+00 0.  1.
          2    1    1    2  501    0 -0.12164376997E+02 -0.25834681577E+02  0.20046281855E+04  0.20048315552E+04  0.00000000000E+00 0.  1.
          1    1    1    2  502    0  0.12164376997E+02  0.25834681577E+02  0.28194549895E+02  0.40128985580E+02  0.00000000000E+00 0.  1.
</event>
<event>
 4    1  0.3586324E+003  0.4233192E+02  0.7546771E-02  0.1335337E+00
          2   -1    0    0  502    0  0.00000000000E+00  0.00000000000E+00  0.33919314518E+02  0.33919314518E+02  0.00000000000E+00 0.  1.
          1   -1    0    0  501    0 -0.00000000000E+00 -0.00000000000E+00 -0.22095523465E+03  0.22095523465E+03  0.00000000000E+00 0. -1.
          2    1    1    2  501    0  0.37392584790E+02 -0.19844052738E+02  0.17644837483E+02  0.45862098907E+02  0.00000000000E+00 0.  1.
          1    1    1    2  502    0 -0.37392584790E+02  0.19844052738E+02 -0.20468075762E+03  0.20901245026E+03  0.00000000000E+00 0. -1.
</event>
<event>
 4    1  0.3586324E+003  0.2194251E+02  0.7546771E-02  0.1506222E+00
          2   -1    0    0  502    0  0.00000000000E+00  0.00000000000E+00  0.14204324155E+02  0.14204324155E+02  0.00000000000E+00 0. -1.
          1   -1    0    0  501    0 -0.00000000000E+00 -0.00000000000E+00 -0.21806914428E+03  0.21806914428E+03  0.00000000000E+00 0.  1.
          2    1    1    2  501    0  0.13640037160E+02  0.17187879756E+02  0.47972963198E+01  0.22460807559E+02  0.00000000000E+00 0. -1.
          1    1    1    2  502    0 -0.13640037160E+02 -0.17187879756E+02 -0.20866211644E+03  0.20981266087E+03  0.00000000000E+00 0.  1.
</event>
<event>
 4    1  0.3586324E+003  0.2087179E+02  0.7546771E-02  0.1521103E+00
          2   -1    0    0  502    0  0.00000000000E+00  0.00000000000E+00  0.19703218972E+03  0.19703218972E+03  0.00000000000E+00 0. -1.
          1   -1    0    0  501    0 -0.00000000000E+00 -0.00000000000E+00 -0.49049141616E+02  0.49049141616E+02  0.00000000000E+00 0.  1.
          2    1    1    2  501    0 -0.14916081423E+02 -0.14599384965E+02  0.19422708957E+03  0.19534531950E+03  0.00000000000E+00 0. -1.
          1    1    1    2  502    0  0.14916081423E+02  0.14599384965E+02 -0.46244041465E+02  0.50736011840E+02  0.00000000000E+00 0.  1.
</event>
<event>
 4    1  0.3586324E+003  0.2289199E+02  0.7546771E-02  0.1493859E+00
          2   -1    0    0  502    0  0.00000000000E+00  0.00000000000E+00  0.81372019441E+01  0.81372019441E+01  0.00000000000E+00 0. -1.
          1   -1    0    0  501    0 -0.00000000000E+00 -0.00000000000E+00 -0.21357094041E+03  0.21357094041E+03  0.00000000000E+00 0. -1.
          2    1    1    2  501    0 -0.90067901394E+01 -0.21045689209E+02 -0.10072006968E+02  0.25009770636E+02  0.00000000000E+00 0. -1.
          1    1    1    2  502    0  0.90067901394E+01  0.21045689209E+02 -0.19536173149E+03  0.19669837171E+03  0.00000000000E+00 0. -1.
</event>
<event>
 4    1  0.3586324E+003  0.2358111E+02  0.7546771E-02  0.1485327E+00
          2   -1    0    0  502    0  0.00000000000E+00  0.00000000000E+00  0.10757906454E+03  0.10757906454E+03  0.00000000000E+00 0.  1.
          1   -1    0    0  501    0 -0.00000000000E+00 -0.00000000000E+00 -0.83970722322E+02  0.83970722322E+02  0.00000000000E+00 0. -1.
          2    1    1    2  501    0 -0.11379196703E+02 -0.20653882447E+02  0.10458447109E+03  0.10720998354E+03  0.00000000000E+00 0.  1.
          1    1    1    2  502    0  0.11379196703E+02  0.20653882447E+02 -0.80976128870E+02  0.84339803323E+02  0.00000000000E+00 0. -1.
</event>
<event>
 4    1  0.3586324E+003  0.2017726E+02  0.7546771E-02  0.1531343E+00
          2   -1    0    0  502    0  0.00000000000E+00  0.00000000000E+00  0.21175747363E+02  0.21175747363E+02  0.00000000000E+00 0.  1.
          1   -1    0    0  501    0 -0.00000000000E+00 -0.00000000000E+00 -0.38313040202E+02  0.38313040202E+02  0.00000000000E+00 0.  1.
          2    1    1    2  501    0  0.19989830420E+02 -0.27438181241E+01  0.12425719036E+02  0.23696420652E+02  0.00000000000E+00 0.  1.
          1    1    1    2  502    0 -0.19989830420E+02  0.27438181241E+01 -0.29563011875E+02  0.35792366913E+02  0.00000000000E+00 0.  1.
</event>
<event>
 4    1  0.3586324E+003  0.2962827E+02  0.7546771E-02  0.1422855E+00
          2   -1    0    0  502    0  0.00000000000E+00  0.00000000000E+00  0.43490671467E+01  0.43490671467E+01  0.00000000000E+00 0.  1.
          1   -1    0    0  501    0 -0.00000000000E+00 -0.00000000000E+00 -0.17383063550E+04  0.17383063550E+04  0.00000000000E+00 0. -1.
          2    1    1    2  501    0 -0.85432599452E+01 -0.28369830229E+02 -0.47798754028E+02  0.56236602354E+02  0.00000000000E+00 0.  1.
          1    1    1    2  502    0  0.85432599452E+01  0.28369830229E+02 -0.16861585338E+04  0.16864188198E+04  0.00000000000E+00 0. -1.
</event>
<event>
 4    1  0.3586324E+003  0.2563139E+02  0.7546771E-02  0.1461863E+00
          2   -1    0    0  502    0  0.00000000000E+00  0.00000000000E+00  0.21413195776E+04  0.21413195776E+04  0.00000000000E+00 0. -1.
          1   -1    0    0  501    0 -0.00000000000E+00 -0.00000000000E+00 -0.63999019104E+00  0.63999019104E+00  0.00000000000E+00 0. -1.
          2    1    1    2  501    0 -0.16560677175E+02  0.19563025930E+02  0.18430867793E+04  0.18432649956E+04  0.00000000000E+00 0. -1.
          1    1    1    2  502    0  0.16560677175E+02 -0.19563025930E+02  0.29759280812E+03  0.29869457219E+03  0.00000000000E+00 0. -1.
</event>
<event>
 4    1  0.3586324E+003  0.2009585E+02  0.7546771E-02  0.1532575E+00
          2   -1    0    0  502    0  0.00000000000E+00  0.00000000000E+00  0.76668915836E+03  0.76668915836E+03  0.00000000000E+00 0.  1.
          1   -1    0    0  501    0 -0.00000000000E+00 -0.00000000000E+00 -0.49367431680E+01  0.49367431680E+01  0.00000000000E+00 0. -1.
          2    1    1    2  501    0  0.33386646579E+01 -0.19816575429E+02  0.74552614751E+03  0.74579694285E+03  0.00000000000E+00 0.  1.
          1    1    1    2  502    0 -0.33386646579E+01  0.19816575429E+02  0.16226267678E+02  0.25828958674E+02  0.00000000000E+00 0. -1.
</event>
<event>
 4    1  0.3586324E+003  0.2242028E+02  0.7546771E-02  0.1499909E+00
          2   -1    0    0  502    0  0.00000000000E+00  0.00000000000E+00  0.29531265750E+02  0.29531265750E+02  0.00000000000E+00 0.  1.
          1   -1    0    0  501    0 -0.00000000000E+00 -0.00000000000E+00 -0.49081413694E+02  0.49081413694E+02  0.00000000000E+00 0.  1.
          2    1    1    2  501    0 -0.15486729641E+02 -0.16212036208E+02  0.21992546021E+02  0.31406066189E+02  0.00000000000E+00 0.  1.
          1    1    1    2  502    0  0.15486729641E+02  0.16212036208E+02 -0.41542693965E+02  0.47206613254E+02  0.00000000000E+00 0.  1.
</event>
<event>
 4    1  0.3586324E+003  0.2406036E+02  0.7546771E-02  0.1479596E+00
          2   -1    0    0  502    0  0.00000000000E+00  0.00000000000E+00  0.44454699258E+03  0.44454699258E+03  0.00000000000E+00 0. -1.
          1   -1    0    0  501    0 -0.00000000000E+00 -0.00000000000E+00 -0.70669505614E+01  0.70669505614E+01  0.00000000000E+00 0. -1.
          2    1    1    2  501    0  0.20493208590E+02 -0.12606707968E+02  0.42268386357E+03  0.42336810131E+03  0.00000000000E+00 0. -1.
          1    1    1    2  502    0 -0.20493208590E+02  0.12606707968E+02  0.14796178449E+02  0.28245841832E+02  0.00000000000E+00 0. -1.
</event>
<event>
 4    1  0.3586324E+003  0.2930208E+02  0.7546771E-02  0.1425760E+00
          2   -1    0    0  502    0  0.00000000000E+00  0.00000000000E+00  0.10302197372E+04  0.10302197372E+04  0.00000000000E+00 0. -1.
          1   -1    0    0  501    0 -0.00000000000E+00 -0.00000000000E+00 -0.19178974000E+03  0.19178974000E+03  0.00000000000E+00 0.  1.
          2    1    1    2  501    0  0.55351653169E+01 -0.28774537138E+02  0.10288907252E+04  0.10293078919E+04  0.00000000000E+00 0. -1.
          1    1    1    2  502    0 -0.55351653169E+01  0.28774537138E+02 -0.19046072800E+03  0.19270158524E+03  0.00000000000E+00 0.  1.
</event>
<event>
 4    1  0.3586324E+003  0.2228332E+02  0.7546771E-02  0.1501699E+00
          2   -1    0    0  502    0  0.00000000000E+00  0.00000000000E+00  0.64234987405E+00  0.64234987405E+00  0.00000000000E+00 0. -1.
          1   -1    0    0  501    0 -0.00000000000E+00 -0.00000000000E+00 -0.89755591364E+03  0.89755591364E+03  0.00000000000E+00 0. -1.
          2    1    1    2  501    0  0.16351792847E+02  0.15138207379E+02 -0.28116812491E+03  0.28204974901E+03  0.00000000000E+00 0. -1.
          1    1    1    2  502    0 -0.16351792847E+02 -0.15138207379E+02 -0.61574543886E+03  0.61614851450E+03  0.00000000000E+00 0. -1.
</event>
<event>
 4    1  0.3586324E+003  0.4436271E+02  0.7546771E-02  0.1324657E+00
          2   -1    0    0  502    0  0.00000000000E+00  0.00000000000E+00  0.54554589827E+03  0.54554589827E+03  0.00000000000E+00 0.  1.
          1   -1    0    0  501    0 -0.00000000000E+00 -0.00000000000E+00 -0.36454880895E+01  0.36454880895E+01  0.00000000000E+00 0.  1.
          2    1    1    2  501    0  0.12017097532E+02 -0.42704094308E+02  0.29898568247E+03  0.30225897609E+03  0.00000000000E+00 0.  1.
          1    1    1    2  502    0 -0.12017097532E+02  0.42704094308E+02  0.24291472771E+03  0.24693241028E+03  0.00000000000E+00 0.  1.
</event>
<event>
 4    1  0.3586324E+003  0.2040439E+02  0.7546771E-02  0.1527941E+00
          2   -1    0    0  502    0  0.00000000000E+00  0.00000000000E+00  0.38920604685E+02  0.38920604685E+02  0.00000000000E+00 0.  1.
          1   -1    0    0  501    0 -0.00000000000E+00 -0.00000000000E+00 -0.69779761583E+03  0.69779761583E+03  0.00000000000E+00 0. -1.
          2    1    1    2  501    0  0.16018472444E+02  0.12639138051E+02  0.36086252549E+02  0.41455480858E+02  0.00000000000E+00 0.  1.
          1    1    1    2  502    0 -0.16018472444E+02 -0.12639138051E+02 -0.69496326370E+03  0.69526273966E+03  0.00000000000E+00 0. -1.
</event>
<event>
 4    1  0.3586324E+003  0.4491246E+02  0.7546771E-02  0.1321878E+00
          2   -1    0    0  502    0  0.00000000000E+00  0.00000000000E+00  0.13318878990E+04  0.13318878990E+04  0.00000000000E+00 0. -1.
          1   -1    0    0  501    0 -0.00000000000E+00 -0.00000000000E+00 -0.70918972430E+01  0.70918972430E+01  0.00000000000E+00 0. -1.
          2    1    1    2  501    0 -0.11358208441E+02 -0.43452506166E+02  0.12561143927E+04  0.12569170604E+04  0.00000000000E+00 0. -1.
          1    1    1    2  502    0  0.11358208441E+02  0.43452506166E+02  0.68681609082E+02  0.82062735862E+02  0.00000000000E+00 0. -1.
</event>
<event>
 4    1  0.3586324E+003  0.2954649E+02  0.7546771E-02  0.1423579E+00
          2   -1    0    0  502    0  0.00000000000E+00  0.00000000000E+00  0.69418740445E+03  0.69418740445E+03  0.00000000000E+00 0.  1.
          1   -1    0    0  501    0 -0.00000000000E+00 -0.00000000000E+00 -0.14133072762E+03  0.14133072762E+03  0.00000000000E+00 0. -1.
          2    1    1    2  501    0 -0.23941963284E+02 -0.17314077235E+02  0.69232461573E+03  0.69295480980E+03  0.00000000000E+00 0.  1.
          1    1    1    2  502    0  0.23941963284E+02  0.17314077235E+02 -0.13946793889E+03  0.14256332227E+03  0.00000000000E+00 0. -1.
</event>
<event>
 4    1  0.3586324E+003  0.2156939E+02  0.7546771E-02  0.1511289E+00
          2   -1    0    0  502    0  0.00000000000E+00  0.00000000000E+00  0.21978461490E+01  0.21978461490E+01  0.00000000000E+00 0. -1.
          1   -1    0    0  501    0 -0.00000000000E+00 -0.00000000000E+00 -0.59430453639E+03  0.59430453639E+03  0.00000000000E+00 0.  1.
          2    1    1    2  501    0  0.12788789632E+02 -0.17369091158E+02 -0.56741339253E+02  0.60702702148E+02  0.00000000000E+00 0. -1.
          1    1    1    2  502    0 -0.12788789632E+02  0.17369091158E+02 -0.53536535099E+03  0.53579968039E+03  0.00000000000E+00 0.  1.
</event>
<event>
 4    1  0.3586324E+003  0.4962660E+02  0.7546771E-02  0.1299800E+00
          2   -1    0    0  502    0  0.00000000000E+00  0.00000000000E+00  0.15353421042E+04  0.15353421042E+04  0.00000000000E+00 0. -1.
          1   -1    0    0  501    0 -0.00000000000E+00 -0.00000000000E+00 -0.60453457615E+01  0.60453457615E+01  0.00000000000E+00 0. -1.
          2    1    1    2  501    0  0.17825397347E+02  0.46314734437E+02  0.14252277668E+04  0.14260915071E+04  0.00000000000E+00 0. -1.
          1    1    1    2  502    0 -0.17825397347E+02 -0.46314734437E+02  0.10406899168E+03  0.11529594289E+03  0.00000000000E+00 0. -1.
</event>
<event>
 4    1  0.3586324E+003  0.2534881E+02  0.7546771E-02  0.1464939E+00
          2   -1    0    0  502    0  0.00000000000E+00  0.00000000000E+00  0.49928401655E+02  0.49928401655E+02  0.00000000000E+00 0. -1.
          1   -1    0    0  501    0 -0.00000000000E+00 -0.00000000000E+00 -0.18681317189E+04  0.18681317189E+04  0.00000000000E+00 0. -1.
          2    1    1    2  501    0  0.25058933670E+02  0.38225573718E+01  0.46619284951E+02  0.53065241269E+02  0.00000000000E+00 0. -1.
          1    1    1    2  502    0 -0.25058933670E+02 -0.38225573718E+01 -0.18648226022E+04  0.18649948793E+04  0.00000000000E+00 0. -1.
</event>
<event>
 4    1  0.3586324E+003  0.2043163E+02  0.7546771E-02  0.1527537E+00
          2   -1    0    0  502    0  0.00000000000E+00  0.00000000000E+00  0.50205603847E+03  0.50205603847E+03  0.00000000000E+00 0.  1.
          1   -1    0    0  501    0 -0.00000000000E+00 -0.00000000000E+00 -0.33373232454E+02  0.33373232454E+02  0.00000000000E+00 0.  1.
          2    1    1    2  501    0  0.26600701652E+01  0.20257725312E+02  0.49869998951E+03  0.49911835365E+03  0.00000000000E+00 0.  1.
          1    1    1    2  502    0 -0.26600701652E+01 -0.20257725312E+02 -0.30017183499E+02  0.36310917274E+02  0.00000000000E+00 0.  1.
</event>
<event>
 4    1  0.3586324E+003  0.2921927E+02  0.7546771E-02  0.1426504E+00
          2   -1    0    0  502    0  0.00000000000E+00  0.00000000000E+00  0.16155380373E+02  0.16155380373E+02  0.00000000000E+00 0. -1.
          1   -1    0    0  501    0 -0.00000000000E+00 -0.00000000000E+00 -0.19020703116E+03  0.19020703116E+03  0.00000000000E+00 0. -1.
          2    1    1    2  501    0 -0.28519261386E+02 -0.63574661557E+01  0.65755499257E+00  0.29226666325E+02  0.00000000000E+00 0. -1.
          1    1    1    2  502    0  0.28519261386E+02  0.63574661557E+01 -0.17470920578E+03  0.17713574521E+03  0.00000000000E+00 0. -1.
</event>
<event>
 4    1  0.3586324E+003  0.2658514E+02  0.7546771E-02  0.1451821E+00
          2   -1    0    0  502    0  0.00000000000E+00  0.00000000000E+00  0.25340759927E+03  0.25340759927E+03  0.00000000000E+00 0. -1.
          1   -1    0    0  501    0 -0.00000000000E+00 -0.00000000000E+00 -0.12931532596E+03  0.12931532596E+03  0.00000000000E+00 0.  1.
          2    1    1    2  501    0 -0.17430261196E+02 -0.20073756718E+02  0.25133271604E+03  0.25273484893E+03  0.00000000000E+00 0. -1.
          1    1    1    2  502    0  0.17430261196E+02  0.20073756718E+02 -0.12724044272E+03  0.12998807629E+03  0.00000000000E+00 0.  1.
</event>
<event>
 4    1  0.3586324E+003  0.2545429E+02  0.7546771E-02  0.1463785E+00
          2   -1    0    0  502    0  0.00000000000E+00  0.00000000000E+00  0.79633540700E+02  0.79633540700E+02  0.00000000000E+00 0. -1.
          1   -1    0    0  501    0 -0.00000000000E+00 -0.00000000000E+00 -0.59808258138E+03  0.59808258138E+03  0.00000000000E+00 0. -1.
          2    1    1    2  501    0  0.77848774612E+01 -0.24234618594E+02  0.77320744520E+02  0.81402816834E+02  0.00000000000E+00 0. -1.
          1    1    1    2  502    0 -0.77848774612E+01  0.24234618594E+02 -0.59576978520E+03  0.59631330525E+03  0.00000000000E+00 0. -1.
</event>
<event>
 4    1  0.3586324E+003  0.2109226E+02  0.7546771E-02  0.1517952E+00
          2   -1    0    0  502    0  0.00000000000E+00  0.00000000000E+00  0.51792769726E+02  0.51792769726E+02  0.00000000000E+00 0.  1.
          1   -1    0    0  501    0 -0.00000000000E+00 -0.00000000000E+00 -0.48669204272E+02  0.48669204272E+02  0.00000000000E+00 0. -1.
          2    1    1    2  501    0 -0.11587524705E+02 -0.17624213209E+02  0.47145090458E+02  0.51648264001E+02  0.00000000000E+00 0.  1.
          1    1    1    2  502    0  0.11587524705E+02  0.17624213209E+02 -0.44021525004E+02  0.48813709997E+02  0.00000000000E+00 0. -1.
</event>
<event>
 4    1  0.3586324E+003  0.2573118E+02  0.7546771E-02  0.1460787E+00
          2   -1    0    0  502    0  0.00000000000E+00  0.00000000000E+00  0.75494601731E+00  0.75494601731E+00  0.00000000000E+00 0. -1.
          1   -1    0    0  501    0 -0.00000000000E+00 -0.00000000000E+00 -0.14881299891E+04  0.14881299891E+04  0.00000000000E+00 0. -1.
          2    1    1    2  501    0 -0.25555922959E+02  0.29980448103E+01 -0.26662558459E+03  0.26786432354E+03  0.00000000000E+00 0. -1.
          1    1    1    2  502    0  0.25555922959E+02 -0.29980448103E+01 -0.12207494585E+04  0.12210206115E+04  0.00000000000E+00 0. -1.
</event>
<event>
 4    1  0.3586324E+003  0.2192133E+02  0.7546771E-02  0.1506506E+00
          2   -1    0    0  502    0  0.00000000000E+00  0.00000000000E+00  0.31162528536E+03  0.31162528536E+03  0.00000000000E+00 0. -1.
          1   -1    0    0  501    0 -0.00000000000E+00 -0.00000000000E+00 -0.13380386757E+03  0.13380386757E+03  0.00000000000E+00 0. -1.
          2    1    1    2  501    0  0.19415465108E+01 -0.21835183489E+02  0.31033819826E+03  0.31111146256E+03  0.00000000000E+00 0. -1.
          1    1    1    2  502    0 -0.19415465108E+01  0.21835183489E+02 -0.13251678047E+03  0.13431769037E+03  0.00000000000E+00 0. -1.
</event>
<event>
 4    1  0.3586324E+003  0.2242570E+02  0.7546771E-02  0.1499838E+00
          2   -1    0    0  502    0  0.00000000000E+00  0.00000000000E+00  0.85579727992E+02  0.85579727992E+02  0.00000000000E+00 0. -1.
          1   -1    0    0  501    0 -0.00000000000E+00 -0.00000000000E+00 -0.11292830249E+03  0.11292830249E+03  0.00000000000E+00 0.  1.
          2    1    1    2  501    0  0.21986802395E+02  0.44150324508E+01  0.82962751290E+02  0.85940270495E+02  0.00000000000E+00 0. -1.
          1    1    1    2  502    0 -0.21986802395E+02 -0.44150324508E+01 -0.11031132579E+03  0.11256775999E+03  0.00000000000E+00 0.  1.
</event>
<event>
 4    1  0.3586324E+003  0.3663362E+02  0.7546771E-02  0.1369428E+00
          2   -1    0    0  502    0  0.00000000000E+00  0.00000000000E+00  0.35192752441E+01  0.35192752441E+01  0.00000000000E+00 0. -1.
          1   -1    0    0  501    0 -0.00000000000E+00 -0.00000000000E+00 -0.74667038803E+03  0.74667038803E+03  0.00000000000E+00 0.  1.
          2    1    1    2  501    0  0.29764903686E+02  0.21355850460E+02 -0.10920043448E+03  0.11518140792E+03  0.00000000000E+00 0. -1.
          1    1    1    2  502    0 -0.29764903686E+02 -0.21355850460E+02 -0.63395067831E+03  0.63500825535E+03  0.00000000000E+00 0.  1.
</event>
<event>
 4    1  0.3586324E+003  0.2900735E+02  0.7546771E-02  0.1428423E+00
          2   -1    0    0  502    0  0.00000000000E+00  0.00000000000E+00  0.13649888386E+04  0.13649888386E+04  0.00000000000E+00 0. -1.
          1   -1    0    0  501    0 -0.00000000000E+00 -0.00000000000E+00 -0.30036280311E+01  0.30036280311E+01  0.00000000000E+00 0.  1.
          2    1    1    2  501    0  0.26765723968E+02 -0.11181345327E+02  0.12907743710E+04  0.12911002685E+04  0.00000000000E+00 0. -1.
          1    1    1    2  502    0 -0.26765723968E+02  0.11181345327E+02  0.71210839561E+02  0.76892198133E+02  0.00000000000E+00 0.  1.
</event>
<event>
 4    1  0.3586324E+003  0.2091281E+02  0.7546771E-02  0.1520513E+00
          2   -1    0    0  502    0  0.00000000000E+00  0.00000000000E+00  0.66524688195E+02  0.66524688195E+02  0.00000000000E+00 0.  1.
          1   -1    0    0  501    0 -0.00000000000E+00 -0.00000000000E+00 -0.13676956056E+03  0.13676956056E+03  0.00000000000E+00 0.  1.
          2    1    1    2  501    0  0.92521182164E+01  0.18754840546E+02  0.64051636244E+02  0.67379209263E+02  0.00000000000E+00 0.  1.
          1    1    1    2  502    0 -0.92521182164E+01 -0.18754840546E+02 -0.13429650861E+03  0.13591503949E+03  0.00000000000E+00 0.  1.
</event>
<event>
 4    1  0.3586324E+003  0.3855565E+02  0.7546771E-02  0.1357164E+00
          2   -1    0    0  502    0  0.00000000000E+00  0.00000000000E+00  0.37531117202E+01  0.37531117202E+01  0.00000000000E+00 0. -1.
          1   -1    0    0  501    0 -0.00000000000E+00 -0.00000000000E+00 -0.81142996770E+03  0.81142996770E+03  0.00000000000E+00 0. -1.
          2    1    1    2  501    0  0.38005780850E+02 -0.64883469094E+01 -0.11222604687E+03  0.11866433171E+03  0.00000000000E+00 0. -1.
          1    1    1    2  502    0 -0.38005780850E+02  0.64883469094E+01 -0.69545080911E+03  0.69651874771E+03  0.00000000000E+00 0. -1.
</event>
<event>
 4    1  0.3586324E+003  0.3320253E+02  0.7546771E-02  0.1393660E+00
          2   -1    0    0  502    0  0.00000000000E+00  0.00000000000E+00  0.15128196864E+03  0.15128196864E+03  0.00000000000E+00 0.  1.
          1   -1    0    0  501    0 -0.00000000000E+00 -0.00000000000E+00 -0.46513407665E+03  0.46513407665E+03  0.00000000000E+00 0.  1.
          2    1    1    2  501    0 -0.32496037299E+02  0.68128837233E+01  0.14885813966E+03  0.15251607642E+03  0.00000000000E+00 0.  1.
          1    1    1    2  502    0  0.32496037299E+02 -0.68128837233E+01 -0.46271024767E+03  0.46389996888E+03  0.00000000000E+00 0.  1.
</event>
<event>
 4    1  0.3586324E+003  0.3634131E+02  0.7546771E-02  0.1371371E+00
          2   -1    0    0  502    0  0.00000000000E+00  0.00000000000E+00  0.51504815049E+02  0.51504815049E+02  0.00000000000E+00 0. -1.
          1   -1    0    0  501    0 -0.00000000000E+00 -0.00000000000E+00 -0.32912954079E+02  0.32912954079E+02  0.00000000000E+00 0. -1.
          2    1    1    2  501    0  0.13834573019E+02  0.33604990923E+02  0.29134649088E+02  0.46578091449E+02  0.00000000000E+00 0. -1.
          1    1    1    2  502    0 -0.13834573019E+02 -0.33604990923E+02 -0.10542788118E+02  0.37839677679E+02  0.00000000000E+00 0. -1.
</event>
<event>
 4    1  0.3586324E+003  0.3420287E+02  0.7546771E-02  0.1386255E+00
          2   -1    0    0  502    0  0.00000000000E+00  0.00000000000E+00  0.18451962441E+04  0.18451962441E+04  0.00000000000E+00 0. -1.
          1   -1    0    0  501    0 -0.00000000000E+00 -0.00000000000E+00 -0.91154953404E+01  0.91154953404E+01  0.00000000000E+00 0.  1.
          2    1    1    2  501    0 -0.27170819260E+02  0.20774580518E+02  0.18123730043E+04  0.18126957117E+04  0.00000000000E+00 0. -1.
          1    1    1    2  502    0  0.27170819260E+02 -0.20774580518E+02  0.23707744462E+02  0.41616027712E+02  0.00000000000E+00 0.  1.
</event>
<event>
 4    1  0.3586324E+003  0.2849289E+02  0.7546771E-02  0.1433162E+00
          2   -1    0    0  502    0  0.00000000000E+00  0.00000000000E+00  0.12469346975E+02  0.12469346975E+02  0.00000000000E+00 0. -1.
          1   -1    0    0  501    0 -0.00000000000E+00 -0.00000000000E+00 -0.78661226837E+02  0.78661226837E+02  0.00000000000E+00 0. -1.
          2    1    1    2  501    0  0.13714841657E+02  0.24974950385E+02 -0.14181784913E+02  0.31827159027E+02  0.00000000000E+00 0. -1.
          1    1    1    2  502    0 -0.13714841657E+02 -0.24974950385E+02 -0.52010094950E+02  0.59303414785E+02  0.00000000000E+00 0. -1.
</event>
<event>
 4    1  0.3586324E+003  0.2004602E+02  0.7546771E-02  0.1533333E+00
          2   -1    0    0  502    0  0.00000000000E+00  0.00000000000E+00  0.92746797320E+02  0.92746797320E+02  0.00000000000E+00 0. -1.
          1   -1    0    0  501    0 -0.00000000000E+00 -0.00000000000E+00 -0.13366742845E+02  0.13366742845E+02  0.00000000000E+00 0.  1.
          2    1    1    2  501    0 -0.10196753900E+02 -0.17258879705E+02  0.83308396943E+02  0.85686239969E+02  0.00000000000E+00 0. -1.
          1    1    1    2  502    0  0.10196753900E+02  0.17258879705E+02 -0.39283424680E+01  0.20427300197E+02  0.00000000000E+00 0.  1.
</event>
<event>
 4    1  0.3586324E+003  0.2044202E+02  0.7546771E-02  0.1527382E+00
          2   -1    0    0  502    0  0.00000000000E+00  0.00000000000E+00  0.45227334333E+02  0.45227334333E+02  0.00000000000E+00 0.  1.
          1   -1    0    0  501    0 -0.00000000000E+00 -0.00000000000E+00 -0.18118532482E+02  0.18118532482E+02  0.00000000000E+00 0.  1.
          2    1    1    2  501    0  0.20034214879E+02  0.40628182469E+01  0.35726689308E+02  0.41161542572E+02  0.00000000000E+00 0.  1.
          1    1    1    2  502    0 -0.20034214879E+02 -0.40628182469E+01 -0.86178874574E+01  0.22184324244E+02  0.00000000000E+00 0.  1.
</event>
<event>
 4    1  0.3586324E+003  0.2604603E+02  0.7546771E-02  0.1457434E+00
          2   -1    0    0  502    0  0.00000000000E+00  0.00000000000E+00  0.34903521681E+01  0.34903521681E+01  0.00000000000E+00 0. -1.
          1   -1    0    0  501    0 -0.00000000000E+00 -0.00000000000E+00 -0.28999083333E+03  0.28999083333E+03  0.00000000000E+00 0. -1.
          2    1    1    2  501    0  0.81812565598E+01  0.24727773176E+02 -0.58984696853E+02  0.64479378006E+02  0.00000000000E+00 0. -1.
          1    1    1    2  502    0 -0.81812565598E+01 -0.24727773176E+02 -0.22751578431E+03  0.22900180749E+03  0.00000000000E+00 0. -1.
</event>
<event>
 4    1  0.3586324E+003  0.2754558E+02  0.7546771E-02  0.1442203E+00
          2   -1    0    0  502    0  0.00000000000E+00  0.00000000000E+00  0.11697201576E+01  0.11697201576E+01  0.00000000000E+00 0.  1.
          1   -1    0    0  501    0 -0.00000000000E+00 -0.00000000000E+00 -0.81103039431E+03  0.81103039431E+03  0.00000000000E+00 0.  1.
          2    1    1    2  501    0  0.22274997117E+02  0.16204419560E+02 -0.22322874840E+03  0.22492183714E+03  0.00000000000E+00 0.  1.
          1    1    1    2  502    0 -0.22274997117E+02 -0.16204419560E+02 -0.58663192575E+03  0.58727827733E+03  0.00000000000E+00 0.  1.
</event>
<event>
 4    1  0.3586324E+003  0.6853459E+02  0.7546771E-02  0.1233302E+00
          2   -1    0    0  502    0  0.00000000000E+00  0.00000000000E+00  0.74625725827E+03  0.74625725827E+03  0.00000000000E+00 0.  1.
          1   -1    0    0  501    0 -0.00000000000E+00 -0.00000000000E+00 -0.26188289540E+02  0.26188289540E+02  0.00000000000E+00 0. -1.
          2    1    1    2  501    0  0.62283844392E+02  0.28595687615E+02  0.69666062272E+03  0.70002358094E+03  0.00000000000E+00 0.  1.
          1    1    1    2  502    0 -0.62283844392E+02 -0.28595687615E+02  0.23408346010E+02  0.72421966870E+02  0.00000000000E+00 0. -1.
</event>
<event>
 4    1  0.3586324E+003  0.2615301E+02  0.7546771E-02  0.1456307E+00
          2   -1    0    0  502    0  0.00000000000E+00  0.00000000000E+00  0.83322619737E+03  0.83322619737E+03  0.00000000000E+00 0. -1.
          1   -1    0    0  501    0 -0.00000000000E+00 -0.00000000000E+00 -0.43489627483E+02  0.43489627483E+02  0.00000000000E+00 0.  1.
          2    1    1    2  501    0 -0.23026972686E+02 -0.12399130854E+02  0.82906941178E+03  0.82948180779E+03  0.00000000000E+00 0. -1.
          1    1    1    2  502    0  0.23026972686E+02  0.12399130854E+02 -0.39332841886E+02  0.47234017063E+02  0.00000000000E+00 0.  1.
</event>
<event>
 4    1  0.3586324E+003  0.2385248E+02  0.7546771E-02  0.1482062E+00
          2   -1    0    0  502    0  0.00000000000E+00  0.00000000000E+00  0.12520240285E+03  0.12520240285E+03  0.00000000000E+00 0. -1.
          1   -1    0    0  501    0 -0.00000000000E+00 -0.00000000000E+00 -0.34035319284E+02  0.34035319284E+02  0.00000000000E+00 0.  1.
          2    1    1    2  501    0 -0.23832279100E+02  0.98152658406E+00  0.11969696952E+03  0.12205042169E+03  0.00000000000E+00 0. -1.
          1    1    1    2  502    0  0.23832279100E+02 -0.98152658406E+00 -0.28529885958E+02  0.37187300444E+02  0.00000000000E+00 0.  1.
</event>
<event>
 4    1  0.3586324E+003  0.5433609E+02  0.7546771E-02  0.1280393E+00
          2   -1    0    0  502    0  0.00000000000E+00  0.00000000000E+00  0.15285663843E+04  0.15285663843E+04  0.00000000000E+00 0. -1.
          1   -1    0    0  501    0 -0.00000000000E+00 -0.00000000000E+00 -0.14278176066E+02  0.14278176066E+02  0.00000000000E+00 0. -1.
          2    1    1    2  501    0 -0.27806744972E+02  0.46681850490E+02  0.14744939669E+04  0.14754947877E+04  0.00000000000E+00 0. -1.
          1    1    1    2  502    0  0.27806744972E+02 -0.46681850490E+02  0.39794241370E+02  0.67349772660E+02  0.00000000000E+00 0. -1.
</event>
<event>
 4    1  0.3586324E+003  0.2013894E+02  0.7546771E-02  0.1531922E+00
          2   -1    0    0  502    0  0.00000000000E+00  0.00000000000E+00  0.19725846548E+03  0.19725846548E+03  0.00000000000E+00 0. -1.
          1   -1    0    0  501    0 -0.00000000000E+00 -0.00000000000E+00 -0.25801767072E+01  0.25801767072E+01  0.00000000000E+00 0. -1.
          2    1    1    2  501    0 -0.47827075319E+01 -0.19562771896E+02  0.52305566643E+02  0.56048627436E+02  0.00000000000E+00 0. -1.
          1    1    1    2  502    0  0.47827075319E+01  0.19562771896E+02  0.14237272213E+03  0.14379001475E+03  0.00000000000E+00 0. -1.
</event>
<event>
 4    1  0.3586324E+003  0.2314996E+02  0.7546771E-02  0.1490624E+00
          2   -1    0    0  502    0  0.00000000000E+00  0.00000000000E+00  0.43880073091E+01  0.43880073091E+01  0.00000000000E+00 0.  1.
          1   -1    0    0  501    0 -0.00000000000E+00 -0.00000000000E+00 -0.17138889633E+04  0.17138889633E+04  0.00000000000E+00 0.  1.
          2    1    1    2  501    0  0.14276441144E+02 -0.18223716728E+02 -0.26789113523E+02  0.35405892539E+02  0.00000000000E+00 0.  1.
          1    1    1    2  502    0 -0.14276441144E+02  0.18223716728E+02 -0.16827118425E+04  0.16828710781E+04  0.00000000000E+00 0.  1.
</event>
<event>
 4    1  0.3586324E+003  0.2502879E+02  0.7546771E-02  0.1468482E+00
          2   -1    0    0  502    0  0.00000000000E+00  0.00000000000E+00  0.37061675870E+01  0.37061675870E+01  0.00000000000E+00 0. -1.
          1   -1    0    0  501    0 -0.00000000000E+00 -0.00000000000E+00 -0.47233385216E+03  0.47233385216E+03  0.00000000000E+00 0.  1.
          2    1    1    2  501    0  0.18044260693E+02 -0.17344880803E+02 -0.43578813289E+02  0.50254882367E+02  0.00000000000E+00 0. -1.
          1    1    1    2  502    0 -0.18044260693E+02  0.17344880803E+02 -0.42504887129E+03  0.42578513738E+03  0.00000000000E+00 0.  1.
</event>
<event>
 4    1  0.3586324E+003  0.2135310E+02  0.7546771E-02  0.1514283E+00
          2   -1    0    0  502    0  0.00000000000E+00  0.00000000000E+00  0.13853007882E+04  0.13853007882E+04  0.00000000000E+00 0.  1.
          1   -1    0    0  501    0 -0.00000000000E+00 -0.00000000000E+00 -0.37201225450E+01  0.37201225450E+01  0.00000000000E+00 0.  1.
          2    1    1    2  501    0 -0.23054480797E+01 -0.21228279931E+02  0.13538659804E+04  0.13540343600E+04  0.00000000000E+00 0.  1.
          1    1    1    2  502    0  0.23054480797E+01  0.21228279931E+02  0.27714685244E+02  0.34986550814E+02  0.00000000000E+00 0.  1.
</event>
<event>
 4    1  0.3586324E+003  0.2352850E+02  0.7546771E-02  0.1485966E+00
          2   -1    0    0  502    0  0.00000000000E+00  0.00000000000E+00  0.71768216126E+02  0.71768216126E+02  0.00000000000E+00 0. -1.
          1   -1    0    0  501    0 -0.00000000000E+00 -0.00000000000E+00 -0.11548455108E+02  0.11548455108E+02  0.00000000000E+00 0.  1.
          2    1    1    2  501    0  0.94655242100E+00  0.23509456914E+02  0.54115618921E+02  0.59009242810E+02  0.00000000000E+00 0. -1.
          1    1    1    2  502    0 -0.94655242100E+00 -0.23509456914E+02  0.61041420980E+01  0.24307428424E+02  0.00000000000E+00 0.  1.
</event>
<event>
 4    1  0.3586324E+003  0.5152337E+02  0.7546771E-02  0.1291699E+00
          2   -1    0    0  502    0  0.00000000000E+00  0.00000000000E+00  0.42542958947E+01  0.42542958947E+01  0.00000000000E+00 0.  1.
          1   -1    0    0  501    0 -0.00000000000E+00 -0.00000000000E+00 -0.63283415695E+03  0.63283415695E+03  0.00000000000E+00 0.  1.
          2    1    1    2  501    0  0.50561832754E+02  0.99073988156E+01 -0.35193886005E+03  0.35569033821E+03  0.00000000000E+00 0.  1.
          1    1    1    2  502    0 -0.50561832754E+02 -0.99073988156E+01 -0.27664100101E+03  0.28139811464E+03  0.00000000000E+00 0.  1.
</event>
<event>
 4    1  0.3586324E+003  0.2000010E+02  0.7546771E-02  0.1534034E+00
          2   -1    0    0  502    0  0.00000000000E+00  0.00000000000E+00  0.18805653176E+02  0.18805653176E+02  0.00000000000E+00 0. -1.
          1   -1    0    0  501    0 -0.00000000000E+00 -0.00000000000E+00 -0.26955846954E+02  0.26955846954E+02  0.00000000000E+00 0.  1.
          2    1    1    2  501    0  0.27148078695E+01  0.19814994045E+02  0.64330285543E+01  0.21009236710E+02  0.00000000000E+00 0. -1.
          1    1    1    2  502    0 -0.27148078695E+01 -0.19814994045E+02 -0.14583222333E+02  0.24752263419E+02  0.00000000000E+00 0.  1.
</event>
<event>
 4    1  0.3586324E+003  0.2186215E+02  0.7546771E-02  0.1507303E+00
          2   -1    0    0  502    0  0.00000000000E+00  0.00000000000E+00  0.65093617253E+02  0.65093617253E+02  0.00000000000E+00 0.  1.
          1   -1    0    0  501    0 -0.00000000000E+00 -0.00000000000E+00 -0.88959585855E+03  0.88959585855E+03  0.00000000000E+00 0. -1.
          2    1    1    2  501    0  0.21695232855E+02  0.26963808336E+01  0.63119578593E+02  0.66798464054E+02  0.00000000000E+00 0.  1.
          1    1    1    2  502    0 -0.21695232855E+02 -0.26963808336E+01 -0.88762181989E+03  0.88789101174E+03  0.00000000000E+00 0. -1.
</event>
<event>
 4    1  0.3586324E+003  0.2217307E+02  0.7546771E-02  0.1503151E+00
          2   -1    0    0  502    0  0.00000000000E+00  0.00000000000E+00  0.27665259187E+02  0.27665259187E+02  0.00000000000E+00 0.  1.
          1   -1    0    0  501    0 -0.00000000000E+00 -0.00000000000E+00 -0.39143873999E+02  0.39143873999E+02  0.00000000000E+00 0.  1.
          2    1    1    2  501    0  0.18685152846E+02 -0.11937763367E+02  0.18943995226E+02  0.29163677515E+02  0.00000000000E+00 0.  1.
          1    1    1    2  502    0 -0.18685152846E+02  0.11937763367E+02 -0.30422610038E+02  0.37645455670E+02  0.00000000000E+00 0.  1.
</event>
<event>
 4    1  0.3586324E+003  0.2083392E+02  0.7546771E-02  0.1521649E+00
          2   -1    0    0  502    0  0.00000000000E+00  0.00000000000E+00  0.13589176001E+03  0.13589176001E+03  0.00000000000E+00 0.  1.
          1   -1    0    0  501    0 -0.00000000000E+00 -0.00000000000E+00 -0.58940218378E+01  0.58940218378E+01  0.00000000000E+00 0. -1.
          2    1    1    2  501    0  0.20255699960E+02  0.48742886724E+01  0.11298020036E+03  0.11488506319E+03  0.00000000000E+00 0.  1.
          1    1    1    2  502    0 -0.20255699960E+02 -0.48742886724E+01  0.17017537803E+02  0.26900718648E+02  0.00000000000E+00 0. -1.
</event>
<event>
 4    1  0.3586324E+003  0.2113294E+02  0.7546771E-02  0.1517375E+00
          2   -1    0    0  502    0  0.00000000000E+00  0.00000000000E+00  0.13481828370E+04  0.13481828370E+04  0.00000000000E+00 0. -1.
          1   -1    0    0  501    0 -0.00000000000E+00 -0.00000000000E+00 -0.60603760672E+01  0.60603760672E+01  0.00000000000E+00 0. -1.
          2    1    1    2  501    0 -0.19147223797E+02  0.89434271387E+01  0.13294169887E+04  0.13295849469E+04  0.00000000000E+00 0. -1.
          1    1    1    2  502    0  0.19147223797E+02 -0.89434271387E+01  0.12705472248E+02  0.24658266224E+02  0.00000000000E+00 0. -1.
</event>
<event>
 4    1  0.3586324E+003  0.3270181E+02  0.7546771E-02  0.1397482E+00
          2   -1    0    0  502    0  0.00000000000E+00  0.00000000000E+00  0.45685063634E+02  0.45685063634E+02  0.00000000000E+00 0.  1.
          1   -1    0    0  501    0 -0.00000000000E+00 -0.00000000000E+00 -0.56349352460E+02  0.56349352460E+02  0.00000000000E+00 0.  1.
          2    1    1    2  501    0 -0.30254283593E+02 -0.12413171796E+02  0.33674727702E+02  0.46940342942E+02  0.00000000000E+00 0.  1.
          1    1    1    2  502    0  0.30254283593E+02  0.12413171796E+02 -0.44339016529E+02  0.55094073152E+02  0.00000000000E+00 0.  1.
</event>
<event>
 4    1  0.3586324E+003  0.2660589E+02  0.7546771E-02  0.1451608E+00
          2   -1    0    0  502    0  0.00000000000E+00  0.00000000000E+00  0.66121763457E+02  0.66121763457E+02  0.00000000000E+00 0.  1.
          1   -1    0    0  501    0 -0.00000000000E+00 -0.00000000000E+00 -0.85561074284E+02  0.85561074284E+02  0.00000000000E+00 0. -1.
          2    1    1    2  501    0  0.61401157062E+00  0.26598802967E+02  0.61218535749E+02  0.66750149429E+02  0.00000000000E+00 0.  1.
          1    1    1    2  502    0 -0.61401157062E+00 -0.26598802967E+02 -0.80657846576E+02  0.84932688311E+02  0.00000000000E+00 0. -1.
</event>
<event>
 4    1  0.3586324E+003  0.3017305E+02  0.7546771E-02  0.1418098E+00
          2   -1    0    0  502    0  0.00000000000E+00  0.00000000000E+00  0.99718411470E+03  0.99718411470E+03  0.00000000000E+00 0.  1.
          1   -1    0    0  501    0 -0.00000000000E+00 -0.00000000000E+00 -0.91926379317E+00  0.91926379317E+00  0.00000000000E+00 0.  1.
          2    1    1    2  501    0  0.14469794859E+02  0.26477108307E+02  0.45688186808E+03  0.45787711627E+03  0.00000000000E+00 0.  1.
          1    1    1    2  502    0 -0.14469794859E+02 -0.26477108307E+02  0.53938298283E+03  0.54022626222E+03  0.00000000000E+00 0.  1.
</event>
<event>
 4    1  0.3586324E+003  0.2074081E+02  0.7546771E-02  0.1522998E+00
          2   -1    0    0  502    0  0.00000000000E+00  0.00000000000E+00  0.72140304891E+03  0.72140304891E+03  0.00000000000E+00 0.  1.
          1   -1    0    0  501    0 -0.00000000000E+00 -0.00000000000E+00 -0.64131382958E+02  0.64131382958E+02  0.00000000000E+00 0.  1.
          2    1    1    2  501    0 -0.13623117415E+02  0.15639439016E+02  0.71957275282E+03  0.71987160521E+03  0.00000000000E+00 0.  1.
          1    1    1    2  502    0  0.13623117415E+02 -0.15639439016E+02 -0.62301086866E+02  0.65662826664E+02  0.00000000000E+00 0.  1.
</event>
<event>
 4    1  0.3586324E+003  0.2078725E+02  0.7546771E-02  0.1522324E+00
          2   -1    0    0  502    0  0.00000000000E+00  0.00000000000E+00  0.12097974351E+02  0.12097974351E+02  0.00000000000E+00 0.  1.
          1   -1    0    0  501    0 -0.00000000000E+00 -0.00000000000E+00 -0.28761363746E+03  0.28761363746E+03  0.00000000000E+00 0.  1.
          2    1    1    2  501    0 -0.45329598352E+01  0.20286995750E+02  0.24846387700E+01  0.20935217965E+02  0.00000000000E+00 0.  1.
          1    1    1    2  502    0  0.45329598352E+01 -0.20286995750E+02 -0.27800030188E+03  0.27877639384E+03  0.00000000000E+00 0.  1.
</event>
<event>
 4    1  0.3586324E+003  0.3809908E+02  0.7546771E-02  0.1360000E+00
          2   -1    0    0  502    0  0.00000000000E+00  0.00000000000E+00  0.14471758276E+03  0.14471758276E+03  0.00000000000E+00 0. -1.
          1   -1    0    0  501    0 -0.00000000000E+00 -0.00000000000E+00 -0.20049535335E+03  0.20049535335E+03  0.00000000000E+00 0.  1.
          2    1    1    2  501    0 -0.32937931372E+02  0.19147642557E+02  0.14034471090E+03  0.14542412941E+03  0.00000000000E+00 0. -1.
          1    1    1    2  502    0  0.32937931372E+02 -0.19147642557E+02 -0.19612248148E+03  0.19978880670E+03  0.00000000000E+00 0.  1.
</event>
<event>
 4    1  0.3586324E+003  0.3145231E+02  0.7546771E-02  0.1407382E+00
          2   -1    0    0  502    0  0.00000000000E+00  0.00000000000E+00  0.13040068199E+02  0.13040068199E+02  0.00000000000E+00 0.  1.
          1   -1    0    0  501    0 -0.00000000000E+00 -0.00000000000E+00 -0.27792562417E+03  0.27792562417E+03  0.00000000000E+00 0.  1.
          2    1    1    2  501    0 -0.18657084486E+02 -0.25321152145E+02 -0.83943094322E+01  0.32553217633E+02  0.00000000000E+00 0.  1.
          1    1    1    2  502    0  0.18657084486E+02  0.25321152145E+02 -0.25649124653E+03  0.25841247473E+03  0.00000000000E+00 0.  1.
</event>
<event>
 4    1  0.3586324E+003  0.4788893E+02  0.7546771E-02  0.1307594E+00
          2   -1    0    0  502    0  0.00000000000E+00  0.00000000000E+00  0.13197722495E+03  0.13197722495E+03  0.00000000000E+00 0. -1.
          1   -1    0    0  501    0 -0.00000000000E+00 -0.00000000000E+00 -0.19107694455E+04  0.19107694455E+04  0.00000000000E+00 0.  1.
          2    1    1    2  501    0  0.47480232137E+02  0.62431478229E+01  0.12732234779E+03  0.13603062003E+03  0.00000000000E+00 0. -1.
          1    1    1    2  502    0 -0.47480232137E+02 -0.62431478229E+01 -0.19061145684E+04  0.19067160505E+04  0.00000000000E+00 0.  1.
</event>
<event>
 4    1  0.3586324E+003  0.3489489E+02  0.7546771E-02  0.1381304E+00
          2   -1    0    0  502    0  0.00000000000E+00  0.00000000000E+00  0.19722291256E+01  0.19722291256E+01  0.00000000000E+00 0.  1.
          1   -1    0    0  501    0 -0.00000000000E+00 -0.00000000000E+00 -0.62320903245E+03  0.62320903245E+03  0.00000000000E+00 0. -1.
          2    1    1    2  501    0  0.21793399697E+02 -0.27252540387E+02 -0.28043761264E+03  0.28260026152E+03  0.00000000000E+00 0.  1.
          1    1    1    2  502    0 -0.21793399697E+02  0.27252540387E+02 -0.34079919069E+03  0.34258100006E+03  0.00000000000E+00 0. -1.
</event>
<event>
 4    1  0.3586324E+003  0.2744110E+02  0.7546771E-02  0.1443227E+00
          2   -1    0    0  502    0  0.00000000000E+00  0.00000000000E+00  0.11437815451E+02  0.11437815451E+02  0.00000000000E+00 0. -1.
          1   -1    0    0  501    0 -0.00000000000E+00 -0.00000000000E+00 -0.65916945573E+02  0.65916945573E+02  0.00000000000E+00 0.  1.
          2    1    1    2  501    0  0.24827913261E+02  0.11687105575E+02 -0.25879597045E+02  0.37719587177E+02  0.00000000000E+00 0. -1.
          1    1    1    2  502    0 -0.24827913261E+02 -0.11687105575E+02 -0.28599533077E+02  0.39635173846E+02  0.00000000000E+00 0.  1.
</event>
<event>
 4    1  0.3586324E+003  0.2708266E+02  0.7546771E-02  0.1446780E+00
          2   -1    0    0  502    0  0.00000000000E+00  0.00000000000E+00  0.37472563845E+03  0.37472563845E+03  0.00000000000E+00 0.  1.
          1   -1    0    0  501    0 -0.00000000000E+00 -0.00000000000E+00 -0.11814185689E+03  0.11814185689E+03  0.00000000000E+00 0. -1.
          2    1    1    2  501    0 -0.27024671406E+02 -0.17713808352E+01  0.37267567633E+03  0.37365844080E+03  0.00000000000E+00 0.  1.
          1    1    1    2  502    0  0.27024671406E+02  0.17713808352E+01 -0.11609189476E+03  0.11920905454E+03  0.00000000000E+00 0. -1.
</event>
<event>
 4    1  0.3586324E+003  0.3826960E+02  0.7546771E-02  0.1358935E+00
          2   -1    0    0  502    0  0.00000000000E+00  0.00000000000E+00  0.20360910716E+02  0.20360910716E+02  0.00000000000E+00 0. -1.
          1   -1    0    0  501    0 -0.00000000000E+00 -0.00000000000E+00 -0.11948568865E+03  0.11948568865E+03  0.00000000000E+00 0.  1.
          2    1    1    2  501    0  0.85387634988E+01  0.37304854308E+02 -0.54495829461E+01  0.38655667001E+02  0.00000000000E+00 0. -1.
          1    1    1    2  502    0 -0.85387634988E+01 -0.37304854308E+02 -0.93675194990E+02  0.10119093237E+03  0.00000000000E+00 0.  1.
</event>
<event>
 4    1  0.3586324E+003  0.3244263E+02  0.7546771E-02  0.1399493E+00
          2   -1    0    0  502    0  0.00000000000E+00  0.00000000000E+00  0.14279763149E+04  0.14279763149E+04  0.00000000000E+00 0.  1.
          1   -1    0    0  501    0 -0.00000000000E+00 -0.00000000000E+00 -0.13095163887E+01  0.13095163887E+01  0.00000000000E+00 0. -1.
          2    1    1    2  501    0 -0.32351942196E+02  0.24240461779E+01  0.11858309155E+04  0.11862746243E+04  0.00000000000E+00 0.  1.
          1    1    1    2  502    0  0.32351942196E+02 -0.24240461779E+01  0.24083588302E+03  0.24301120697E+03  0.00000000000E+00 0. -1.
</event>
<event>
 4    1  0.3586324E+003  0.2023648E+02  0.7546771E-02  0.1530451E+00
          2   -1    0    0  502    0  0.00000000000E+00  0.00000000000E+00  0.54027610000E+03  0.54027610000E+03  0.00000000000E+00 0.  1.
          1   -1    0    0  501    0 -0.00000000000E+00 -0.00000000000E+00 -0.98303104255E+00  0.98303104255E+00  0.00000000000E+00 0.  1.
          2    1    1    2  501    0 -0.17183242114E+02 -0.10688821399E+02  0.14015574939E+03  0.14160914094E+03  0.00000000000E+00 0.  1.
          1    1    1    2  502    0  0.17183242114E+02  0.10688821399E+02  0.39913731957E+03  0.39964999010E+03  0.00000000000E+00 0.  1.
</event>
<event>
 4    1  0.3586324E+003  0.4366446E+02  0.7546771E-02  0.1328254E+00
          2   -1    0    0  502    0  0.00000000000E+00  0.00000000000E+00  0.54910677521E+01  0.54910677521E+01  0.00000000000E+00 0. -1.
          1   -1    0    0  501    0 -0.00000000000E+00 -0.00000000000E+00 -0.67120665403E+03  0.67120665403E+03  0.00000000000E+00 0. -1.
          2    1    1    2  501    0  0.42506673140E+02  0.99883976621E+01 -0.97784666575E+02  0.10709073894E+03  0.00000000000E+00 0. -1.
          1    1    1    2  502    0 -0.42506673140E+02 -0.99883976621E+01 -0.56793091970E+03  0.56960698284E+03  0.00000000000E+00 0. -1.
</event>
<event>
 4    1  0.3586324E+003  0.2009066E+02  0.7546771E-02  0.1532654E+00
          2   -1    0    0  502    0  0.00000000000E+00  0.00000000000E+00  0.13483877152E+01  0.13483877152E+01  0.00000000000E+00 0. -1.
          1   -1    0    0  501    0 -0.00000000000E+00 -0.00000000000E+00 -0.93252446932E+03  0.93252446932E+03  0.00000000000E+00 0.  1.
          2    1    1    2  501    0  0.18512208407E+02  0.78059449640E+01 -0.80827376786E+02  0.83286850552E+02  0.00000000000E+00 0. -1.
          1    1    1    2  502    0 -0.18512208407E+02 -0.78059449640E+01 -0.85034870482E+03  0.85058600649E+03  0.00000000000E+00 0.  1.
</event>
<event>
 4    1  0.3586324E+003  0.2440789E+02  0.7546771E-02  0.1475538E+00
          2   -1    0    0  502    0  0.00000000000E+00  0.00000000000E+00  0.34990479219E+03  0.34990479219E+03  0.00000000000E+00 0.  1.
          1   -1    0    0  501    0 -0.00000000000E+00 -0.00000000000E+00 -0.10828750952E+04  0.10828750952E+04  0.00000000000E+00 0. -1.
          2    1    1    2  501    0  0.20558202280E+02  0.13156944136E+02  0.34934138506E+03  0.35019301560E+03  0.00000000000E+00 0.  1.
          1    1    1    2  502    0 -0.20558202280E+02 -0.13156944136E+02 -0.10823116880E+04  0.10825868718E+04  0.00000000000E+00 0. -1.
</event>
<event>
 4    1  0.3586324E+003  0.2827161E+02  0.7546771E-02  0.1435236E+00
          2   -1    0    0  502    0  0.00000000000E+00  0.00000000000E+00  0.12427285720E+02  0.12427285720E+02  0.00000000000E+00 0. -1.
          1   -1    0    0  501    0 -0.00000000000E+00 -0.00000000000E+00 -0.11811542160E+04  0.11811542160E+04  0.00000000000E+00 0. -1.
          2    1    1    2  501    0  0.87322916661E+01  0.26889234695E+02 -0.40485276797E+01  0.28560014646E+02  0.00000000000E+00 0. -1.
          1    1    1    2  502    0 -0.87322916661E+01 -0.26889234695E+02 -0.11646784026E+04  0.11650214871E+04  0.00000000000E+00 0. -1.
</event>
<event>
 4    1  0.3586324E+003  0.3486477E+02  0.7546771E-02  0.1381516E+00
          2   -1    0    0  502    0  0.00000000000E+00  0.00000000000E+00  0.35570157735E+03  0.35570157735E+03  0.00000000000E+00 0. -1.
          1   -1    0    0  501    0 -0.00000000000E+00 -0.00000000000E+00 -0.19380852515E+03  0.19380852515E+03  0.00000000000E+00 0.  1.
          2    1    1    2  501    0 -0.13189884424E+02  0.32273501195E+02  0.35326848971E+03  0.35498475707E+03  0.00000000000E+00 0. -1.
          1    1    1    2  502    0  0.13189884424E+02 -0.32273501195E+02 -0.19137543752E+03  0.19452534543E+03  0.00000000000E+00 0.  1.
</event>
<event>
 4    1  0.3586324E+003  0.2428685E+02  0.7546771E-02  0.1476942E+00
          2   -1    0    0  502    0  0.00000000000E+00  0.00000000000E+00  0.20153298175E+03  0.20153298175E+03  0.00000000000E+00 0. -1.
          1   -1    0    0  501    0 -0.00000000000E+00 -0.00000000000E+00 -0.10266537549E+02  0.10266537549E+02  0.00000000000E+00 0.  1.
          2    1    1    2  501    0 -0.22434630806E+02  0.93025925570E+01  0.18517436425E+03  0.18676026360E+03  0.00000000000E+00 0. -1.
          1    1    1    2  502    0  0.22434630806E+02 -0.93025925570E+01  0.60920799602E+01  0.25039255699E+02  0.00000000000E+00 0.  1.
</event>
<event>
 4    1  0.3586324E+003  0.2359574E+02  0.7546771E-02  0.1485150E+00
          2   -1    0    0  502    0  0.00000000000E+00  0.00000000000E+00  0.84020781331E+03  0.84020781331E+03  0.00000000000E+00 0. -1.
          1   -1    0    0  501    0 -0.00000000000E+00 -0.00000000000E+00 -0.66278910042E+00  0.66278910042E+00  0.00000000000E+00 0. -1.
          2    1    1    2  501    0  0.60838965006E+01  0.22797904360E+02  0.41354084877E+03  0.41421346169E+03  0.00000000000E+00 0. -1.
          1    1    1    2  502    0 -0.60838965006E+01 -0.22797904360E+02  0.42600417544E+03  0.42665714072E+03  0.00000000000E+00 0. -1.
</event>
<event>
 4    1  0.3586324E+003  0.2806749E+02  0.7546771E-02  0.1437170E+00
          2   -1    0    0  502    0  0.00000000000E+00  0.00000000000E+00  0.24015448835E+02  0.24015448835E+02  0.00000000000E+00 0.  1.
          1   -1    0    0  501    0 -0.00000000000E+00 -0.00000000000E+00 -0.37695808266E+03  0.37695808266E+03  0.00000000000E+00 0. -1.
          2    1    1    2  501    0 -0.27236436507E+02  0.67794271151E+01  0.15093669716E+02  0.31868526340E+02  0.00000000000E+00 0.  1.
          1    1    1    2  502    0  0.27236436507E+02 -0.67794271151E+01 -0.36803630354E+03  0.36910500515E+03  0.00000000000E+00 0. -1.
</event>
<event>
 4    1  0.3586324E+003  0.2926539E+02  0.7546771E-02  0.1426089E+00
          2   -1    0    0  502    0  0.00000000000E+00  0.00000000000E+00  0.12031582687E+02  0.12031582687E+02  0.00000000000E+00 0. -1.
          1   -1    0    0  501    0 -0.00000000000E+00 -0.00000000000E+00 -0.25313724759E+03  0.25313724759E+03  0.00000000000E+00 0.  1.
          2    1    1    2  501    0  0.22425239975E+01 -0.29179341667E+02 -0.81457462246E+01  0.30377887937E+02  0.00000000000E+00 0. -1.
          1    1    1    2  502    0 -0.22425239975E+01  0.29179341667E+02 -0.23295991868E+03  0.23479094234E+03  0.00000000000E+00 0.  1.
</event>
<event>
 4    1  0.3586324E+003  0.2464859E+02  0.7546771E-02  0.1472773E+00
          2   -1    0    0  502    0  0.00000000000E+00  0.00000000000E+00  0.71752165066E+03  0.71752165066E+03  0.00000000000E+00 0. -1.
          1   -1    0    0  501    0 -0.00000000000E+00 -0.00000000000E+00 -0.20408504419E+03  0.20408504419E+03  0.00000000000E+00 0.  1.
          2    1    1    2  501    0  0.16679382500E+02 -0.18148037560E+02  0.71656473243E+03  0.71698854163E+03  0.00000000000E+00 0. -1.
          1    1    1    2  502    0 -0.16679382500E+02  0.18148037560E+02 -0.20312812596E+03  0.20461815321E+03  0.00000000000E+00 0.  1.
</event>
<event>
 4    1  0.3586324E+003  0.2488965E+02  0.7546771E-02  0.1470042E+00
          2   -1    0    0  502    0  0.00000000000E+00  0.00000000000E+00  0.12169038530E+03  0.12169038530E+03  0.00000000000E+00 0. -1.
          1   -1    0    0  501    0 -0.00000000000E+00 -0.00000000000E+00 -0.15627122060E+03  0.15627122060E+03  0.00000000000E+00 0. -1.
          2    1    1    2  501    0 -0.66968195862E+01 -0.23971802536E+02  0.11940789947E+03  0.12197434634E+03  0.00000000000E+00 0. -1.
          1    1    1    2  502    0  0.66968195862E+01  0.23971802536E+02 -0.15398873477E+03  0.15598725956E+03  0.00000000000E+00 0. -1.
</event>
<event>
 4    1  0.3586324E+003  0.2829837E+02  0.7546771E-02  0.1434984E+00
          2   -1    0    0  502    0  0.00000000000E+00  0.00000000000E+00  0.20594752786E+01  0.20594752786E+01  0.00000000000E+00 0.  1.
          1   -1    0    0  501    0 -0.00000000000E+00 -0.00000000000E+00 -0.94714801549E+03  0.94714801549E+03  0.00000000000E+00 0.  1.
          2    1    1    2  501    0 -0.16385235805E+02 -0.23072096340E+02 -0.10815898975E+03  0.11179966299E+03  0.00000000000E+00 0.  1.
          1    1    1    2  502    0  0.16385235805E+02  0.23072096340E+02 -0.83692955046E+03  0.83740782777E+03  0.00000000000E+00 0.  1.
</event>
<event>
 4    1  0.3586324E+003  0.2323953E+02  0.7546771E-02  0.1489512E+00
          2   -1    0    0  502    0  0.00000000000E+00  0.00000000000E+00  0.13463439141E+02  0.13463439141E+02  0.00000000000E+00 0.  1.
          1   -1    0    0  501    0 -0.00000000000E+00 -0.00000000000E+00 -0.42788344614E+03  0.42788344614E+03  0.00000000000E+00 0. -1.
          2    1    1    2  501    0 -0.23170848217E+02 -0.17853973715E+01  0.28648055254E+01  0.23415442801E+02  0.00000000000E+00 0.  1.
          1    1    1    2  502    0  0.23170848217E+02  0.17853973715E+01 -0.41728481253E+03  0.41793144248E+03  0.00000000000E+00 0. -1.
</event>
<event>
 4    1  0.3586324E+003  0.2141020E+02  0.7546771E-02  0.1513488E+00
          2   -1    0    0  502    0  0.00000000000E+00  0.00000000000E+00  0.73161047225E+03  0.73161047225E+03  0.00000000000E+00 0.  1.
          1   -1    0    0  501    0 -0.00000000000E+00 -0.00000000000E+00 -0.38891164443E+01  0.38891164443E+01  0.00000000000E+00 0.  1.
          2    1    1    2  501    0  0.71617190069E+01 -0.20176879722E+02  0.70068705033E+03  0.70101407917E+03  0.00000000000E+00 0.  1.
          1    1    1    2  502    0 -0.71617190069E+01  0.20176879722E+02  0.27034305467E+02  0.34485509516E+02  0.00000000000E+00 0.  1.
</event>
<event>
 4    1  0.3586324E+003  0.3191814E+02  0.7546771E-02  0.1403629E+00
          2   -1    0    0  502    0  0.00000000000E+00  0.00000000000E+00  0.10723614837E+04  0.10723614837E+04  0.00000000000E+00 0. -1.
          1   -1    0    0  501    0 -0.00000000000E+00 -0.00000000000E+00 -0.13376587257E+01  0.13376587257E+01  0.00000000000E+00 0.  1.
          2    1    1    2  501    0 -0.56406621560E+01 -0.31415771916E+02  0.82450801852E+03  0.82512559068E+03  0.00000000000E+00 0. -1.
          1    1    1    2  502    0  0.56406621560E+01  0.31415771916E+02  0.24651580645E+03  0.24857355174E+03  0.00000000000E+00 0.  1.
</event>
<event>
 4    1  0.3586324E+003  0.2940483E+02  0.7546771E-02  0.1424840E+00
          2   -1    0    0  502    0  0.00000000000E+00  0.00000000000E+00  0.19302203772E+02  0.19302203772E+02  0.00000000000E+00 0.  1.
          1   -1    0    0  501    0 -0.00000000000E+00 -0.00000000000E+00 -0.11030420449E+03  0.11030420449E+03  0.00000000000E+00 0. -1.
          2    1    1    2  501    0  0.22379678256E+02 -0.19073389317E+02  0.44393140609E+01  0.29738051184E+02  0.00000000000E+00 0.  1.
          1    1    1    2  502    0 -0.22379678256E+02  0.19073389317E+02 -0.95441314777E+02  0.99868357077E+02  0.00000000000E+00 0. -1.
</event>
<event>
 4    1  0.3586324E+003  0.3525546E+02  0.7546771E-02  0.1378776E+00
          2   -1    0    0  502    0  0.00000000000E+00  0.00000000000E+00  0.22319397808E+02  0.22319397808E+02  0.00000000000E+00 0. -1.
          1   -1    0    0  501    0 -0.00000000000E+00 -0.00000000000E+00 -0.58746691912E+03  0.58746691912E+03  0.00000000000E+00 0. -1.
          2    1    1    2  501    0 -0.52576560453E+01 -0.34861214481E+02  0.75084388402E+01  0.36046135382E+02  0.00000000000E+00 0. -1.
          1    1    1    2  502    0  0.52576560453E+01  0.34861214481E+02 -0.57265596015E+03  0.57374018154E+03  0.00000000000E+00 0. -1.
</event>
<event>
 4    1  0.3586324E+003  0.4607673E+02  0.7546771E-02  0.1316141E+00
          2   -1    0    0  502    0  0.00000000000E+00  0.00000000000E+00  0.34082284199E+02  0.34082284199E+02  0.00000000000E+00 0.  1.
          1   -1    0    0  501    0 -0.00000000000E+00 -0.00000000000E+00 -0.13559967423E+04  0.13559967423E+04  0.00000000000E+00 0.  1.
          2    1    1    2  501    0  0.45632327275E+02 -0.63839964860E+01  0.17930099489E+02  0.49442422790E+02  0.00000000000E+00 0.  1.
          1    1    1    2  502    0 -0.45632327275E+02  0.63839964860E+01 -0.13398445576E+04  0.13406366037E+04  0.00000000000E+00 0.  1.
</event>
<event>
 4    1  0.3586324E+003  0.2018663E+02  0.7546771E-02  0.1531202E+00
          2   -1    0    0  502    0  0.00000000000E+00  0.00000000000E+00  0.11164170886E+02  0.11164170886E+02  0.00000000000E+00 0.  1.
          1   -1    0    0  501    0 -0.00000000000E+00 -0.00000000000E+00 -0.13289452380E+03  0.13289452380E+03  0.00000000000E+00 0.  1.
          2    1    1    2  501    0 -0.20077456633E+02 -0.20965759497E+01  0.48002158562E+00  0.20192333107E+02  0.00000000000E+00 0.  1.
          1    1    1    2  502    0  0.20077456633E+02  0.20965759497E+01 -0.12221037450E+03  0.12386636158E+03  0.00000000000E+00 0.  1.
</event>
<event>
 4    1  0.3586324E+003  0.2545811E+02  0.7546771E-02  0.1463743E+00
          2   -1    0    0  502    0  0.00000000000E+00  0.00000000000E+00  0.10876374858E+04  0.10876374858E+04  0.00000000000E+00 0. -1.
          1   -1    0    0  501    0 -0.00000000000E+00 -0.00000000000E+00 -0.23430960882E+02  0.23430960882E+02  0.00000000000E+00 0. -1.
          2    1    1    2  501    0  0.12010602845E+02 -0.22446844035E+02  0.10805278586E+04  0.10808277238E+04  0.00000000000E+00 0. -1.
          1    1    1    2  502    0 -0.12010602845E+02  0.22446844035E+02 -0.16321333656E+02  0.30240722878E+02  0.00000000000E+00 0. -1.
</event>
<event>
 4    1  0.3586324E+003  0.2023347E+02  0.7546771E-02  0.1530496E+00
          2   -1    0    0  502    0  0.00000000000E+00  0.00000000000E+00  0.52585830879E+01  0.52585830879E+01  0.00000000000E+00 0.  1.
          1   -1    0    0  501    0 -0.00000000000E+00 -0.00000000000E+00 -0.94657803035E+03  0.94657803035E+03  0.00000000000E+00 0.  1.
          2    1    1    2  501    0  0.15648400146E+02 -0.12826566436E+02 -0.14732503317E+02  0.25028781186E+02  0.00000000000E+00 0.  1.
          1    1    1    2  502    0 -0.15648400146E+02  0.12826566436E+02 -0.92658694395E+03  0.92680783225E+03  0.00000000000E+00 0.  1.
</event>
<event>
 4    1  0.3586324E+003  0.3016563E+02  0.7546771E-02  0.1418162E+00
          2   -1    0    0  502    0  0.00000000000E+00  0.00000000000E+00  0.17196402742E+01  0.17196402742E+01  0.00000000000E+00 0.  1.
          1   -1    0    0  501    0 -0.00000000000E+00 -0.00000000000E+00 -0.54866644489E+03  0.54866644489E+03  0.00000000000E+00 0.  1.
          2    1    1    2  501    0  0.22806301672E+02 -0.19744290408E+02 -0.32536239155E+03  0.32675778527E+03  0.00000000000E+00 0.  1.
          1    1    1    2  502    0 -0.22806301672E+02  0.19744290408E+02 -0.22158441307E+03  0.22362829990E+03  0.00000000000E+00 0.  1.
</event>
<event>
 4    1  0.3586324E+003  0.3981631E+02  0.7546771E-02  0.1349566E+00
          2   -1    0    0  502    0  0.00000000000E+00  0.00000000000E+00  0.30157289937E+04  0.30157289937E+04  0.00000000000E+00 0.  1.
          1   -1    0    0  501    0 -0.00000000000E+00 -0.00000000000E+00 -0.60418326342E+00  0.60418326342E+00  0.00000000000E+00 0. -1.
          2    1    1    2  501    0 -0.39580998239E+02 -0.43224209051E+01  0.20511643571E+04  0.20515507692E+04  0.00000000000E+00 0.  1.
          1    1    1    2  502    0  0.39580998239E+02  0.43224209051E+01  0.96396045340E+03  0.96478240783E+03  0.00000000000E+00 0. -1.
</event>
<event>
 4    1  0.3586324E+003  0.2323652E+02  0.7546771E-02  0.1489549E+00
          2   -1    0    0  502    0  0.00000000000E+00  0.00000000000E+00  0.58012420585E+02  0.58012420585E+02  0.00000000000E+00 0.  1.
          1   -1    0    0  501    0 -0.00000000000E+00 -0.00000000000E+00 -0.14936915159E+02  0.14936915159E+02  0.00000000000E+00 0. -1.
          2    1    1    2  501    0  0.12467071458E+02 -0.19608871554E+02  0.43930244759E+02  0.49697103728E+02  0.00000000000E+00 0.  1.
          1    1    1    2  502    0 -0.12467071458E+02  0.19608871554E+02 -0.85473933388E+00  0.23252232016E+02  0.00000000000E+00 0. -1.
</event>
<event>
 4    1  0.3586324E+003  0.3873352E+02  0.7546771E-02  0.1356071E+00
          2   -1    0    0  502    0  0.00000000000E+00  0.00000000000E+00  0.25597874323E+03  0.25597874323E+03  0.00000000000E+00 0.  1.
          1   -1    0    0  501    0 -0.00000000000E+00 -0.00000000000E+00 -0.50708271656E+02  0.50708271656E+02  0.00000000000E+00 0. -1.
          2    1    1    2  501    0 -0.35474485052E+02 -0.15551414090E+02  0.24684481604E+03  0.24986526124E+03  0.00000000000E+00 0.  1.
          1    1    1    2  502    0  0.35474485052E+02  0.15551414090E+02 -0.41574344464E+02  0.56821753646E+02  0.00000000000E+00 0. -1.
</event>
<event>
 4    1  0.3586324E+003  0.2941378E+02  0.7546771E-02  0.1424760E+00
          2   -1    0    0  502    0  0.00000000000E+00  0.00000000000E+00  0.15904753850E+02  0.15904753850E+02  0.00000000000E+00 0. -1.
          1   -1    0    0  501    0 -0.00000000000E+00 -0.00000000000E+00 -0.41634594472E+03  0.41634594472E+03  0.00000000000E+00 0.  1.
          2    1    1    2  501    0  0.11069083662E+02 -0.27251532961E+02  0.12920038122E+01  0.29442145569E+02  0.00000000000E+00 0. -1.
          1    1    1    2  502    0 -0.11069083662E+02  0.27251532961E+02 -0.40173319468E+03  0.40280855300E+03  0.00000000000E+00 0.  1.
</event>
<event>
 4    1  0.3586324E+003  0.2464056E+02  0.7546771E-02  0.1472865E+00
          2   -1    0    0  502    0  0.00000000000E+00  0.00000000000E+00  0.30720869188E+03  0.30720869188E+03  0.00000000000E+00 0. -1.
          1   -1    0    0  501    0 -0.00000000000E+00 -0.00000000000E+00 -0.16953241662E+02  0.16953241662E+02  0.00000000000E+00 0. -1.
          2    1    1    2  501    0  0.50106787392E+01 -0.24125723616E+02  0.29746852255E+03  0.29848731857E+03  0.00000000000E+00 0. -1.
          1    1    1    2  502    0 -0.50106787392E+01  0.24125723616E+02 -0.72130723296E+01  0.25674614970E+02  0.00000000000E+00 0. -1.
</event>
<event>
 4    1  0.3586324E+003  0.3058507E+02  0.7546771E-02  0.1414579E+00
          2   -1    0    0  502    0  0.00000000000E+00  0.00000000000E+00  0.93703257494E+02  0.93703257494E+02  0.00000000000E+00 0. -1.
          1   -1    0    0  501    0 -0.00000000000E+00 -0.00000000000E+00 -0.10122453824E+04  0.10122453824E+04  0.00000000000E+00 0. -1.
          2    1    1    2  501    0  0.10664331488E+01 -0.30566468845E+02  0.90969700693E+02  0.95973604400E+02  0.00000000000E+00 0. -1.
          1    1    1    2  502    0 -0.10664331488E+01  0.30566468845E+02 -0.10095118256E+04  0.10099750355E+04  0.00000000000E+00 0. -1.
</event>
<event>
 4    1  0.3586324E+003  0.2307315E+02  0.7546771E-02  0.1491582E+00
          2   -1    0    0  502    0  0.00000000000E+00  0.00000000000E+00  0.45610312398E+03  0.45610312398E+03  0.00000000000E+00 0. -1.
          1   -1    0    0  501    0 -0.00000000000E+00 -0.00000000000E+00 -0.13315226553E+01  0.13315226553E+01  0.00000000000E+00 0. -1.
          2    1    1    2  501    0  0.28056883397E+01  0.22901929239E+02  0.30772992771E+03  0.30859371131E+03  0.00000000000E+00 0. -1.
          1    1    1    2  502    0 -0.28056883397E+01 -0.22901929239E+02  0.14704167361E+03  0.14884093532E+03  0.00000000000E+00 0. -1.
</event>
<event>
 4    1  0.3586324E+003  0.3386982E+02  0.7546771E-02  0.1388688E+00
          2   -1    0    0  502    0  0.00000000000E+00  0.00000000000E+00  0.60623051285E+02  0.60623051285E+02  0.00000000000E+00 0. -1.
          1   -1    0    0  501    0 -0.00000000000E+00 -0.00000000000E+00 -0.86624860769E+02  0.86624860769E+02  0.00000000000E+00 0. -1.
          2    1    1    2  501    0 -0.15210346626E+02  0.30262355421E+02  0.52086724431E+02  0.62130440703E+02  0.00000000000E+00 0. -1.
          1    1    1    2  502    0  0.15210346626E+02 -0.30262355421E+02 -0.78088533915E+02  0.85117471350E+02  0.00000000000E+00 0. -1.
</event>
<event>
 4    1  0.3586324E+003  0.2243554E+02  0.7546771E-02  0.1499710E+00
          2   -1    0    0  502    0  0.00000000000E+00  0.00000000000E+00  0.57651504946E+02  0.57651504946E+02  0.00000000000E+00 0. -1.
          1   -1    0    0  501    0 -0.00000000000E+00 -0.00000000000E+00 -0.95387878670E+01  0.95387878670E+01  0.00000000000E+00 0. -1.
          2    1    1    2  501    0  0.20508335819E+02 -0.90973501194E+01  0.33832926052E+02  0.40595818781E+02  0.00000000000E+00 0. -1.
          1    1    1    2  502    0 -0.20508335819E+02  0.90973501194E+01  0.14279791028E+02  0.26594474032E+02  0.00000000000E+00 0. -1.
</event>
<event>
 4    1  0.3586324E+003  0.3335273E+02  0.7546771E-02  0.1392529E+00
          2   -1    0    0  502    0  0.00000000000E+00  0.00000000000E+00  0.93751596076E+03  0.93751596076E+03  0.00000000000E+00 0. -1.
          1   -1    0    0  501    0 -0.00000000000E+00 -0.00000000000E+00 -0.34089254288E+02  0.34089254288E+02  0.00000000000E+00 0.  1.
          2    1    1    2  501    0  0.20399673269E+02 -0.26386700898E+02  0.92898641511E+03  0.92958494185E+03  0.00000000000E+00 0. -1.
          1    1    1    2  502    0 -0.20399673269E+02  0.26386700898E+02 -0.25559708640E+02  0.42020273197E+02  0.00000000000E+00 0.  1.
</event>
<event>
 4    1  0.3586324E+003  0.2185733E+02  0.7546771E-02  0.1507368E+00
          2   -1    0    0  502    0  0.00000000000E+00  0.00000000000E+00  0.10587533706E+04  0.10587533706E+04  0.00000000000E+00 0. -1.
          1   -1    0    0  501    0 -0.00000000000E+00 -0.00000000000E+00 -0.13754685841E+01  0.13754685841E+01  0.00000000000E+00 0. -1.
          2    1    1    2  501    0 -0.21856609147E+02  0.17773539535E+00  0.96319416525E+03  0.96344213263E+03  0.00000000000E+00 0. -1.
          1    1    1    2  502    0  0.21856609147E+02 -0.17773539535E+00  0.94183736771E+02  0.96686706560E+02  0.00000000000E+00 0. -1.
</event>
<event>
 4    1  0.3586324E+003  0.2784238E+02  0.7546771E-02  0.1439325E+00
          2   -1    0    0  502    0  0.00000000000E+00  0.00000000000E+00  0.37100901468E+03  0.37100901468E+03  0.00000000000E+00 0.  1.
          1   -1    0    0  501    0 -0.00000000000E+00 -0.00000000000E+00 -0.24282862284E+01  0.24282862284E+01  0.00000000000E+00 0.  1.
          2    1    1    2  501    0  0.16625875185E+02  0.22333348779E+02  0.25404034108E+03  0.25556152505E+03  0.00000000000E+00 0.  1.
          1    1    1    2  502    0 -0.16625875185E+02 -0.22333348779E+02  0.11454038737E+03  0.11787577585E+03  0.00000000000E+00 0.  1.
</event>
<event>
 4    1  0.3586324E+003  0.2700308E+02  0.7546771E-02  0.1447577E+00
          2   -1    0    0  502    0  0.00000000000E+00  0.00000000000E+00  0.32334537546E+01  0.32334537546E+01  0.00000000000E+00 0. -1.
          1   -1    0    0  501    0 -0.00000000000E+00 -0.00000000000E+00 -0.35882382973E+03  0.35882382973E+03  0.00000000000E+00 0. -1.
          2    1    1    2  501    0 -0.23589825431E+02  0.13141024060E+02 -0.67451071221E+02  0.72655442921E+02  0.00000000000E+00 0. -1.
          1    1    1    2  502    0  0.23589825431E+02 -0.13141024060E+02 -0.28813930476E+03  0.28940184057E+03  0.00000000000E+00 0. -1.
</event>
<event>
 4    1  0.3586324E+003  0.2176987E+02  0.7546771E-02  0.1508551E+00
          2   -1    0    0  502    0  0.00000000000E+00  0.00000000000E+00  0.25976474659E+02  0.25976474659E+02  0.00000000000E+00 0.  1.
          1   -1    0    0  501    0 -0.00000000000E+00 -0.00000000000E+00 -0.25900277537E+02  0.25900277537E+02  0.00000000000E+00 0.  1.
          2    1    1    2  501    0  0.12030136107E+02  0.18143952413E+02  0.14140266770E+02  0.25959089512E+02  0.00000000000E+00 0.  1.
          1    1    1    2  502    0 -0.12030136107E+02 -0.18143952413E+02 -0.14064069648E+02  0.25917662684E+02  0.00000000000E+00 0.  1.
</event>
<event>
 4    1  0.3586324E+003  0.2200697E+02  0.7546771E-02  0.1505359E+00
          2   -1    0    0  502    0  0.00000000000E+00  0.00000000000E+00  0.85325575197E+03  0.85325575197E+03  0.00000000000E+00 0. -1.
          1   -1    0    0  501    0 -0.00000000000E+00 -0.00000000000E+00 -0.15443330787E+02  0.15443330787E+02  0.00000000000E+00 0.  1.
          2    1    1    2  501    0  0.16441304738E+02  0.14628402229E+02  0.84519906977E+03  0.84548552571E+03  0.00000000000E+00 0. -1.
          1    1    1    2  502    0 -0.16441304738E+02 -0.14628402229E+02 -0.73866485855E+01  0.23213557043E+02  0.00000000000E+00 0.  1.
</event>
<event>
 4    1  0.3586324E+003  0.4053794E+02  0.7546771E-02  0.1345362E+00
          2   -1    0    0  502    0  0.00000000000E+00  0.00000000000E+00  0.99150132701E+02  0.99150132701E+02  0.00000000000E+00 0.  1.
          1   -1    0    0  501    0 -0.00000000000E+00 -0.00000000000E+00 -0.17218150239E+03  0.17218150239E+03  0.00000000000E+00 0.  1.
          2    1    1    2  501    0  0.40489232931E+02  0.19865069063E+01  0.92455389204E+02  0.10095208361E+03  0.00000000000E+00 0.  1.
          1    1    1    2  502    0 -0.40489232931E+02 -0.19865069063E+01 -0.16548675889E+03  0.17037955148E+03  0.00000000000E+00 0.  1.
</event>
<event>
 4    1  0.3586324E+003  0.2121569E+02  0.7546771E-02  0.1516207E+00
          2   -1    0    0  502    0  0.00000000000E+00  0.00000000000E+00  0.78013875045E+03  0.78013875045E+03  0.00000000000E+00 0.  1.
          1   -1    0    0  501    0 -0.00000000000E+00 -0.00000000000E+00 -0.76538282723E+01  0.76538282723E+01  0.00000000000E+00 0. -1.
          2    1    1    2  501    0 -0.75708962786E+01  0.19818857295E+02  0.76500168463E+03  0.76529581409E+03  0.00000000000E+00 0.  1.
          1    1    1    2  502    0  0.75708962786E+01 -0.19818857295E+02  0.74832375523E+01  0.22496764638E+02  0.00000000000E+00 0. -1.
</event>
<event>
 4    1  0.3586324E+003  0.3104573E+02  0.7546771E-02  0.1410721E+00
          2   -1    0    0  502    0  0.00000000000E+00  0.00000000000E+00  0.52678696792E+02  0.52678696792E+02  0.00000000000E+00 0.  1.
          1   -1    0    0  501    0 -0.00000000000E+00 -0.00000000000E+00 -0.16156744654E+03  0.16156744654E+03  0.00000000000E+00 0. -1.
          2    1    1    2  501    0  0.21787009166E+02  0.22117040934E+02  0.46430987697E+02  0.55854040915E+02  0.00000000000E+00 0.  1.
          1    1    1    2  502    0 -0.21787009166E+02 -0.22117040934E+02 -0.15531973744E+03  0.15839210241E+03  0.00000000000E+00 0. -1.
</event>
<event>
 4    1  0.3586324E+003  0.2827376E+02  0.7546771E-02  0.1435216E+00
          2   -1    0    0  502    0  0.00000000000E+00  0.00000000000E+00  0.19283378450E+04  0.19283378450E+04  0.00000000000E+00 0. -1.
          1   -1    0    0  501    0 -0.00000000000E+00 -0.00000000000E+00 -0.79186877837E+02  0.79186877837E+02  0.00000000000E+00 0. -1.
          2    1    1    2  501    0  0.17043714683E+02  0.22559197608E+02  0.19257069636E+04  0.19259145140E+04  0.00000000000E+00 0. -1.
          1    1    1    2  502    0 -0.17043714683E+02 -0.22559197608E+02 -0.76555996398E+02  0.81610208868E+02  0.00000000000E+00 0. -1.
</event>
<event>
 4    1  0.3586324E+003  0.2365222E+02  0.7546771E-02  0.1484467E+00
          2   -1    0    0  502    0  0.00000000000E+00  0.00000000000E+00  0.49234440293E+02  0.49234440293E+02  0.00000000000E+00 0. -1.
          1   -1    0    0  501    0 -0.00000000000E+00 -0.00000000000E+00 -0.88561774635E+03  0.88561774635E+03  0.00000000000E+00 0. -1.
          2    1    1    2  501    0  0.20433907943E+02 -0.11911461819E+02  0.46226209025E+02  0.51925811667E+02  0.00000000000E+00 0. -1.
          1    1    1    2  502    0 -0.20433907943E+02  0.11911461819E+02 -0.88260951508E+03  0.88292637498E+03  0.00000000000E+00 0. -1.
</event>
<event>
 4    1  0.3586324E+003  0.2088688E+02  0.7546771E-02  0.1520886E+00
          2   -1    0    0  502    0  0.00000000000E+00  0.00000000000E+00  0.55147561272E+00  0.55147561272E+00  0.00000000000E+00 0.  1.
          1   -1    0    0  501    0 -0.00000000000E+00 -0.00000000000E+00 -0.11190125185E+04  0.11190125185E+04  0.00000000000E+00 0.  1.
          2    1    1    2  501    0 -0.17799119855E+01 -0.20810899999E+02 -0.25619515604E+03  0.25704517040E+03  0.00000000000E+00 0.  1.
          1    1    1    2  502    0  0.17799119855E+01  0.20810899999E+02 -0.86226588681E+03  0.86251882368E+03  0.00000000000E+00 0.  1.
</event>
<event>
 4    1  0.3586324E+003  0.3035169E+02  0.7546771E-02  0.1416564E+00
          2   -1    0    0  502    0  0.00000000000E+00  0.00000000000E+00  0.58033299246E+03  0.58033299246E+03  0.00000000000E+00 0. -1.
          1   -1    0    0  501    0 -0.00000000000E+00 -0.00000000000E+00 -0.37291343855E+01  0.37291343855E+01  0.00000000000E+00 0. -1.
          2    1    1    2  501    0 -0.77716017406E+01  0.29339853351E+02  0.50961502033E+03  0.51051806406E+03  0.00000000000E+00 0. -1.
          1    1    1    2  502    0  0.77716017406E+01 -0.29339853351E+02  0.66988837744E+02  0.73544062783E+02  0.00000000000E+00 0. -1.
</event>
<event>
 4    1  0.3586324E+003  0.3050813E+02  0.7546771E-02  0.1415231E+00
          2   -1    0    0  502    0  0.00000000000E+00  0.00000000000E+00  0.21465086308E+04  0.21465086308E+04  0.00000000000E+00 0.  1.
          1   -1    0    0  501    0 -0.00000000000E+00 -0.00000000000E+00 -0.71565475873E+00  0.71565475873E+00  0.00000000000E+00 0.  1.
          2    1    1    2  501    0 -0.13780335630E+02 -0.27218526537E+02  0.17468893311E+04  0.17471557117E+04  0.00000000000E+00 0.  1.
          1    1    1    2  502    0  0.13780335630E+02  0.27218526537E+02  0.39890364495E+03  0.40006857386E+03  0.00000000000E+00 0.  1.
</event>
<event>
 4    1  0.3586324E+003  0.2167879E+02  0.7546771E-02  0.1509790E+00
          2   -1    0    0  502    0  0.00000000000E+00  0.00000000000E+00  0.82233975350E+00  0.82233975350E+00  0.00000000000E+00 0. -1.
          1   -1    0    0  501    0 -0.00000000000E+00 -0.00000000000E+00 -0.17201228810E+04  0.17201228810E+04  0.00000000000E+00 0. -1.
          2    1    1    2  501    0 -0.17257815373E+02 -0.13120125826E+02 -0.15650441735E+03  0.15799874222E+03  0.00000000000E+00 0. -1.
          1    1    1    2  502    0  0.17257815373E+02  0.13120125826E+02 -0.15627961239E+04  0.15629464785E+04  0.00000000000E+00 0. -1.
</event>
<event>
 4    1  0.3586324E+003  0.3752542E+02  0.7546771E-02  0.1363630E+00
          2   -1    0    0  502    0  0.00000000000E+00  0.00000000000E+00  0.58627147882E+01  0.58627147882E+01  0.00000000000E+00 0.  1.
          1   -1    0    0  501    0 -0.00000000000E+00 -0.00000000000E+00 -0.41362628075E+03  0.41362628075E+03  0.00000000000E+00 0.  1.
          2    1    1    2  501    0  0.34832789097E+02 -0.13958285254E+02 -0.68063475454E+02  0.77722542511E+02  0.00000000000E+00 0.  1.
          1    1    1    2  502    0 -0.34832789097E+02  0.13958285254E+02 -0.33970009051E+03  0.34176645303E+03  0.00000000000E+00 0.  1.
</event>
<event>
 4    1  0.3586324E+003  0.2654223E+02  0.7546771E-02  0.1452261E+00
          2   -1    0    0  502    0  0.00000000000E+00  0.00000000000E+00  0.65581667093E+01  0.65581667093E+01  0.00000000000E+00 0. -1.
          1   -1    0    0  501    0 -0.00000000000E+00 -0.00000000000E+00 -0.42538657285E+03  0.42538657285E+03  0.00000000000E+00 0.  1.
          2    1    1    2  501    0  0.20285238227E+02 -0.17117222691E+02 -0.22692072116E+02  0.34920199591E+02  0.00000000000E+00 0. -1.
          1    1    1    2  502    0 -0.20285238227E+02  0.17117222691E+02 -0.39613633402E+03  0.39702453997E+03  0.00000000000E+00 0.  1.
</event>
<event>
 4    1  0.3586324E+003  0.2776587E+02  0.7546771E-02  0.1440063E+00
          2   -1    0    0  502    0  0.00000000000E+00  0.00000000000E+00  0.33323551258E+02  0.33323551258E+02  0.00000000000E+00 0. -1.
          1   -1    0    0  501    0 -0.00000000000E+00 -0.00000000000E+00 -0.88820583093E+02  0.88820583093E+02  0.00000000000E+00 0.  1.
          2    1    1    2  501    0  0.48098784438E+01  0.27346089381E+02  0.24770977083E+02  0.37209472459E+02  0.00000000000E+00 0. -1.
          1    1    1    2  502    0 -0.48098784438E+01 -0.27346089381E+02 -0.80268008918E+02  0.84934661892E+02  0.00000000000E+00 0.  1.
</event>
<event>
 4    1  0.3586324E+003  0.3150270E+02  0.7546771E-02  0.1406972E+00
          2   -1    0    0  502    0  0.00000000000E+00  0.00000000000E+00  0.76352642921E+02  0.76352642921E+02  0.00000000000E+00 0. -1.
          1   -1    0    0  501    0 -0.00000000000E+00 -0.00000000000E+00 -0.43167812251E+02  0.43167812251E+02  0.00000000000E+00 0.  1.
          2    1    1    2  501    0  0.29227430613E+02  0.11754896670E+02  0.66552089528E+02  0.73631521216E+02  0.00000000000E+00 0. -1.
          1    1    1    2  502    0 -0.29227430613E+02 -0.11754896670E+02 -0.33367258859E+02  0.45888933957E+02  0.00000000000E+00 0.  1.
</event>
<event>
 4    1  0.3586324E+003  0.4955977E+02  0.7546771E-02  0.1300092E+00
          2   -1    0    0  502    0  0.00000000000E+00  0.00000000000E+00  0.36635539279E+02  0.36635539279E+02  0.00000000000E+00 0. -1.
          1   -1    0    0  501    0 -0.00000000000E+00 -0.00000000000E+00 -0.68703066282E+03  0.68703066282E+03  0.00000000000E+00 0. -1.
          2    1    1    2  501    0  0.37408988218E+02  0.32507510228E+02  0.18527835370E+02  0.52909841280E+02  0.00000000000E+00 0. -1.
          1    1    1    2  502    0 -0.37408988218E+02 -0.32507510228E+02 -0.66892295891E+03  0.67075636082E+03  0.00000000000E+00 0. -1.
</event>
<event>
 4    1  0.3586324E+003  0.2134091E+02  0.7546771E-02  0.1514453E+00
          2   -1    0    0  502    0  0.00000000000E+00  0.00000000000E+00  0.11782426930E+03  0.11782426930E+03  0.00000000000E+00 0.  1.
          1   -1    0    0  501    0 -0.00000000000E+00 -0.00000000000E+00 -0.19286618586E+03  0.19286618586E+03  0.00000000000E+00 0. -1.
          2    1    1    2  501    0  0.68637214889E+01  0.20207023380E+02  0.11625969746E+03  0.11820216462E+03  0.00000000000E+00 0.  1.
          1    1    1    2  502    0 -0.68637214889E+01 -0.20207023380E+02 -0.19130161402E+03  0.19248829054E+03  0.00000000000E+00 0. -1.
</event>
<event>
 4    1  0.3586324E+003  0.3750653E+02  0.7546771E-02  0.1363751E+00
          2   -1    0    0  502    0  0.00000000000E+00  0.00000000000E+00  0.31681893897E+02  0.31681893897E+02  0.00000000000E+00 0.  1.
          1   -1    0    0  501    0 -0.00000000000E+00 -0.00000000000E+00 -0.10547719234E+04  0.10547719234E+04  0.00000000000E+00 0.  1.
          2    1    1    2  501    0  0.28879462270E+02  0.23931493790E+02  0.20125035990E+02  0.42564736692E+02  0.00000000000E+00 0.  1.
          1    1    1    2  502    0 -0.28879462270E+02 -0.23931493790E+02 -0.10432150655E+04  0.10438890806E+04  0.00000000000E+00 0.  1.
</event>
<event>
 4    1  0.3586324E+003  0.2066089E+02  0.7546771E-02  0.1524162E+00
          2   -1    0    0  502    0  0.00000000000E+00  0.00000000000E+00  0.19184994774E+01  0.19184994774E+01  0.00000000000E+00 0. -1.
          1   -1    0    0  501    0 -0.00000000000E+00 -0.00000000000E+00 -0.25662580809E+03  0.25662580809E+03  0.00000000000E+00 0.  1.
          2    1    1    2  501    0 -0.10701709348E+02 -0.17673313161E+02 -0.80215246790E+02  0.82833316960E+02  0.00000000000E+00 0. -1.
          1    1    1    2  502    0  0.10701709348E+02  0.17673313161E+02 -0.17449206182E+03  0.17571099061E+03  0.00000000000E+00 0.  1.
</event>
<event>
 4    1  0.3586324E+003  0.2251648E+02  0.7546771E-02  0.1498661E+00
          2   -1    0    0  502    0  0.00000000000E+00  0.00000000000E+00  0.20484696106E+02  0.20484696106E+02  0.00000000000E+00 0.  1.
          1   -1    0    0  501    0 -0.00000000000E+00 -0.00000000000E+00 -0.58473787889E+03  0.58473787889E+03  0.00000000000E+00 0. -1.
          2    1    1    2  501    0  0.14467285389E+02  0.17253686147E+02  0.14011247048E+02  0.26519937330E+02  0.00000000000E+00 0.  1.
          1    1    1    2  502    0 -0.14467285389E+02 -0.17253686147E+02 -0.57826442984E+03  0.57870263767E+03  0.00000000000E+00 0. -1.
</event>
<event>
 4    1  0.3586324E+003  0.2502903E+02  0.7546771E-02  0.1468479E+00
          2   -1    0    0  502    0  0.00000000000E+00  0.00000000000E+00  0.97240768782E+02  0.97240768782E+02  0.00000000000E+00 0.  1.
          1   -1    0    0  501    0 -0.00000000000E+00 -0.00000000000E+00 -0.59988154893E+02  0.59988154893E+02  0.00000000000E+00 0.  1.
          2    1    1    2  501    0  0.10764819681E+02  0.22595815653E+02  0.92899604247E+02  0.96212206591E+02  0.00000000000E+00 0.  1.
          1    1    1    2  502    0 -0.10764819681E+02 -0.22595815653E+02 -0.55646990358E+02  0.61016717084E+02  0.00000000000E+00 0.  1.
</event>
<event>
 4    1  0.3586324E+003  0.7250205E+02  0.7546771E-02  0.1222413E+00
          2   -1    0    0  502    0  0.00000000000E+00  0.00000000000E+00  0.50534336675E+01  0.50534336675E+01  0.00000000000E+00 0. -1.
          1   -1    0    0  501    0 -0.00000000000E+00 -0.00000000000E+00 -0.21619599483E+04  0.21619599483E+04  0.00000000000E+00 0. -1.
          2    1    1    2  501    0 -0.28378568047E+02  0.66717342003E+02 -0.29797811525E+03  0.30667165506E+03  0.00000000000E+00 0. -1.
          1    1    1    2  502    0  0.28378568047E+02 -0.66717342003E+02 -0.18589283994E+04  0.18603417269E+04  0.00000000000E+00 0. -1.
</event>
<event>
 4    1  0.3586324E+003  0.4042486E+02  0.7546771E-02  0.1346014E+00
          2   -1    0    0  502    0  0.00000000000E+00  0.00000000000E+00  0.13602360875E+02  0.13602360875E+02  0.00000000000E+00 0. -1.
          1   -1    0    0  501    0 -0.00000000000E+00 -0.00000000000E+00 -0.15512429873E+03  0.15512429873E+03  0.00000000000E+00 0.  1.
          2    1    1    2  501    0 -0.21699456583E+02 -0.34107228001E+02 -0.30696564001E+02  0.50758727914E+02  0.00000000000E+00 0. -1.
          1    1    1    2  502    0  0.21699456583E+02  0.34107228001E+02 -0.11082537386E+03  0.11796793169E+03  0.00000000000E+00 0.  1.
</event>
<event>
 4    1  0.3586324E+003  0.2217270E+02  0.7546771E-02  0.1503156E+00
          2   -1    0    0  502    0  0.00000000000E+00  0.00000000000E+00  0.76018759588E+02  0.76018759588E+02  0.00000000000E+00 0.  1.
          1   -1    0    0  501    0 -0.00000000000E+00 -0.00000000000E+00 -0.68154645600E+02  0.68154645600E+02  0.00000000000E+00 0.  1.
          2    1    1    2  501    0 -0.22036210449E+02 -0.24563901297E+01  0.72513374897E+02  0.75827554111E+02  0.00000000000E+00 0.  1.
          1    1    1    2  502    0  0.22036210449E+02  0.24563901297E+01 -0.64649260909E+02  0.68345851077E+02  0.00000000000E+00 0.  1.
</event>
<event>
 4    1  0.3586324E+003  0.5972879E+02  0.7546771E-02  0.1260757E+00
          2   -1    0    0  502    0  0.00000000000E+00  0.00000000000E+00  0.50142411735E+02  0.50142411735E+02  0.00000000000E+00 0.  1.
          1   -1    0    0  501    0 -0.00000000000E+00 -0.00000000000E+00 -0.11308970278E+04  0.11308970278E+04  0.00000000000E+00 0.  1.
          2    1    1    2  501    0  0.43939239287E+02 -0.40458264418E+02  0.31265053982E+02  0.67416848853E+02  0.00000000000E+00 0.  1.
          1    1    1    2  502    0 -0.43939239287E+02  0.40458264418E+02 -0.11120196701E+04  0.11136225907E+04  0.00000000000E+00 0.  1.
</event>
<event>
 4    1  0.3586324E+003  0.8476042E+02  0.7546771E-02  0.1193207E+00
          2   -1    0    0  502    0  0.00000000000E+00  0.00000000000E+00  0.18165205522E+03  0.18165205522E+03  0.00000000000E+00 0. -1.
          1   -1    0    0  501    0 -0.00000000000E+00 -0.00000000000E+00 -0.41197090981E+02  0.41197090981E+02  0.00000000000E+00 0. -1.
          2    1    1    2  501    0  0.49097662186E+02  0.69092318160E+02  0.92507405853E+02  0.12546692392E+03  0.00000000000E+00 0. -1.
          1    1    1    2  502    0 -0.49097662186E+02 -0.69092318160E+02  0.47947558387E+02  0.97382222279E+02  0.00000000000E+00 0. -1.
</event>
<event>
 4    1  0.3586324E+003  0.4427668E+02  0.7546771E-02  0.1325096E+00
          2   -1    0    0  502    0  0.00000000000E+00  0.00000000000E+00  0.22997686106E+03  0.22997686106E+03  0.00000000000E+00 0.  1.
          1   -1    0    0  501    0 -0.00000000000E+00 -0.00000000000E+00 -0.11325898100E+02  0.11325898100E+02  0.00000000000E+00 0.  1.
          2    1    1    2  501    0  0.22099936264E+02 -0.38366881971E+02  0.16933052326E+03  0.17502357248E+03  0.00000000000E+00 0.  1.
          1    1    1    2  502    0 -0.22099936264E+02  0.38366881971E+02  0.49320439695E+02  0.66279186679E+02  0.00000000000E+00 0.  1.
</event>
<event>
 4    1  0.3586324E+003  0.2989831E+02  0.7546771E-02  0.1420482E+00
          2   -1    0    0  502    0  0.00000000000E+00  0.00000000000E+00  0.93923046993E+02  0.93923046993E+02  0.00000000000E+00 0. -1.
          1   -1    0    0  501    0 -0.00000000000E+00 -0.00000000000E+00 -0.42214441669E+02  0.42214441669E+02  0.00000000000E+00 0. -1.
          2    1    1    2  501    0 -0.24381660352E+02  0.17304440652E+02  0.85760400746E+02  0.90822658868E+02  0.00000000000E+00 0. -1.
          1    1    1    2  502    0  0.24381660352E+02 -0.17304440652E+02 -0.34051795422E+02  0.45314829794E+02  0.00000000000E+00 0. -1.
</event>
<event>
 4    1  0.3586324E+003  0.2223561E+02  0.7546771E-02  0.1502326E+00
          2   -1    0    0  502    0  0.00000000000E+00  0.00000000000E+00  0.28278963867E+02  0.28278963867E+02  0.00000000000E+00 0.  1.
          1   -1    0    0  501    0 -0.00000000000E+00 -0.00000000000E+00 -0.55552943877E+02  0.55552943877E+02  0.00000000000E+00 0.  1.
          2    1    1    2  501    0  0.13567616859E+02 -0.17616526199E+02  0.21061667929E+02  0.30627048152E+02  0.00000000000E+00 0.  1.
          1    1    1    2  502    0 -0.13567616859E+02  0.17616526199E+02 -0.48335647938E+02  0.53204859592E+02  0.00000000000E+00 0.  1.
</event>
<event>
 4    1  0.3586324E+003  0.2233604E+02  0.7546771E-02  0.1501008E+00
          2   -1    0    0  502    0  0.00000000000E+00  0.00000000000E+00  0.64133194687E+02  0.64133194687E+02  0.00000000000E+00 0.  1.
          1   -1    0    0  501    0 -0.00000000000E+00 -0.00000000000E+00 -0.35581233243E+03  0.35581233243E+03  0.00000000000E+00 0. -1.
          2    1    1    2  501    0  0.22253065305E+02 -0.19235218547E+01  0.61825198737E+02  0.65736246095E+02  0.00000000000E+00 0.  1.
          1    1    1    2  502    0 -0.22253065305E+02  0.19235218547E+01 -0.35350433648E+03  0.35420928102E+03  0.00000000000E+00 0. -1.
</event>
<event>
 4    1  0.3586324E+003  0.3065810E+02  0.7546771E-02  0.1413962E+00
          2   -1    0    0  502    0  0.00000000000E+00  0.00000000000E+00  0.46751916987E+03  0.46751916987E+03  0.00000000000E+00 0.  1.
          1   -1    0    0  501    0 -0.00000000000E+00 -0.00000000000E+00 -0.35708902246E+02  0.35708902246E+02  0.00000000000E+00 0.  1.
          2    1    1    2  501    0  0.29175090304E+02 -0.94198168150E+01  0.46033353191E+03  0.46135331303E+03  0.00000000000E+00 0.  1.
          1    1    1    2  502    0 -0.29175090304E+02  0.94198168150E+01 -0.28523264285E+02  0.41874759087E+02  0.00000000000E+00 0.  1.
</event>
<event>
 4    1  0.3586324E+003  0.2681549E+02  0.7546771E-02  0.1449470E+00
          2   -1    0    0  502    0  0.00000000000E+00  0.00000000000E+00  0.13267635706E+03  0.13267635706E+03  0.00000000000E+00 0.  1.
          1   -1    0    0  501    0 -0.00000000000E+00 -0.00000000000E+00 -0.13965692933E+02  0.13965692933E+02  0.00000000000E+00 0.  1.
          2    1    1    2  501    0 -0.98184641740E+01 -0.24953323834E+02  0.11671117610E+03  0.11975211579E+03  0.00000000000E+00 0.  1.
          1    1    1    2  502    0  0.98184641740E+01  0.24953323834E+02  0.19994880256E+01  0.26889934203E+02  0.00000000000E+00 0.  1.
</event>
<event>
 4    1  0.3586324E+003  0.3023838E+02  0.7546771E-02  0.1417536E+00
          2   -1    0    0  502    0  0.00000000000E+00  0.00000000000E+00  0.25277133483E+02  0.25277133483E+02  0.00000000000E+00 0. -1.
          1   -1    0    0  501    0 -0.00000000000E+00 -0.00000000000E+00 -0.14951082456E+03  0.14951082456E+03  0.00000000000E+00 0. -1.
          2    1    1    2  501    0 -0.10536799385E+02  0.28343177526E+02  0.13973904514E+02  0.33311107171E+02  0.00000000000E+00 0. -1.
          1    1    1    2  502    0  0.10536799385E+02 -0.28343177526E+02 -0.13820759559E+03  0.14147685087E+03  0.00000000000E+00 0. -1.
</event>
<event>
 4    1  0.3586324E+003  0.2508731E+02  0.7546771E-02  0.1467829E+00
          2   -1    0    0  502    0  0.00000000000E+00  0.00000000000E+00  0.35380580877E+03  0.35380580877E+03  0.00000000000E+00 0. -1.
          1   -1    0    0  501    0 -0.00000000000E+00 -0.00000000000E+00 -0.36281082254E+02  0.36281082254E+02  0.00000000000E+00 0.  1.
          2    1    1    2  501    0  0.10914535180E+02  0.22588631861E+02  0.34896421278E+03  0.34986482414E+03  0.00000000000E+00 0. -1.
          1    1    1    2  502    0 -0.10914535180E+02 -0.22588631861E+02 -0.31439486268E+02  0.40222066883E+02  0.00000000000E+00 0.  1.
</event>
<event>
 4    1  0.3586324E+003  0.1294652E+03  0.7546771E-02  0.1120744E+00
          2   -1    0    0  502    0  0.00000000000E+00  0.00000000000E+00  0.91317446060E+03  0.91317446060E+03  0.00000000000E+00 0. -1.
          1   -1    0    0  501    0 -0.00000000000E+00 -0.00000000000E+00 -0.37067730646E+03  0.37067730646E+03  0.00000000000E+00 0. -1.
          2    1    1    2  501    0 -0.80792664396E+01  0.12921289332E+03  0.89707948273E+03  0.90637345762E+03  0.00000000000E+00 0. -1.
          1    1    1    2  502    0  0.80792664396E+01 -0.12921289332E+03 -0.35458232859E+03  0.37747830944E+03  0.00000000000E+00 0. -1.
</event>
<event>
 4    1  0.3586324E+003  0.2656834E+02  0.7546771E-02  0.1451993E+00
          2   -1    0    0  502    0  0.00000000000E+00  0.00000000000E+00  0.47316251872E+03  0.47316251872E+03  0.00000000000E+00 0.  1.
          1   -1    0    0  501    0 -0.00000000000E+00 -0.00000000000E+00 -0.15064679254E+03  0.15064679254E+03  0.00000000000E+00 0.  1.
          2    1    1    2  501    0 -0.29699541797E+01  0.26401818083E+02  0.47161430955E+03  0.47236207891E+03  0.00000000000E+00 0.  1.
          1    1    1    2  502    0  0.29699541797E+01 -0.26401818083E+02 -0.14909858336E+03  0.15144723235E+03  0.00000000000E+00 0.  1.
</event>
<event>
 4    1  0.3586324E+003  0.2445879E+02  0.7546771E-02  0.1474950E+00
          2   -1    0    0  502    0  0.00000000000E+00  0.00000000000E+00  0.51563211017E+02  0.51563211017E+02  0.00000000000E+00 0. -1.
          1   -1    0    0  501    0 -0.00000000000E+00 -0.00000000000E+00 -0.35785731721E+02  0.35785731721E+02  0.00000000000E+00 0.  1.
          2    1    1    2  501    0 -0.73646151098E+01 -0.23323698917E+02  0.43792095311E+02  0.50159546436E+02  0.00000000000E+00 0. -1.
          1    1    1    2  502    0  0.73646151098E+01  0.23323698917E+02 -0.28014616015E+02  0.37189396303E+02  0.00000000000E+00 0.  1.
</event>
<event>
 4    1  0.3586324E+003  0.3752128E+02  0.7546771E-02  0.1363657E+00
          2   -1    0    0  502    0  0.00000000000E+00  0.00000000000E+00  0.12300107268E+04  0.12300107268E+04  0.00000000000E+00 0.  1.
          1   -1    0    0  501    0 -0.00000000000E+00 -0.00000000000E+00 -0.16136065505E+02  0.16136065505E+02  0.00000000000E+00 0.  1.
          2    1    1    2  501    0 -0.27925874222E+02 -0.25059772400E+02  0.12075060488E+04  0.12080888645E+04  0.00000000000E+00 0.  1.
          1    1    1    2  502    0  0.27925874222E+02  0.25059772400E+02  0.63686124979E+01  0.38057927807E+02  0.00000000000E+00 0.  1.
</event>
<event>
 4    1  0.3586324E+003  0.2791555E+02  0.7546771E-02  0.1438622E+00
          2   -1    0    0  502    0  0.00000000000E+00  0.00000000000E+00  0.32667241931E+01  0.32667241931E+01  0.00000000000E+00 0. -1.
          1   -1    0    0  501    0 -0.00000000000E+00 -0.00000000000E+00 -0.40429147592E+03  0.40429147592E+03  0.00000000000E+00 0.  1.
          2    1    1    2  501    0 -0.21168353827E+02 -0.18198314401E+02 -0.70037278423E+02  0.75395611408E+02  0.00000000000E+00 0. -1.
          1    1    1    2  502    0  0.21168353827E+02  0.18198314401E+02 -0.33098747330E+03  0.33216258870E+03  0.00000000000E+00 0.  1.
</event>
<event>
 4    1  0.3586324E+003  0.2043524E+02  0.7546771E-02  0.1527483E+00
          2   -1    0    0  502    0  0.00000000000E+00  0.00000000000E+00  0.34446390683E+03  0.34446390683E+03  0.00000000000E+00 0.  1.
          1   -1    0    0  501    0 -0.00000000000E+00 -0.00000000000E+00 -0.11409991687E+03  0.11409991687E+03  0.00000000000E+00 0.  1.
          2    1    1    2  501    0  0.80168169948E+01  0.18797070544E+02  0.34324258914E+03  0.34385036603E+03  0.00000000000E+00 0.  1.
          1    1    1    2  502    0 -0.80168169948E+01 -0.18797070544E+02 -0.11287859919E+03  0.11471345767E+03  0.00000000000E+00 0.  1.
</event>
<event>
 4    1  0.3586324E+003  0.2701707E+02  0.7546771E-02  0.1447437E+00
          2   -1    0    0  502    0  0.00000000000E+00  0.00000000000E+00  0.35736614646E+03  0.35736614646E+03  0.00000000000E+00 0.  1.
          1   -1    0    0  501    0 -0.00000000000E+00 -0.00000000000E+00 -0.56176029756E+03  0.56176029756E+03  0.00000000000E+00 0. -1.
          2    1    1    2  501    0 -0.24521712762E+02  0.11340536047E+02  0.35652992239E+03  0.35755210489E+03  0.00000000000E+00 0.  1.
          1    1    1    2  502    0  0.24521712762E+02 -0.11340536047E+02 -0.56092407348E+03  0.56157433913E+03  0.00000000000E+00 0. -1.
</event>
<event>
 4    1  0.3586324E+003  0.3986110E+02  0.7546771E-02  0.1349302E+00
          2   -1    0    0  502    0  0.00000000000E+00  0.00000000000E+00  0.54022768138E+03  0.54022768138E+03  0.00000000000E+00 0. -1.
          1   -1    0    0  501    0 -0.00000000000E+00 -0.00000000000E+00 -0.17501789834E+02  0.17501789834E+02  0.00000000000E+00 0. -1.
          2    1    1    2  501    0 -0.39671569851E+02  0.38825492490E+01  0.51571902765E+03  0.51725721176E+03  0.00000000000E+00 0. -1.
          1    1    1    2  502    0  0.39671569851E+02 -0.38825492490E+01  0.70068638947E+01  0.40472259447E+02  0.00000000000E+00 0. -1.
</event>
<event>
 4    1  0.3586324E+003  0.4031840E+02  0.7546771E-02  0.1346630E+00
          2   -1    0    0  502    0  0.00000000000E+00  0.00000000000E+00  0.10331412634E+04  0.10331412634E+04  0.00000000000E+00 0.  1.
          1   -1    0    0  501    0 -0.00000000000E+00 -0.00000000000E+00 -0.22341611548E+03  0.22341611548E+03  0.00000000000E+00 0. -1.
          2    1    1    2  501    0  0.31510758947E+02  0.25152447873E+02  0.10309249998E+04  0.10317131039E+04  0.00000000000E+00 0.  1.
          1    1    1    2  502    0 -0.31510758947E+02 -0.25152447873E+02 -0.22119985183E+03  0.22484427503E+03  0.00000000000E+00 0. -1.
</event>
<event>
 4    1  0.3586324E+003  0.2034874E+02  0.7546771E-02  0.1528770E+00
          2   -1    0    0  502    0  0.00000000000E+00  0.00000000000E+00  0.16857008975E+03  0.16857008975E+03  0.00000000000E+00 0.  1.
          1   -1    0    0  501    0 -0.00000000000E+00 -0.00000000000E+00 -0.62885645702E+01  0.62885645702E+01  0.00000000000E+00 0.  1.
          2    1    1    2  501    0 -0.27128129579E+01 -0.20167096152E+02  0.14939112227E+03  0.15077061562E+03  0.00000000000E+00 0.  1.
          1    1    1    2  502    0  0.27128129579E+01  0.20167096152E+02  0.12890402914E+02  0.24088038704E+02  0.00000000000E+00 0.  1.
</event>
<event>
 4    1  0.3586324E+003  0.2122566E+02  0.7546771E-02  0.1516067E+00
          2   -1    0    0  502    0  0.00000000000E+00  0.00000000000E+00  0.36513474638E+02  0.36513474638E+02  0.00000000000E+00 0. -1.
          1   -1    0    0  501    0 -0.00000000000E+00 -0.00000000000E+00 -0.25621805803E+02  0.25621805803E+02  0.00000000000E+00 0.  1.
          2    1    1    2  501    0 -0.15042169117E+02  0.14975367637E+02  0.27815184155E+02  0.34988754725E+02  0.00000000000E+00 0. -1.
          1    1    1    2  502    0  0.15042169117E+02 -0.14975367637E+02 -0.16923515320E+02  0.27146525715E+02  0.00000000000E+00 0.  1.
</event>
<event>
 4    1  0.3586324E+003  0.2006167E+02  0.7546771E-02  0.1533095E+00
          2   -1    0    0  502    0  0.00000000000E+00  0.00000000000E+00  0.22258257938E+04  0.22258257938E+04  0.00000000000E+00 0. -1.
          1   -1    0    0  501    0 -0.00000000000E+00 -0.00000000000E+00 -0.19116458268E+00  0.19116458268E+00  0.00000000000E+00 0. -1.
          2    1    1    2  501    0  0.19261632726E+02  0.56089345792E+01  0.13717466221E+04  0.13718933143E+04  0.00000000000E+00 0. -1.
          1    1    1    2  502    0 -0.19261632726E+02 -0.56089345792E+01  0.85388800716E+03  0.85412364410E+03  0.00000000000E+00 0. -1.
</event>
<event>
 4    1  0.3586324E+003  0.2284311E+02  0.7546771E-02  0.1494478E+00
          2   -1    0    0  502    0  0.00000000000E+00  0.00000000000E+00  0.16229703531E+04  0.16229703531E+04  0.00000000000E+00 0.  1.
          1   -1    0    0  501    0 -0.00000000000E+00 -0.00000000000E+00 -0.13109204324E+02  0.13109204324E+02  0.00000000000E+00 0.  1.
          2    1    1    2  501    0  0.15569450096E+02  0.16715265203E+02  0.16128765270E+04  0.16130382820E+04  0.00000000000E+00 0.  1.
          1    1    1    2  502    0 -0.15569450096E+02 -0.16715265203E+02 -0.30153782226E+01  0.23041275419E+02  0.00000000000E+00 0.  1.
</event>
<event>
 4    1  0.3586324E+003  0.3183732E+02  0.7546771E-02  0.1404275E+00
          2   -1    0    0  502    0  0.00000000000E+00  0.00000000000E+00  0.33094784370E+02  0.33094784370E+02  0.00000000000E+00 0.  1.
          1   -1    0    0  501    0 -0.00000000000E+00 -0.00000000000E+00 -0.84912977946E+03  0.84912977946E+03  0.00000000000E+00 0. -1.
          2    1    1    2  501    0 -0.31835356443E+02  0.35343809085E+00  0.25066389350E+02  0.40520842950E+02  0.00000000000E+00 0.  1.
          1    1    1    2  502    0  0.31835356443E+02 -0.35343809085E+00 -0.84110138444E+03  0.84170372088E+03  0.00000000000E+00 0. -1.
</event>
<event>
 4    1  0.3586324E+003  0.2365142E+02  0.7546771E-02  0.1484476E+00
          2   -1    0    0  502    0  0.00000000000E+00  0.00000000000E+00  0.33056802909E+01  0.33056802909E+01  0.00000000000E+00 0. -1.
          1   -1    0    0  501    0 -0.00000000000E+00 -0.00000000000E+00 -0.99310043724E+03  0.99310043724E+03  0.00000000000E+00 0.  1.
          2    1    1    2  501    0 -0.21929663707E+02 -0.88588628745E+01 -0.41121184197E+02  0.47437763348E+02  0.00000000000E+00 0. -1.
          1    1    1    2  502    0  0.21929663707E+02  0.88588628745E+01 -0.94867357276E+03  0.94896835419E+03  0.00000000000E+00 0.  1.
</event>
<event>
 4    1  0.3586324E+003  0.2854336E+02  0.7546771E-02  0.1432692E+00
          2   -1    0    0  502    0  0.00000000000E+00  0.00000000000E+00  0.11998091457E+04  0.11998091457E+04  0.00000000000E+00 0.  1.
          1   -1    0    0  501    0 -0.00000000000E+00 -0.00000000000E+00 -0.69367564558E+01  0.69367564558E+01  0.00000000000E+00 0.  1.
          2    1    1    2  501    0  0.50771338766E+01  0.28088182134E+02  0.11695164073E+04  0.11698646718E+04  0.00000000000E+00 0.  1.
          1    1    1    2  502    0 -0.50771338766E+01 -0.28088182134E+02  0.23355981956E+02  0.36881230418E+02  0.00000000000E+00 0.  1.
</event>
<event>
 4    1  0.3586324E+003  0.4115502E+02  0.7546771E-02  0.1341847E+00
          2   -1    0    0  502    0  0.00000000000E+00  0.00000000000E+00  0.78932046770E+03  0.78932046770E+03  0.00000000000E+00 0. -1.
          1   -1    0    0  501    0 -0.00000000000E+00 -0.00000000000E+00 -0.33950090359E+01  0.33950090359E+01  0.00000000000E+00 0. -1.
          2    1    1    2  501    0 -0.41004428525E+02  0.35174977611E+01  0.63338891720E+03  0.63472455158E+03  0.00000000000E+00 0. -1.
          1    1    1    2  502    0  0.41004428525E+02 -0.35174977611E+01  0.15253654146E+03  0.15799092515E+03  0.00000000000E+00 0. -1.
</event>
<event>
 4    1  0.3586324E+003  0.2251311E+02  0.7546771E-02  0.1498704E+00
          2   -1    0    0  502    0  0.00000000000E+00  0.00000000000E+00  0.24176724485E+02  0.24176724485E+02  0.00000000000E+00 0. -1.
          1   -1    0    0  501    0 -0.00000000000E+00 -0.00000000000E+00 -0.48338968109E+03  0.48338968109E+03  0.00000000000E+00 0.  1.
          2    1    1    2  501    0 -0.22513011189E+02 -0.66426623963E-01  0.18612608574E+02  0.29210773410E+02  0.00000000000E+00 0. -1.
          1    1    1    2  502    0  0.22513011189E+02  0.66426623963E-01 -0.47782556518E+03  0.47835563217E+03  0.00000000000E+00 0.  1.
</event>
<event>
 4    1  0.3586324E+003  0.2250528E+02  0.7546771E-02  0.1498806E+00
          2   -1    0    0  502    0  0.00000000000E+00  0.00000000000E+00  0.12022592993E+02  0.12022592993E+02  0.00000000000E+00 0. -1.
          1   -1    0    0  501    0 -0.00000000000E+00 -0.00000000000E+00 -0.21662861064E+03  0.21662861064E+03  0.00000000000E+00 0. -1.
          2    1    1    2  501    0  0.19999613597E+02  0.10320026279E+02  0.30567024705E+00  0.22507352592E+02  0.00000000000E+00 0. -1.
          1    1    1    2  502    0 -0.19999613597E+02 -0.10320026279E+02 -0.20491168790E+03  0.20614385105E+03  0.00000000000E+00 0. -1.
</event>
<event>
 4    1  0.3586324E+003  0.2412973E+02  0.7546771E-02  0.1478779E+00
          2   -1    0    0  502    0  0.00000000000E+00  0.00000000000E+00  0.86265837668E+03  0.86265837668E+03  0.00000000000E+00 0.  1.
          1   -1    0    0  501    0 -0.00000000000E+00 -0.00000000000E+00 -0.17606252954E+03  0.17606252954E+03  0.00000000000E+00 0. -1.
          2    1    1    2  501    0 -0.18373204433E+02 -0.15641908417E+02  0.86166192809E+03  0.86199972289E+03  0.00000000000E+00 0.  1.
          1    1    1    2  502    0  0.18373204433E+02  0.15641908417E+02 -0.17506608095E+03  0.17672118334E+03  0.00000000000E+00 0. -1.
</event>
<event>
 4    1  0.3586324E+003  0.2027938E+02  0.7546771E-02  0.1529807E+00
          2   -1    0    0  502    0  0.00000000000E+00  0.00000000000E+00  0.43221315512E+03  0.43221315512E+03  0.00000000000E+00 0. -1.
          1   -1    0    0  501    0 -0.00000000000E+00 -0.00000000000E+00 -0.68587687441E+01  0.68587687441E+01  0.00000000000E+00 0. -1.
          2    1    1    2  501    0 -0.23041275184E+01 -0.20148059435E+02  0.41641693186E+03  0.41691043935E+03  0.00000000000E+00 0. -1.
          1    1    1    2  502    0  0.23041275184E+01  0.20148059435E+02  0.89374545212E+01  0.22161484515E+02  0.00000000000E+00 0. -1.
</event>
<event>
 4    1  0.3586324E+003  0.2165971E+02  0.7546771E-02  0.1510051E+00
          2   -1    0    0  502    0  0.00000000000E+00  0.00000000000E+00  0.40749930505E+01  0.40749930505E+01  0.00000000000E+00 0.  1.
          1   -1    0    0  501    0 -0.00000000000E+00 -0.00000000000E+00 -0.40199774638E+03  0.40199774638E+03  0.00000000000E+00 0.  1.
          2    1    1    2  501    0  0.17392188570E+02 -0.12909485743E+02 -0.27445267238E+02  0.34962633470E+02  0.00000000000E+00 0.  1.
          1    1    1    2  502    0 -0.17392188570E+02  0.12909485743E+02 -0.37047748609E+03  0.37111010596E+03  0.00000000000E+00 0.  1.
</event>
<event>
 4    1  0.3586324E+003  0.2830892E+02  0.7546771E-02  0.1434885E+00
          2   -1    0    0  502    0  0.00000000000E+00  0.00000000000E+00  0.26441934478E+00  0.26441934478E+00  0.00000000000E+00 0. -1.
          1   -1    0    0  501    0 -0.00000000000E+00 -0.00000000000E+00 -0.30972534121E+04  0.30972534121E+04  0.00000000000E+00 0. -1.
          2    1    1    2  501    0 -0.27948650247E+02 -0.45019930369E+01 -0.13215902966E+04  0.13218934553E+04  0.00000000000E+00 0. -1.
          1    1    1    2  502    0  0.27948650247E+02  0.45019930369E+01 -0.17753986961E+04  0.17756243762E+04  0.00000000000E+00 0. -1.
</event>
<event>
 4    1  0.3586324E+003  0.2020524E+02  0.7546771E-02  0.1530921E+00
          2   -1    0    0  502    0  0.00000000000E+00  0.00000000000E+00  0.85755245445E+03  0.85755245445E+03  0.00000000000E+00 0. -1.
          1   -1    0    0  501    0 -0.00000000000E+00 -0.00000000000E+00 -0.10113269660E+03  0.10113269660E+03  0.00000000000E+00 0. -1.
          2    1    1    2  501    0  0.16066654032E+02  0.12252124028E+02  0.85642290836E+03  0.85666122235E+03  0.00000000000E+00 0. -1.
          1    1    1    2  502    0 -0.16066654032E+02 -0.12252124028E+02 -0.10000315051E+03  0.10202392870E+03  0.00000000000E+00 0. -1.
</event>
<event>
 4    1  0.3586324E+003  0.6642460E+02  0.7546771E-02  0.1239439E+00
          2   -1    0    0  502    0  0.00000000000E+00  0.00000000000E+00  0.60451447667E+02  0.60451447667E+02  0.00000000000E+00 0.  1.
          1   -1    0    0  501    0 -0.00000000000E+00 -0.00000000000E+00 -0.16404098616E+03  0.16404098616E+03  0.00000000000E+00 0.  1.
          2    1    1    2  501    0  0.36344198785E+02  0.55599698195E+02  0.31831504069E+02  0.73657802547E+02  0.00000000000E+00 0.  1.
          1    1    1    2  502    0 -0.36344198785E+02 -0.55599698195E+02 -0.13542104256E+03  0.15083463128E+03  0.00000000000E+00 0.  1.
</event>
<event>
 4    1  0.3586324E+003  0.2043576E+02  0.7546771E-02  0.1527475E+00
          2   -1    0    0  502    0  0.00000000000E+00  0.00000000000E+00  0.62085888807E+01  0.62085888807E+01  0.00000000000E+00 0. -1.
          1   -1    0    0  501    0 -0.00000000000E+00 -0.00000000000E+00 -0.71545499612E+02  0.71545499612E+02  0.00000000000E+00 0. -1.
          2    1    1    2  501    0  0.33537401672E+01  0.20158685515E+02 -0.23159039191E+02  0.30886263469E+02  0.00000000000E+00 0. -1.
          1    1    1    2  502    0 -0.33537401672E+01 -0.20158685515E+02 -0.42177871540E+02  0.46867825024E+02  0.00000000000E+00 0. -1.
</event>
<event>
 4    1  0.3586324E+003  0.2175453E+02  0.7546771E-02  0.1508759E+00
          2   -1    0    0  502    0  0.00000000000E+00  0.00000000000E+00  0.39903851953E+00  0.39903851953E+00  0.00000000000E+00 0.  1.
          1   -1    0    0  501    0 -0.00000000000E+00 -0.00000000000E+00 -0.19456835514E+04  0.19456835514E+04  0.00000000000E+00 0. -1.
          2    1    1    2  501    0 -0.19659765619E+02 -0.93141311965E+01 -0.36463086536E+03  0.36527924578E+03  0.00000000000E+00 0.  1.
          1    1    1    2  502    0  0.19659765619E+02  0.93141311965E+01 -0.15806536476E+04  0.15808033442E+04  0.00000000000E+00 0. -1.
</event>
<event>
 4    1  0.3586324E+003  0.3830816E+02  0.7546771E-02  0.1358696E+00
          2   -1    0    0  502    0  0.00000000000E+00  0.00000000000E+00  0.25998071273E+03  0.25998071273E+03  0.00000000000E+00 0. -1.
          1   -1    0    0  501    0 -0.00000000000E+00 -0.00000000000E+00 -0.47244228565E+02  0.47244228565E+02  0.00000000000E+00 0.  1.
          2    1    1    2  501    0  0.24554512843E+02  0.29403930184E+02  0.25051213798E+03  0.25342424211E+03  0.00000000000E+00 0. -1.
          1    1    1    2  502    0 -0.24554512843E+02 -0.29403930184E+02 -0.37775653821E+02  0.53800699185E+02  0.00000000000E+00 0.  1.
</event>
<event>
 4    1  0.3586324E+003  0.2775990E+02  0.7546771E-02  0.1440121E+00
          2   -1    0    0  502    0  0.00000000000E+00  0.00000000000E+00  0.12847438357E+03  0.12847438357E+03  0.00000000000E+00 0.  1.
          1   -1    0    0  501    0 -0.00000000000E+00 -0.00000000000E+00 -0.81528579524E+02  0.81528579524E+02  0.00000000000E+00 0.  1.
          2    1    1    2  501    0 -0.67577541829E+01  0.26924800511E+02  0.12453804342E+03  0.12759442145E+03  0.00000000000E+00 0.  1.
          1    1    1    2  502    0  0.67577541829E+01 -0.26924800511E+02 -0.77592239381E+02  0.82408541646E+02  0.00000000000E+00 0.  1.
</event>
<event>
 4    1  0.3586324E+003  0.4890270E+02  0.7546771E-02  0.1303001E+00
          2   -1    0    0  502    0  0.00000000000E+00  0.00000000000E+00  0.13089897757E+03  0.13089897757E+03  0.00000000000E+00 0.  1.
          1   -1    0    0  501    0 -0.00000000000E+00 -0.00000000000E+00 -0.20209277648E+02  0.20209277648E+02  0.00000000000E+00 0.  1.
          2    1    1    2  501    0  0.29361164377E+01  0.48814456903E+02  0.31937752583E+02  0.58407979099E+02  0.00000000000E+00 0.  1.
          1    1    1    2  502    0 -0.29361164377E+01 -0.48814456903E+02  0.78751947335E+02  0.92700276114E+02  0.00000000000E+00 0.  1.
</event>
<event>
 4    1  0.3586324E+003  0.2621870E+02  0.7546771E-02  0.1455618E+00
          2   -1    0    0  502    0  0.00000000000E+00  0.00000000000E+00  0.54537667387E+03  0.54537667387E+03  0.00000000000E+00 0. -1.
          1   -1    0    0  501    0 -0.00000000000E+00 -0.00000000000E+00 -0.27605087471E+01  0.27605087471E+01  0.00000000000E+00 0. -1.
          2    1    1    2  501    0 -0.23328709875E+02 -0.11966268487E+02  0.47333943417E+03  0.47406501688E+03  0.00000000000E+00 0. -1.
          1    1    1    2  502    0  0.23328709875E+02  0.11966268487E+02  0.69276730950E+02  0.74072165737E+02  0.00000000000E+00 0. -1.
</event>
<event>
 4    1  0.3586324E+003  0.2315573E+02  0.7546771E-02  0.1490552E+00
          2   -1    0    0  502    0  0.00000000000E+00  0.00000000000E+00  0.43124456011E+03  0.43124456011E+03  0.00000000000E+00 0. -1.
          1   -1    0    0  501    0 -0.00000000000E+00 -0.00000000000E+00 -0.45103244952E+02  0.45103244952E+02  0.00000000000E+00 0. -1.
          2    1    1    2  501    0 -0.57502414011E+01 -0.22430389403E+02  0.42793877968E+03  0.42856479883E+03  0.00000000000E+00 0. -1.
          1    1    1    2  502    0  0.57502414011E+01  0.22430389403E+02 -0.41797464515E+02  0.47783006235E+02  0.00000000000E+00 0. -1.
</event>
<event>
 4    1  0.3586324E+003  0.8452956E+02  0.7546771E-02  0.1193705E+00
          2   -1    0    0  502    0  0.00000000000E+00  0.00000000000E+00  0.16025300223E+03  0.16025300223E+03  0.00000000000E+00 0. -1.
          1   -1    0    0  501    0 -0.00000000000E+00 -0.00000000000E+00 -0.40323465058E+03  0.40323465058E+03  0.00000000000E+00 0.  1.
          2    1    1    2  501    0  0.83579781638E+02 -0.12635937181E+02  0.14422003688E+03  0.16716658113E+03  0.00000000000E+00 0. -1.
          1    1    1    2  502    0 -0.83579781638E+02  0.12635937181E+02 -0.38720168524E+03  0.39632107168E+03  0.00000000000E+00 0.  1.
</event>
<event>
 4    1  0.3586324E+003  0.5478805E+02  0.7546771E-02  0.1278649E+00
          2   -1    0    0  502    0  0.00000000000E+00  0.00000000000E+00  0.67394592656E+01  0.67394592656E+01  0.00000000000E+00 0. -1.
          1   -1    0    0  501    0 -0.00000000000E+00 -0.00000000000E+00 -0.86325175804E+03  0.86325175804E+03  0.00000000000E+00 0.  1.
          2    1    1    2  501    0  0.43733926319E+02 -0.33001115894E+02 -0.12561415057E+03  0.13704249262E+03  0.00000000000E+00 0. -1.
          1    1    1    2  502    0 -0.43733926319E+02  0.33001115894E+02 -0.73089814820E+03  0.73294872468E+03  0.00000000000E+00 0.  1.
</event>
<event>
 4    1  0.3586324E+003  0.2034932E+02  0.7546771E-02  0.1528761E+00
          2   -1    0    0  502    0  0.00000000000E+00  0.00000000000E+00  0.11308287707E+03  0.11308287707E+03  0.00000000000E+00 0. -1.
          1   -1    0    0  501    0 -0.00000000000E+00 -0.00000000000E+00 -0.39537208379E+02  0.39537208379E+02  0.00000000000E+00 0.  1.
          2    1    1    2  501    0  0.19152986283E+02 -0.68744451483E+01  0.10946317337E+03  0.11133858811E+03  0.00000000000E+00 0. -1.
          1    1    1    2  502    0 -0.19152986283E+02  0.68744451483E+01 -0.35917504679E+02  0.41281497333E+02  0.00000000000E+00 0.  1.
</event>
<event>
 4    1  0.3586324E+003  0.2509687E+02  0.7546771E-02  0.1467723E+00
          2   -1    0    0  502    0  0.00000000000E+00  0.00000000000E+00  0.37211619350E+01  0.37211619350E+01  0.00000000000E+00 0. -1.
          1   -1    0    0  501    0 -0.00000000000E+00 -0.00000000000E+00 -0.24277743893E+03  0.24277743893E+03  0.00000000000E+00 0.  1.
          2    1    1    2  501    0  0.24838101552E+02  0.35946767310E+01 -0.51706505052E+02  0.57475348230E+02  0.00000000000E+00 0. -1.
          1    1    1    2  502    0 -0.24838101552E+02 -0.35946767310E+01 -0.18734977194E+03  0.18902325263E+03  0.00000000000E+00 0.  1.
</event>
<event>
 4    1  0.3586324E+003  0.2570881E+02  0.7546771E-02  0.1461028E+00
          2   -1    0    0  502    0  0.00000000000E+00  0.00000000000E+00  0.22764217404E+03  0.22764217404E+03  0.00000000000E+00 0.  1.
          1   -1    0    0  501    0 -0.00000000000E+00 -0.00000000000E+00 -0.25809228269E+02  0.25809228269E+02  0.00000000000E+00 0.  1.
          2    1    1    2  501    0 -0.25063457952E+02  0.57241761407E+01  0.22030151287E+03  0.22179652768E+03  0.00000000000E+00 0.  1.
          1    1    1    2  502    0  0.25063457952E+02 -0.57241761407E+01 -0.18468567101E+02  0.31654874629E+02  0.00000000000E+00 0.  1.
</event>
<event>
 4    1  0.3586324E+003  0.2225946E+02  0.7546771E-02  0.1502013E+00
          2   -1    0    0  502    0  0.00000000000E+00  0.00000000000E+00  0.14568420989E+01  0.14568420989E+01  0.00000000000E+00 0.  1.
          1   -1    0    0  501    0 -0.00000000000E+00 -0.00000000000E+00 -0.43815591579E+03  0.43815591579E+03  0.00000000000E+00 0. -1.
          2    1    1    2  501    0 -0.68161987349E+01  0.21190158427E+02 -0.11437055741E+03  0.11651655582E+03  0.00000000000E+00 0.  1.
          1    1    1    2  502    0  0.68161987349E+01 -0.21190158427E+02 -0.32232851628E+03  0.32309620206E+03  0.00000000000E+00 0. -1.
</event>
<event>
 4    1  0.3586324E+003  0.2135091E+02  0.7546771E-02  0.1514313E+00
          2   -1    0    0  502    0  0.00000000000E+00  0.00000000000E+00  0.11111011068E+01  0.11111011068E+01  0.00000000000E+00 0.  1.
          1   -1    0    0  501    0 -0.00000000000E+00 -0.00000000000E+00 -0.77922452223E+03  0.77922452223E+03  0.00000000000E+00 0. -1.
          2    1    1    2  501    0  0.16937935011E+02  0.12998762367E+02 -0.12058332075E+03  0.12245896744E+03  0.00000000000E+00 0.  1.
          1    1    1    2  502    0 -0.16937935011E+02 -0.12998762367E+02 -0.65753010038E+03  0.65787665589E+03  0.00000000000E+00 0. -1.
</event>
<event>
 4    1  0.3586324E+003  0.4529154E+02  0.7546771E-02  0.1319988E+00
          2   -1    0    0  502    0  0.00000000000E+00  0.00000000000E+00  0.32547031471E+03  0.32547031471E+03  0.00000000000E+00 0.  1.
          1   -1    0    0  501    0 -0.00000000000E+00 -0.00000000000E+00 -0.14176489052E+03  0.14176489052E+03  0.00000000000E+00 0. -1.
          2    1    1    2  501    0 -0.35078509254E+02  0.28649988350E+02  0.32021813935E+03  0.32340528817E+03  0.00000000000E+00 0.  1.
          1    1    1    2  502    0  0.35078509254E+02 -0.28649988350E+02 -0.13651271516E+03  0.14382991707E+03  0.00000000000E+00 0. -1.
</event>
<event>
 4    1  0.3586324E+003  0.2467327E+02  0.7546771E-02  0.1472492E+00
          2   -1    0    0  502    0  0.00000000000E+00  0.00000000000E+00  0.16479471013E+04  0.16479471013E+04  0.00000000000E+00 0.  1.
          1   -1    0    0  501    0 -0.00000000000E+00 -0.00000000000E+00 -0.12821957687E+02  0.12821957687E+02  0.00000000000E+00 0. -1.
          2    1    1    2  501    0 -0.24643682348E+02 -0.12079828418E+01  0.16358976422E+04  0.16360836978E+04  0.00000000000E+00 0.  1.
          1    1    1    2  502    0  0.24643682348E+02  0.12079828418E+01 -0.77249864303E+00  0.24685361176E+02  0.00000000000E+00 0. -1.
</event>
<event>
 4    1  0.3586324E+003  0.3368867E+02  0.7546771E-02  0.1390024E+00
          2   -1    0    0  502    0  0.00000000000E+00  0.00000000000E+00  0.27681330878E+03  0.27681330878E+03  0.00000000000E+00 0.  1.
          1   -1    0    0  501    0 -0.00000000000E+00 -0.00000000000E+00 -0.10893998717E+02  0.10893998717E+02  0.00000000000E+00 0.  1.
          2    1    1    2  501    0 -0.31424386510E+02 -0.12142251241E+02  0.24656294742E+03  0.24885379920E+03  0.00000000000E+00 0.  1.
          1    1    1    2  502    0  0.31424386510E+02  0.12142251241E+02  0.19356362644E+02  0.38853508304E+02  0.00000000000E+00 0.  1.
</event>
<event>
 4    1  0.3586324E+003  0.2008246E+02  0.7546771E-02  0.1532779E+00
          2   -1    0    0  502    0  0.00000000000E+00  0.00000000000E+00  0.10944283519E+04  0.10944283519E+04  0.00000000000E+00 0. -1.
          1   -1    0    0  501    0 -0.00000000000E+00 -0.00000000000E+00 -0.71397106551E+00  0.71397106551E+00  0.00000000000E+00 0. -1.
          2    1    1    2  501    0  0.13216320106E+02 -0.15120649495E+02  0.92774873178E+03  0.92796606322E+03  0.00000000000E+00 0. -1.
          1    1    1    2  502    0 -0.13216320106E+02  0.15120649495E+02  0.16596564906E+03  0.16717625975E+03  0.00000000000E+00 0. -1.
</event>
<event>
 4    1  0.3586324E+003  0.3310374E+02  0.7546771E-02  0.1394408E+00
          2   -1    0    0  502    0  0.00000000000E+00  0.00000000000E+00  0.75837343773E+01  0.75837343773E+01  0.00000000000E+00 0.  1.
          1   -1    0    0  501    0 -0.00000000000E+00 -0.00000000000E+00 -0.14808787428E+03  0.14808787428E+03  0.00000000000E+00 0.  1.
          2    1    1    2  501    0  0.29295105424E+01 -0.32973865004E+02 -0.58138478477E+02  0.66902469947E+02  0.00000000000E+00 0.  1.
          1    1    1    2  502    0 -0.29295105424E+01  0.32973865004E+02 -0.82365661424E+02  0.88769138709E+02  0.00000000000E+00 0.  1.
</event>
<event>
 4    1  0.3586324E+003  0.1758133E+03  0.7546771E-02  0.1073750E+00
          2   -1    0    0  502    0  0.00000000000E+00  0.00000000000E+00  0.10772482515E+03  0.10772482515E+03  0.00000000000E+00 0.  1.
          1   -1    0    0  501    0 -0.00000000000E+00 -0.00000000000E+00 -0.10052416484E+04  0.10052416484E+04  0.00000000000E+00 0.  1.
          2    1    1    2  501    0 -0.14850715952E+03  0.94105965481E+02  0.21645569649E+02  0.17714073460E+03  0.00000000000E+00 0.  1.
          1    1    1    2  502    0  0.14850715952E+03 -0.94105965481E+02 -0.91916239294E+03  0.93582573899E+03  0.00000000000E+00 0.  1.
</event>
<event>
 4    1  0.3586324E+003  0.2161243E+02  0.7546771E-02  0.1510698E+00
          2   -1    0    0  502    0  0.00000000000E+00  0.00000000000E+00  0.40789458564E+02  0.40789458564E+02  0.00000000000E+00 0.  1.
          1   -1    0    0  501    0 -0.00000000000E+00 -0.00000000000E+00 -0.25361086275E+02  0.25361086275E+02  0.00000000000E+00 0. -1.
          2    1    1    2  501    0 -0.19630960816E+02 -0.90400455090E+01  0.32209213386E+02  0.38788277512E+02  0.00000000000E+00 0.  1.
          1    1    1    2  502    0  0.19630960816E+02  0.90400455090E+01 -0.16780841097E+02  0.27362267327E+02  0.00000000000E+00 0. -1.
</event>
<event>
 4    1  0.3586324E+003  0.2626772E+02  0.7546771E-02  0.1455106E+00
          2   -1    0    0  502    0  0.00000000000E+00  0.00000000000E+00  0.97538808744E+01  0.97538808744E+01  0.00000000000E+00 0.  1.
          1   -1    0    0  501    0 -0.00000000000E+00 -0.00000000000E+00 -0.49176385975E+03  0.49176385975E+03  0.00000000000E+00 0. -1.
          2    1    1    2  501    0 -0.27498639492E+01 -0.26123389763E+02 -0.89819251445E+01  0.27760911796E+02  0.00000000000E+00 0.  1.
          1    1    1    2  502    0  0.27498639492E+01  0.26123389763E+02 -0.47302805373E+03  0.47375682883E+03  0.00000000000E+00 0. -1.
</event>
<event>
 4    1  0.3586324E+003  0.2163397E+02  0.7546771E-02  0.1510403E+00
          2   -1    0    0  502    0  0.00000000000E+00  0.00000000000E+00  0.12035433625E+04  0.12035433625E+04  0.00000000000E+00 0.  1.
          1   -1    0    0  501    0 -0.00000000000E+00 -0.00000000000E+00 -0.52556436161E+00  0.52556436161E+00  0.00000000000E+00 0. -1.
          2    1    1    2  501    0 -0.20837061118E+02 -0.58177029078E+01  0.90853452397E+03  0.90879206094E+03  0.00000000000E+00 0.  1.
          1    1    1    2  502    0  0.20837061118E+02  0.58177029078E+01  0.29448327413E+03  0.29527686588E+03  0.00000000000E+00 0. -1.
</event>
<event>
 4    1  0.3586324E+003  0.2695432E+02  0.7546771E-02  0.1448068E+00
          2   -1    0    0  502    0  0.00000000000E+00  0.00000000000E+00  0.15009005148E+04  0.15009005148E+04  0.00000000000E+00 0. -1.
          1   -1    0    0  501    0 -0.00000000000E+00 -0.00000000000E+00 -0.28411419181E+01  0.28411419181E+01  0.00000000000E+00 0.  1.
          2    1    1    2  501    0 -0.25823146509E+02  0.77266072555E+01  0.14338608725E+04  0.14341141994E+04  0.00000000000E+00 0. -1.
          1    1    1    2  502    0  0.25823146509E+02 -0.77266072555E+01  0.64198500369E+02  0.69627457263E+02  0.00000000000E+00 0.  1.
</event>
<event>
 4    1  0.3586324E+003  0.3032894E+02  0.7546771E-02  0.1416759E+00
          2   -1    0    0  502    0  0.00000000000E+00  0.00000000000E+00  0.56583504528E+03  0.56583504528E+03  0.00000000000E+00 0.  1.
          1   -1    0    0  501    0 -0.00000000000E+00 -0.00000000000E+00 -0.16897397074E+01  0.16897397074E+01  0.00000000000E+00 0.  1.
          2    1    1    2  501    0  0.22798716981E+02 -0.20001571871E+02  0.33734033073E+03  0.33870096414E+03  0.00000000000E+00 0.  1.
          1    1    1    2  502    0 -0.22798716981E+02  0.20001571871E+02  0.22680497485E+03  0.22882382085E+03  0.00000000000E+00 0.  1.
</event>
<event>
 4    1  0.3586324E+003  0.5603120E+02  0.7546771E-02  0.1273948E+00
          2   -1    0    0  502    0  0.00000000000E+00  0.00000000000E+00  0.21591874029E+04  0.21591874029E+04  0.00000000000E+00 0. -1.
          1   -1    0    0  501    0 -0.00000000000E+00 -0.00000000000E+00 -0.20413886969E+01  0.20413886969E+01  0.00000000000E+00 0. -1.
          2    1    1    2  501    0  0.18124716703E+02 -0.53018774516E+02  0.16582209491E+04  0.16591673249E+04  0.00000000000E+00 0. -1.
          1    1    1    2  502    0 -0.18124716703E+02  0.53018774516E+02  0.49892506510E+03  0.50206146674E+03  0.00000000000E+00 0. -1.
</event>
<event>
 4    1  0.3586324E+003  0.2233704E+02  0.7546771E-02  0.1500995E+00
          2   -1    0    0  502    0  0.00000000000E+00  0.00000000000E+00  0.64641492708E+01  0.64641492708E+01  0.00000000000E+00 0. -1.
          1   -1    0    0  501    0 -0.00000000000E+00 -0.00000000000E+00 -0.77186389630E+02  0.77186389630E+02  0.00000000000E+00 0. -1.
          2    1    1    2  501    0 -0.11064384625E+02  0.19404175845E+02 -0.35438253267E+02  0.41890481520E+02  0.00000000000E+00 0. -1.
          1    1    1    2  502    0  0.11064384625E+02 -0.19404175845E+02 -0.35283987092E+02  0.41760057381E+02  0.00000000000E+00 0. -1.
</event>
<event>
 4    1  0.3586324E+003  0.2882068E+02  0.7546771E-02  0.1430129E+00
          2   -1    0    0  502    0  0.00000000000E+00  0.00000000000E+00  0.58156091293E+00  0.58156091293E+00  0.00000000000E+00 0.  1.
          1   -1    0    0  501    0 -0.00000000000E+00 -0.00000000000E+00 -0.16064688168E+04  0.16064688168E+04  0.00000000000E+00 0. -1.
          2    1    1    2  501    0 -0.31776284678E+01  0.28644967354E+02 -0.53533242692E+03  0.53610767462E+03  0.00000000000E+00 0.  1.
          1    1    1    2  502    0  0.31776284678E+01 -0.28644967354E+02 -0.10705548290E+04  0.10709427031E+04  0.00000000000E+00 0. -1.
</event>
<event>
 4    1  0.3586324E+003  0.1703282E+03  0.7546771E-02  0.1078430E+00
          2   -1    0    0  502    0  0.00000000000E+00  0.00000000000E+00  0.20146799886E+04  0.20146799886E+04  0.00000000000E+00 0. -1.
          1   -1    0    0  501    0 -0.00000000000E+00 -0.00000000000E+00 -0.47494340828E+02  0.47494340828E+02  0.00000000000E+00 0.  1.
          2    1    1    2  501    0  0.98793170579E+02  0.13875014481E+03  0.18442899134E+04  0.18521384878E+04  0.00000000000E+00 0. -1.
          1    1    1    2  502    0 -0.98793170579E+02 -0.13875014481E+03  0.12289573431E+03  0.21003584158E+03  0.00000000000E+00 0.  1.
</event>
<event>
 4    1  0.3586324E+003  0.4022448E+02  0.7546771E-02  0.1347175E+00
          2   -1    0    0  502    0  0.00000000000E+00  0.00000000000E+00  0.74537320281E+02  0.74537320281E+02  0.00000000000E+00 0.  1.
          1   -1    0    0  501    0 -0.00000000000E+00 -0.00000000000E+00 -0.30076248079E+02  0.30076248079E+02  0.00000000000E+00 0. -1.
          2    1    1    2  501    0 -0.23060358127E+02  0.32957986823E+02  0.49822325950E+02  0.64033375481E+02  0.00000000000E+00 0.  1.
          1    1    1    2  502    0  0.23060358127E+02 -0.32957986823E+02 -0.53612537479E+01  0.40580192879E+02  0.00000000000E+00 0. -1.
</event>
<event>
 4    1  0.3586324E+003  0.2776697E+02  0.7546771E-02  0.1440052E+00
          2   -1    0    0  502    0  0.00000000000E+00  0.00000000000E+00  0.93306704292E+00  0.93306704292E+00  0.00000000000E+00 0.  1.
          1   -1    0    0  501    0 -0.00000000000E+00 -0.00000000000E+00 -0.94976133442E+03  0.94976133442E+03  0.00000000000E+00 0.  1.
          2    1    1    2  501    0 -0.19149108139E+01  0.27700861654E+02 -0.30303898758E+03  0.30430844979E+03  0.00000000000E+00 0.  1.
          1    1    1    2  502    0  0.19149108139E+01 -0.27700861654E+02 -0.64578927979E+03  0.64638595167E+03  0.00000000000E+00 0.  1.
</event>
<event>
 4    1  0.3586324E+003  0.3048334E+02  0.7546771E-02  0.1415442E+00
          2   -1    0    0  502    0  0.00000000000E+00  0.00000000000E+00  0.59574236818E+01  0.59574236818E+01  0.00000000000E+00 0.  1.
          1   -1    0    0  501    0 -0.00000000000E+00 -0.00000000000E+00 -0.17288445412E+03  0.17288445412E+03  0.00000000000E+00 0.  1.
          2    1    1    2  501    0 -0.28300076987E+02 -0.11328699654E+02 -0.55501212088E+02  0.63321547174E+02  0.00000000000E+00 0.  1.
          1    1    1    2  502    0  0.28300076987E+02  0.11328699654E+02 -0.11142581835E+03  0.11552033063E+03  0.00000000000E+00 0.  1.
</event>
<event>
 4    1  0.3586324E+003  0.2457041E+02  0.7546771E-02  0.1473667E+00
          2   -1    0    0  502    0  0.00000000000E+00  0.00000000000E+00  0.83149365253E+01  0.83149365253E+01  0.00000000000E+00 0. -1.
          1   -1    0    0  501    0 -0.00000000000E+00 -0.00000000000E+00 -0.49682823182E+03  0.49682823182E+03  0.00000000000E+00 0. -1.
          2    1    1    2  501    0  0.22786936999E+02 -0.91902524868E+01 -0.10868593040E+02  0.26866923033E+02  0.00000000000E+00 0. -1.
          1    1    1    2  502    0 -0.22786936999E+02  0.91902524868E+01 -0.47764470226E+03  0.47827624531E+03  0.00000000000E+00 0. -1.
</event>
<event>
 4    1  0.3586324E+003  0.2016830E+02  0.7546771E-02  0.1531478E+00
          2   -1    0    0  502    0  0.00000000000E+00  0.00000000000E+00  0.52536901698E+01  0.52536901698E+01  0.00000000000E+00 0.  1.
          1   -1    0    0  501    0 -0.00000000000E+00 -0.00000000000E+00 -0.49027597570E+03  0.49027597570E+03  0.00000000000E+00 0. -1.
          2    1    1    2  501    0  0.19945764806E+02 -0.29878059746E+01 -0.15149781809E+02  0.25224519958E+02  0.00000000000E+00 0.  1.
          1    1    1    2  502    0 -0.19945764806E+02  0.29878059746E+01 -0.46987250373E+03  0.47030514592E+03  0.00000000000E+00 0. -1.
</event>
<event>
 4    1  0.3586324E+003  0.2271772E+02  0.7546771E-02  0.1496073E+00
          2   -1    0    0  502    0  0.00000000000E+00  0.00000000000E+00  0.51865954286E+01  0.51865954286E+01  0.00000000000E+00 0. -1.
          1   -1    0    0  501    0 -0.00000000000E+00 -0.00000000000E+00 -0.14160888088E+04  0.14160888088E+04  0.00000000000E+00 0.  1.
          2    1    1    2  501    0  0.97274006789E+01 -0.20529795430E+02 -0.20235619532E+02  0.30423266133E+02  0.00000000000E+00 0. -1.
          1    1    1    2  502    0 -0.97274006789E+01  0.20529795430E+02 -0.13906665938E+04  0.13908521381E+04  0.00000000000E+00 0.  1.
</event>
<event>
 4    1  0.3586324E+003  0.2775398E+02  0.7546771E-02  0.1440178E+00
          2   -1    0    0  502    0  0.00000000000E+00  0.00000000000E+00  0.11645190552E+01  0.11645190552E+01  0.00000000000E+00 0. -1.
          1   -1    0    0  501    0 -0.00000000000E+00 -0.00000000000E+00 -0.10748780084E+04  0.10748780084E+04  0.00000000000E+00 0. -1.
          2    1    1    2  501    0 -0.24317976167E+02 -0.13376076416E+02 -0.20318896518E+03  0.20507569079E+03  0.00000000000E+00 0. -1.
          1    1    1    2  502    0  0.24317976167E+02  0.13376076416E+02 -0.87052452416E+03  0.87096683666E+03  0.00000000000E+00 0. -1.
</event>
<event>
 4    1  0.3586324E+003  0.2348129E+02  0.7546771E-02  0.1486541E+00
          2   -1    0    0  502    0  0.00000000000E+00  0.00000000000E+00  0.20223312082E+03  0.20223312082E+03  0.00000000000E+00 0.  1.
          1   -1    0    0  501    0 -0.00000000000E+00 -0.00000000000E+00 -0.10320919173E+03  0.10320919173E+03  0.00000000000E+00 0.  1.
          2    1    1    2  501    0 -0.86296620289E+01  0.21838040595E+02  0.20020245018E+03  0.20157478052E+03  0.00000000000E+00 0.  1.
          1    1    1    2  502    0  0.86296620289E+01 -0.21838040595E+02 -0.10117852108E+03  0.10386753204E+03  0.00000000000E+00 0.  1.
</event>
<event>
 4    1  0.3586324E+003  0.2935129E+02  0.7546771E-02  0.1425319E+00
          2   -1    0    0  502    0  0.00000000000E+00  0.00000000000E+00  0.24227935223E+02  0.24227935223E+02  0.00000000000E+00 0. -1.
          1   -1    0    0  501    0 -0.00000000000E+00 -0.00000000000E+00 -0.77729894698E+02  0.77729894698E+02  0.00000000000E+00 0. -1.
          2    1    1    2  501    0  0.17736414718E+02 -0.23386277732E+02  0.10798834404E+02  0.31274801641E+02  0.00000000000E+00 0. -1.
          1    1    1    2  502    0 -0.17736414718E+02  0.23386277732E+02 -0.64300793879E+02  0.70683028279E+02  0.00000000000E+00 0. -1.
</event>
<event>
 4    1  0.3586324E+003  0.4467141E+02  0.7546771E-02  0.1323091E+00
          2   -1    0    0  502    0  0.00000000000E+00  0.00000000000E+00  0.79587788817E+03  0.79587788817E+03  0.00000000000E+00 0.  1.
          1   -1    0    0  501    0 -0.00000000000E+00 -0.00000000000E+00 -0.85734267567E+01  0.85734267567E+01  0.00000000000E+00 0. -1.
          2    1    1    2  501    0  0.68742544194E+01 -0.44139322084E+02  0.73198722374E+03  0.73334905117E+03  0.00000000000E+00 0.  1.
          1    1    1    2  502    0 -0.68742544194E+01  0.44139322084E+02  0.55317237668E+02  0.71102263755E+02  0.00000000000E+00 0. -1.
</event>
<event>
 4    1  0.3586324E+003  0.2427508E+02  0.7546771E-02  0.1477079E+00
          2   -1    0    0  502    0  0.00000000000E+00  0.00000000000E+00  0.71157939555E+03  0.71157939555E+03  0.00000000000E+00 0. -1.
          1   -1    0    0  501    0 -0.00000000000E+00 -0.00000000000E+00 -0.16364841888E+03  0.16364841888E+03  0.00000000000E+00 0. -1.
          2    1    1    2  501    0  0.23346362567E+02 -0.66503435902E+01  0.71047073675E+03  0.71088532655E+03  0.00000000000E+00 0. -1.
          1    1    1    2  502    0 -0.23346362567E+02  0.66503435902E+01 -0.16253976009E+03  0.16434248788E+03  0.00000000000E+00 0. -1.
</event>
<event>
 4    1  0.3586324E+003  0.4224565E+02  0.7546771E-02  0.1335806E+00
          2   -1    0    0  502    0  0.00000000000E+00  0.00000000000E+00  0.10843065037E+04  0.10843065037E+04  0.00000000000E+00 0.  1.
          1   -1    0    0  501    0 -0.00000000000E+00 -0.00000000000E+00 -0.18167680906E+02  0.18167680906E+02  0.00000000000E+00 0.  1.
          2    1    1    2  501    0  0.27684315400E+02 -0.31910402688E+02  0.10587436461E+04  0.10595861472E+04  0.00000000000E+00 0.  1.
          1    1    1    2  502    0 -0.27684315400E+02  0.31910402688E+02  0.73951767235E+01  0.42888037466E+02  0.00000000000E+00 0.  1.
</event>
<event>
 4    1  0.3586324E+003  0.2112291E+02  0.7546771E-02  0.1517517E+00
          2   -1    0    0  502    0  0.00000000000E+00  0.00000000000E+00  0.13781245510E+04  0.13781245510E+04  0.00000000000E+00 0.  1.
          1   -1    0    0  501    0 -0.00000000000E+00 -0.00000000000E+00 -0.51894631252E+02  0.51894631252E+02  0.00000000000E+00 0. -1.
          2    1    1    2  501    0  0.13509480905E+02  0.16237960233E+02  0.13758906830E+04  0.13760528147E+04  0.00000000000E+00 0.  1.
          1    1    1    2  502    0 -0.13509480905E+02 -0.16237960233E+02 -0.49660763191E+02  0.53966367559E+02  0.00000000000E+00 0. -1.
</event>
<event>
 4    1  0.3586324E+003  0.3586399E+02  0.7546771E-02  0.1374589E+00
          2   -1    0    0  502    0  0.00000000000E+00  0.00000000000E+00  0.92225382612E+03  0.92225382612E+03  0.00000000000E+00 0. -1.
          1   -1    0    0  501    0 -0.00000000000E+00 -0.00000000000E+00 -0.40275534606E+02  0.40275534606E+02  0.00000000000E+00 0.  1.
          2    1    1    2  501    0 -0.34312934288E+02 -0.10433052925E+02  0.91384783416E+03  0.91455130531E+03  0.00000000000E+00 0. -1.
          1    1    1    2  502    0  0.34312934288E+02  0.10433052925E+02 -0.31869542645E+02  0.47978055413E+02  0.00000000000E+00 0.  1.
</event>
<event>
 4    1  0.3586324E+003  0.2872488E+02  0.7546771E-02  0.1431011E+00
          2   -1    0    0  502    0  0.00000000000E+00  0.00000000000E+00  0.23932911357E+03  0.23932911357E+03  0.00000000000E+00 0.  1.
          1   -1    0    0  501    0 -0.00000000000E+00 -0.00000000000E+00 -0.45250629321E+01  0.45250629321E+01  0.00000000000E+00 0.  1.
          2    1    1    2  501    0  0.18961165961E+02 -0.21577596802E+02  0.17689734318E+03  0.17921436472E+03  0.00000000000E+00 0.  1.
          1    1    1    2  502    0 -0.18961165961E+02  0.21577596802E+02  0.57906707452E+02  0.64639811775E+02  0.00000000000E+00 0.  1.
</event>
<event>
 4    1  0.3586324E+003  0.2034731E+02  0.7546771E-02  0.1528791E+00
          2   -1    0    0  502    0  0.00000000000E+00  0.00000000000E+00  0.52817555899E+00  0.52817555899E+00  0.00000000000E+00 0.  1.
          1   -1    0    0  501    0 -0.00000000000E+00 -0.00000000000E+00 -0.89850479493E+03  0.89850479493E+03  0.00000000000E+00 0.  1.
          2    1    1    2  501    0 -0.96170620320E+01  0.17931127816E+02 -0.28841570926E+03  0.28913255537E+03  0.00000000000E+00 0.  1.
          1    1    1    2  502    0  0.96170620320E+01 -0.17931127816E+02 -0.60956091011E+03  0.60990041512E+03  0.00000000000E+00 0.  1.
</event>
<event>
 4    1  0.3586324E+003  0.5173258E+02  0.7546771E-02  0.1290830E+00
          2   -1    0    0  502    0  0.00000000000E+00  0.00000000000E+00  0.74986507584E+01  0.74986507584E+01  0.00000000000E+00 0. -1.
          1   -1    0    0  501    0 -0.00000000000E+00 -0.00000000000E+00 -0.70743801317E+03  0.70743801317E+03  0.00000000000E+00 0. -1.
          2    1    1    2  501    0 -0.17083163867E+02 -0.48830579163E+02 -0.98340131306E+02  0.11111724157E+03  0.00000000000E+00 0. -1.
          1    1    1    2  502    0  0.17083163867E+02  0.48830579163E+02 -0.60159923110E+03  0.60381942235E+03  0.00000000000E+00 0. -1.
</event>
<event>
 4    1  0.3586324E+003  0.2459178E+02  0.7546771E-02  0.1473422E+00
          2   -1    0    0  502    0  0.00000000000E+00  0.00000000000E+00  0.74097871917E+01  0.74097871917E+01  0.00000000000E+00 0. -1.
          1   -1    0    0  501    0 -0.00000000000E+00 -0.00000000000E+00 -0.89594166322E+02  0.89594166322E+02  0.00000000000E+00 0. -1.
          2    1    1    2  501    0  0.16108784004E+02 -0.18581246975E+02 -0.26618583887E+02  0.36239545656E+02  0.00000000000E+00 0. -1.
          1    1    1    2  502    0 -0.16108784004E+02  0.18581246975E+02 -0.55565795243E+02  0.60764407857E+02  0.00000000000E+00 0. -1.
</event>
<event>
 4    1  0.3586324E+003  0.1040343E+03  0.7546771E-02  0.1156995E+00
          2   -1    0    0  502    0  0.00000000000E+00  0.00000000000E+00  0.14340793779E+04  0.14340793779E+04  0.00000000000E+00 0. -1.
          1   -1    0    0  501    0 -0.00000000000E+00 -0.00000000000E+00 -0.84779956586E+01  0.84779956586E+01  0.00000000000E+00 0. -1.
          2    1    1    2  501    0 -0.33433152345E+02 -0.98515804539E+02  0.95180579655E+03  0.95747449771E+03  0.00000000000E+00 0. -1.
          1    1    1    2  502    0  0.33433152345E+02  0.98515804539E+02  0.47379558566E+03  0.48508287581E+03  0.00000000000E+00 0. -1.
</event>
<event>
 4    1  0.3586324E+003  0.2388928E+02  0.7546771E-02  0.1481623E+00
          2   -1    0    0  502    0  0.00000000000E+00  0.00000000000E+00  0.17012542654E+02  0.17012542654E+02  0.00000000000E+00 0. -1.
          1   -1    0    0  501    0 -0.00000000000E+00 -0.00000000000E+00 -0.93624272231E+02  0.93624272231E+02  0.00000000000E+00 0.  1.
          2    1    1    2  501    0 -0.22525482643E+02 -0.79561516078E+01  0.60075511368E+01  0.24633075069E+02  0.00000000000E+00 0. -1.
          1    1    1    2  502    0  0.22525482643E+02  0.79561516078E+01 -0.82619280714E+02  0.86003739816E+02  0.00000000000E+00 0.  1.
</event>
<event>
 4    1  0.3586324E+003  0.2327144E+02  0.7546771E-02  0.1489118E+00
          2   -1    0    0  502    0  0.00000000000E+00  0.00000000000E+00  0.74583898288E+01  0.74583898288E+01  0.00000000000E+00 0. -1.
          1   -1    0    0  501    0 -0.00000000000E+00 -0.00000000000E+00 -0.11710285087E+03  0.11710285087E+03  0.00000000000E+00 0. -1.
          2    1    1    2  501    0 -0.47338350237E+01  0.22784877842E+02 -0.16432923084E+02  0.28488608485E+02  0.00000000000E+00 0. -1.
          1    1    1    2  502    0  0.47338350237E+01 -0.22784877842E+02 -0.93211537958E+02  0.96072632215E+02  0.00000000000E+00 0. -1.
</event>
<event>
 4    1  0.3586324E+003  0.2707155E+02  0.7546771E-02  0.1446891E+00
          2   -1    0    0  502    0  0.00000000000E+00  0.00000000000E+00  0.43632757734E+03  0.43632757734E+03  0.00000000000E+00 0.  1.
          1   -1    0    0  501    0 -0.00000000000E+00 -0.00000000000E+00 -0.18933151642E+03  0.18933151642E+03  0.00000000000E+00 0.  1.
          2    1    1    2  501    0 -0.52791841538E+01  0.26551819935E+02  0.43493687265E+03  0.43577855858E+03  0.00000000000E+00 0.  1.
          1    1    1    2  502    0  0.52791841538E+01 -0.26551819935E+02 -0.18794081173E+03  0.18988053518E+03  0.00000000000E+00 0.  1.
</event>
<event>
 4    1  0.3586324E+003  0.2294325E+02  0.7546771E-02  0.1493212E+00
          2   -1    0    0  502    0  0.00000000000E+00  0.00000000000E+00  0.13622654474E+03  0.13622654474E+03  0.00000000000E+00 0. -1.
          1   -1    0    0  501    0 -0.00000000000E+00 -0.00000000000E+00 -0.70280803520E+02  0.70280803520E+02  0.00000000000E+00 0. -1.
          2    1    1    2  501    0  0.13237055407E+02  0.18739616259E+02  0.13334793034E+03  0.13530729241E+03  0.00000000000E+00 0. -1.
          1    1    1    2  502    0 -0.13237055407E+02 -0.18739616259E+02 -0.67402189125E+02  0.71200055844E+02  0.00000000000E+00 0. -1.
</event>
<event>
 4    1  0.3586324E+003  0.2038760E+02  0.7546771E-02  0.1528191E+00
          2   -1    0    0  502    0  0.00000000000E+00  0.00000000000E+00  0.45944074443E+03  0.45944074443E+03  0.00000000000E+00 0. -1.
          1   -1    0    0  501    0 -0.00000000000E+00 -0.00000000000E+00 -0.98979359810E+00  0.98979359810E+00  0.00000000000E+00 0.  1.
          2    1    1    2  501    0 -0.16808260374E+02  0.11538478166E+02  0.29672816207E+03  0.29742773284E+03  0.00000000000E+00 0. -1.
          1    1    1    2  502    0  0.16808260374E+02 -0.11538478166E+02  0.16172278876E+03  0.16300280518E+03  0.00000000000E+00 0.  1.
</event>
<event>
 4    1  0.3586324E+003  0.2459752E+02  0.7546771E-02  0.1473357E+00
          2   -1    0    0  502    0  0.00000000000E+00  0.00000000000E+00  0.62987349346E+01  0.62987349346E+01  0.00000000000E+00 0.  1.
          1   -1    0    0  501    0 -0.00000000000E+00 -0.00000000000E+00 -0.13711309162E+04  0.13711309162E+04  0.00000000000E+00 0.  1.
          2    1    1    2  501    0  0.22304072735E+02  0.10371425562E+02 -0.18263859098E+02  0.30636688429E+02  0.00000000000E+00 0.  1.
          1    1    1    2  502    0 -0.22304072735E+02 -0.10371425562E+02 -0.13465683222E+04  0.13467929627E+04  0.00000000000E+00 0.  1.
</event>
<event>
 4    1  0.3586324E+003  0.2976629E+02  0.7546771E-02  0.1421638E+00
          2   -1    0    0  502    0  0.00000000000E+00  0.00000000000E+00  0.18492968517E+04  0.18492968517E+04  0.00000000000E+00 0. -1.
          1   -1    0    0  501    0 -0.00000000000E+00 -0.00000000000E+00 -0.49637096767E+00  0.49637096767E+00  0.00000000000E+00 0.  1.
          2    1    1    2  501    0 -0.23896159079E+02  0.17748393981E+02  0.10968324974E+04  0.10972363279E+04  0.00000000000E+00 0. -1.
          1    1    1    2  502    0  0.23896159079E+02 -0.17748393981E+02  0.75196798335E+03  0.75255689479E+03  0.00000000000E+00 0.  1.
</event>
<event>
 4    1  0.3586324E+003  0.2275186E+02  0.7546771E-02  0.1495638E+00
          2   -1    0    0  502    0  0.00000000000E+00  0.00000000000E+00  0.54107269893E+01  0.54107269893E+01  0.00000000000E+00 0. -1.
          1   -1    0    0  501    0 -0.00000000000E+00 -0.00000000000E+00 -0.10393057481E+03  0.10393057481E+03  0.00000000000E+00 0. -1.
          2    1    1    2  501    0  0.13274623250E+02 -0.18477860501E+02 -0.33847370444E+02  0.40783470146E+02  0.00000000000E+00 0. -1.
          1    1    1    2  502    0 -0.13274623250E+02  0.18477860501E+02 -0.64672477381E+02  0.68557831658E+02  0.00000000000E+00 0. -1.
</event>
<event>
 4    1  0.3586324E+003  0.2317382E+02  0.7546771E-02  0.1490327E+00
          2   -1    0    0  502    0  0.00000000000E+00  0.00000000000E+00  0.59971374243E+01  0.59971374243E+01  0.00000000000E+00 0.  1.
          1   -1    0    0  501    0 -0.00000000000E+00 -0.00000000000E+00 -0.14253767470E+03  0.14253767470E+03  0.00000000000E+00 0.  1.
          2    1    1    2  501    0 -0.20760720315E+02 -0.10296524057E+02 -0.22987499811E+02  0.32641247881E+02  0.00000000000E+00 0.  1.
          1    1    1    2  502    0  0.20760720315E+02  0.10296524057E+02 -0.11355303746E+03  0.11589356424E+03  0.00000000000E+00 0.  1.
</event>
<event>
 4    1  0.3586324E+003  0.8682021E+02  0.7546771E-02  0.1188842E+00
          2   -1    0    0  502    0  0.00000000000E+00  0.00000000000E+00  0.47115225631E+02  0.47115225631E+02  0.00000000000E+00 0.  1.
          1   -1    0    0  501    0 -0.00000000000E+00 -0.00000000000E+00 -0.26764850714E+03  0.26764850714E+03  0.00000000000E+00 0.  1.
          2    1    1    2  501    0 -0.66503180793E+02  0.55812860727E+02 -0.10449362845E+02  0.87446770449E+02  0.00000000000E+00 0.  1.
          1    1    1    2  502    0  0.66503180793E+02 -0.55812860727E+02 -0.21008391867E+03  0.22731696233E+03  0.00000000000E+00 0.  1.
</event>
<event>
 4    1  0.3586324E+003  0.2088710E+02  0.7546771E-02  0.1520883E+00
          2   -1    0    0  502    0  0.00000000000E+00  0.00000000000E+00  0.24215114447E+03  0.24215114447E+03  0.00000000000E+00 0.  1.
          1   -1    0    0  501    0 -0.00000000000E+00 -0.00000000000E+00 -0.42259504471E+02  0.42259504471E+02  0.00000000000E+00 0.  1.
          2    1    1    2  501    0 -0.18258072769E+02  0.10144635634E+02  0.23908681292E+03  0.23999744783E+03  0.00000000000E+00 0.  1.
          1    1    1    2  502    0  0.18258072769E+02 -0.10144635634E+02 -0.39195172916E+02  0.44413201115E+02  0.00000000000E+00 0.  1.
</event>
<event>
 4    1  0.3586324E+003  0.2703178E+02  0.7546771E-02  0.1447289E+00
          2   -1    0    0  502    0  0.00000000000E+00  0.00000000000E+00  0.51695464051E+03  0.51695464051E+03  0.00000000000E+00 0. -1.
          1   -1    0    0  501    0 -0.00000000000E+00 -0.00000000000E+00 -0.11548177546E+04  0.11548177546E+04  0.00000000000E+00 0.  1.
          2    1    1    2  501    0 -0.26417434201E+02  0.57302784522E+01  0.51644291933E+03  0.51714988722E+03  0.00000000000E+00 0. -1.
          1    1    1    2  502    0  0.26417434201E+02 -0.57302784522E+01 -0.11543060334E+04  0.11546225079E+04  0.00000000000E+00 0.  1.
</event>
<event>
 4    1  0.3586324E+003  0.3315701E+02  0.7546771E-02  0.1394004E+00
          2   -1    0    0  502    0  0.00000000000E+00  0.00000000000E+00  0.65300181681E+01  0.65300181681E+01  0.00000000000E+00 0. -1.
          1   -1    0    0  501    0 -0.00000000000E+00 -0.00000000000E+00 -0.97089091790E+03  0.97089091790E+03  0.00000000000E+00 0. -1.
          2    1    1    2  501    0 -0.50078840169E+01 -0.32776644889E+02 -0.37858694343E+02  0.50325620610E+02  0.00000000000E+00 0. -1.
          1    1    1    2  502    0  0.50078840169E+01  0.32776644889E+02 -0.92650220539E+03  0.92709531545E+03  0.00000000000E+00 0. -1.
</event>
<event>
 4    1  0.3586324E+003  0.3734792E+02  0.7546771E-02  0.1364769E+00
          2   -1    0    0  502    0  0.00000000000E+00  0.00000000000E+00  0.18938651486E+04  0.18938651486E+04  0.00000000000E+00 0.  1.
          1   -1    0    0  501    0 -0.00000000000E+00 -0.00000000000E+00 -0.11592813773E+03  0.11592813773E+03  0.00000000000E+00 0. -1.
          2    1    1    2  501    0  0.71983749567E+01  0.36647653493E+02  0.18906678900E+04  0.18910367361E+04  0.00000000000E+00 0.  1.
          1    1    1    2  502    0 -0.71983749567E+01 -0.36647653493E+02 -0.11273087913E+03  0.11875655021E+03  0.00000000000E+00 0. -1.
</event>
<event>
 4    1  0.3586324E+003  0.2537671E+02  0.7546771E-02  0.1464633E+00
          2   -1    0    0  502    0  0.00000000000E+00  0.00000000000E+00  0.26212488843E+03  0.26212488843E+03  0.00000000000E+00 0.  1.
          1   -1    0    0  501    0 -0.00000000000E+00 -0.00000000000E+00 -0.30448851942E+01  0.30448851942E+01  0.00000000000E+00 0.  1.
          2    1    1    2  501    0  0.18801043411E+02  0.17044012196E+02  0.18780985888E+03  0.18951654460E+03  0.00000000000E+00 0.  1.
          1    1    1    2  502    0 -0.18801043411E+02 -0.17044012196E+02  0.71270144357E+02  0.75653229024E+02  0.00000000000E+00 0.  1.
</event>
<event>
 4    1  0.3586324E+003  0.2469358E+02  0.7546771E-02  0.1472261E+00
          2   -1    0    0  502    0  0.00000000000E+00  0.00000000000E+00  0.30378921725E+02  0.30378921725E+02  0.00000000000E+00 0.  1.
          1   -1    0    0  501    0 -0.00000000000E+00 -0.00000000000E+00 -0.34019415445E+02  0.34019415445E+02  0.00000000000E+00 0. -1.
          2    1    1    2  501    0  0.63428447430E+01  0.23865058069E+02  0.18796708781E+02  0.31033674244E+02  0.00000000000E+00 0.  1.
          1    1    1    2  502    0 -0.63428447430E+01 -0.23865058069E+02 -0.22437202501E+02  0.33364662926E+02  0.00000000000E+00 0. -1.
</event>
<event>
 4    1  0.3586324E+003  0.2230481E+02  0.7546771E-02  0.1501417E+00
          2   -1    0    0  502    0  0.00000000000E+00  0.00000000000E+00  0.14055774687E+02  0.14055774687E+02  0.00000000000E+00 0. -1.
          1   -1    0    0  501    0 -0.00000000000E+00 -0.00000000000E+00 -0.28839341757E+03  0.28839341757E+03  0.00000000000E+00 0.  1.
          2    1    1    2  501    0  0.21252124316E+02 -0.67714049324E+01  0.44720627761E+01  0.22748715528E+02  0.00000000000E+00 0. -1.
          1    1    1    2  502    0 -0.21252124316E+02  0.67714049324E+01 -0.27880970566E+03  0.27970047673E+03  0.00000000000E+00 0.  1.
</event>
<event>
 4    1  0.3586324E+003  0.4289693E+02  0.7546771E-02  0.1332298E+00
          2   -1    0    0  502    0  0.00000000000E+00  0.00000000000E+00  0.17805439988E+04  0.17805439988E+04  0.00000000000E+00 0. -1.
          1   -1    0    0  501    0 -0.00000000000E+00 -0.00000000000E+00 -0.28990001180E+02  0.28990001180E+02  0.00000000000E+00 0. -1.
          2    1    1    2  501    0  0.24961886608E+02  0.34886256605E+02  0.17642704741E+04  0.17647919006E+04  0.00000000000E+00 0. -1.
          1    1    1    2  502    0 -0.24961886608E+02 -0.34886256605E+02 -0.12716476470E+02  0.44742099378E+02  0.00000000000E+00 0. -1.
</event>
<event>
 4    1  0.3586324E+003  0.2497733E+02  0.7546771E-02  0.1469057E+00
          2   -1    0    0  502    0  0.00000000000E+00  0.00000000000E+00  0.52359440381E+01  0.52359440381E+01  0.00000000000E+00 0.  1.
          1   -1    0    0  501    0 -0.00000000000E+00 -0.00000000000E+00 -0.10841147041E+04  0.10841147041E+04  0.00000000000E+00 0.  1.
          2    1    1    2  501    0 -0.60250772462E+00 -0.24970060776E+02 -0.25566597342E+02  0.35742381710E+02  0.00000000000E+00 0.  1.
          1    1    1    2  502    0  0.60250772462E+00  0.24970060776E+02 -0.10533121627E+04  0.10536082664E+04  0.00000000000E+00 0.  1.
</event>
<event>
 4    1  0.3586324E+003  0.2430352E+02  0.7546771E-02  0.1476748E+00
          2   -1    0    0  502    0  0.00000000000E+00  0.00000000000E+00  0.10842106328E+04  0.10842106328E+04  0.00000000000E+00 0. -1.
          1   -1    0    0  501    0 -0.00000000000E+00 -0.00000000000E+00 -0.16556158524E+02  0.16556158524E+02  0.00000000000E+00 0. -1.
          2    1    1    2  501    0  0.17422226721E+02  0.16944828695E+02  0.10750796382E+04  0.10753543089E+04  0.00000000000E+00 0. -1.
          1    1    1    2  502    0 -0.17422226721E+02 -0.16944828695E+02 -0.74251639251E+01  0.25412482420E+02  0.00000000000E+00 0. -1.
</event>
<event>
 4    1  0.3586324E+003  0.2093800E+02  0.7546771E-02  0.1520152E+00
          2   -1    0    0  502    0  0.00000000000E+00  0.00000000000E+00  0.34899967716E+03  0.34899967716E+03  0.00000000000E+00 0.  1.
          1   -1    0    0  501    0 -0.00000000000E+00 -0.00000000000E+00 -0.16777001261E+01  0.16777001261E+01  0.00000000000E+00 0.  1.
          2    1    1    2  501    0  0.91741591658E+01  0.18821125551E+02  0.26155094823E+03  0.26238768737E+03  0.00000000000E+00 0.  1.
          1    1    1    2  502    0 -0.91741591658E+01 -0.18821125551E+02  0.85771028801E+02  0.88289689913E+02  0.00000000000E+00 0.  1.
</event>
<event>
 4    1  0.3586324E+003  0.2944355E+02  0.7546771E-02  0.1424494E+00
          2   -1    0    0  502    0  0.00000000000E+00  0.00000000000E+00  0.22008872878E+04  0.22008872878E+04  0.00000000000E+00 0.  1.
          1   -1    0    0  501    0 -0.00000000000E+00 -0.00000000000E+00 -0.33735283254E+01  0.33735283254E+01  0.00000000000E+00 0.  1.
          2    1    1    2  501    0 -0.17669525330E+02  0.23552295982E+02  0.21345477396E+04  0.21347507994E+04  0.00000000000E+00 0.  1.
          1    1    1    2  502    0  0.17669525330E+02 -0.23552295982E+02  0.62966019925E+02  0.69510016808E+02  0.00000000000E+00 0.  1.
</event>
<event>
 4    1  0.3586324E+003  0.2620660E+02  0.7546771E-02  0.1455745E+00
          2   -1    0    0  502    0  0.00000000000E+00  0.00000000000E+00  0.90481500726E+03  0.90481500726E+03  0.00000000000E+00 0.  1.
          1   -1    0    0  501    0 -0.00000000000E+00 -0.00000000000E+00 -0.86906552562E+00  0.86906552562E+00  0.00000000000E+00 0. -1.
          2    1    1    2  501    0  0.16440792101E+02  0.20407994523E+02  0.61310351817E+03  0.61366335223E+03  0.00000000000E+00 0.  1.
          1    1    1    2  502    0 -0.16440792101E+02 -0.20407994523E+02  0.29084242356E+03  0.29202072055E+03  0.00000000000E+00 0. -1.
</event>
<event>
 4    1  0.3586324E+003  0.2012703E+02  0.7546771E-02  0.1532103E+00
          2   -1    0    0  502    0  0.00000000000E+00  0.00000000000E+00  0.21236354751E+02  0.21236354751E+02  0.00000000000E+00 0. -1.
          1   -1    0    0  501    0 -0.00000000000E+00 -0.00000000000E+00 -0.40673896674E+02  0.40673896674E+02  0.00000000000E+00 0.  1.
          2    1    1    2  501    0 -0.94019230554E+01  0.17796103150E+02  0.12838359310E+02  0.23873016446E+02  0.00000000000E+00 0. -1.
          1    1    1    2  502    0  0.94019230554E+01 -0.17796103150E+02 -0.32275901233E+02  0.38037234979E+02  0.00000000000E+00 0.  1.
</event>
<event>
 4    1  0.3586324E+003  0.3970155E+02  0.7546771E-02  0.1350244E+00
          2   -1    0    0  502    0  0.00000000000E+00  0.00000000000E+00  0.87628660090E+03  0.87628660090E+03  0.00000000000E+00 0.  1.
          1   -1    0    0  501    0 -0.00000000000E+00 -0.00000000000E+00 -0.29293222763E+01  0.29293222763E+01  0.00000000000E+00 0.  1.
          2    1    1    2  501    0 -0.37303070223E+02 -0.13590224355E+02  0.70978557720E+03  0.71089505473E+03  0.00000000000E+00 0.  1.
          1    1    1    2  502    0  0.37303070223E+02  0.13590224355E+02  0.16357170143E+03  0.16832086844E+03  0.00000000000E+00 0.  1.
</event>
<event>
 4    1  0.3586324E+003  0.3570383E+02  0.7546771E-02  0.1375682E+00
          2   -1    0    0  502    0  0.00000000000E+00  0.00000000000E+00  0.96679735936E+02  0.96679735936E+02  0.00000000000E+00 0. -1.
          1   -1    0    0  501    0 -0.00000000000E+00 -0.00000000000E+00 -0.62736587889E+02  0.62736587889E+02  0.00000000000E+00 0. -1.
          2    1    1    2  501    0 -0.26068171742E+02  0.24397000220E+02  0.87810061891E+02  0.94791192455E+02  0.00000000000E+00 0. -1.
          1    1    1    2  502    0  0.26068171742E+02 -0.24397000220E+02 -0.53866913844E+02  0.64625131371E+02  0.00000000000E+00 0. -1.
</event>
<event>
 4    1  0.4289892E+003  0.2115793E+02  0.7546771E-02  0.1517022E+00
          2   -1    0    0  502    0  0.00000000000E+00  0.00000000000E+00  0.11728503513E+04  0.11728503513E+04  0.00000000000E+00 0. -1.
          1   -1    0    0  501    0 -0.00000000000E+00 -0.00000000000E+00 -0.94678768362E+03  0.94678768362E+03  0.00000000000E+00 0. -1.
          2    1    1    2  501    0  0.11510178628E+02 -0.17753139433E+02  0.11726367043E+04  0.11728275655E+04  0.00000000000E+00 0. -1.
          1    1    1    2  502    0 -0.11510178628E+02  0.17753139433E+02 -0.94657403662E+03  0.94681046940E+03  0.00000000000E+00 0. -1.
</event>
<event>
 4    1  0.3586324E+003  0.3852531E+02  0.7546771E-02  0.1357351E+00
          2   -1    0    0  502    0  0.00000000000E+00  0.00000000000E+00  0.92424095463E+03  0.92424095463E+03  0.00000000000E+00 0. -1.
          1   -1    0    0  501    0 -0.00000000000E+00 -0.00000000000E+00 -0.20826258690E+03  0.20826258690E+03  0.00000000000E+00 0.  1.
          2    1    1    2  501    0  0.37251897499E+02  0.98232358851E+01  0.92205362064E+03  0.92285810349E+03  0.00000000000E+00 0. -1.
          1    1    1    2  502    0 -0.37251897499E+02 -0.98232358851E+01 -0.20607525291E+03  0.20964543804E+03  0.00000000000E+00 0.  1.
</event>
<event>
 4    1  0.3586324E+003  0.4092977E+02  0.7546771E-02  0.1343122E+00
          2   -1    0    0  502    0  0.00000000000E+00  0.00000000000E+00  0.26922913482E+03  0.26922913482E+03  0.00000000000E+00 0. -1.
          1   -1    0    0  501    0 -0.00000000000E+00 -0.00000000000E+00 -0.44416488656E+02  0.44416488656E+02  0.00000000000E+00 0.  1.
          2    1    1    2  501    0 -0.22006897085E+02 -0.34510034847E+02  0.25783006448E+03  0.26105859146E+03  0.00000000000E+00 0. -1.
          1    1    1    2  502    0  0.22006897085E+02  0.34510034847E+02 -0.33017418315E+02  0.52587032019E+02  0.00000000000E+00 0.  1.
</event>
<event>
 4    1  0.3586324E+003  0.1161373E+03  0.7546771E-02  0.1138453E+00
          2   -1    0    0  502    0  0.00000000000E+00  0.00000000000E+00  0.42060861769E+04  0.42060861769E+04  0.00000000000E+00 0. -1.
          1   -1    0    0  501    0 -0.00000000000E+00 -0.00000000000E+00 -0.12810667684E+02  0.12810667684E+02  0.00000000000E+00 0.  1.
          2    1    1    2  501    0 -0.11526950760E+03 -0.14171136530E+02  0.39230851544E+04  0.39248038179E+04  0.00000000000E+00 0. -1.
          1    1    1    2  502    0  0.11526950760E+03  0.14171136530E+02  0.27019035478E+03  0.29409302662E+03  0.00000000000E+00 0.  1.
</event>
<event>
 4    1  0.3586324E+003  0.2506785E+02  0.7546771E-02  0.1468046E+00
          2   -1    0    0  502    0  0.00000000000E+00  0.00000000000E+00  0.19359814723E+02  0.19359814723E+02  0.00000000000E+00 0.  1.
          1   -1    0    0  501    0 -0.00000000000E+00 -0.00000000000E+00 -0.14713186828E+03  0.14713186828E+03  0.00000000000E+00 0.  1.
          2    1    1    2  501    0  0.23925505526E+02  0.74811179377E+01  0.96059335804E+01  0.26845314307E+02  0.00000000000E+00 0.  1.
          1    1    1    2  502    0 -0.23925505526E+02 -0.74811179377E+01 -0.13737798713E+03  0.13964636869E+03  0.00000000000E+00 0.  1.
</event>
<event>
 4    1  0.3586324E+003  0.2378858E+03  0.7546771E-02  0.1031106E+00
          2   -1    0    0  502    0  0.00000000000E+00  0.00000000000E+00  0.17157799403E+04  0.17157799403E+04  0.00000000000E+00 0. -1.
          1   -1    0    0  501    0 -0.00000000000E+00 -0.00000000000E+00 -0.38066869142E+02  0.38066869142E+02  0.00000000000E+00 0.  1.
          2    1    1    2  501    0  0.98144184022E+02 -0.21669648503E+03  0.11593602832E+04  0.11835142220E+04  0.00000000000E+00 0. -1.
          1    1    1    2  502    0 -0.98144184022E+02  0.21669648503E+03  0.51835278798E+03  0.57033258744E+03  0.00000000000E+00 0.  1.
</event>
<event>
 4    1  0.3586324E+003  0.2732241E+02  0.7546771E-02  0.1444396E+00
          2   -1    0    0  502    0  0.00000000000E+00  0.00000000000E+00  0.22418363478E+02  0.22418363478E+02  0.00000000000E+00 0.  1.
          1   -1    0    0  501    0 -0.00000000000E+00 -0.00000000000E+00 -0.75389760823E+03  0.75389760823E+03  0.00000000000E+00 0.  1.
          2    1    1    2  501    0 -0.36882897009E+01  0.27072317163E+02  0.13749199988E+02  0.30586832752E+02  0.00000000000E+00 0.  1.
          1    1    1    2  502    0  0.36882897009E+01 -0.27072317163E+02 -0.74522844474E+03  0.74572913895E+03  0.00000000000E+00 0.  1.
</event>
<event>
 4    1  0.3586324E+003  0.2041201E+02  0.7546771E-02  0.1527828E+00
          2   -1    0    0  502    0  0.00000000000E+00  0.00000000000E+00  0.24279748514E+03  0.24279748514E+03  0.00000000000E+00 0. -1.
          1   -1    0    0  501    0 -0.00000000000E+00 -0.00000000000E+00 -0.17221384620E+01  0.17221384620E+01  0.00000000000E+00 0. -1.
          2    1    1    2  501    0 -0.19879727553E+02  0.46310482468E+01  0.12781317467E+03  0.12943283120E+03  0.00000000000E+00 0. -1.
          1    1    1    2  502    0  0.19879727553E+02 -0.46310482468E+01  0.11326217201E+03  0.11508679240E+03  0.00000000000E+00 0. -1.
</event>
<event>
 4    1  0.3586324E+003  0.4225728E+02  0.7546771E-02  0.1335743E+00
          2   -1    0    0  502    0  0.00000000000E+00  0.00000000000E+00  0.25481156556E+03  0.25481156556E+03  0.00000000000E+00 0. -1.
          1   -1    0    0  501    0 -0.00000000000E+00 -0.00000000000E+00 -0.22256639532E+02  0.22256639532E+02  0.00000000000E+00 0. -1.
          2    1    1    2  501    0 -0.41594375763E+02  0.74555794050E+01  0.23094613389E+03  0.23478031118E+03  0.00000000000E+00 0. -1.
          1    1    1    2  502    0  0.41594375763E+02 -0.74555794050E+01  0.16087921390E+01  0.42287893912E+02  0.00000000000E+00 0. -1.
</event>
<event>
 4    1  0.3586324E+003  0.6172972E+02  0.7546771E-02  0.1254066E+00
          2   -1    0    0  502    0  0.00000000000E+00  0.00000000000E+00  0.30142301963E+04  0.30142301963E+04  0.00000000000E+00 0.  1.
          1   -1    0    0  501    0 -0.00000000000E+00 -0.00000000000E+00 -0.10778215734E+03  0.10778215734E+03  0.00000000000E+00 0.  1.
          2    1    1    2  501    0 -0.69954195922E+01 -0.61332071806E+02  0.30050485802E+04  0.30056825395E+04  0.00000000000E+00 0.  1.
          1    1    1    2  502    0  0.69954195922E+01  0.61332071806E+02 -0.98600541236E+02  0.11632981415E+03  0.00000000000E+00 0.  1.
</event>
<event>
 4    1  0.3586324E+003  0.2049286E+02  0.7546771E-02  0.1526630E+00
          2   -1    0    0  502    0  0.00000000000E+00  0.00000000000E+00  0.12390273612E+04  0.12390273612E+04  0.00000000000E+00 0. -1.
          1   -1    0    0  501    0 -0.00000000000E+00 -0.00000000000E+00 -0.97837671671E+00  0.97837671671E+00  0.00000000000E+00 0.  1.
          2    1    1    2  501    0 -0.20321121573E+02 -0.26475213026E+01  0.11202567826E+04  0.11204442049E+04  0.00000000000E+00 0. -1.
          1    1    1    2  502    0  0.20321121573E+02  0.26475213026E+01  0.11779220194E+03  0.11956153306E+03  0.00000000000E+00 0.  1.
</event>
<event>
 4    1  0.3586324E+003  0.2148742E+02  0.7546771E-02  0.1512418E+00
          2   -1    0    0  502    0  0.00000000000E+00  0.00000000000E+00  0.13291164564E+02  0.13291164564E+02  0.00000000000E+00 0.  1.
          1   -1    0    0  501    0 -0.00000000000E+00 -0.00000000000E+00 -0.71243031980E+03  0.71243031980E+03  0.00000000000E+00 0.  1.
          2    1    1    2  501    0  0.48428018289E+00  0.21481964860E+02  0.43340779064E+01  0.21920163613E+02  0.00000000000E+00 0.  1.
          1    1    1    2  502    0 -0.48428018289E+00 -0.21481964860E+02 -0.70347323314E+03  0.70380132075E+03  0.00000000000E+00 0.  1.
</event>
<event>
 4    1  0.3586324E+003  0.2072005E+02  0.7546771E-02  0.1523300E+00
          2   -1    0    0  502    0  0.00000000000E+00  0.00000000000E+00  0.64807098279E+03  0.64807098279E+03  0.00000000000E+00 0. -1.
          1   -1    0    0  501    0 -0.00000000000E+00 -0.00000000000E+00 -0.28505871952E+01  0.28505871952E+01  0.00000000000E+00 0.  1.
          2    1    1    2  501    0  0.11411903061E+02  0.17294184509E+02  0.60775660241E+03  0.60810970074E+03  0.00000000000E+00 0. -1.
          1    1    1    2  502    0 -0.11411903061E+02 -0.17294184509E+02  0.37463793185E+02  0.42811869255E+02  0.00000000000E+00 0.  1.
</event>
<event>
 4    1  0.3586324E+003  0.2049190E+02  0.7546771E-02  0.1526644E+00
          2   -1    0    0  502    0  0.00000000000E+00  0.00000000000E+00  0.14388978222E+04  0.14388978222E+04  0.00000000000E+00 0. -1.
          1   -1    0    0  501    0 -0.00000000000E+00 -0.00000000000E+00 -0.11418492066E+01  0.11418492066E+01  0.00000000000E+00 0.  1.
          2    1    1    2  501    0 -0.87551470511E+01 -0.18527424769E+02  0.13401097473E+04  0.13402664112E+04  0.00000000000E+00 0. -1.
          1    1    1    2  502    0  0.87551470511E+01  0.18527424769E+02  0.97646225670E+02  0.99773260226E+02  0.00000000000E+00 0.  1.
</event>
<event>
 4    1  0.3586324E+003  0.3484271E+02  0.7546771E-02  0.1381672E+00
          2   -1    0    0  502    0  0.00000000000E+00  0.00000000000E+00  0.73046778902E+03  0.73046778902E+03  0.00000000000E+00 0. -1.
          1   -1    0    0  501    0 -0.00000000000E+00 -0.00000000000E+00 -0.17569590886E+03  0.17569590886E+03  0.00000000000E+00 0. -1.
          2    1    1    2  501    0  0.74687939271E+00 -0.34834702937E+02  0.72831976828E+03  0.72915272696E+03  0.00000000000E+00 0. -1.
          1    1    1    2  502    0 -0.74687939271E+00  0.34834702937E+02 -0.17354788811E+03  0.17701097092E+03  0.00000000000E+00 0. -1.
</event>
<event>
 4    1  0.3586324E+003  0.2366090E+02  0.7546771E-02  0.1484362E+00
          2   -1    0    0  502    0  0.00000000000E+00  0.00000000000E+00  0.16760514503E+03  0.16760514503E+03  0.00000000000E+00 0. -1.
          1   -1    0    0  501    0 -0.00000000000E+00 -0.00000000000E+00 -0.47204786362E+01  0.47204786362E+01  0.00000000000E+00 0. -1.
          2    1    1    2  501    0 -0.20333124201E+02 -0.12099686622E+02  0.12803384485E+03  0.13020178103E+03  0.00000000000E+00 0. -1.
          1    1    1    2  502    0  0.20333124201E+02  0.12099686622E+02  0.34850821538E+02  0.42123842631E+02  0.00000000000E+00 0. -1.
</event>
<event>
 4    1  0.3586324E+003  0.2749671E+02  0.7546771E-02  0.1442681E+00
          2   -1    0    0  502    0  0.00000000000E+00  0.00000000000E+00  0.12145721644E+04  0.12145721644E+04  0.00000000000E+00 0.  1.
          1   -1    0    0  501    0 -0.00000000000E+00 -0.00000000000E+00 -0.31519512647E+01  0.31519512647E+01  0.00000000000E+00 0.  1.
          2    1    1    2  501    0  0.27402625894E+02  0.22726414464E+01  0.11511444622E+04  0.11514728142E+04  0.00000000000E+00 0.  1.
          1    1    1    2  502    0 -0.27402625894E+02 -0.22726414464E+01  0.60275750897E+02  0.66251301505E+02  0.00000000000E+00 0.  1.
</event>
<event>
 4    1  0.3586324E+003  0.4781228E+02  0.7546771E-02  0.1307947E+00
          2   -1    0    0  502    0  0.00000000000E+00  0.00000000000E+00  0.56205672492E+03  0.56205672492E+03  0.00000000000E+00 0. -1.
          1   -1    0    0  501    0 -0.00000000000E+00 -0.00000000000E+00 -0.43982819941E+02  0.43982819941E+02  0.00000000000E+00 0.  1.
          2    1    1    2  501    0  0.45359809415E+02 -0.15116284284E+02  0.54770632281E+03  0.54978926000E+03  0.00000000000E+00 0. -1.
          1    1    1    2  502    0 -0.45359809415E+02  0.15116284284E+02 -0.29632417832E+02  0.56250284865E+02  0.00000000000E+00 0.  1.
</event>
<event>
 4    1  0.3586324E+003  0.2157480E+02  0.7546771E-02  0.1511214E+00
          2   -1    0    0  502    0  0.00000000000E+00  0.00000000000E+00  0.11741190692E+04  0.11741190692E+04  0.00000000000E+00 0. -1.
          1   -1    0    0  501    0 -0.00000000000E+00 -0.00000000000E+00 -0.59540678144E+01  0.59540678144E+01  0.00000000000E+00 0. -1.
          2    1    1    2  501    0  0.12257855669E+02  0.17754352648E+02  0.11541373269E+04  0.11543389629E+04  0.00000000000E+00 0. -1.
          1    1    1    2  502    0 -0.12257855669E+02 -0.17754352648E+02  0.14027674517E+02  0.25734174086E+02  0.00000000000E+00 0. -1.
</event>
<event>
 4    1  0.3586324E+003  0.2597153E+02  0.7546771E-02  0.1458222E+00
          2   -1    0    0  502    0  0.00000000000E+00  0.00000000000E+00  0.32631197588E+01  0.32631197588E+01  0.00000000000E+00 0. -1.
          1   -1    0    0  501    0 -0.00000000000E+00 -0.00000000000E+00 -0.29912145311E+03  0.29912145311E+03  0.00000000000E+00 0. -1.
          2    1    1    2  501    0 -0.10904695390E+02  0.23571338618E+02 -0.63892637901E+02  0.68969482844E+02  0.00000000000E+00 0. -1.
          1    1    1    2  502    0  0.10904695390E+02 -0.23571338618E+02 -0.23196569545E+03  0.23341509002E+03  0.00000000000E+00 0. -1.
</event>
<event>
 4    1  0.3586324E+003  0.2678540E+02  0.7546771E-02  0.1449776E+00
          2   -1    0    0  502    0  0.00000000000E+00  0.00000000000E+00  0.15876272054E+03  0.15876272054E+03  0.00000000000E+00 0. -1.
          1   -1    0    0  501    0 -0.00000000000E+00 -0.00000000000E+00 -0.23656354424E+02  0.23656354424E+02  0.00000000000E+00 0.  1.
          2    1    1    2  501    0 -0.10291940084E+02  0.24729211196E+02  0.14958959139E+03  0.15196875919E+03  0.00000000000E+00 0. -1.
          1    1    1    2  502    0  0.10291940084E+02 -0.24729211196E+02 -0.14483225267E+02  0.30450315782E+02  0.00000000000E+00 0.  1.
</event>
<event>
 4    1  0.3668020E+003  0.2669472E+02  0.7546771E-02  0.1450699E+00
          2   -1    0    0  502    0  0.00000000000E+00  0.00000000000E+00  0.90342985018E+03  0.90342985018E+03  0.00000000000E+00 0. -1.
          1   -1    0    0  501    0 -0.00000000000E+00 -0.00000000000E+00 -0.19007878789E+04  0.19007878789E+04  0.00000000000E+00 0. -1.
          2    1    1    2  501    0 -0.17261795661E+02  0.20362671890E+02  0.90313889948E+03  0.90353333074E+03  0.00000000000E+00 0. -1.
          1    1    1    2  502    0  0.17261795661E+02 -0.20362671890E+02 -0.19004969282E+04  0.19006843983E+04  0.00000000000E+00 0. -1.
</event>
<event>
 4    1  0.3586324E+003  0.2041845E+02  0.7546771E-02  0.1527732E+00
          2   -1    0    0  502    0  0.00000000000E+00  0.00000000000E+00  0.11710254154E+02  0.11710254154E+02  0.00000000000E+00 0.  1.
          1   -1    0    0  501    0 -0.00000000000E+00 -0.00000000000E+00 -0.29663611099E+03  0.29663611099E+03  0.00000000000E+00 0. -1.
          2    1    1    2  501    0 -0.77066299515E+01  0.18908225056E+02  0.21626567959E+01  0.20532661892E+02  0.00000000000E+00 0.  1.
          1    1    1    2  502    0  0.77066299515E+01 -0.18908225056E+02 -0.28708851364E+03  0.28781370326E+03  0.00000000000E+00 0. -1.
</event>
<event>
 4    1  0.3586324E+003  0.3946543E+02  0.7546771E-02  0.1351647E+00
          2   -1    0    0  502    0  0.00000000000E+00  0.00000000000E+00  0.13812711923E+03  0.13812711923E+03  0.00000000000E+00 0.  1.
          1   -1    0    0  501    0 -0.00000000000E+00 -0.00000000000E+00 -0.36139033066E+02  0.36139033066E+02  0.00000000000E+00 0.  1.
          2    1    1    2  501    0  0.92597416107E+01  0.38363750037E+02  0.12326634977E+03  0.12942995449E+03  0.00000000000E+00 0.  1.
          1    1    1    2  502    0 -0.92597416107E+01 -0.38363750037E+02 -0.21278263611E+02  0.44836197808E+02  0.00000000000E+00 0.  1.
</event>
<event>
 4    1  0.3586324E+003  0.2842137E+02  0.7546771E-02  0.1433830E+00
          2   -1    0    0  502    0  0.00000000000E+00  0.00000000000E+00  0.41869859876E+02  0.41869859876E+02  0.00000000000E+00 0. -1.
          1   -1    0    0  501    0 -0.00000000000E+00 -0.00000000000E+00 -0.15227564603E+03  0.15227564603E+03  0.00000000000E+00 0. -1.
          2    1    1    2  501    0  0.42664461332E+01 -0.28099315027E+02  0.35512383786E+02  0.45485200558E+02  0.00000000000E+00 0. -1.
          1    1    1    2  502    0 -0.42664461332E+01  0.28099315027E+02 -0.14591816994E+03  0.14866030535E+03  0.00000000000E+00 0. -1.
</event>
<event>
 4    1  0.3586324E+003  0.3343554E+02  0.7546771E-02  0.1391908E+00
          2   -1    0    0  502    0  0.00000000000E+00  0.00000000000E+00  0.18862259927E+02  0.18862259927E+02  0.00000000000E+00 0. -1.
          1   -1    0    0  501    0 -0.00000000000E+00 -0.00000000000E+00 -0.51760424849E+03  0.51760424849E+03  0.00000000000E+00 0. -1.
          2    1    1    2  501    0 -0.31730401738E+02 -0.10541196136E+02  0.30384697502E+01  0.33573315428E+02  0.00000000000E+00 0. -1.
          1    1    1    2  502    0  0.31730401738E+02  0.10541196136E+02 -0.50178045831E+03  0.50289319299E+03  0.00000000000E+00 0. -1.
</event>
<event>
 4    1  0.3586324E+003  0.4221640E+02  0.7546771E-02  0.1335965E+00
          2   -1    0    0  502    0  0.00000000000E+00  0.00000000000E+00  0.78648944735E+03  0.78648944735E+03  0.00000000000E+00 0.  1.
          1   -1    0    0  501    0 -0.00000000000E+00 -0.00000000000E+00 -0.28144189710E+02  0.28144189710E+02  0.00000000000E+00 0. -1.
          2    1    1    2  501    0  0.24136236600E+00 -0.42215707346E+02  0.76974767877E+03  0.77090447734E+03  0.00000000000E+00 0.  1.
          1    1    1    2  502    0 -0.24136236600E+00  0.42215707346E+02 -0.11402421131E+02  0.43729159724E+02  0.00000000000E+00 0. -1.
</event>
<event>
 4    1  0.3586324E+003  0.3108207E+02  0.7546771E-02  0.1410421E+00
          2   -1    0    0  502    0  0.00000000000E+00  0.00000000000E+00  0.10498592563E+02  0.10498592563E+02  0.00000000000E+00 0.  1.
          1   -1    0    0  501    0 -0.00000000000E+00 -0.00000000000E+00 -0.11190249719E+03  0.11190249719E+03  0.00000000000E+00 0.  1.
          2    1    1    2  501    0  0.14813888987E+02 -0.27324778086E+02 -0.24905738346E+02  0.39829519291E+02  0.00000000000E+00 0.  1.
          1    1    1    2  502    0 -0.14813888987E+02  0.27324778086E+02 -0.76498166279E+02  0.82571570461E+02  0.00000000000E+00 0.  1.
</event>
<event>
 4    1  0.3586324E+003  0.2415972E+02  0.7546771E-02  0.1478427E+00
          2   -1    0    0  502    0  0.00000000000E+00  0.00000000000E+00  0.68350319142E+03  0.68350319142E+03  0.00000000000E+00 0.  1.
          1   -1    0    0  501    0 -0.00000000000E+00 -0.00000000000E+00 -0.11353788952E+01  0.11353788952E+01  0.00000000000E+00 0.  1.
          2    1    1    2  501    0  0.65799178632E+00 -0.24150756409E+02  0.51160721843E+03  0.51217735008E+03  0.00000000000E+00 0.  1.
          1    1    1    2  502    0 -0.65799178632E+00  0.24150756409E+02  0.17076059409E+03  0.17246122023E+03  0.00000000000E+00 0.  1.
</event>
<event>
 4    1  0.3586324E+003  0.3881749E+02  0.7546771E-02  0.1355558E+00
          2   -1    0    0  502    0  0.00000000000E+00  0.00000000000E+00  0.23297345396E+01  0.23297345396E+01  0.00000000000E+00 0. -1.
          1   -1    0    0  501    0 -0.00000000000E+00 -0.00000000000E+00 -0.10535827673E+04  0.10535827673E+04  0.00000000000E+00 0. -1.
          2    1    1    2  501    0  0.19942468288E+02 -0.33303085152E+02 -0.19755991954E+03  0.20133732722E+03  0.00000000000E+00 0. -1.
          1    1    1    2  502    0 -0.19942468288E+02  0.33303085152E+02 -0.85369311319E+03  0.85457517459E+03  0.00000000000E+00 0. -1.
</event>
<event>
 4    1  0.3586324E+003  0.2795045E+02  0.7546771E-02  0.1438287E+00
          2   -1    0    0  502    0  0.00000000000E+00  0.00000000000E+00  0.13057094942E+02  0.13057094942E+02  0.00000000000E+00 0.  1.
          1   -1    0    0  501    0 -0.00000000000E+00 -0.00000000000E+00 -0.94946833845E+02  0.94946833845E+02  0.00000000000E+00 0. -1.
          2    1    1    2  501    0 -0.27789575811E+02  0.29945144651E+01 -0.81038418637E+01  0.29101544523E+02  0.00000000000E+00 0.  1.
          1    1    1    2  502    0  0.27789575811E+02 -0.29945144651E+01 -0.73785897039E+02  0.78902384264E+02  0.00000000000E+00 0. -1.
</event>
<event>
 4    1  0.3586324E+003  0.1279476E+03  0.7546771E-02  0.1122639E+00
          2   -1    0    0  502    0  0.00000000000E+00  0.00000000000E+00  0.20024757827E+03  0.20024757827E+03  0.00000000000E+00 0. -1.
          1   -1    0    0  501    0 -0.00000000000E+00 -0.00000000000E+00 -0.46253202625E+03  0.46253202625E+03  0.00000000000E+00 0. -1.
          2    1    1    2  501    0  0.12507274041E+03  0.26970475363E+02  0.16953839647E+03  0.21240024673E+03  0.00000000000E+00 0. -1.
          1    1    1    2  502    0 -0.12507274041E+03 -0.26970475363E+02 -0.43182284445E+03  0.45037935779E+03  0.00000000000E+00 0. -1.
</event>
<event>
 4    1  0.3586324E+003  0.2405228E+02  0.7546771E-02  0.1479691E+00
          2   -1    0    0  502    0  0.00000000000E+00  0.00000000000E+00  0.16177045449E+01  0.16177045449E+01  0.00000000000E+00 0.  1.
          1   -1    0    0  501    0 -0.00000000000E+00 -0.00000000000E+00 -0.44129685370E+03  0.44129685370E+03  0.00000000000E+00 0.  1.
          2    1    1    2  501    0  0.55687827918E+01  0.23398738719E+02 -0.12340224955E+03  0.12572441095E+03  0.00000000000E+00 0.  1.
          1    1    1    2  502    0 -0.55687827918E+01 -0.23398738719E+02 -0.31627689961E+03  0.31719014729E+03  0.00000000000E+00 0.  1.
</event>
<event>
 4    1  0.3586324E+003  0.2252122E+02  0.7546771E-02  0.1498599E+00
          2   -1    0    0  502    0  0.00000000000E+00  0.00000000000E+00  0.78567379560E+03  0.78567379560E+03  0.00000000000E+00 0.  1.
          1   -1    0    0  501    0 -0.00000000000E+00 -0.00000000000E+00 -0.65894516933E+00  0.65894516933E+00  0.00000000000E+00 0.  1.
          2    1    1    2  501    0 -0.12267476380E+02  0.18886871293E+02  0.33648601739E+03  0.33723885420E+03  0.00000000000E+00 0.  1.
          1    1    1    2  502    0  0.12267476380E+02 -0.18886871293E+02  0.44852883305E+03  0.44909388657E+03  0.00000000000E+00 0.  1.
</event>
<event>
 4    1  0.3586324E+003  0.2005392E+02  0.7546771E-02  0.1533213E+00
          2   -1    0    0  502    0  0.00000000000E+00  0.00000000000E+00  0.40675174633E+01  0.40675174633E+01  0.00000000000E+00 0.  1.
          1   -1    0    0  501    0 -0.00000000000E+00 -0.00000000000E+00 -0.11326236790E+04  0.11326236790E+04  0.00000000000E+00 0.  1.
          2    1    1    2  501    0  0.13788483504E+02 -0.14561509277E+02 -0.21305385797E+02  0.29258832747E+02  0.00000000000E+00 0.  1.
          1    1    1    2  502    0 -0.13788483504E+02  0.14561509277E+02 -0.11072507757E+04  0.11074323637E+04  0.00000000000E+00 0.  1.
</event>
<event>
 4    1  0.3586324E+003  0.2475276E+02  0.7546771E-02  0.1471588E+00
          2   -1    0    0  502    0  0.00000000000E+00  0.00000000000E+00  0.27273510387E+03  0.27273510387E+03  0.00000000000E+00 0. -1.
          1   -1    0    0  501    0 -0.00000000000E+00 -0.00000000000E+00 -0.66078819966E+01  0.66078819966E+01  0.00000000000E+00 0. -1.
          2    1    1    2  501    0 -0.24708984440E+02 -0.14714893985E+01  0.24653561860E+03  0.24777512069E+03  0.00000000000E+00 0. -1.
          1    1    1    2  502    0  0.24708984440E+02  0.14714893985E+01  0.19591603271E+02  0.31567865177E+02  0.00000000000E+00 0. -1.
</event>
<event>
 4    1  0.3586324E+003  0.2556626E+02  0.7546771E-02  0.1462567E+00
          2   -1    0    0  502    0  0.00000000000E+00  0.00000000000E+00  0.72701105067E+00  0.72701105067E+00  0.00000000000E+00 0. -1.
          1   -1    0    0  501    0 -0.00000000000E+00 -0.00000000000E+00 -0.89959069809E+03  0.89959069809E+03  0.00000000000E+00 0. -1.
          2    1    1    2  501    0  0.24421323012E+02 -0.75652325962E+01 -0.43860074035E+03  0.43934524374E+03  0.00000000000E+00 0. -1.
          1    1    1    2  502    0 -0.24421323012E+02  0.75652325962E+01 -0.46026294670E+03  0.46097246541E+03  0.00000000000E+00 0. -1.
</event>
<event>
 4    1  0.3586324E+003  0.2006803E+02  0.7546771E-02  0.1532998E+00
          2   -1    0    0  502    0  0.00000000000E+00  0.00000000000E+00  0.44637336448E+02  0.44637336448E+02  0.00000000000E+00 0. -1.
          1   -1    0    0  501    0 -0.00000000000E+00 -0.00000000000E+00 -0.59761447991E+02  0.59761447991E+02  0.00000000000E+00 0.  1.
          2    1    1    2  501    0 -0.20048506204E+02  0.88504890076E+00  0.40535942861E+02  0.45231499823E+02  0.00000000000E+00 0. -1.
          1    1    1    2  502    0  0.20048506204E+02 -0.88504890076E+00 -0.55660054404E+02  0.59167284616E+02  0.00000000000E+00 0.  1.
</event>
<event>
 4    1  0.3586324E+003  0.3392604E+02  0.7546771E-02  0.1388275E+00
          2   -1    0    0  502    0  0.00000000000E+00  0.00000000000E+00  0.16217864388E+02  0.16217864388E+02  0.00000000000E+00 0.  1.
          1   -1    0    0  501    0 -0.00000000000E+00 -0.00000000000E+00 -0.13765872866E+04  0.13765872866E+04  0.00000000000E+00 0. -1.
          2    1    1    2  501    0 -0.33258481876E+02 -0.66969657468E+01 -0.19711062579E+01  0.33983249209E+02  0.00000000000E+00 0.  1.
          1    1    1    2  502    0  0.33258481876E+02  0.66969657468E+01 -0.13583983159E+04  0.13588219017E+04  0.00000000000E+00 0. -1.
</event>
<event>
 4    1  0.3586324E+003  0.2904255E+02  0.7546771E-02  0.1428103E+00
          2   -1    0    0  502    0  0.00000000000E+00  0.00000000000E+00  0.65520818445E+01  0.65520818445E+01  0.00000000000E+00 0.  1.
          1   -1    0    0  501    0 -0.00000000000E+00 -0.00000000000E+00 -0.13565029782E+03  0.13565029782E+03  0.00000000000E+00 0.  1.
          2    1    1    2  501    0  0.20638170373E+01 -0.28969126092E+02 -0.48493285840E+02  0.56524935904E+02  0.00000000000E+00 0.  1.
          1    1    1    2  502    0 -0.20638170373E+01  0.28969126092E+02 -0.80604930139E+02  0.85677443765E+02  0.00000000000E+00 0.  1.
</event>
<event>
 4    1  0.3586324E+003  0.2879048E+02  0.7546771E-02  0.1430406E+00
          2   -1    0    0  502    0  0.00000000000E+00  0.00000000000E+00  0.67437482750E+02  0.67437482750E+02  0.00000000000E+00 0. -1.
          1   -1    0    0  501    0 -0.00000000000E+00 -0.00000000000E+00 -0.11356508794E+03  0.11356508794E+03  0.00000000000E+00 0. -1.
          2    1    1    2  501    0 -0.18430124232E+02 -0.22118374991E+02  0.62399747285E+02  0.68721324585E+02  0.00000000000E+00 0. -1.
          1    1    1    2  502    0  0.18430124232E+02  0.22118374991E+02 -0.10852735247E+03  0.11228124610E+03  0.00000000000E+00 0. -1.
</event>
<event>
 4    1  0.3586324E+003  0.2493100E+02  0.7546771E-02  0.1469577E+00
          2   -1    0    0  502    0  0.00000000000E+00  0.00000000000E+00  0.45300917346E+03  0.45300917346E+03  0.00000000000E+00 0.  1.
          1   -1    0    0  501    0 -0.00000000000E+00 -0.00000000000E+00 -0.75472579589E+01  0.75472579589E+01  0.00000000000E+00 0.  1.
          2    1    1    2  501    0  0.20166119136E+02  0.14658876084E+02  0.43102831488E+03  0.43174872696E+03  0.00000000000E+00 0.  1.
          1    1    1    2  502    0 -0.20166119136E+02 -0.14658876084E+02  0.14433600627E+02  0.28807704458E+02  0.00000000000E+00 0.  1.
</event>
<event>
 4    1  0.3586324E+003  0.2502077E+02  0.7546771E-02  0.1468571E+00
          2   -1    0    0  502    0  0.00000000000E+00  0.00000000000E+00  0.28911491021E+03  0.28911491021E+03  0.00000000000E+00 0. -1.
          1   -1    0    0  501    0 -0.00000000000E+00 -0.00000000000E+00 -0.12963056204E+03  0.12963056204E+03  0.00000000000E+00 0.  1.
          2    1    1    2  501    0  0.11390392176E+02  0.22277741054E+02  0.28735885337E+03  0.28844609443E+03  0.00000000000E+00 0. -1.
          1    1    1    2  502    0 -0.11390392176E+02 -0.22277741054E+02 -0.12787450520E+03  0.13029937783E+03  0.00000000000E+00 0.  1.
</event>
<event>
 4    1  0.3586324E+003  0.2313093E+02  0.7546771E-02  0.1490861E+00
          2   -1    0    0  502    0  0.00000000000E+00  0.00000000000E+00  0.27379567297E+03  0.27379567297E+03  0.00000000000E+00 0.  1.
          1   -1    0    0  501    0 -0.00000000000E+00 -0.00000000000E+00 -0.14211782747E+02  0.14211782747E+02  0.00000000000E+00 0.  1.
          2    1    1    2  501    0  0.23078556936E+02 -0.15557230651E+01  0.26352926388E+03  0.26454245970E+03  0.00000000000E+00 0.  1.
          1    1    1    2  502    0 -0.23078556936E+02  0.15557230651E+01 -0.39453736592E+01  0.23464996011E+02  0.00000000000E+00 0.  1.
</event>
<event>
 4    1  0.3586324E+003  0.2526984E+02  0.7546771E-02  0.1465807E+00
          2   -1    0    0  502    0  0.00000000000E+00  0.00000000000E+00  0.43687763010E+02  0.43687763010E+02  0.00000000000E+00 0.  1.
          1   -1    0    0  501    0 -0.00000000000E+00 -0.00000000000E+00 -0.91373794003E+02  0.91373794003E+02  0.00000000000E+00 0. -1.
          2    1    1    2  501    0  0.24651085100E+02  0.55577622847E+01  0.38051275355E+02  0.45677831323E+02  0.00000000000E+00 0.  1.
          1    1    1    2  502    0 -0.24651085100E+02 -0.55577622847E+01 -0.85737306348E+02  0.89383725689E+02  0.00000000000E+00 0. -1.
</event>
<event>
 4    1  0.3586324E+003  0.2118189E+02  0.7546771E-02  0.1516684E+00
          2   -1    0    0  502    0  0.00000000000E+00  0.00000000000E+00  0.66569720723E+03  0.66569720723E+03  0.00000000000E+00 0. -1.
          1   -1    0    0  501    0 -0.00000000000E+00 -0.00000000000E+00 -0.44943028144E+01  0.44943028144E+01  0.00000000000E+00 0. -1.
          2    1    1    2  501    0  0.10106661999E+02 -0.18615254619E+02  0.63955081493E+03  0.63990149023E+03  0.00000000000E+00 0. -1.
          1    1    1    2  502    0 -0.10106661999E+02  0.18615254619E+02  0.21652089487E+02  0.30290019816E+02  0.00000000000E+00 0. -1.
</event>
<event>
 4    1  0.3586324E+003  0.2098538E+02  0.7546771E-02  0.1519474E+00
          2   -1    0    0  502    0  0.00000000000E+00  0.00000000000E+00  0.51941104095E+03  0.51941104095E+03  0.00000000000E+00 0. -1.
          1   -1    0    0  501    0 -0.00000000000E+00 -0.00000000000E+00 -0.23263082745E+02  0.23263082745E+02  0.00000000000E+00 0. -1.
          2    1    1    2  501    0  0.19411987946E+02  0.79725173481E+01  0.51442050925E+03  0.51484837248E+03  0.00000000000E+00 0. -1.
          1    1    1    2  502    0 -0.19411987946E+02 -0.79725173481E+01 -0.18272551046E+02  0.27825751214E+02  0.00000000000E+00 0. -1.
</event>
<event>
 4    1  0.3586324E+003  0.2478031E+02  0.7546771E-02  0.1471276E+00
          2   -1    0    0  502    0  0.00000000000E+00  0.00000000000E+00  0.13283055501E+03  0.13283055501E+03  0.00000000000E+00 0. -1.
          1   -1    0    0  501    0 -0.00000000000E+00 -0.00000000000E+00 -0.69641941389E+01  0.69641941389E+01  0.00000000000E+00 0. -1.
          2    1    1    2  501    0  0.94913388717E+01 -0.22890567118E+02  0.10346093825E+03  0.10638716708E+03  0.00000000000E+00 0. -1.
          1    1    1    2  502    0 -0.94913388717E+01  0.22890567118E+02  0.22405422621E+02  0.33407582064E+02  0.00000000000E+00 0. -1.
</event>
<event>
 4    1  0.3586324E+003  0.2012124E+02  0.7546771E-02  0.1532190E+00
          2   -1    0    0  502    0  0.00000000000E+00  0.00000000000E+00  0.89324454661E+03  0.89324454661E+03  0.00000000000E+00 0.  1.
          1   -1    0    0  501    0 -0.00000000000E+00 -0.00000000000E+00 -0.64585147777E+02  0.64585147777E+02  0.00000000000E+00 0.  1.
          2    1    1    2  501    0 -0.16016258624E+02 -0.12179641324E+02  0.89156110281E+03  0.89178812744E+03  0.00000000000E+00 0.  1.
          1    1    1    2  502    0  0.16016258624E+02  0.12179641324E+02 -0.62901703970E+02  0.66041566952E+02  0.00000000000E+00 0.  1.
</event>
<event>
 4    1  0.3586324E+003  0.2164558E+02  0.7546771E-02  0.1510244E+00
          2   -1    0    0  502    0  0.00000000000E+00  0.00000000000E+00  0.50235688830E+00  0.50235688830E+00  0.00000000000E+00 0. -1.
          1   -1    0    0  501    0 -0.00000000000E+00 -0.00000000000E+00 -0.14706314141E+04  0.14706314141E+04  0.00000000000E+00 0.  1.
          2    1    1    2  501    0  0.21257353728E+02  0.40811684398E+01 -0.29017973503E+03  0.29098592688E+03  0.00000000000E+00 0. -1.
          1    1    1    2  502    0 -0.21257353728E+02 -0.40811684398E+01 -0.11799493222E+04  0.11801478441E+04  0.00000000000E+00 0.  1.
</event>
<event>
 4    1  0.3586324E+003  0.2797677E+02  0.7546771E-02  0.1438035E+00
          2   -1    0    0  502    0  0.00000000000E+00  0.00000000000E+00  0.17955211852E+04  0.17955211852E+04  0.00000000000E+00 0.  1.
          1   -1    0    0  501    0 -0.00000000000E+00 -0.00000000000E+00 -0.53511540529E+00  0.53511540529E+00  0.00000000000E+00 0. -1.
          2    1    1    2  501    0 -0.27877515381E+02 -0.23544071159E+01  0.51084350542E+03  0.51160901685E+03  0.00000000000E+00 0.  1.
          1    1    1    2  502    0  0.27877515381E+02  0.23544071159E+01  0.12841425644E+04  0.12844472837E+04  0.00000000000E+00 0. -1.
</event>
<event>
 4    1  0.3586324E+003  0.2367350E+02  0.7546771E-02  0.1484210E+00
          2   -1    0    0  502    0  0.00000000000E+00  0.00000000000E+00  0.28440955675E+02  0.28440955675E+02  0.00000000000E+00 0.  1.
          1   -1    0    0  501    0 -0.00000000000E+00 -0.00000000000E+00 -0.13595861385E+03  0.13595861385E+03  0.00000000000E+00 0. -1.
          2    1    1    2  501    0 -0.22734770362E+02  0.66003543195E+01  0.22251076106E+02  0.32489149703E+02  0.00000000000E+00 0.  1.
          1    1    1    2  502    0  0.22734770362E+02 -0.66003543195E+01 -0.12976873429E+03  0.13191041983E+03  0.00000000000E+00 0. -1.
</event>
<event>
 4    1  0.3586324E+003  0.2292012E+02  0.7546771E-02  0.1493504E+00
          2   -1    0    0  502    0  0.00000000000E+00  0.00000000000E+00  0.28965226458E+02  0.28965226458E+02  0.00000000000E+00 0.  1.
          1   -1    0    0  501    0 -0.00000000000E+00 -0.00000000000E+00 -0.30500114166E+03  0.30500114166E+03  0.00000000000E+00 0.  1.
          2    1    1    2  501    0 -0.15734517744E+02  0.16666040362E+02  0.23924381696E+02  0.33131676527E+02  0.00000000000E+00 0.  1.
          1    1    1    2  502    0  0.15734517744E+02 -0.16666040362E+02 -0.29996029690E+03  0.30083469159E+03  0.00000000000E+00 0.  1.
</event>
<event>
 4    1  0.3586324E+003  0.2058335E+02  0.7546771E-02  0.1525297E+00
          2   -1    0    0  502    0  0.00000000000E+00  0.00000000000E+00  0.12505660740E+04  0.12505660740E+04  0.00000000000E+00 0. -1.
          1   -1    0    0  501    0 -0.00000000000E+00 -0.00000000000E+00 -0.52616243084E+01  0.52616243084E+01  0.00000000000E+00 0. -1.
          2    1    1    2  501    0  0.18779833823E+02 -0.84256877742E+01  0.12300146586E+04  0.12301868699E+04  0.00000000000E+00 0. -1.
          1    1    1    2  502    0 -0.18779833823E+02  0.84256877742E+01  0.15289791108E+02  0.25640828477E+02  0.00000000000E+00 0. -1.
</event>
<event>
 4    1  0.3586324E+003  0.2767328E+02  0.7546771E-02  0.1440960E+00
          2   -1    0    0  502    0  0.00000000000E+00  0.00000000000E+00  0.47253507261E+03  0.47253507261E+03  0.00000000000E+00 0.  1.
          1   -1    0    0  501    0 -0.00000000000E+00 -0.00000000000E+00 -0.16243777834E+01  0.16243777834E+01  0.00000000000E+00 0.  1.
          2    1    1    2  501    0 -0.24711258781E+02 -0.12456491146E+02  0.24682390054E+03  0.24837038544E+03  0.00000000000E+00 0.  1.
          1    1    1    2  502    0  0.24711258781E+02  0.12456491146E+02  0.22408679428E+03  0.22578906496E+03  0.00000000000E+00 0.  1.
</event>
<event>
 4    1  0.3586324E+003  0.3229564E+02  0.7546771E-02  0.1400642E+00
          2   -1    0    0  502    0  0.00000000000E+00  0.00000000000E+00  0.81562397480E+03  0.81562397480E+03  0.00000000000E+00 0.  1.
          1   -1    0    0  501    0 -0.00000000000E+00 -0.00000000000E+00 -0.14835808750E+01  0.14835808750E+01  0.00000000000E+00 0.  1.
          2    1    1    2  501    0  0.23756098524E+02 -0.21878211889E+02  0.55886375878E+03  0.55979613187E+03  0.00000000000E+00 0.  1.
          1    1    1    2  502    0 -0.23756098524E+02  0.21878211889E+02  0.25527663514E+03  0.25731142381E+03  0.00000000000E+00 0.  1.
</event>
<event>
 4    1  0.3586324E+003  0.3129749E+02  0.7546771E-02  0.1408647E+00
          2   -1    0    0  502    0  0.00000000000E+00  0.00000000000E+00  0.12975512123E+02  0.12975512123E+02  0.00000000000E+00 0.  1.
          1   -1    0    0  501    0 -0.00000000000E+00 -0.00000000000E+00 -0.67023596447E+03  0.67023596447E+03  0.00000000000E+00 0. -1.
          2    1    1    2  501    0  0.31094343904E+02  0.35601306916E+01 -0.68371272784E+01  0.32035590564E+02  0.00000000000E+00 0.  1.
          1    1    1    2  502    0 -0.31094343904E+02 -0.35601306916E+01 -0.65042332506E+03  0.65117588603E+03  0.00000000000E+00 0. -1.
</event>
<event>
 4    1  0.3586324E+003  0.2232739E+02  0.7546771E-02  0.1501121E+00
          2   -1    0    0  502    0  0.00000000000E+00  0.00000000000E+00  0.43341193257E+03  0.43341193257E+03  0.00000000000E+00 0. -1.
          1   -1    0    0  501    0 -0.00000000000E+00 -0.00000000000E+00 -0.15899479325E+01  0.15899479325E+01  0.00000000000E+00 0. -1.
          2    1    1    2  501    0 -0.13709320862E+02 -0.17622910362E+02  0.33029604136E+03  0.33104982614E+03  0.00000000000E+00 0. -1.
          1    1    1    2  502    0  0.13709320862E+02  0.17622910362E+02  0.10152594327E+03  0.10395205436E+03  0.00000000000E+00 0. -1.
</event>
<event>
 4    1  0.3586324E+003  0.2509954E+02  0.7546771E-02  0.1467693E+00
          2   -1    0    0  502    0  0.00000000000E+00  0.00000000000E+00  0.39052632904E+03  0.39052632904E+03  0.00000000000E+00 0.  1.
          1   -1    0    0  501    0 -0.00000000000E+00 -0.00000000000E+00 -0.21684081124E+01  0.21684081124E+01  0.00000000000E+00 0.  1.
          2    1    1    2  501    0  0.22634202792E+02 -0.10848031419E+02  0.29353462728E+03  0.29460577784E+03  0.00000000000E+00 0.  1.
          1    1    1    2  502    0 -0.22634202792E+02  0.10848031419E+02  0.94823293651E+02  0.98088959320E+02  0.00000000000E+00 0.  1.
</event>
<event>
 4    1  0.3586324E+003  0.2011100E+02  0.7546771E-02  0.1532346E+00
          2   -1    0    0  502    0  0.00000000000E+00  0.00000000000E+00  0.38716030291E+03  0.38716030291E+03  0.00000000000E+00 0. -1.
          1   -1    0    0  501    0 -0.00000000000E+00 -0.00000000000E+00 -0.10836460058E+01  0.10836460058E+01  0.00000000000E+00 0. -1.
          2    1    1    2  501    0 -0.19977079156E+02 -0.23170404847E+01  0.22985664883E+03  0.23073476413E+03  0.00000000000E+00 0. -1.
          1    1    1    2  502    0  0.19977079156E+02  0.23170404847E+01  0.15622000808E+03  0.15750918478E+03  0.00000000000E+00 0. -1.
</event>
<event>
 4    1  0.3586324E+003  0.2604469E+02  0.7546771E-02  0.1457448E+00
          2   -1    0    0  502    0  0.00000000000E+00  0.00000000000E+00  0.50084196291E+03  0.50084196291E+03  0.00000000000E+00 0. -1.
          1   -1    0    0  501    0 -0.00000000000E+00 -0.00000000000E+00 -0.15313774530E+01  0.15313774530E+01  0.00000000000E+00 0. -1.
          2    1    1    2  501    0 -0.16007625828E+02  0.20544633888E+02  0.33505363411E+03  0.33606437449E+03  0.00000000000E+00 0. -1.
          1    1    1    2  502    0  0.16007625828E+02 -0.20544633888E+02  0.16425695134E+03  0.16630896588E+03  0.00000000000E+00 0. -1.
</event>
<event>
 4    1  0.3586324E+003  0.2842077E+02  0.7546771E-02  0.1433836E+00
          2   -1    0    0  502    0  0.00000000000E+00  0.00000000000E+00  0.14323431517E+03  0.14323431517E+03  0.00000000000E+00 0. -1.
          1   -1    0    0  501    0 -0.00000000000E+00 -0.00000000000E+00 -0.11057067762E+02  0.11057067762E+02  0.00000000000E+00 0. -1.
          2    1    1    2  501    0  0.28376297725E+02 -0.15893222058E+01  0.12008967046E+03  0.12340692513E+03  0.00000000000E+00 0. -1.
          1    1    1    2  502    0 -0.28376297725E+02  0.15893222058E+01  0.12087576950E+02  0.30884457809E+02  0.00000000000E+00 0. -1.
</event>
<event>
 4    1  0.3586324E+003  0.3549405E+02  0.7546771E-02  0.1377123E+00
          2   -1    0    0  502    0  0.00000000000E+00  0.00000000000E+00  0.54742704483E+03  0.54742704483E+03  0.00000000000E+00 0.  1.
          1   -1    0    0  501    0 -0.00000000000E+00 -0.00000000000E+00 -0.25724509751E+02  0.25724509751E+02  0.00000000000E+00 0.  1.
          2    1    1    2  501    0 -0.14210779443E+02  0.32525088135E+02  0.53430796073E+03  0.53548559692E+03  0.00000000000E+00 0.  1.
          1    1    1    2  502    0  0.14210779443E+02 -0.32525088135E+02 -0.12605425651E+02  0.37665957660E+02  0.00000000000E+00 0.  1.
</event>
<event>
 4    1  0.3586324E+003  0.2744971E+02  0.7546771E-02  0.1443142E+00
          2   -1    0    0  502    0  0.00000000000E+00  0.00000000000E+00  0.17864671238E+02  0.17864671238E+02  0.00000000000E+00 0.  1.
          1   -1    0    0  501    0 -0.00000000000E+00 -0.00000000000E+00 -0.58410609431E+03  0.58410609431E+03  0.00000000000E+00 0. -1.
          2    1    1    2  501    0  0.27422331497E+02 -0.12256143657E+01  0.67942222173E+01  0.28278045386E+02  0.00000000000E+00 0.  1.
          1    1    1    2  502    0 -0.27422331497E+02  0.12256143657E+01 -0.57303564529E+03  0.57369272016E+03  0.00000000000E+00 0. -1.
</event>
<event>
 4    1  0.3586324E+003  0.2144382E+02  0.7546771E-02  0.1513022E+00
          2   -1    0    0  502    0  0.00000000000E+00  0.00000000000E+00  0.10214756610E+04  0.10214756610E+04  0.00000000000E+00 0. -1.
          1   -1    0    0  501    0 -0.00000000000E+00 -0.00000000000E+00 -0.78902343392E+01  0.78902343392E+01  0.00000000000E+00 0. -1.
          2    1    1    2  501    0  0.21397734368E+02 -0.14051569054E+01  0.10065776699E+04  0.10068060603E+04  0.00000000000E+00 0. -1.
          1    1    1    2  502    0 -0.21397734368E+02  0.14051569054E+01  0.70077567455E+01  0.22559835031E+02  0.00000000000E+00 0. -1.
</event>
<event>
 4    1  0.3586324E+003  0.3235293E+02  0.7546771E-02  0.1400193E+00
          2   -1    0    0  502    0  0.00000000000E+00  0.00000000000E+00  0.18166362202E+03  0.18166362202E+03  0.00000000000E+00 0.  1.
          1   -1    0    0  501    0 -0.00000000000E+00 -0.00000000000E+00 -0.63595109553E+01  0.63595109553E+01  0.00000000000E+00 0.  1.
          2    1    1    2  501    0  0.82810036082E+01 -0.31275183894E+02  0.11647309603E+03  0.12088297749E+03  0.00000000000E+00 0.  1.
          1    1    1    2  502    0 -0.82810036082E+01  0.31275183894E+02  0.58831015030E+02  0.67140155480E+02  0.00000000000E+00 0.  1.
</event>
<event>
 4    1  0.3586324E+003  0.3057173E+02  0.7546771E-02  0.1414692E+00
          2   -1    0    0  502    0  0.00000000000E+00  0.00000000000E+00  0.20836635171E+03  0.20836635171E+03  0.00000000000E+00 0. -1.
          1   -1    0    0  501    0 -0.00000000000E+00 -0.00000000000E+00 -0.50876481142E+01  0.50876481142E+01  0.00000000000E+00 0. -1.
          2    1    1    2  501    0  0.23267368508E+02  0.19830786552E+02  0.13835589518E+03  0.14169327529E+03  0.00000000000E+00 0. -1.
          1    1    1    2  502    0 -0.23267368508E+02 -0.19830786552E+02  0.64922808423E+02  0.71760724537E+02  0.00000000000E+00 0. -1.
</event>
<event>
 4    1  0.3586324E+003  0.2186734E+02  0.7546771E-02  0.1507233E+00
          2   -1    0    0  502    0  0.00000000000E+00  0.00000000000E+00  0.45715128734E+01  0.45715128734E+01  0.00000000000E+00 0.  1.
          1   -1    0    0  501    0 -0.00000000000E+00 -0.00000000000E+00 -0.71070069834E+03  0.71070069834E+03  0.00000000000E+00 0.  1.
          2    1    1    2  501    0  0.14002150856E+02  0.16796433478E+02 -0.22793650319E+02  0.31586878621E+02  0.00000000000E+00 0.  1.
          1    1    1    2  502    0 -0.14002150856E+02 -0.16796433478E+02 -0.68333553514E+03  0.68368533259E+03  0.00000000000E+00 0.  1.
</event>
<event>
 4    1  0.3586324E+003  0.2853862E+02  0.7546771E-02  0.1432736E+00
          2   -1    0    0  502    0  0.00000000000E+00  0.00000000000E+00  0.21016661015E+03  0.21016661015E+03  0.00000000000E+00 0.  1.
          1   -1    0    0  501    0 -0.00000000000E+00 -0.00000000000E+00 -0.85195599519E+01  0.85195599519E+01  0.00000000000E+00 0. -1.
          2    1    1    2  501    0  0.27618376113E+02 -0.71887437743E+01  0.18155489472E+03  0.18378420099E+03  0.00000000000E+00 0.  1.
          1    1    1    2  502    0 -0.27618376113E+02  0.71887437743E+01  0.20092155476E+02  0.34901969112E+02  0.00000000000E+00 0. -1.
</event>
<event>
 4    1  0.3586324E+003  0.2314682E+02  0.7546771E-02  0.1490663E+00
          2   -1    0    0  502    0  0.00000000000E+00  0.00000000000E+00  0.27244402965E+03  0.27244402965E+03  0.00000000000E+00 0.  1.
          1   -1    0    0  501    0 -0.00000000000E+00 -0.00000000000E+00 -0.15528199242E+03  0.15528199242E+03  0.00000000000E+00 0. -1.
          2    1    1    2  501    0 -0.18427650484E+02 -0.14007035832E+02  0.27108549218E+03  0.27207190121E+03  0.00000000000E+00 0.  1.
          1    1    1    2  502    0  0.18427650484E+02  0.14007035832E+02 -0.15392345495E+03  0.15565412086E+03  0.00000000000E+00 0. -1.
</event>
<event>
 4    1  0.3586324E+003  0.3198866E+02  0.7546771E-02  0.1403067E+00
          2   -1    0    0  502    0  0.00000000000E+00  0.00000000000E+00  0.12793081819E+01  0.12793081819E+01  0.00000000000E+00 0. -1.
          1   -1    0    0  501    0 -0.00000000000E+00 -0.00000000000E+00 -0.11521703082E+04  0.11521703082E+04  0.00000000000E+00 0.  1.
          2    1    1    2  501    0  0.17473179303E+02  0.26794814095E+02 -0.25653429256E+03  0.25852101910E+03  0.00000000000E+00 0. -1.
          1    1    1    2  502    0 -0.17473179303E+02 -0.26794814095E+02 -0.89435670746E+03  0.89492859728E+03  0.00000000000E+00 0.  1.
</event>
<event>
 4    1  0.3586324E+003  0.3724336E+02  0.7546771E-02  0.1365443E+00
          2   -1    0    0  502    0  0.00000000000E+00  0.00000000000E+00  0.12830925549E+01  0.12830925549E+01  0.00000000000E+00 0. -1.
          1   -1    0    0  501    0 -0.00000000000E+00 -0.00000000000E+00 -0.10911652251E+04  0.10911652251E+04  0.00000000000E+00 0. -1.
          2    1    1    2  501    0 -0.13629449846E+02  0.34659860063E+02 -0.49231052635E+03  0.49371724920E+03  0.00000000000E+00 0. -1.
          1    1    1    2  502    0  0.13629449846E+02 -0.34659860063E+02 -0.59757160624E+03  0.59873106850E+03  0.00000000000E+00 0. -1.
</event>
<event>
 4    1  0.3586324E+003  0.2093568E+02  0.7546771E-02  0.1520185E+00
          2   -1    0    0  502    0  0.00000000000E+00  0.00000000000E+00  0.56407223408E+01  0.56407223408E+01  0.00000000000E+00 0. -1.
          1   -1    0    0  501    0 -0.00000000000E+00 -0.00000000000E+00 -0.14575202029E+04  0.14575202029E+04  0.00000000000E+00 0.  1.
          2    1    1    2  501    0  0.16890075722E+02  0.12370455922E+02 -0.14127363934E+02  0.25256390267E+02  0.00000000000E+00 0. -1.
          1    1    1    2  502    0 -0.16890075722E+02 -0.12370455922E+02 -0.14377521166E+04  0.14379045350E+04  0.00000000000E+00 0.  1.
</event>
<event>
 4    1  0.3586324E+003  0.5964001E+02  0.7546771E-02  0.1261061E+00
          2   -1    0    0  502    0  0.00000000000E+00  0.00000000000E+00  0.25755270801E+04  0.25755270801E+04  0.00000000000E+00 0.  1.
          1   -1    0    0  501    0 -0.00000000000E+00 -0.00000000000E+00 -0.20422916725E+01  0.20422916725E+01  0.00000000000E+00 0.  1.
          2    1    1    2  501    0  0.47807833772E+02 -0.35655875727E+02  0.20200762717E+04  0.20209564750E+04  0.00000000000E+00 0.  1.
          1    1    1    2  502    0 -0.47807833772E+02  0.35655875727E+02  0.55340851678E+03  0.55661289680E+03  0.00000000000E+00 0.  1.
</event>
<event>
 4    1  0.3586324E+003  0.3801432E+02  0.7546771E-02  0.1360532E+00
          2   -1    0    0  502    0  0.00000000000E+00  0.00000000000E+00  0.12595370510E+02  0.12595370510E+02  0.00000000000E+00 0.  1.
          1   -1    0    0  501    0 -0.00000000000E+00 -0.00000000000E+00 -0.18595682698E+04  0.18595682698E+04  0.00000000000E+00 0.  1.
          2    1    1    2  501    0 -0.35922984170E+02 -0.12434937309E+02 -0.16741546879E+02  0.41537547466E+02  0.00000000000E+00 0.  1.
          1    1    1    2  502    0  0.35922984170E+02  0.12434937309E+02 -0.18302313524E+04  0.18306260929E+04  0.00000000000E+00 0.  1.
</event>
<event>
 4    1  0.3586324E+003  0.2613222E+02  0.7546771E-02  0.1456525E+00
          2   -1    0    0  502    0  0.00000000000E+00  0.00000000000E+00  0.24598656208E+03  0.24598656208E+03  0.00000000000E+00 0. -1.
          1   -1    0    0  501    0 -0.00000000000E+00 -0.00000000000E+00 -0.47364849334E+02  0.47364849334E+02  0.00000000000E+00 0.  1.
          2    1    1    2  501    0  0.23615248811E+02  0.11189863405E+02  0.24162319626E+03  0.24303222418E+03  0.00000000000E+00 0. -1.
          1    1    1    2  502    0 -0.23615248811E+02 -0.11189863405E+02 -0.43001483513E+02  0.50319187233E+02  0.00000000000E+00 0.  1.
</event>
<event>
 4    1  0.3586324E+003  0.2235062E+02  0.7546771E-02  0.1500817E+00
          2   -1    0    0  502    0  0.00000000000E+00  0.00000000000E+00  0.12069151155E+01  0.12069151155E+01  0.00000000000E+00 0.  1.
          1   -1    0    0  501    0 -0.00000000000E+00 -0.00000000000E+00 -0.41429011447E+03  0.41429011447E+03  0.00000000000E+00 0. -1.
          2    1    1    2  501    0 -0.17558499858E+02 -0.13829290955E+02 -0.20022123733E+03  0.20146487059E+03  0.00000000000E+00 0.  1.
          1    1    1    2  502    0  0.17558499858E+02  0.13829290955E+02 -0.21286196203E+03  0.21403215900E+03  0.00000000000E+00 0. -1.
</event>
<event>
 4    1  0.3586324E+003  0.6882742E+02  0.7546771E-02  0.1232470E+00
          2   -1    0    0  502    0  0.00000000000E+00  0.00000000000E+00  0.33651927441E+03  0.33651927441E+03  0.00000000000E+00 0.  1.
          1   -1    0    0  501    0 -0.00000000000E+00 -0.00000000000E+00 -0.14351289867E+02  0.14351289867E+02  0.00000000000E+00 0. -1.
          2    1    1    2  501    0  0.28542945460E+02 -0.62629971775E+02  0.18533349112E+03  0.19770107746E+03  0.00000000000E+00 0.  1.
          1    1    1    2  502    0 -0.28542945460E+02  0.62629971775E+02  0.13683449342E+03  0.15316948681E+03  0.00000000000E+00 0. -1.
</event>
<event>
 4    1  0.3586324E+003  0.5244842E+02  0.7546771E-02  0.1287892E+00
          2   -1    0    0  502    0  0.00000000000E+00  0.00000000000E+00  0.69670567190E+02  0.69670567190E+02  0.00000000000E+00 0. -1.
          1   -1    0    0  501    0 -0.00000000000E+00 -0.00000000000E+00 -0.14774456555E+04  0.14774456555E+04  0.00000000000E+00 0. -1.
          2    1    1    2  501    0  0.39134008101E+02 -0.34919430186E+02  0.59264226714E+02  0.79139659859E+02  0.00000000000E+00 0. -1.
          1    1    1    2  502    0 -0.39134008101E+02  0.34919430186E+02 -0.14670393150E+04  0.14679765628E+04  0.00000000000E+00 0. -1.
</event>
<event>
 4    1  0.3586324E+003  0.2076434E+02  0.7546771E-02  0.1522656E+00
          2   -1    0    0  502    0  0.00000000000E+00  0.00000000000E+00  0.63121960580E+02  0.63121960580E+02  0.00000000000E+00 0. -1.
          1   -1    0    0  501    0 -0.00000000000E+00 -0.00000000000E+00 -0.81511606535E+03  0.81511606535E+03  0.00000000000E+00 0.  1.
          2    1    1    2  501    0  0.11691978559E+02 -0.17159700410E+02  0.61278214358E+02  0.64700674151E+02  0.00000000000E+00 0. -1.
          1    1    1    2  502    0 -0.11691978559E+02  0.17159700410E+02 -0.81327231913E+03  0.81353735178E+03  0.00000000000E+00 0.  1.
</event>
<event>
 4    1  0.3586324E+003  0.2122663E+02  0.7546771E-02  0.1516054E+00
          2   -1    0    0  502    0  0.00000000000E+00  0.00000000000E+00  0.32013562769E+01  0.32013562769E+01  0.00000000000E+00 0. -1.
          1   -1    0    0  501    0 -0.00000000000E+00 -0.00000000000E+00 -0.41877120802E+03  0.41877120802E+03  0.00000000000E+00 0. -1.
          2    1    1    2  501    0  0.18443004110E+02  0.10508353702E+02 -0.35871459274E+02  0.41681308623E+02  0.00000000000E+00 0. -1.
          1    1    1    2  502    0 -0.18443004110E+02 -0.10508353702E+02 -0.37969839247E+03  0.38029125568E+03  0.00000000000E+00 0. -1.
</event>
<event>
 4    1  0.3586324E+003  0.2459318E+02  0.7546771E-02  0.1473406E+00
          2   -1    0    0  502    0  0.00000000000E+00  0.00000000000E+00  0.14638916387E+04  0.14638916387E+04  0.00000000000E+00 0. -1.
          1   -1    0    0  501    0 -0.00000000000E+00 -0.00000000000E+00 -0.41969477385E+00  0.41969477385E+00  0.00000000000E+00 0. -1.
          2    1    1    2  501    0  0.84561085194E+01  0.23093680096E+02  0.64038812809E+03  0.64086018633E+03  0.00000000000E+00 0. -1.
          1    1    1    2  502    0 -0.84561085194E+01 -0.23093680096E+02  0.82308381584E+03  0.82345114714E+03  0.00000000000E+00 0. -1.
</event>
<event>
 4    1  0.3586324E+003  0.2964026E+02  0.7546771E-02  0.1422749E+00
          2   -1    0    0  502    0  0.00000000000E+00  0.00000000000E+00  0.58591386707E+03  0.58591386707E+03  0.00000000000E+00 0.  1.
          1   -1    0    0  501    0 -0.00000000000E+00 -0.00000000000E+00 -0.14138248905E+02  0.14138248905E+02  0.00000000000E+00 0. -1.
          2    1    1    2  501    0  0.29639995133E+02 -0.12593861475E+00  0.56955830324E+03  0.57032903307E+03  0.00000000000E+00 0.  1.
          1    1    1    2  502    0 -0.29639995133E+02  0.12593861475E+00  0.22173149261E+01  0.29723082907E+02  0.00000000000E+00 0. -1.
</event>
<event>
 4    1  0.3586324E+003  0.8618009E+02  0.7546771E-02  0.1190184E+00
          2   -1    0    0  502    0  0.00000000000E+00  0.00000000000E+00  0.14226553714E+04  0.14226553714E+04  0.00000000000E+00 0. -1.
          1   -1    0    0  501    0 -0.00000000000E+00 -0.00000000000E+00 -0.13783101803E+03  0.13783101803E+03  0.00000000000E+00 0. -1.
          2    1    1    2  501    0 -0.86172041623E+02 -0.11778359038E+01  0.14077363872E+04  0.14103718460E+04  0.00000000000E+00 0. -1.
          1    1    1    2  502    0  0.86172041623E+02  0.11778359038E+01 -0.12291203391E+03  0.15011454338E+03  0.00000000000E+00 0. -1.
</event>
<event>
 4    1  0.3586324E+003  0.2652722E+02  0.7546771E-02  0.1452416E+00
          2   -1    0    0  502    0  0.00000000000E+00  0.00000000000E+00  0.31268573826E+03  0.31268573826E+03  0.00000000000E+00 0. -1.
          1   -1    0    0  501    0 -0.00000000000E+00 -0.00000000000E+00 -0.15611185952E+02  0.15611185952E+02  0.00000000000E+00 0.  1.
          2    1    1    2  501    0 -0.43440937478E+01 -0.26169103890E+02  0.30039383876E+03  0.30156284836E+03  0.00000000000E+00 0. -1.
          1    1    1    2  502    0  0.43440937478E+01  0.26169103890E+02 -0.33192864508E+01  0.26734075848E+02  0.00000000000E+00 0.  1.
</event>
<event>
 4    1  0.3586324E+003  0.2211992E+02  0.7546771E-02  0.1503855E+00
          2   -1    0    0  502    0  0.00000000000E+00  0.00000000000E+00  0.22677557881E+03  0.22677557881E+03  0.00000000000E+00 0.  1.
          1   -1    0    0  501    0 -0.00000000000E+00 -0.00000000000E+00 -0.10546262849E+02  0.10546262849E+02  0.00000000000E+00 0.  1.
          2    1    1    2  501    0 -0.70727106331E+01 -0.20958713809E+02  0.21394368331E+03  0.21508414760E+03  0.00000000000E+00 0.  1.
          1    1    1    2  502    0  0.70727106331E+01  0.20958713809E+02  0.22856326452E+01  0.22237694054E+02  0.00000000000E+00 0.  1.
</event>
<event>
 4    1  0.3586324E+003  0.2054550E+02  0.7546771E-02  0.1525854E+00
          2   -1    0    0  502    0  0.00000000000E+00  0.00000000000E+00  0.19671106340E+02  0.19671106340E+02  0.00000000000E+00 0.  1.
          1   -1    0    0  501    0 -0.00000000000E+00 -0.00000000000E+00 -0.48854402300E+02  0.48854402300E+02  0.00000000000E+00 0.  1.
          2    1    1    2  501    0  0.20522244424E+02 -0.97726781183E+00  0.11065664057E+02  0.23335948440E+02  0.00000000000E+00 0.  1.
          1    1    1    2  502    0 -0.20522244424E+02  0.97726781183E+00 -0.40248960017E+02  0.45189560199E+02  0.00000000000E+00 0.  1.
</event>
<event>
 4    1  0.3586324E+003  0.2389506E+02  0.7546771E-02  0.1481555E+00
          2   -1    0    0  502    0  0.00000000000E+00  0.00000000000E+00  0.74091110242E+03  0.74091110242E+03  0.00000000000E+00 0. -1.
          1   -1    0    0  501    0 -0.00000000000E+00 -0.00000000000E+00 -0.71549159224E+01  0.71549159224E+01  0.00000000000E+00 0. -1.
          2    1    1    2  501    0 -0.74775075783E+01 -0.22694955459E+02  0.72019430235E+03  0.72059059616E+03  0.00000000000E+00 0. -1.
          1    1    1    2  502    0  0.74775075783E+01  0.22694955459E+02  0.13561884142E+02  0.27475422187E+02  0.00000000000E+00 0. -1.
</event>
<event>
 4    1  0.3586324E+003  0.2116242E+02  0.7546771E-02  0.1516958E+00
          2   -1    0    0  502    0  0.00000000000E+00  0.00000000000E+00  0.12792451431E+04  0.12792451431E+04  0.00000000000E+00 0. -1.
          1   -1    0    0  501    0 -0.00000000000E+00 -0.00000000000E+00 -0.17421985912E+02  0.17421985912E+02  0.00000000000E+00 0.  1.
          2    1    1    2  501    0 -0.18682449506E+01  0.21079790119E+02  0.12726980883E+04  0.12728740204E+04  0.00000000000E+00 0. -1.
          1    1    1    2  502    0  0.18682449506E+01 -0.21079790119E+02 -0.10874931101E+02  0.23793108605E+02  0.00000000000E+00 0.  1.
</event>
<event>
 4    1  0.3586324E+003  0.2118093E+02  0.7546771E-02  0.1516697E+00
          2   -1    0    0  502    0  0.00000000000E+00  0.00000000000E+00  0.44139556111E+02  0.44139556111E+02  0.00000000000E+00 0.  1.
          1   -1    0    0  501    0 -0.00000000000E+00 -0.00000000000E+00 -0.13647784195E+03  0.13647784195E+03  0.00000000000E+00 0. -1.
          2    1    1    2  501    0 -0.13692635329E+02 -0.16159942066E+02  0.40711711004E+02  0.45891997153E+02  0.00000000000E+00 0.  1.
          1    1    1    2  502    0  0.13692635329E+02  0.16159942066E+02 -0.13304999684E+03  0.13472540091E+03  0.00000000000E+00 0. -1.
</event>
<event>
 4    1  0.3586324E+003  0.2916796E+02  0.7546771E-02  0.1426967E+00
          2   -1    0    0  502    0  0.00000000000E+00  0.00000000000E+00  0.14363347144E+03  0.14363347144E+03  0.00000000000E+00 0. -1.
          1   -1    0    0  501    0 -0.00000000000E+00 -0.00000000000E+00 -0.16662375417E+04  0.16662375417E+04  0.00000000000E+00 0.  1.
          2    1    1    2  501    0  0.18769795237E-01 -0.29167955601E+02  0.14202359073E+03  0.14498782814E+03  0.00000000000E+00 0. -1.
          1    1    1    2  502    0 -0.18769795237E-01  0.29167955601E+02 -0.16646276610E+04  0.16648831850E+04  0.00000000000E+00 0.  1.
</event>
<event>
 4    1  0.3586324E+003  0.2899612E+02  0.7546771E-02  0.1428525E+00
          2   -1    0    0  502    0  0.00000000000E+00  0.00000000000E+00  0.59206291119E+02  0.59206291119E+02  0.00000000000E+00 0. -1.
          1   -1    0    0  501    0 -0.00000000000E+00 -0.00000000000E+00 -0.15441524640E+03  0.15441524640E+03  0.00000000000E+00 0.  1.
          2    1    1    2  501    0 -0.27180412407E+02 -0.10099506750E+02  0.54176444320E+02  0.61448042885E+02  0.00000000000E+00 0. -1.
          1    1    1    2  502    0  0.27180412407E+02  0.10099506750E+02 -0.14938539960E+03  0.15217349463E+03  0.00000000000E+00 0.  1.
</event>
<event>
 4    1  0.3586324E+003  0.2567343E+02  0.7546771E-02  0.1461409E+00
          2   -1    0    0  502    0  0.00000000000E+00  0.00000000000E+00  0.21848779564E+03  0.21848779564E+03  0.00000000000E+00 0. -1.
          1   -1    0    0  501    0 -0.00000000000E+00 -0.00000000000E+00 -0.40404227981E+02  0.40404227981E+02  0.00000000000E+00 0. -1.
          2    1    1    2  501    0  0.39323718066E-01 -0.25673399386E+02  0.21356155158E+03  0.21509918944E+03  0.00000000000E+00 0. -1.
          1    1    1    2  502    0 -0.39323718066E-01  0.25673399386E+02 -0.35477983924E+02  0.43792834182E+02  0.00000000000E+00 0. -1.
</event>
<event>
 4    1  0.3586324E+003  0.3591781E+02  0.7546771E-02  0.1374223E+00
          2   -1    0    0  502    0  0.00000000000E+00  0.00000000000E+00  0.26501243501E+03  0.26501243501E+03  0.00000000000E+00 0. -1.
          1   -1    0    0  501    0 -0.00000000000E+00 -0.00000000000E+00 -0.10996773877E+02  0.10996773877E+02  0.00000000000E+00 0. -1.
          2    1    1    2  501    0  0.20884897178E+02  0.29221740859E+02  0.23003377092E+03  0.23282101459E+03  0.00000000000E+00 0. -1.
          1    1    1    2  502    0 -0.20884897178E+02 -0.29221740859E+02  0.23981890215E+02  0.43188194305E+02  0.00000000000E+00 0. -1.
</event>
<event>
 4    1  0.3586324E+003  0.6506688E+02  0.7546771E-02  0.1243525E+00
          2   -1    0    0  502    0  0.00000000000E+00  0.00000000000E+00  0.77399893099E+02  0.77399893099E+02  0.00000000000E+00 0.  1.
          1   -1    0    0  501    0 -0.00000000000E+00 -0.00000000000E+00 -0.23319189536E+04  0.23319189536E+04  0.00000000000E+00 0.  1.
          2    1    1    2  501    0 -0.46696007422E+02  0.45312044001E+02  0.63187413093E+02  0.90699215068E+02  0.00000000000E+00 0.  1.
          1    1    1    2  502    0  0.46696007422E+02 -0.45312044001E+02 -0.23177064736E+04  0.23186196317E+04  0.00000000000E+00 0.  1.
</event>
<event>
 4    1  0.3586324E+003  0.2162714E+02  0.7546771E-02  0.1510496E+00
          2   -1    0    0  502    0  0.00000000000E+00  0.00000000000E+00  0.22949595366E+02  0.22949595366E+02  0.00000000000E+00 0.  1.
          1   -1    0    0  501    0 -0.00000000000E+00 -0.00000000000E+00 -0.10940191632E+04  0.10940191632E+04  0.00000000000E+00 0.  1.
          2    1    1    2  501    0 -0.16651931960E+02  0.13800224187E+02  0.17723034114E+02  0.27961383439E+02  0.00000000000E+00 0.  1.
          1    1    1    2  502    0  0.16651931960E+02 -0.13800224187E+02 -0.10887926020E+04  0.10890073752E+04  0.00000000000E+00 0.  1.
</event>
<event>
 4    1  0.3586324E+003  0.3160670E+02  0.7546771E-02  0.1406130E+00
          2   -1    0    0  502    0  0.00000000000E+00  0.00000000000E+00  0.11077356987E+02  0.11077356987E+02  0.00000000000E+00 0.  1.
          1   -1    0    0  501    0 -0.00000000000E+00 -0.00000000000E+00 -0.15763077864E+03  0.15763077864E+03  0.00000000000E+00 0.  1.
          2    1    1    2  501    0  0.54646571574E+01  0.31130712817E+02 -0.18098075947E+02  0.36421478708E+02  0.00000000000E+00 0.  1.
          1    1    1    2  502    0 -0.54646571574E+01 -0.31130712817E+02 -0.12845534571E+03  0.13228665692E+03  0.00000000000E+00 0.  1.
</event>
<event>
 4    1  0.3586324E+003  0.2263222E+02  0.7546771E-02  0.1497169E+00
          2   -1    0    0  502    0  0.00000000000E+00  0.00000000000E+00  0.74240403205E+01  0.74240403205E+01  0.00000000000E+00 0.  1.
          1   -1    0    0  501    0 -0.00000000000E+00 -0.00000000000E+00 -0.47351714899E+03  0.47351714899E+03  0.00000000000E+00 0.  1.
          2    1    1    2  501    0  0.16342786391E+02 -0.15656653981E+02 -0.10784370874E+02  0.25070303868E+02  0.00000000000E+00 0.  1.
          1    1    1    2  502    0 -0.16342786391E+02  0.15656653981E+02 -0.45530873780E+03  0.45587088545E+03  0.00000000000E+00 0.  1.
</event>
<event>
 4    1  0.3586324E+003  0.4942589E+02  0.7546771E-02  0.1300681E+00
          2   -1    0    0  502    0  0.00000000000E+00  0.00000000000E+00  0.10712037273E+02  0.10712037273E+02  0.00000000000E+00 0. -1.
          1   -1    0    0  501    0 -0.00000000000E+00 -0.00000000000E+00 -0.71908449956E+03  0.71908449956E+03  0.00000000000E+00 0. -1.
          2    1    1    2  501    0 -0.60221400021E+01 -0.49057644953E+02 -0.52652259180E+02  0.72216196904E+02  0.00000000000E+00 0. -1.
          1    1    1    2  502    0  0.60221400021E+01  0.49057644953E+02 -0.65572020310E+03  0.65758033993E+03  0.00000000000E+00 0. -1.
</event>
<event>
 4    1  0.3586324E+003  0.2019991E+02  0.7546771E-02  0.1531001E+00
          2   -1    0    0  502    0  0.00000000000E+00  0.00000000000E+00  0.77720660277E+03  0.77720660277E+03  0.00000000000E+00 0. -1.
          1   -1    0    0  501    0 -0.00000000000E+00 -0.00000000000E+00 -0.73906030287E+00  0.73906030287E+00  0.00000000000E+00 0.  1.
          2    1    1    2  501    0 -0.14416865114E+02  0.14148867304E+02  0.59756957281E+03  0.59791088868E+03  0.00000000000E+00 0. -1.
          1    1    1    2  502    0  0.14416865114E+02 -0.14148867304E+02  0.17889796966E+03  0.18003477440E+03  0.00000000000E+00 0.  1.
</event>
<event>
 4    1  0.3586324E+003  0.2804040E+02  0.7546771E-02  0.1437428E+00
          2   -1    0    0  502    0  0.00000000000E+00  0.00000000000E+00  0.64962535127E+01  0.64962535127E+01  0.00000000000E+00 0. -1.
          1   -1    0    0  501    0 -0.00000000000E+00 -0.00000000000E+00 -0.76180366139E+03  0.76180366139E+03  0.00000000000E+00 0.  1.
          2    1    1    2  501    0 -0.11510223413E+02 -0.25569094284E+02 -0.25339278003E+02  0.37793423174E+02  0.00000000000E+00 0. -1.
          1    1    1    2  502    0  0.11510223413E+02  0.25569094284E+02 -0.72996812987E+03  0.73050649173E+03  0.00000000000E+00 0.  1.
</event>
<event>
 4    1  0.3586324E+003  0.3490719E+02  0.7546771E-02  0.1381217E+00
          2   -1    0    0  502    0  0.00000000000E+00  0.00000000000E+00  0.25781195422E+03  0.25781195422E+03  0.00000000000E+00 0.  1.
          1   -1    0    0  501    0 -0.00000000000E+00 -0.00000000000E+00 -0.57904537436E+01  0.57904537436E+01  0.00000000000E+00 0.  1.
          2    1    1    2  501    0 -0.80964178901E+01  0.33955263655E+02  0.18251136571E+03  0.18581956443E+03  0.00000000000E+00 0.  1.
          1    1    1    2  502    0  0.80964178901E+01 -0.33955263655E+02  0.69510134765E+02  0.77782843530E+02  0.00000000000E+00 0.  1.
</event>
<event>
 4    1  0.3586324E+003  0.2026921E+02  0.7546771E-02  0.1529959E+00
          2   -1    0    0  502    0  0.00000000000E+00  0.00000000000E+00  0.47214450073E+03  0.47214450073E+03  0.00000000000E+00 0. -1.
          1   -1    0    0  501    0 -0.00000000000E+00 -0.00000000000E+00 -0.10297449338E+02  0.10297449338E+02  0.00000000000E+00 0.  1.
          2    1    1    2  501    0 -0.15096099002E+02 -0.13525855064E+02  0.46172770543E+03  0.46217238658E+03  0.00000000000E+00 0. -1.
          1    1    1    2  502    0  0.15096099002E+02  0.13525855064E+02  0.11934595969E+00  0.20269563481E+02  0.00000000000E+00 0.  1.
</event>
<event>
 4    1  0.3586324E+003  0.3546612E+02  0.7546771E-02  0.1377316E+00
          2   -1    0    0  502    0  0.00000000000E+00  0.00000000000E+00  0.12388968305E+04  0.12388968305E+04  0.00000000000E+00 0. -1.
          1   -1    0    0  501    0 -0.00000000000E+00 -0.00000000000E+00 -0.33791453478E+02  0.33791453478E+02  0.00000000000E+00 0. -1.
          2    1    1    2  501    0  0.30597050678E+02  0.17935054294E+02  0.12292641539E+04  0.12297756729E+04  0.00000000000E+00 0. -1.
          1    1    1    2  502    0 -0.30597050678E+02 -0.17935054294E+02 -0.24158776903E+02  0.42912611016E+02  0.00000000000E+00 0. -1.
</event>
<event>
 4    1  0.3586324E+003  0.3131846E+02  0.7546771E-02  0.1408475E+00
          2   -1    0    0  502    0  0.00000000000E+00  0.00000000000E+00  0.15089284328E+04  0.15089284328E+04  0.00000000000E+00 0. -1.
          1   -1    0    0  501    0 -0.00000000000E+00 -0.00000000000E+00 -0.17779181684E+03  0.17779181684E+03  0.00000000000E+00 0. -1.
          2    1    1    2  501    0  0.20034366948E+02  0.24072185227E+02  0.15073853083E+04  0.15077106200E+04  0.00000000000E+00 0. -1.
          1    1    1    2  502    0 -0.20034366948E+02 -0.24072185227E+02 -0.17624869233E+03  0.17900962965E+03  0.00000000000E+00 0. -1.
</event>
<event>
 4    1  0.3586324E+003  0.5965170E+02  0.7546771E-02  0.1261021E+00
          2   -1    0    0  502    0  0.00000000000E+00  0.00000000000E+00  0.12915444501E+03  0.12915444501E+03  0.00000000000E+00 0.  1.
          1   -1    0    0  501    0 -0.00000000000E+00 -0.00000000000E+00 -0.13249949901E+03  0.13249949901E+03  0.00000000000E+00 0. -1.
          2    1    1    2  501    0 -0.51716434454E+02 -0.29727692074E+02  0.11476110078E+03  0.12933845338E+03  0.00000000000E+00 0.  1.
          1    1    1    2  502    0  0.51716434454E+02  0.29727692074E+02 -0.11810615478E+03  0.13231549065E+03  0.00000000000E+00 0. -1.
</event>
<event>
 4    1  0.3586324E+003  0.2679602E+02  0.7546771E-02  0.1449668E+00
          2   -1    0    0  502    0  0.00000000000E+00  0.00000000000E+00  0.67984329963E+00  0.67984329963E+00  0.00000000000E+00 0. -1.
          1   -1    0    0  501    0 -0.00000000000E+00 -0.00000000000E+00 -0.16575452531E+04  0.16575452531E+04  0.00000000000E+00 0. -1.
          2    1    1    2  501    0 -0.33885004193E+01 -0.26580906758E+02 -0.32902474813E+03  0.33011408849E+03  0.00000000000E+00 0. -1.
          1    1    1    2  502    0  0.33885004193E+01  0.26580906758E+02 -0.13278406617E+04  0.13281110079E+04  0.00000000000E+00 0. -1.
</event>
<event>
 4    1  0.3586324E+003  0.2547396E+02  0.7546771E-02  0.1463570E+00
          2   -1    0    0  502    0  0.00000000000E+00  0.00000000000E+00  0.12503713886E+04  0.12503713886E+04  0.00000000000E+00 0. -1.
          1   -1    0    0  501    0 -0.00000000000E+00 -0.00000000000E+00 -0.55701670697E+00  0.55701670697E+00  0.00000000000E+00 0. -1.
          2    1    1    2  501    0 -0.11038464227E+02 -0.22958111952E+02  0.78834315471E+03  0.78875462101E+03  0.00000000000E+00 0. -1.
          1    1    1    2  502    0  0.11038464227E+02  0.22958111952E+02  0.46147121716E+03  0.46217378427E+03  0.00000000000E+00 0. -1.
</event>
<event>
 4    1  0.3586324E+003  0.2587440E+02  0.7546771E-02  0.1459255E+00
          2   -1    0    0  502    0  0.00000000000E+00  0.00000000000E+00  0.56931287701E+03  0.56931287701E+03  0.00000000000E+00 0.  1.
          1   -1    0    0  501    0 -0.00000000000E+00 -0.00000000000E+00 -0.12024882541E+01  0.12024882541E+01  0.00000000000E+00 0.  1.
          2    1    1    2  501    0  0.25716807291E+02  0.28512764359E+01  0.24167858073E+03  0.24305970530E+03  0.00000000000E+00 0.  1.
          1    1    1    2  502    0 -0.25716807291E+02 -0.28512764359E+01  0.32643180802E+03  0.32745565997E+03  0.00000000000E+00 0.  1.
</event>
<event>
 4    1  0.3586324E+003  0.2317500E+02  0.7546771E-02  0.1490312E+00
          2   -1    0    0  502    0  0.00000000000E+00  0.00000000000E+00  0.53938899358E+03  0.53938899358E+03  0.00000000000E+00 0. -1.
          1   -1    0    0  501    0 -0.00000000000E+00 -0.00000000000E+00 -0.10376591640E+03  0.10376591640E+03  0.00000000000E+00 0. -1.
          2    1    1    2  501    0 -0.42866792238E+01  0.22775097676E+02  0.53784237239E+03  0.53834143276E+03  0.00000000000E+00 0. -1.
          1    1    1    2  502    0  0.42866792238E+01 -0.22775097676E+02 -0.10221929521E+03  0.10481347722E+03  0.00000000000E+00 0. -1.
</event>
<event>
 4    1  0.3586324E+003  0.4686006E+02  0.7546771E-02  0.1312392E+00
          2   -1    0    0  502    0  0.00000000000E+00  0.00000000000E+00  0.26763607391E+03  0.26763607391E+03  0.00000000000E+00 0. -1.
          1   -1    0    0  501    0 -0.00000000000E+00 -0.00000000000E+00 -0.84602604574E+02  0.84602604574E+02  0.00000000000E+00 0.  1.
          2    1    1    2  501    0  0.42106561428E+02  0.20564598379E+02  0.25887840214E+03  0.26308533276E+03  0.00000000000E+00 0. -1.
          1    1    1    2  502    0 -0.42106561428E+02 -0.20564598379E+02 -0.75844932801E+02  0.89153345722E+02  0.00000000000E+00 0.  1.
</event>
<event>
 4    1  0.3586324E+003  0.2474193E+02  0.7546771E-02  0.1471711E+00
          2   -1    0    0  502    0  0.00000000000E+00  0.00000000000E+00  0.16798045869E+03  0.16798045869E+03  0.00000000000E+00 0.  1.
          1   -1    0    0  501    0 -0.00000000000E+00 -0.00000000000E+00 -0.10715237455E+02  0.10715237455E+02  0.00000000000E+00 0.  1.
          2    1    1    2  501    0  0.22688977148E+02 -0.98678025652E+01  0.15121364495E+03  0.15322444202E+03  0.00000000000E+00 0.  1.
          1    1    1    2  502    0 -0.22688977148E+02  0.98678025652E+01  0.60515762858E+01  0.25471254132E+02  0.00000000000E+00 0.  1.
</event>
<event>
 4    1  0.3586324E+003  0.2684293E+02  0.7546771E-02  0.1449192E+00
          2   -1    0    0  502    0  0.00000000000E+00  0.00000000000E+00  0.55547731971E+03  0.55547731971E+03  0.00000000000E+00 0.  1.
          1   -1    0    0  501    0 -0.00000000000E+00 -0.00000000000E+00 -0.26319403624E+01  0.26319403624E+01  0.00000000000E+00 0. -1.
          2    1    1    2  501    0 -0.26842731313E+02 -0.10332975134E+00  0.47514934902E+03  0.47590697282E+03  0.00000000000E+00 0.  1.
          1    1    1    2  502    0  0.26842731313E+02  0.10332975134E+00  0.77696030325E+02  0.82202287253E+02  0.00000000000E+00 0. -1.
</event>
<event>
 4    1  0.3586324E+003  0.4438036E+02  0.7546771E-02  0.1324567E+00
          2   -1    0    0  502    0  0.00000000000E+00  0.00000000000E+00  0.10284806016E+02  0.10284806016E+02  0.00000000000E+00 0. -1.
          1   -1    0    0  501    0 -0.00000000000E+00 -0.00000000000E+00 -0.44014487451E+03  0.44014487451E+03  0.00000000000E+00 0. -1.
          2    1    1    2  501    0  0.45734105405E+01 -0.44144083387E+02 -0.45659058947E+02  0.63673902393E+02  0.00000000000E+00 0. -1.
          1    1    1    2  502    0 -0.45734105405E+01  0.44144083387E+02 -0.38420100955E+03  0.38675577814E+03  0.00000000000E+00 0. -1.
</event>
<event>
 4    1  0.3586324E+003  0.2406480E+02  0.7546771E-02  0.1479543E+00
          2   -1    0    0  502    0  0.00000000000E+00  0.00000000000E+00  0.33948038203E+03  0.33948038203E+03  0.00000000000E+00 0. -1.
          1   -1    0    0  501    0 -0.00000000000E+00 -0.00000000000E+00 -0.35639849580E+01  0.35639849580E+01  0.00000000000E+00 0. -1.
          2    1    1    2  501    0  0.22343893286E+02 -0.89367270483E+01  0.29180558469E+03  0.29279619859E+03  0.00000000000E+00 0. -1.
          1    1    1    2  502    0 -0.22343893286E+02  0.89367270483E+01  0.44110812385E+02  0.50248168392E+02  0.00000000000E+00 0. -1.
</event>
<event>
 4    1  0.3586324E+003  0.3676844E+02  0.7546771E-02  0.1368539E+00
          2   -1    0    0  502    0  0.00000000000E+00  0.00000000000E+00  0.18019188961E+04  0.18019188961E+04  0.00000000000E+00 0. -1.
          1   -1    0    0  501    0 -0.00000000000E+00 -0.00000000000E+00 -0.21231901946E+01  0.21231901946E+01  0.00000000000E+00 0. -1.
          2    1    1    2  501    0 -0.11731307576E+02 -0.34846732599E+02  0.16252443370E+04  0.16256601961E+04  0.00000000000E+00 0. -1.
          1    1    1    2  502    0  0.11731307576E+02  0.34846732599E+02  0.17455136896E+03  0.17838189021E+03  0.00000000000E+00 0. -1.
</event>
<event>
 4    1  0.3586324E+003  0.2071236E+02  0.7546771E-02  0.1523412E+00
          2   -1    0    0  502    0  0.00000000000E+00  0.00000000000E+00  0.12847447782E+02  0.12847447782E+02  0.00000000000E+00 0.  1.
          1   -1    0    0  501    0 -0.00000000000E+00 -0.00000000000E+00 -0.23222592637E+03  0.23222592637E+03  0.00000000000E+00 0.  1.
          2    1    1    2  501    0 -0.20685716361E+02  0.10501491860E+01  0.36958776803E+01  0.21039514883E+02  0.00000000000E+00 0.  1.
          1    1    1    2  502    0  0.20685716361E+02 -0.10501491860E+01 -0.22307435626E+03  0.22403385927E+03  0.00000000000E+00 0.  1.
</event>
<event>
 4    1  0.3586324E+003  0.2600961E+02  0.7546771E-02  0.1457819E+00
          2   -1    0    0  502    0  0.00000000000E+00  0.00000000000E+00  0.39108157793E+03  0.39108157793E+03  0.00000000000E+00 0. -1.
          1   -1    0    0  501    0 -0.00000000000E+00 -0.00000000000E+00 -0.34260435625E+01  0.34260435625E+01  0.00000000000E+00 0. -1.
          2    1    1    2  501    0 -0.38334822066E+01 -0.25725560924E+02  0.33262177770E+03  0.33363714882E+03  0.00000000000E+00 0. -1.
          1    1    1    2  502    0  0.38334822066E+01  0.25725560924E+02  0.55033756662E+02  0.60870472670E+02  0.00000000000E+00 0. -1.
</event>
<event>
 4    1  0.3586324E+003  0.2035793E+02  0.7546771E-02  0.1528633E+00
          2   -1    0    0  502    0  0.00000000000E+00  0.00000000000E+00  0.14303955801E+04  0.14303955801E+04  0.00000000000E+00 0.  1.
          1   -1    0    0  501    0 -0.00000000000E+00 -0.00000000000E+00 -0.53088908200E+00  0.53088908200E+00  0.00000000000E+00 0.  1.
          2    1    1    2  501    0 -0.20328410222E+02  0.10959541340E+01  0.11971316928E+04  0.11973047796E+04  0.00000000000E+00 0.  1.
          1    1    1    2  502    0  0.20328410222E+02 -0.10959541340E+01  0.23273299822E+03  0.23362168957E+03  0.00000000000E+00 0.  1.
</event>
<event>
 4    1  0.3586324E+003  0.2031009E+02  0.7546771E-02  0.1529347E+00
          2   -1    0    0  502    0  0.00000000000E+00  0.00000000000E+00  0.12389537330E+04  0.12389537330E+04  0.00000000000E+00 0. -1.
          1   -1    0    0  501    0 -0.00000000000E+00 -0.00000000000E+00 -0.18438794464E+02  0.18438794464E+02  0.00000000000E+00 0.  1.
          2    1    1    2  501    0  0.19591145746E+02  0.53560076121E+01  0.12332518158E+04  0.12334190452E+04  0.00000000000E+00 0. -1.
          1    1    1    2  502    0 -0.19591145746E+02 -0.53560076121E+01 -0.12736877289E+02  0.23973482272E+02  0.00000000000E+00 0.  1.
</event>
<event>
 4    1  0.3586324E+003  0.2332906E+02  0.7546771E-02  0.1488407E+00
          2   -1    0    0  502    0  0.00000000000E+00  0.00000000000E+00  0.19656081100E+04  0.19656081100E+04  0.00000000000E+00 0.  1.
          1   -1    0    0  501    0 -0.00000000000E+00 -0.00000000000E+00 -0.30870553677E+00  0.30870553677E+00  0.00000000000E+00 0.  1.
          2    1    1    2  501    0 -0.35584405331E+00 -0.23326342543E+02  0.12982413000E+04  0.12984508916E+04  0.00000000000E+00 0.  1.
          1    1    1    2  502    0  0.35584405331E+00  0.23326342543E+02  0.66705810448E+03  0.66746592395E+03  0.00000000000E+00 0.  1.
</event>
<event>
 4    1  0.3586324E+003  0.5579688E+02  0.7546771E-02  0.1274823E+00
          2   -1    0    0  502    0  0.00000000000E+00  0.00000000000E+00  0.18102297691E+02  0.18102297691E+02  0.00000000000E+00 0.  1.
          1   -1    0    0  501    0 -0.00000000000E+00 -0.00000000000E+00 -0.18009787792E+03  0.18009787792E+03  0.00000000000E+00 0.  1.
          2    1    1    2  501    0  0.30344350468E+01  0.55714279095E+02 -0.10203358477E+03  0.11629334079E+03  0.00000000000E+00 0.  1.
          1    1    1    2  502    0 -0.30344350468E+01 -0.55714279095E+02 -0.59961995464E+02  0.81906834826E+02  0.00000000000E+00 0.  1.
</event>
<event>
 4    1  0.3586324E+003  0.2356587E+02  0.7546771E-02  0.1485512E+00
          2   -1    0    0  502    0  0.00000000000E+00  0.00000000000E+00  0.29328627703E+01  0.29328627703E+01  0.00000000000E+00 0.  1.
          1   -1    0    0  501    0 -0.00000000000E+00 -0.00000000000E+00 -0.58839368644E+03  0.58839368644E+03  0.00000000000E+00 0. -1.
          2    1    1    2  501    0 -0.13690446396E+02 -0.19181289168E+02 -0.49245943792E+02  0.54594076205E+02  0.00000000000E+00 0.  1.
          1    1    1    2  502    0  0.13690446396E+02  0.19181289168E+02 -0.53621487987E+03  0.53673247300E+03  0.00000000000E+00 0. -1.
</event>
<event>
 4    1  0.3586324E+003  0.5416341E+02  0.7546771E-02  0.1281065E+00
          2   -1    0    0  502    0  0.00000000000E+00  0.00000000000E+00  0.13132400691E+04  0.13132400691E+04  0.00000000000E+00 0. -1.
          1   -1    0    0  501    0 -0.00000000000E+00 -0.00000000000E+00 -0.12641015577E+03  0.12641015577E+03  0.00000000000E+00 0. -1.
          2    1    1    2  501    0 -0.52553761607E+02  0.13106356574E+02  0.13068513414E+04  0.13079732806E+04  0.00000000000E+00 0. -1.
          1    1    1    2  502    0  0.52553761607E+02 -0.13106356574E+02 -0.12002142806E+03  0.13167694420E+03  0.00000000000E+00 0. -1.
</event>
<event>
 4    1  0.3586324E+003  0.2423986E+02  0.7546771E-02  0.1477490E+00
          2   -1    0    0  502    0  0.00000000000E+00  0.00000000000E+00  0.36094557358E+02  0.36094557358E+02  0.00000000000E+00 0.  1.
          1   -1    0    0  501    0 -0.00000000000E+00 -0.00000000000E+00 -0.82431891182E+03  0.82431891182E+03  0.00000000000E+00 0. -1.
          2    1    1    2  501    0  0.13252137994E+02 -0.20296587556E+02  0.31825514949E+02  0.40005425002E+02  0.00000000000E+00 0.  1.
          1    1    1    2  502    0 -0.13252137994E+02  0.20296587556E+02 -0.82004986941E+03  0.82040804417E+03  0.00000000000E+00 0. -1.
</event>
<event>
 4    1  0.3586324E+003  0.2135546E+02  0.7546771E-02  0.1514250E+00
          2   -1    0    0  502    0  0.00000000000E+00  0.00000000000E+00  0.86665180724E+03  0.86665180724E+03  0.00000000000E+00 0. -1.
          1   -1    0    0  501    0 -0.00000000000E+00 -0.00000000000E+00 -0.13080129849E+01  0.13080129849E+01  0.00000000000E+00 0. -1.
          2    1    1    2  501    0 -0.20881670685E+02 -0.44734285803E+01  0.76818345766E+03  0.76848024071E+03  0.00000000000E+00 0. -1.
          1    1    1    2  502    0  0.20881670685E+02  0.44734285803E+01  0.97160336591E+02  0.99479579514E+02  0.00000000000E+00 0. -1.
</event>
<event>
 4    1  0.3586324E+003  0.3453794E+02  0.7546771E-02  0.1383841E+00
          2   -1    0    0  502    0  0.00000000000E+00  0.00000000000E+00  0.17997437934E+03  0.17997437934E+03  0.00000000000E+00 0.  1.
          1   -1    0    0  501    0 -0.00000000000E+00 -0.00000000000E+00 -0.74860120223E+01  0.74860120223E+01  0.00000000000E+00 0. -1.
          2    1    1    2  501    0 -0.18024568579E+02  0.29461574208E+02  0.11797651771E+03  0.12292814225E+03  0.00000000000E+00 0.  1.
          1    1    1    2  502    0  0.18024568579E+02 -0.29461574208E+02  0.54511849613E+02  0.64532249112E+02  0.00000000000E+00 0. -1.
</event>
<event>
 4    1  0.3586324E+003  0.2752919E+02  0.7546771E-02  0.1442363E+00
          2   -1    0    0  502    0  0.00000000000E+00  0.00000000000E+00  0.22806256137E+02  0.22806256137E+02  0.00000000000E+00 0.  1.
          1   -1    0    0  501    0 -0.00000000000E+00 -0.00000000000E+00 -0.70987674455E+02  0.70987674455E+02  0.00000000000E+00 0. -1.
          2    1    1    2  501    0 -0.21806166756E+02  0.16803203245E+02  0.10111543473E+02  0.29327459135E+02  0.00000000000E+00 0.  1.
          1    1    1    2  502    0  0.21806166756E+02 -0.16803203245E+02 -0.58292961790E+02  0.64466471457E+02  0.00000000000E+00 0. -1.
</event>
<event>
 4    1  0.3586324E+003  0.2707375E+02  0.7546771E-02  0.1446869E+00
          2   -1    0    0  502    0  0.00000000000E+00  0.00000000000E+00  0.12352589203E+04  0.12352589203E+04  0.00000000000E+00 0. -1.
          1   -1    0    0  501    0 -0.00000000000E+00 -0.00000000000E+00 -0.23064078265E+03  0.23064078265E+03  0.00000000000E+00 0. -1.
          2    1    1    2  501    0 -0.26844941875E+02  0.35124340538E+01  0.12343154534E+04  0.12346123386E+04  0.00000000000E+00 0. -1.
          1    1    1    2  502    0  0.26844941875E+02 -0.35124340538E+01 -0.22969731570E+03  0.23128736441E+03  0.00000000000E+00 0. -1.
</event>
<event>
 4    1  0.3586324E+003  0.2064644E+02  0.7546771E-02  0.1524373E+00
          2   -1    0    0  502    0  0.00000000000E+00  0.00000000000E+00  0.86755538570E+03  0.86755538570E+03  0.00000000000E+00 0.  1.
          1   -1    0    0  501    0 -0.00000000000E+00 -0.00000000000E+00 -0.10284070280E+01  0.10284070280E+01  0.00000000000E+00 0.  1.
          2    1    1    2  501    0  0.11316267982E+02 -0.17268976534E+02  0.74710357662E+03  0.74738880757E+03  0.00000000000E+00 0.  1.
          1    1    1    2  502    0 -0.11316267982E+02  0.17268976534E+02  0.11942340205E+03  0.12119498516E+03  0.00000000000E+00 0.  1.
</event>
<event>
 4    1  0.3586324E+003  0.2112341E+02  0.7546771E-02  0.1517510E+00
          2   -1    0    0  502    0  0.00000000000E+00  0.00000000000E+00  0.92496860414E+03  0.92496860414E+03  0.00000000000E+00 0. -1.
          1   -1    0    0  501    0 -0.00000000000E+00 -0.00000000000E+00 -0.60870148784E+00  0.60870148784E+00  0.00000000000E+00 0. -1.
          2    1    1    2  501    0  0.18260664144E+02 -0.10618211838E+02  0.67299275210E+03  0.67332417352E+03  0.00000000000E+00 0. -1.
          1    1    1    2  502    0 -0.18260664144E+02  0.10618211838E+02  0.25136715055E+03  0.25225313210E+03  0.00000000000E+00 0. -1.
</event>
<event>
 4    1  0.3586324E+003  0.2614749E+02  0.7546771E-02  0.1456365E+00
          2   -1    0    0  502    0  0.00000000000E+00  0.00000000000E+00  0.31508752737E+03  0.31508752737E+03  0.00000000000E+00 0. -1.
          1   -1    0    0  501    0 -0.00000000000E+00 -0.00000000000E+00 -0.21236180223E+03  0.21236180223E+03  0.00000000000E+00 0. -1.
          2    1    1    2  501    0  0.77376475521E+01  0.24976386035E+02  0.31373674097E+03  0.31482444899E+03  0.00000000000E+00 0. -1.
          1    1    1    2  502    0 -0.77376475521E+01 -0.24976386035E+02 -0.21101101583E+03  0.21262488061E+03  0.00000000000E+00 0. -1.
</event>
<event>
 4    1  0.3586324E+003  0.5261850E+02  0.7546771E-02  0.1287202E+00
          2   -1    0    0  502    0  0.00000000000E+00  0.00000000000E+00  0.80027867718E+01  0.80027867718E+01  0.00000000000E+00 0. -1.
          1   -1    0    0  501    0 -0.00000000000E+00 -0.00000000000E+00 -0.39940833693E+03  0.39940833693E+03  0.00000000000E+00 0. -1.
          2    1    1    2  501    0 -0.23137554611E+02  0.47258409671E+02 -0.27021562252E+03  0.27529109389E+03  0.00000000000E+00 0. -1.
          1    1    1    2  502    0  0.23137554611E+02 -0.47258409671E+02 -0.12118992764E+03  0.13212002982E+03  0.00000000000E+00 0. -1.
</event>
<event>
 4    1  0.3586324E+003  0.4998998E+02  0.7546771E-02  0.1298216E+00
          2   -1    0    0  502    0  0.00000000000E+00  0.00000000000E+00  0.73259437961E+03  0.73259437961E+03  0.00000000000E+00 0.  1.
          1   -1    0    0  501    0 -0.00000000000E+00 -0.00000000000E+00 -0.10441796071E+03  0.10441796071E+03  0.00000000000E+00 0. -1.
          2    1    1    2  501    0  0.27202301830E+02  0.41940820576E+02  0.72570166802E+03  0.72742141062E+03  0.00000000000E+00 0.  1.
          1    1    1    2  502    0 -0.27202301830E+02 -0.41940820576E+02 -0.97525249129E+02  0.10959092970E+03  0.00000000000E+00 0. -1.
</event>
<event>
 4    1  0.3586324E+003  0.2100287E+02  0.7546771E-02  0.1519224E+00
          2   -1    0    0  502    0  0.00000000000E+00  0.00000000000E+00  0.12921005141E+04  0.12921005141E+04  0.00000000000E+00 0.  1.
          1   -1    0    0  501    0 -0.00000000000E+00 -0.00000000000E+00 -0.38934773648E+00  0.38934773648E+00  0.00000000000E+00 0.  1.
          2    1    1    2  501    0  0.19714777508E+02 -0.72421118076E+01  0.87264410445E+03  0.87289681731E+03  0.00000000000E+00 0.  1.
          1    1    1    2  502    0 -0.19714777508E+02  0.72421118076E+01  0.41906706195E+03  0.41959304456E+03  0.00000000000E+00 0.  1.
</event>
<event>
 4    1  0.3586324E+003  0.2709310E+02  0.7546771E-02  0.1446675E+00
          2   -1    0    0  502    0  0.00000000000E+00  0.00000000000E+00  0.45810600022E+02  0.45810600022E+02  0.00000000000E+00 0.  1.
          1   -1    0    0  501    0 -0.00000000000E+00 -0.00000000000E+00 -0.39678629469E+02  0.39678629469E+02  0.00000000000E+00 0.  1.
          2    1    1    2  501    0  0.26457724132E+02  0.58330658872E+01  0.36070078829E+02  0.45111932020E+02  0.00000000000E+00 0.  1.
          1    1    1    2  502    0 -0.26457724132E+02 -0.58330658872E+01 -0.29938108276E+02  0.40377297471E+02  0.00000000000E+00 0.  1.
</event>
<event>
 4    1  0.3586324E+003  0.2094831E+02  0.7546771E-02  0.1520004E+00
          2   -1    0    0  502    0  0.00000000000E+00  0.00000000000E+00  0.25760412592E+01  0.25760412592E+01  0.00000000000E+00 0. -1.
          1   -1    0    0  501    0 -0.00000000000E+00 -0.00000000000E+00 -0.17127287568E+03  0.17127287568E+03  0.00000000000E+00 0. -1.
          2    1    1    2  501    0  0.14637565603E+02 -0.14985771997E+02 -0.77971811527E+02  0.80736826058E+02  0.00000000000E+00 0. -1.
          1    1    1    2  502    0 -0.14637565603E+02  0.14985771997E+02 -0.90725022894E+02  0.93112090881E+02  0.00000000000E+00 0. -1.
</event>
<event>
 4    1  0.3586324E+003  0.2198440E+02  0.7546771E-02  0.1505661E+00
          2   -1    0    0  502    0  0.00000000000E+00  0.00000000000E+00  0.47748706720E+03  0.47748706720E+03  0.00000000000E+00 0.  1.
          1   -1    0    0  501    0 -0.00000000000E+00 -0.00000000000E+00 -0.28933835636E+02  0.28933835636E+02  0.00000000000E+00 0. -1.
          2    1    1    2  501    0  0.60945057211E+01 -0.21122753219E+02  0.47301856262E+03  0.47352916942E+03  0.00000000000E+00 0.  1.
          1    1    1    2  502    0 -0.60945057211E+01  0.21122753219E+02 -0.24465331058E+02  0.32891733419E+02  0.00000000000E+00 0. -1.
</event>
<event>
 4    1  0.3586324E+003  0.2579083E+02  0.7546771E-02  0.1460148E+00
          2   -1    0    0  502    0  0.00000000000E+00  0.00000000000E+00  0.73442823547E+02  0.73442823547E+02  0.00000000000E+00 0. -1.
          1   -1    0    0  501    0 -0.00000000000E+00 -0.00000000000E+00 -0.32496955447E+03  0.32496955447E+03  0.00000000000E+00 0. -1.
          2    1    1    2  501    0  0.24623983603E+02 -0.76698258211E+01  0.70647259574E+02  0.75207726211E+02  0.00000000000E+00 0. -1.
          1    1    1    2  502    0 -0.24623983603E+02  0.76698258211E+01 -0.32217399049E+03  0.32320465180E+03  0.00000000000E+00 0. -1.
</event>
<event>
 4    1  0.3586324E+003  0.2014563E+02  0.7546771E-02  0.1531821E+00
          2   -1    0    0  502    0  0.00000000000E+00  0.00000000000E+00  0.43036494269E+02  0.43036494269E+02  0.00000000000E+00 0. -1.
          1   -1    0    0  501    0 -0.00000000000E+00 -0.00000000000E+00 -0.14737517000E+02  0.14737517000E+02  0.00000000000E+00 0.  1.
          2    1    1    2  501    0  0.57944601515E+01  0.19294315426E+02  0.31484512011E+02  0.37378080111E+02  0.00000000000E+00 0. -1.
          1    1    1    2  502    0 -0.57944601515E+01 -0.19294315426E+02 -0.31855347415E+01  0.20395931158E+02  0.00000000000E+00 0.  1.
</event>
<event>
 4    1  0.3586324E+003  0.3166534E+02  0.7546771E-02  0.1405656E+00
          2   -1    0    0  502    0  0.00000000000E+00  0.00000000000E+00  0.49823247186E+01  0.49823247186E+01  0.00000000000E+00 0.  1.
          1   -1    0    0  501    0 -0.00000000000E+00 -0.00000000000E+00 -0.25783700688E+03  0.25783700688E+03  0.00000000000E+00 0.  1.
          2    1    1    2  501    0 -0.17582967192E+02 -0.26335019010E+02 -0.64865416233E+02  0.72181827246E+02  0.00000000000E+00 0.  1.
          1    1    1    2  502    0  0.17582967192E+02  0.26335019010E+02 -0.18798926593E+03  0.19063750435E+03  0.00000000000E+00 0.  1.
</event>
<event>
 4    1  0.3586324E+003  0.2396162E+02  0.7546771E-02  0.1480764E+00
          2   -1    0    0  502    0  0.00000000000E+00  0.00000000000E+00  0.24980300655E+03  0.24980300655E+03  0.00000000000E+00 0.  1.
          1   -1    0    0  501    0 -0.00000000000E+00 -0.00000000000E+00 -0.56662047423E+02  0.56662047423E+02  0.00000000000E+00 0. -1.
          2    1    1    2  501    0 -0.22642948453E+02  0.78393835944E+01  0.24666296063E+03  0.24782408115E+03  0.00000000000E+00 0.  1.
          1    1    1    2  502    0  0.22642948453E+02 -0.78393835944E+01 -0.53522001499E+02  0.58640972829E+02  0.00000000000E+00 0. -1.
</event>
<event>
 4    1  0.3586324E+003  0.2748613E+02  0.7546771E-02  0.1442785E+00
          2   -1    0    0  502    0  0.00000000000E+00  0.00000000000E+00  0.36927806447E+01  0.36927806447E+01  0.00000000000E+00 0. -1.
          1   -1    0    0  501    0 -0.00000000000E+00 -0.00000000000E+00 -0.36629217370E+03  0.36629217370E+03  0.00000000000E+00 0. -1.
          2    1    1    2  501    0 -0.27265406658E+02  0.34763569282E+01 -0.58384687577E+02  0.64531071595E+02  0.00000000000E+00 0. -1.
          1    1    1    2  502    0  0.27265406658E+02 -0.34763569282E+01 -0.30421470548E+03  0.30545388275E+03  0.00000000000E+00 0. -1.
</event>
<event>
 4    1  0.3586324E+003  0.2663168E+02  0.7546771E-02  0.1451343E+00
          2   -1    0    0  502    0  0.00000000000E+00  0.00000000000E+00  0.52640489172E+03  0.52640489172E+03  0.00000000000E+00 0.  1.
          1   -1    0    0  501    0 -0.00000000000E+00 -0.00000000000E+00 -0.32864546718E+02  0.32864546718E+02  0.00000000000E+00 0. -1.
          2    1    1    2  501    0 -0.16257190677E+02 -0.21093838780E+02  0.52061284840E+03  0.52129356816E+03  0.00000000000E+00 0.  1.
          1    1    1    2  502    0  0.16257190677E+02  0.21093838780E+02 -0.27072503399E+02  0.37975870279E+02  0.00000000000E+00 0. -1.
</event>
<event>
 4    1  0.3586324E+003  0.5418790E+02  0.7546771E-02  0.1280969E+00
          2   -1    0    0  502    0  0.00000000000E+00  0.00000000000E+00  0.18022840041E+03  0.18022840041E+03  0.00000000000E+00 0.  1.
          1   -1    0    0  501    0 -0.00000000000E+00 -0.00000000000E+00 -0.42900280975E+03  0.42900280975E+03  0.00000000000E+00 0. -1.
          2    1    1    2  501    0 -0.40081324168E+02  0.36466640795E+02  0.17438821389E+03  0.18261319115E+03  0.00000000000E+00 0.  1.
          1    1    1    2  502    0  0.40081324168E+02 -0.36466640795E+02 -0.42316262323E+03  0.42661801900E+03  0.00000000000E+00 0. -1.
</event>
<event>
 4    1  0.3586324E+003  0.2317882E+02  0.7546771E-02  0.1490265E+00
          2   -1    0    0  502    0  0.00000000000E+00  0.00000000000E+00  0.96724962801E+02  0.96724962801E+02  0.00000000000E+00 0. -1.
          1   -1    0    0  501    0 -0.00000000000E+00 -0.00000000000E+00 -0.10930821665E+04  0.10930821665E+04  0.00000000000E+00 0. -1.
          2    1    1    2  501    0 -0.87733933120E+01 -0.21454258541E+02  0.95211538981E+02  0.97992320081E+02  0.00000000000E+00 0. -1.
          1    1    1    2  502    0  0.87733933120E+01  0.21454258541E+02 -0.10915687427E+04  0.10918148093E+04  0.00000000000E+00 0. -1.
</event>
<event>
 4    1  0.3586324E+003  0.2479240E+02  0.7546771E-02  0.1471139E+00
          2   -1    0    0  502    0  0.00000000000E+00  0.00000000000E+00  0.14294356131E+04  0.14294356131E+04  0.00000000000E+00 0.  1.
          1   -1    0    0  501    0 -0.00000000000E+00 -0.00000000000E+00 -0.14755991518E+01  0.14755991518E+01  0.00000000000E+00 0. -1.
          2    1    1    2  501    0 -0.19807482246E+02  0.14910618629E+02  0.13162348374E+04  0.13164683096E+04  0.00000000000E+00 0.  1.
          1    1    1    2  502    0  0.19807482246E+02 -0.14910618629E+02  0.11172517653E+03  0.11444290267E+03  0.00000000000E+00 0. -1.
</event>
<event>
 4    1  0.3586324E+003  0.2429858E+02  0.7546771E-02  0.1476805E+00
          2   -1    0    0  502    0  0.00000000000E+00  0.00000000000E+00  0.59832654690E+01  0.59832654690E+01  0.00000000000E+00 0. -1.
          1   -1    0    0  501    0 -0.00000000000E+00 -0.00000000000E+00 -0.12957404269E+04  0.12957404269E+04  0.00000000000E+00 0. -1.
          2    1    1    2  501    0 -0.10217989229E+02 -0.22045718756E+02 -0.19291059435E+02  0.31025247678E+02  0.00000000000E+00 0. -1.
          1    1    1    2  502    0  0.10217989229E+02  0.22045718756E+02 -0.12704661020E+04  0.12706984447E+04  0.00000000000E+00 0. -1.
</event>
<event>
 4    1  0.3586324E+003  0.2475350E+02  0.7546771E-02  0.1471580E+00
          2   -1    0    0  502    0  0.00000000000E+00  0.00000000000E+00  0.48475752234E+02  0.48475752234E+02  0.00000000000E+00 0.  1.
          1   -1    0    0  501    0 -0.00000000000E+00 -0.00000000000E+00 -0.28599861871E+02  0.28599861871E+02  0.00000000000E+00 0.  1.
          2    1    1    2  501    0  0.24070741861E+02  0.57736671706E+01  0.38726438633E+02  0.45961645918E+02  0.00000000000E+00 0.  1.
          1    1    1    2  502    0 -0.24070741861E+02 -0.57736671706E+01 -0.18850548270E+02  0.31113968188E+02  0.00000000000E+00 0.  1.
</event>
<event>
 4    1  0.3586324E+003  0.2576864E+02  0.7546771E-02  0.1460385E+00
          2   -1    0    0  502    0  0.00000000000E+00  0.00000000000E+00  0.54980553298E+02  0.54980553298E+02  0.00000000000E+00 0.  1.
          1   -1    0    0  501    0 -0.00000000000E+00 -0.00000000000E+00 -0.35419433195E+03  0.35419433195E+03  0.00000000000E+00 0.  1.
          2    1    1    2  501    0  0.24426598370E+02  0.82075539949E+01  0.51462263683E+02  0.57553342509E+02  0.00000000000E+00 0.  1.
          1    1    1    2  502    0 -0.24426598370E+02 -0.82075539949E+01 -0.35067604233E+03  0.35162154274E+03  0.00000000000E+00 0.  1.
</event>
<event>
 4    1  0.3586324E+003  0.2976487E+02  0.7546771E-02  0.1421651E+00
          2   -1    0    0  502    0  0.00000000000E+00  0.00000000000E+00  0.34153156003E+03  0.34153156003E+03  0.00000000000E+00 0.  1.
          1   -1    0    0  501    0 -0.00000000000E+00 -0.00000000000E+00 -0.94734407911E+01  0.94734407911E+01  0.00000000000E+00 0.  1.
          2    1    1    2  501    0  0.28739276933E+02  0.77460509082E+01  0.31558534383E+03  0.31698589335E+03  0.00000000000E+00 0.  1.
          1    1    1    2  502    0 -0.28739276933E+02 -0.77460509082E+01  0.16472775406E+02  0.34019107467E+02  0.00000000000E+00 0.  1.
</event>
<event>
 4    1  0.3586324E+003  0.2233118E+02  0.7546771E-02  0.1501072E+00
          2   -1    0    0  502    0  0.00000000000E+00  0.00000000000E+00  0.83116369044E+03  0.83116369044E+03  0.00000000000E+00 0. -1.
          1   -1    0    0  501    0 -0.00000000000E+00 -0.00000000000E+00 -0.17766262519E+03  0.17766262519E+03  0.00000000000E+00 0.  1.
          2    1    1    2  501    0  0.11033849325E+02  0.19414833868E+02  0.83031124960E+03  0.83061149331E+03  0.00000000000E+00 0. -1.
          1    1    1    2  502    0 -0.11033849325E+02 -0.19414833868E+02 -0.17681018435E+03  0.17821482232E+03  0.00000000000E+00 0.  1.
</event>
<event>
 4    1  0.3586324E+003  0.2036552E+02  0.7546771E-02  0.1528519E+00
          2   -1    0    0  502    0  0.00000000000E+00  0.00000000000E+00  0.10743388283E+02  0.10743388283E+02  0.00000000000E+00 0. -1.
          1   -1    0    0  501    0 -0.00000000000E+00 -0.00000000000E+00 -0.14284449093E+03  0.14284449093E+03  0.00000000000E+00 0. -1.
          2    1    1    2  501    0 -0.95972688670E+01  0.17962375935E+02 -0.44959435433E+00  0.20370484874E+02  0.00000000000E+00 0. -1.
          1    1    1    2  502    0  0.95972688670E+01 -0.17962375935E+02 -0.13165150830E+03  0.13321739434E+03  0.00000000000E+00 0. -1.
</event>
<event>
 4    1  0.3586324E+003  0.2849364E+02  0.7546771E-02  0.1433155E+00
          2   -1    0    0  502    0  0.00000000000E+00  0.00000000000E+00  0.23668186162E+02  0.23668186162E+02  0.00000000000E+00 0.  1.
          1   -1    0    0  501    0 -0.00000000000E+00 -0.00000000000E+00 -0.94214878824E+02  0.94214878824E+02  0.00000000000E+00 0.  1.
          2    1    1    2  501    0 -0.23525469726E+02 -0.16076069138E+02  0.11728883559E+02  0.30813218499E+02  0.00000000000E+00 0.  1.
          1    1    1    2  502    0  0.23525469726E+02  0.16076069138E+02 -0.82275576221E+02  0.87069846486E+02  0.00000000000E+00 0.  1.
</event>
<event>
 4    1  0.3586324E+003  0.2069749E+02  0.7546771E-02  0.1523628E+00
          2   -1    0    0  502    0  0.00000000000E+00  0.00000000000E+00  0.28331382142E+02  0.28331382142E+02  0.00000000000E+00 0.  1.
          1   -1    0    0  501    0 -0.00000000000E+00 -0.00000000000E+00 -0.76038397650E+02  0.76038397650E+02  0.00000000000E+00 0.  1.
          2    1    1    2  501    0 -0.19253875167E+02 -0.75943735691E+01  0.22855490261E+02  0.30834390766E+02  0.00000000000E+00 0.  1.
          1    1    1    2  502    0  0.19253875167E+02  0.75943735691E+01 -0.70562505768E+02  0.73535389026E+02  0.00000000000E+00 0.  1.
</event>
<event>
 4    1  0.3586324E+003  0.4254012E+02  0.7546771E-02  0.1334211E+00
          2   -1    0    0  502    0  0.00000000000E+00  0.00000000000E+00  0.75901577125E+03  0.75901577125E+03  0.00000000000E+00 0.  1.
          1   -1    0    0  501    0 -0.00000000000E+00 -0.00000000000E+00 -0.26488324192E+01  0.26488324192E+01  0.00000000000E+00 0. -1.
          2    1    1    2  501    0 -0.34388899986E+02  0.25041232432E+02  0.25781505703E+03  0.26130109720E+03  0.00000000000E+00 0.  1.
          1    1    1    2  502    0  0.34388899986E+02 -0.25041232432E+02  0.49855188179E+03  0.50036350647E+03  0.00000000000E+00 0. -1.
</event>
<event>
 4    1  0.3586324E+003  0.7064270E+02  0.7546771E-02  0.1227414E+00
          2   -1    0    0  502    0  0.00000000000E+00  0.00000000000E+00  0.44197436022E+02  0.44197436022E+02  0.00000000000E+00 0. -1.
          1   -1    0    0  501    0 -0.00000000000E+00 -0.00000000000E+00 -0.17057564956E+03  0.17057564956E+03  0.00000000000E+00 0.  1.
          2    1    1    2  501    0 -0.38122815056E+02 -0.59473031516E+02 -0.75168000281E+00  0.70646695099E+02  0.00000000000E+00 0. -1.
          1    1    1    2  502    0  0.38122815056E+02  0.59473031516E+02 -0.12562653354E+03  0.14412639048E+03  0.00000000000E+00 0.  1.
</event>
<event>
 4    1  0.3586324E+003  0.2872527E+02  0.7546771E-02  0.1431007E+00
          2   -1    0    0  502    0  0.00000000000E+00  0.00000000000E+00  0.20586488898E+04  0.20586488898E+04  0.00000000000E+00 0.  1.
          1   -1    0    0  501    0 -0.00000000000E+00 -0.00000000000E+00 -0.15915726805E+01  0.15915726805E+01  0.00000000000E+00 0.  1.
          2    1    1    2  501    0 -0.93502348059E+01 -0.27160892771E+02  0.19195457868E+04  0.19197607061E+04  0.00000000000E+00 0.  1.
          1    1    1    2  502    0  0.93502348059E+01  0.27160892771E+02  0.13751153024E+03  0.14047975632E+03  0.00000000000E+00 0.  1.
</event>
<event>
 4    1  0.3586324E+003  0.2130484E+02  0.7546771E-02  0.1514957E+00
          2   -1    0    0  502    0  0.00000000000E+00  0.00000000000E+00  0.19520479421E+02  0.19520479421E+02  0.00000000000E+00 0. -1.
          1   -1    0    0  501    0 -0.00000000000E+00 -0.00000000000E+00 -0.66452382381E+03  0.66452382381E+03  0.00000000000E+00 0.  1.
          2    1    1    2  501    0  0.93942785123E+01 -0.19121811747E+02  0.13483361763E+02  0.25213036265E+02  0.00000000000E+00 0. -1.
          1    1    1    2  502    0 -0.93942785123E+01  0.19121811747E+02 -0.65848670615E+03  0.65883126696E+03  0.00000000000E+00 0.  1.
</event>
<event>
 4    1  0.3586324E+003  0.2464774E+02  0.7546771E-02  0.1472783E+00
          2   -1    0    0  502    0  0.00000000000E+00  0.00000000000E+00  0.62617242066E+02  0.62617242066E+02  0.00000000000E+00 0.  1.
          1   -1    0    0  501    0 -0.00000000000E+00 -0.00000000000E+00 -0.36119926052E+02  0.36119926052E+02  0.00000000000E+00 0. -1.
          2    1    1    2  501    0  0.21801755099E+02  0.11497579031E+02  0.55469493161E+02  0.60699056998E+02  0.00000000000E+00 0.  1.
          1    1    1    2  502    0 -0.21801755099E+02 -0.11497579031E+02 -0.28972177147E+02  0.38038111120E+02  0.00000000000E+00 0. -1.
</event>
<event>
 4    1  0.3586324E+003  0.2183417E+02  0.7546771E-02  0.1507680E+00
          2   -1    0    0  502    0  0.00000000000E+00  0.00000000000E+00  0.17888035767E+03  0.17888035767E+03  0.00000000000E+00 0.  1.
          1   -1    0    0  501    0 -0.00000000000E+00 -0.00000000000E+00 -0.25126958322E+02  0.25126958322E+02  0.00000000000E+00 0.  1.
          2    1    1    2  501    0  0.18946390743E+02  0.10851977750E+02  0.17331927195E+03  0.17468915585E+03  0.00000000000E+00 0.  1.
          1    1    1    2  502    0 -0.18946390743E+02 -0.10851977750E+02 -0.19565872602E+02  0.29318160139E+02  0.00000000000E+00 0.  1.
</event>
<event>
 4    1  0.3586324E+003  0.3165886E+02  0.7546771E-02  0.1405709E+00
          2   -1    0    0  502    0  0.00000000000E+00  0.00000000000E+00  0.47633421369E+03  0.47633421369E+03  0.00000000000E+00 0. -1.
          1   -1    0    0  501    0 -0.00000000000E+00 -0.00000000000E+00 -0.54499715815E+03  0.54499715815E+03  0.00000000000E+00 0.  1.
          2    1    1    2  501    0  0.13002524881E+02 -0.28865508519E+02  0.47534745507E+03  0.47640055235E+03  0.00000000000E+00 0. -1.
          1    1    1    2  502    0 -0.13002524881E+02  0.28865508519E+02 -0.54401039953E+03  0.54493081949E+03  0.00000000000E+00 0.  1.
</event>
<event>
 4    1  0.3586324E+003  0.2270913E+02  0.7546771E-02  0.1496183E+00
          2   -1    0    0  502    0  0.00000000000E+00  0.00000000000E+00  0.59384506406E+02  0.59384506406E+02  0.00000000000E+00 0.  1.
          1   -1    0    0  501    0 -0.00000000000E+00 -0.00000000000E+00 -0.12439724122E+02  0.12439724122E+02  0.00000000000E+00 0.  1.
          2    1    1    2  501    0 -0.11612476801E+02 -0.19515502007E+02  0.43204491632E+02  0.48809143951E+02  0.00000000000E+00 0.  1.
          1    1    1    2  502    0  0.11612476801E+02  0.19515502007E+02  0.37402906521E+01  0.23015086578E+02  0.00000000000E+00 0.  1.
</event>
<event>
 4    1  0.3586324E+003  0.3445664E+02  0.7546771E-02  0.1384424E+00
          2   -1    0    0  502    0  0.00000000000E+00  0.00000000000E+00  0.99215005141E+03  0.99215005141E+03  0.00000000000E+00 0. -1.
          1   -1    0    0  501    0 -0.00000000000E+00 -0.00000000000E+00 -0.11648266854E+02  0.11648266854E+02  0.00000000000E+00 0. -1.
          2    1    1    2  501    0  0.67979479961E+01 -0.33779401060E+02  0.96567092289E+03  0.96628546059E+03  0.00000000000E+00 0. -1.
          1    1    1    2  502    0 -0.67979479961E+01  0.33779401060E+02  0.14830861661E+02  0.37512857670E+02  0.00000000000E+00 0. -1.
</event>
<event>
 4    1  0.3586324E+003  0.2189151E+02  0.7546771E-02  0.1506907E+00
          2   -1    0    0  502    0  0.00000000000E+00  0.00000000000E+00  0.17607783119E+02  0.17607783119E+02  0.00000000000E+00 0. -1.
          1   -1    0    0  501    0 -0.00000000000E+00 -0.00000000000E+00 -0.49073990700E+02  0.49073990700E+02  0.00000000000E+00 0.  1.
          2    1    1    2  501    0  0.21599382094E+02  0.35644179432E+01  0.65175357099E+01  0.22841117614E+02  0.00000000000E+00 0. -1.
          1    1    1    2  502    0 -0.21599382094E+02 -0.35644179432E+01 -0.37983743291E+02  0.43840656205E+02  0.00000000000E+00 0.  1.
</event>
<event>
 4    1  0.3586324E+003  0.4927161E+02  0.7546771E-02  0.1301362E+00
          2   -1    0    0  502    0  0.00000000000E+00  0.00000000000E+00  0.31180048168E+04  0.31180048168E+04  0.00000000000E+00 0. -1.
          1   -1    0    0  501    0 -0.00000000000E+00 -0.00000000000E+00 -0.54749271392E+02  0.54749271392E+02  0.00000000000E+00 0.  1.
          2    1    1    2  501    0 -0.35561030918E+02  0.34104323662E+02  0.31066842752E+04  0.31070749714E+04  0.00000000000E+00 0. -1.
          1    1    1    2  502    0  0.35561030918E+02 -0.34104323662E+02 -0.43428729817E+02  0.65679116817E+02  0.00000000000E+00 0.  1.
</event>
<event>
 4    1  0.3586324E+003  0.3151754E+02  0.7546771E-02  0.1406852E+00
          2   -1    0    0  502    0  0.00000000000E+00  0.00000000000E+00  0.91767908858E+03  0.91767908858E+03  0.00000000000E+00 0.  1.
          1   -1    0    0  501    0 -0.00000000000E+00 -0.00000000000E+00 -0.87586121316E+01  0.87586121316E+01  0.00000000000E+00 0.  1.
          2    1    1    2  501    0  0.25937817549E+02 -0.17904889550E+02  0.88811111002E+03  0.88867018583E+03  0.00000000000E+00 0.  1.
          1    1    1    2  502    0 -0.25937817549E+02  0.17904889550E+02  0.20809366431E+02  0.37767514881E+02  0.00000000000E+00 0.  1.
</event>
<event>
 4    1  0.3586324E+003  0.2280248E+02  0.7546771E-02  0.1494993E+00
          2   -1    0    0  502    0  0.00000000000E+00  0.00000000000E+00  0.14432254563E+04  0.14432254563E+04  0.00000000000E+00 0.  1.
          1   -1    0    0  501    0 -0.00000000000E+00 -0.00000000000E+00 -0.61306383562E+02  0.61306383562E+02  0.00000000000E+00 0. -1.
          2    1    1    2  501    0 -0.22610613006E+02 -0.29518371581E+01  0.14410118255E+04  0.14411922267E+04  0.00000000000E+00 0.  1.
          1    1    1    2  502    0  0.22610613006E+02  0.29518371581E+01 -0.59092752759E+02  0.63339613133E+02  0.00000000000E+00 0. -1.
</event>
<event>
 4    1  0.3586324E+003  0.2057250E+02  0.7546771E-02  0.1525457E+00
          2   -1    0    0  502    0  0.00000000000E+00  0.00000000000E+00  0.42225557118E+03  0.42225557118E+03  0.00000000000E+00 0. -1.
          1   -1    0    0  501    0 -0.00000000000E+00 -0.00000000000E+00 -0.29629205592E+03  0.29629205592E+03  0.00000000000E+00 0.  1.
          2    1    1    2  501    0  0.15224247052E+02 -0.13836543572E+02  0.42164737745E+03  0.42214895303E+03  0.00000000000E+00 0. -1.
          1    1    1    2  502    0 -0.15224247052E+02  0.13836543572E+02 -0.29568386218E+03  0.29639867407E+03  0.00000000000E+00 0.  1.
</event>
<event>
 4    1  0.3586324E+003  0.2380834E+02  0.7546771E-02  0.1482590E+00
          2   -1    0    0  502    0  0.00000000000E+00  0.00000000000E+00  0.66706191956E+03  0.66706191956E+03  0.00000000000E+00 0.  1.
          1   -1    0    0  501    0 -0.00000000000E+00 -0.00000000000E+00 -0.10387121821E+01  0.10387121821E+01  0.00000000000E+00 0.  1.
          2    1    1    2  501    0 -0.16948762945E+02  0.16720522215E+02  0.19053263820E+03  0.19201438136E+03  0.00000000000E+00 0.  1.
          1    1    1    2  502    0  0.16948762945E+02 -0.16720522215E+02  0.47549056917E+03  0.47608625038E+03  0.00000000000E+00 0.  1.
</event>
<event>
 4    1  0.3586324E+003  0.2883855E+02  0.7546771E-02  0.1429965E+00
          2   -1    0    0  502    0  0.00000000000E+00  0.00000000000E+00  0.56658165965E+02  0.56658165965E+02  0.00000000000E+00 0. -1.
          1   -1    0    0  501    0 -0.00000000000E+00 -0.00000000000E+00 -0.15903056834E+02  0.15903056834E+02  0.00000000000E+00 0. -1.
          2    1    1    2  501    0  0.70352398836E+01 -0.27967252397E+02  0.30444747063E+02  0.41935002451E+02  0.00000000000E+00 0. -1.
          1    1    1    2  502    0 -0.70352398836E+01  0.27967252397E+02  0.10310362067E+02  0.30626220348E+02  0.00000000000E+00 0. -1.
</event>
<event>
 4    1  0.3586324E+003  0.4886763E+02  0.7546771E-02  0.1303158E+00
          2   -1    0    0  502    0  0.00000000000E+00  0.00000000000E+00  0.21846132414E+04  0.21846132414E+04  0.00000000000E+00 0. -1.
          1   -1    0    0  501    0 -0.00000000000E+00 -0.00000000000E+00 -0.13634035679E+02  0.13634035679E+02  0.00000000000E+00 0.  1.
          2    1    1    2  501    0 -0.53336108705E+01  0.48575695911E+02  0.21396311957E+04  0.21401891737E+04  0.00000000000E+00 0. -1.
          1    1    1    2  502    0  0.53336108705E+01 -0.48575695911E+02  0.31348010082E+02  0.58058103433E+02  0.00000000000E+00 0.  1.
</event>
<event>
 4    1  0.3586324E+003  0.3173885E+02  0.7546771E-02  0.1405064E+00
          2   -1    0    0  502    0  0.00000000000E+00  0.00000000000E+00  0.20858827132E+03  0.20858827132E+03  0.00000000000E+00 0. -1.
          1   -1    0    0  501    0 -0.00000000000E+00 -0.00000000000E+00 -0.10279462144E+02  0.10279462144E+02  0.00000000000E+00 0. -1.
          2    1    1    2  501    0 -0.30267727270E+02 -0.95508728322E+01  0.17883775808E+03  0.18163231596E+03  0.00000000000E+00 0. -1.
          1    1    1    2  502    0  0.30267727270E+02  0.95508728322E+01  0.19471051099E+02  0.37235417506E+02  0.00000000000E+00 0. -1.
</event>
<event>
 4    1  0.3586324E+003  0.2049247E+02  0.7546771E-02  0.1526636E+00
          2   -1    0    0  502    0  0.00000000000E+00  0.00000000000E+00  0.10515377913E+01  0.10515377913E+01  0.00000000000E+00 0. -1.
          1   -1    0    0  501    0 -0.00000000000E+00 -0.00000000000E+00 -0.13331777526E+04  0.13331777526E+04  0.00000000000E+00 0.  1.
          2    1    1    2  501    0 -0.16384433314E+02  0.12308195785E+02 -0.10773732333E+03  0.10966892075E+03  0.00000000000E+00 0. -1.
          1    1    1    2  502    0  0.16384433314E+02 -0.12308195785E+02 -0.12243888914E+04  0.12245603696E+04  0.00000000000E+00 0.  1.
</event>
<event>
 4    1  0.3586324E+003  0.2269939E+02  0.7546771E-02  0.1496308E+00
          2   -1    0    0  502    0  0.00000000000E+00  0.00000000000E+00  0.89275110448E+03  0.89275110448E+03  0.00000000000E+00 0.  1.
          1   -1    0    0  501    0 -0.00000000000E+00 -0.00000000000E+00 -0.92534409404E+00  0.92534409404E+00  0.00000000000E+00 0. -1.
          2    1    1    2  501    0 -0.77883331013E+01  0.21321453081E+02  0.72000816780E+03  0.72036589605E+03  0.00000000000E+00 0.  1.
          1    1    1    2  502    0  0.77883331013E+01 -0.21321453081E+02  0.17181759259E+03  0.17331055252E+03  0.00000000000E+00 0. -1.
</event>
<event>
 4    1  0.3586324E+003  0.2541253E+02  0.7546771E-02  0.1464241E+00
          2   -1    0    0  502    0  0.00000000000E+00  0.00000000000E+00  0.26124637239E+03  0.26124637239E+03  0.00000000000E+00 0. -1.
          1   -1    0    0  501    0 -0.00000000000E+00 -0.00000000000E+00 -0.34787942211E+02  0.34787942211E+02  0.00000000000E+00 0.  1.
          2    1    1    2  501    0  0.11236957964E+02 -0.22793146256E+02  0.25589052621E+03  0.25714929155E+03  0.00000000000E+00 0. -1.
          1    1    1    2  502    0 -0.11236957964E+02  0.22793146256E+02 -0.29432096034E+02  0.38885023049E+02  0.00000000000E+00 0.  1.
</event>
<event>
 4    1  0.3586324E+003  0.2284384E+02  0.7546771E-02  0.1494468E+00
          2   -1    0    0  502    0  0.00000000000E+00  0.00000000000E+00  0.46960534643E+00  0.46960534643E+00  0.00000000000E+00 0. -1.
          1   -1    0    0  501    0 -0.00000000000E+00 -0.00000000000E+00 -0.13050796266E+04  0.13050796266E+04  0.00000000000E+00 0. -1.
          2    1    1    2  501    0  0.67569222154E+01 -0.21821660819E+02 -0.40072619649E+03  0.40137678736E+03  0.00000000000E+00 0. -1.
          1    1    1    2  502    0 -0.67569222154E+01  0.21821660819E+02 -0.90388382474E+03  0.90417244456E+03  0.00000000000E+00 0. -1.
</event>
<event>
 4    1  0.3586324E+003  0.2456125E+02  0.7546771E-02  0.1473772E+00
          2   -1    0    0  502    0  0.00000000000E+00  0.00000000000E+00  0.32053958728E+03  0.32053958728E+03  0.00000000000E+00 0.  1.
          1   -1    0    0  501    0 -0.00000000000E+00 -0.00000000000E+00 -0.30765312740E+02  0.30765312740E+02  0.00000000000E+00 0.  1.
          2    1    1    2  501    0  0.24548397721E+02  0.79434038175E+00  0.31508224116E+03  0.31603808869E+03  0.00000000000E+00 0.  1.
          1    1    1    2  502    0 -0.24548397721E+02 -0.79434038175E+00 -0.25307966618E+02  0.35266811334E+02  0.00000000000E+00 0.  1.
</event>
<event>
 4    1  0.4297911E+003  0.2116069E+02  0.7546771E-02  0.1516983E+00
          2   -1    0    0  502    0  0.00000000000E+00  0.00000000000E+00  0.14045100338E+04  0.14045100338E+04  0.00000000000E+00 0.  1.
          1   -1    0    0  501    0 -0.00000000000E+00 -0.00000000000E+00 -0.95404868993E+03  0.95404868993E+03  0.00000000000E+00 0. -1.
          2    1    1    2  501    0  0.12847732127E+02  0.16813997406E+02  0.14043129789E+04  0.14044723983E+04  0.00000000000E+00 0.  1.
          1    1    1    2  502    0 -0.12847732127E+02 -0.16813997406E+02 -0.95385163506E+03  0.95408632546E+03  0.00000000000E+00 0. -1.
</event>
<event>
 4    1  0.3586324E+003  0.2764035E+02  0.7546771E-02  0.1441280E+00
          2   -1    0    0  502    0  0.00000000000E+00  0.00000000000E+00  0.88047289856E+01  0.88047289856E+01  0.00000000000E+00 0. -1.
          1   -1    0    0  501    0 -0.00000000000E+00 -0.00000000000E+00 -0.26688993585E+03  0.26688993585E+03  0.00000000000E+00 0.  1.
          2    1    1    2  501    0  0.19575483465E+02  0.19513832124E+02 -0.15799238043E+02  0.31837165700E+02  0.00000000000E+00 0. -1.
          1    1    1    2  502    0 -0.19575483465E+02 -0.19513832124E+02 -0.24228596882E+03  0.24385749914E+03  0.00000000000E+00 0.  1.
</event>
<event>
 4    1  0.3586324E+003  0.2904686E+02  0.7546771E-02  0.1428064E+00
          2   -1    0    0  502    0  0.00000000000E+00  0.00000000000E+00  0.17136052621E+04  0.17136052621E+04  0.00000000000E+00 0.  1.
          1   -1    0    0  501    0 -0.00000000000E+00 -0.00000000000E+00 -0.74265753663E+00  0.74265753663E+00  0.00000000000E+00 0.  1.
          2    1    1    2  501    0  0.18343631141E+02 -0.22521791962E+02  0.13540518302E+04  0.13543633481E+04  0.00000000000E+00 0.  1.
          1    1    1    2  502    0 -0.18343631141E+02  0.22521791962E+02  0.35881077441E+03  0.35998457154E+03  0.00000000000E+00 0.  1.
</event>
<event>
 4    1  0.3586324E+003  0.2667765E+02  0.7546771E-02  0.1450873E+00
          2   -1    0    0  502    0  0.00000000000E+00  0.00000000000E+00  0.99690344226E+03  0.99690344226E+03  0.00000000000E+00 0. -1.
          1   -1    0    0  501    0 -0.00000000000E+00 -0.00000000000E+00 -0.78856374754E+01  0.78856374754E+01  0.00000000000E+00 0.  1.
          2    1    1    2  501    0  0.26221081706E+02  0.49144638589E+01  0.97362246461E+03  0.97398788528E+03  0.00000000000E+00 0. -1.
          1    1    1    2  502    0 -0.26221081706E+02 -0.49144638589E+01  0.15395340180E+02  0.30801194459E+02  0.00000000000E+00 0.  1.
</event>
<event>
 4    1  0.3586324E+003  0.6083554E+02  0.7546771E-02  0.1257020E+00
          2   -1    0    0  502    0  0.00000000000E+00  0.00000000000E+00  0.46391531627E+03  0.46391531627E+03  0.00000000000E+00 0. -1.
          1   -1    0    0  501    0 -0.00000000000E+00 -0.00000000000E+00 -0.11315064584E+03  0.11315064584E+03  0.00000000000E+00 0.  1.
          2    1    1    2  501    0 -0.33095260912E+02  0.51045733817E+02  0.45355793024E+03  0.45761966666E+03  0.00000000000E+00 0. -1.
          1    1    1    2  502    0  0.33095260912E+02 -0.51045733817E+02 -0.10279325980E+03  0.11944629545E+03  0.00000000000E+00 0.  1.
</event>
<event>
 4    1  0.3586324E+003  0.2233278E+02  0.7546771E-02  0.1501051E+00
          2   -1    0    0  502    0  0.00000000000E+00  0.00000000000E+00  0.54176928980E+03  0.54176928980E+03  0.00000000000E+00 0.  1.
          1   -1    0    0  501    0 -0.00000000000E+00 -0.00000000000E+00 -0.38828094486E+01  0.38828094486E+01  0.00000000000E+00 0. -1.
          2    1    1    2  501    0  0.86859587067E+01 -0.20574426467E+02  0.50724138669E+03  0.50773278137E+03  0.00000000000E+00 0.  1.
          1    1    1    2  502    0 -0.86859587067E+01  0.20574426467E+02  0.30645093661E+02  0.37919317882E+02  0.00000000000E+00 0. -1.
</event>
<event>
 4    1  0.3586324E+003  0.1044017E+03  0.7546771E-02  0.1156392E+00
          2   -1    0    0  502    0  0.00000000000E+00  0.00000000000E+00  0.14214608735E+04  0.14214608735E+04  0.00000000000E+00 0.  1.
          1   -1    0    0  501    0 -0.00000000000E+00 -0.00000000000E+00 -0.27209520268E+02  0.27209520268E+02  0.00000000000E+00 0.  1.
          2    1    1    2  501    0  0.91435164843E+02 -0.50391796701E+02  0.13109705435E+04  0.13151210927E+04  0.00000000000E+00 0.  1.
          1    1    1    2  502    0 -0.91435164843E+02  0.50391796701E+02  0.83280809722E+02  0.13354930106E+03  0.00000000000E+00 0.  1.
</event>
<event>
 4    1  0.3586324E+003  0.3154698E+02  0.7546771E-02  0.1406613E+00
          2   -1    0    0  502    0  0.00000000000E+00  0.00000000000E+00  0.20527027442E+02  0.20527027442E+02  0.00000000000E+00 0. -1.
          1   -1    0    0  501    0 -0.00000000000E+00 -0.00000000000E+00 -0.92792146357E+02  0.92792146357E+02  0.00000000000E+00 0. -1.
          2    1    1    2  501    0  0.87178620555E+00  0.31534931879E+02  0.30203886547E+01  0.31691239916E+02  0.00000000000E+00 0. -1.
          1    1    1    2  502    0 -0.87178620555E+00 -0.31534931879E+02 -0.75285507570E+02  0.81627933882E+02  0.00000000000E+00 0. -1.
</event>
<event>
 4    1  0.3586324E+003  0.2510555E+02  0.7546771E-02  0.1467626E+00
          2   -1    0    0  502    0  0.00000000000E+00  0.00000000000E+00  0.27205866458E+03  0.27205866458E+03  0.00000000000E+00 0. -1.
          1   -1    0    0  501    0 -0.00000000000E+00 -0.00000000000E+00 -0.18150608021E+02  0.18150608021E+02  0.00000000000E+00 0. -1.
          2    1    1    2  501    0 -0.25029602096E+02 -0.19513245324E+01  0.26248209327E+03  0.26367999153E+03  0.00000000000E+00 0. -1.
          1    1    1    2  502    0  0.25029602096E+02  0.19513245324E+01 -0.85740367088E+01  0.26529281068E+02  0.00000000000E+00 0. -1.
</event>
<event>
 4    1  0.3586324E+003  0.5192234E+02  0.7546771E-02  0.1290046E+00
          2   -1    0    0  502    0  0.00000000000E+00  0.00000000000E+00  0.62970480054E+03  0.62970480054E+03  0.00000000000E+00 0. -1.
          1   -1    0    0  501    0 -0.00000000000E+00 -0.00000000000E+00 -0.10511031246E+02  0.10511031246E+02  0.00000000000E+00 0. -1.
          2    1    1    2  501    0  0.51831975928E+02 -0.30619926471E+01  0.55603610433E+03  0.55845508221E+03  0.00000000000E+00 0. -1.
          1    1    1    2  502    0 -0.51831975928E+02  0.30619926471E+01  0.63157664967E+02  0.81760749579E+02  0.00000000000E+00 0. -1.
</event>
<event>
 4    1  0.3586324E+003  0.2457434E+02  0.7546771E-02  0.1473622E+00
          2   -1    0    0  502    0  0.00000000000E+00  0.00000000000E+00  0.19145784822E+03  0.19145784822E+03  0.00000000000E+00 0. -1.
          1   -1    0    0  501    0 -0.00000000000E+00 -0.00000000000E+00 -0.39299046528E+01  0.39299046528E+01  0.00000000000E+00 0. -1.
          2    1    1    2  501    0 -0.17535290450E+02 -0.17216614663E+02  0.13716717429E+03  0.13935111027E+03  0.00000000000E+00 0. -1.
          1    1    1    2  502    0  0.17535290450E+02  0.17216614663E+02  0.50360769274E+02  0.56036642596E+02  0.00000000000E+00 0. -1.
</event>
<event>
 4    1  0.3586324E+003  0.2039418E+02  0.7546771E-02  0.1528093E+00
          2   -1    0    0  502    0  0.00000000000E+00  0.00000000000E+00  0.19625827273E+01  0.19625827273E+01  0.00000000000E+00 0. -1.
          1   -1    0    0  501    0 -0.00000000000E+00 -0.00000000000E+00 -0.22017887166E+03  0.22017887166E+03  0.00000000000E+00 0.  1.
          2    1    1    2  501    0  0.10555629120E+02  0.17449959345E+02 -0.87604440883E+02  0.89946986885E+02  0.00000000000E+00 0. -1.
          1    1    1    2  502    0 -0.10555629120E+02 -0.17449959345E+02 -0.13061184805E+03  0.13219446750E+03  0.00000000000E+00 0.  1.
</event>
<event>
 4    1  0.3586324E+003  0.2810383E+02  0.7546771E-02  0.1436824E+00
          2   -1    0    0  502    0  0.00000000000E+00  0.00000000000E+00  0.24483485297E+01  0.24483485297E+01  0.00000000000E+00 0.  1.
          1   -1    0    0  501    0 -0.00000000000E+00 -0.00000000000E+00 -0.32881022727E+03  0.32881022727E+03  0.00000000000E+00 0.  1.
          2    1    1    2  501    0  0.25546663784E+02 -0.11712917813E+02 -0.18595289870E+03  0.18806462987E+03  0.00000000000E+00 0.  1.
          1    1    1    2  502    0 -0.25546663784E+02  0.11712917813E+02 -0.14040898004E+03  0.14319394593E+03  0.00000000000E+00 0.  1.
</event>
<event>
 4    1  0.3586324E+003  0.2803911E+02  0.7546771E-02  0.1437440E+00
          2   -1    0    0  502    0  0.00000000000E+00  0.00000000000E+00  0.43203339549E+02  0.43203339549E+02  0.00000000000E+00 0.  1.
          1   -1    0    0  501    0 -0.00000000000E+00 -0.00000000000E+00 -0.61765713283E+03  0.61765713283E+03  0.00000000000E+00 0.  1.
          2    1    1    2  501    0 -0.58126361624E+01 -0.27430003901E+02  0.38299364144E+02  0.47466126311E+02  0.00000000000E+00 0.  1.
          1    1    1    2  502    0  0.58126361624E+01  0.27430003901E+02 -0.61275315742E+03  0.61339434607E+03  0.00000000000E+00 0.  1.
</event>
<event>
 4    1  0.3586324E+003  0.3470486E+02  0.7546771E-02  0.1382650E+00
          2   -1    0    0  502    0  0.00000000000E+00  0.00000000000E+00  0.19144328133E+02  0.19144328133E+02  0.00000000000E+00 0. -1.
          1   -1    0    0  501    0 -0.00000000000E+00 -0.00000000000E+00 -0.91787162584E+02  0.91787162584E+02  0.00000000000E+00 0. -1.
          2    1    1    2  501    0  0.67240590780E+01  0.34047238146E+02 -0.52122439491E+01  0.35094086152E+02  0.00000000000E+00 0. -1.
          1    1    1    2  502    0 -0.67240590780E+01 -0.34047238146E+02 -0.67430590502E+02  0.75837404566E+02  0.00000000000E+00 0. -1.
</event>
<event>
 4    1  0.3586324E+003  0.2657774E+02  0.7546771E-02  0.1451897E+00
          2   -1    0    0  502    0  0.00000000000E+00  0.00000000000E+00  0.10353964753E+04  0.10353964753E+04  0.00000000000E+00 0.  1.
          1   -1    0    0  501    0 -0.00000000000E+00 -0.00000000000E+00 -0.17456553857E+01  0.17456553857E+01  0.00000000000E+00 0.  1.
          2    1    1    2  501    0 -0.14561629547E+02  0.22233646349E+02  0.92157183346E+03  0.92195499907E+03  0.00000000000E+00 0.  1.
          1    1    1    2  502    0  0.14561629547E+02 -0.22233646349E+02  0.11207898645E+03  0.11518713161E+03  0.00000000000E+00 0.  1.
</event>
<event>
 4    1  0.3586324E+003  0.2949424E+02  0.7546771E-02  0.1424043E+00
          2   -1    0    0  502    0  0.00000000000E+00  0.00000000000E+00  0.76751238285E+03  0.76751238285E+03  0.00000000000E+00 0. -1.
          1   -1    0    0  501    0 -0.00000000000E+00 -0.00000000000E+00 -0.38523425756E+02  0.38523425756E+02  0.00000000000E+00 0.  1.
          2    1    1    2  501    0  0.29494103864E+02  0.89754122518E-01  0.76153943517E+03  0.76211037359E+03  0.00000000000E+00 0. -1.
          1    1    1    2  502    0 -0.29494103864E+02 -0.89754122518E-01 -0.32550478073E+02  0.43925435016E+02  0.00000000000E+00 0.  1.
</event>
<event>
 4    1  0.3586324E+003  0.2534699E+02  0.7546771E-02  0.1464959E+00
          2   -1    0    0  502    0  0.00000000000E+00  0.00000000000E+00  0.37109376622E+01  0.37109376622E+01  0.00000000000E+00 0.  1.
          1   -1    0    0  501    0 -0.00000000000E+00 -0.00000000000E+00 -0.34847866442E+03  0.34847866442E+03  0.00000000000E+00 0. -1.
          2    1    1    2  501    0  0.18832313576E+01  0.25276931962E+02 -0.47469820037E+02  0.53813136538E+02  0.00000000000E+00 0.  1.
          1    1    1    2  502    0 -0.18832313576E+01 -0.25276931962E+02 -0.29729790672E+03  0.29837646554E+03  0.00000000000E+00 0. -1.
</event>
<event>
 4    1  0.3586324E+003  0.2254310E+02  0.7546771E-02  0.1498317E+00
          2   -1    0    0  502    0  0.00000000000E+00  0.00000000000E+00  0.33634024062E+01  0.33634024062E+01  0.00000000000E+00 0.  1.
          1   -1    0    0  501    0 -0.00000000000E+00 -0.00000000000E+00 -0.27858501956E+03  0.27858501956E+03  0.00000000000E+00 0.  1.
          2    1    1    2  501    0  0.22191680155E+02 -0.39649493220E+01 -0.42243440778E+02  0.47882144688E+02  0.00000000000E+00 0.  1.
          1    1    1    2  502    0 -0.22191680155E+02  0.39649493220E+01 -0.23297817637E+03  0.23406627727E+03  0.00000000000E+00 0.  1.
</event>
<event>
 4    1  0.3586324E+003  0.2669898E+02  0.7546771E-02  0.1450656E+00
          2   -1    0    0  502    0  0.00000000000E+00  0.00000000000E+00  0.88315013242E+03  0.88315013242E+03  0.00000000000E+00 0. -1.
          1   -1    0    0  501    0 -0.00000000000E+00 -0.00000000000E+00 -0.29820847738E+01  0.29820847738E+01  0.00000000000E+00 0.  1.
          2    1    1    2  501    0 -0.18068798661E+02 -0.19655889522E+02  0.81846697558E+03  0.81890232970E+03  0.00000000000E+00 0. -1.
          1    1    1    2  502    0  0.18068798661E+02  0.19655889522E+02  0.61701072069E+02  0.67229887493E+02  0.00000000000E+00 0.  1.
</event>
<event>
 4    1  0.3586324E+003  0.4444866E+02  0.7546771E-02  0.1324219E+00
          2   -1    0    0  502    0  0.00000000000E+00  0.00000000000E+00  0.69359848276E+03  0.69359848276E+03  0.00000000000E+00 0. -1.
          1   -1    0    0  501    0 -0.00000000000E+00 -0.00000000000E+00 -0.90249376688E+01  0.90249376688E+01  0.00000000000E+00 0.  1.
          2    1    1    2  501    0 -0.29289134850E+02 -0.33433958925E+02  0.63291727107E+03  0.63447612646E+03  0.00000000000E+00 0. -1.
          1    1    1    2  502    0  0.29289134850E+02  0.33433958925E+02  0.51656274028E+02  0.68147293975E+02  0.00000000000E+00 0.  1.
</event>
<event>
 4    1  0.3586324E+003  0.3625820E+02  0.7546771E-02  0.1371927E+00
          2   -1    0    0  502    0  0.00000000000E+00  0.00000000000E+00  0.11218047206E+03  0.11218047206E+03  0.00000000000E+00 0.  1.
          1   -1    0    0  501    0 -0.00000000000E+00 -0.00000000000E+00 -0.73754564752E+02  0.73754564752E+02  0.00000000000E+00 0.  1.
          2    1    1    2  501    0  0.36034350296E+02  0.40227683330E+01  0.10447518929E+03  0.11058807460E+03  0.00000000000E+00 0.  1.
          1    1    1    2  502    0 -0.36034350296E+02 -0.40227683330E+01 -0.66049281975E+02  0.75346962220E+02  0.00000000000E+00 0.  1.
</event>
<event>
 4    1  0.3586324E+003  0.2094795E+02  0.7546771E-02  0.1520009E+00
          2   -1    0    0  502    0  0.00000000000E+00  0.00000000000E+00  0.32656900965E+02  0.32656900965E+02  0.00000000000E+00 0. -1.
          1   -1    0    0  501    0 -0.00000000000E+00 -0.00000000000E+00 -0.73849184871E+02  0.73849184871E+02  0.00000000000E+00 0.  1.
          2    1    1    2  501    0 -0.60875567606E+01  0.20043912895E+02  0.27569037779E+02  0.34624682461E+02  0.00000000000E+00 0. -1.
          1    1    1    2  502    0  0.60875567606E+01 -0.20043912895E+02 -0.68761321685E+02  0.71881403376E+02  0.00000000000E+00 0.  1.
</event>
<event>
 4    1  0.3586324E+003  0.2340036E+02  0.7546771E-02  0.1487531E+00
          2   -1    0    0  502    0  0.00000000000E+00  0.00000000000E+00  0.43654037543E+03  0.43654037543E+03  0.00000000000E+00 0. -1.
          1   -1    0    0  501    0 -0.00000000000E+00 -0.00000000000E+00 -0.10928665666E+02  0.10928665666E+02  0.00000000000E+00 0.  1.
          2    1    1    2  501    0  0.20600063681E+02 -0.11100195831E+02  0.42330940444E+03  0.42395569210E+03  0.00000000000E+00 0. -1.
          1    1    1    2  502    0 -0.20600063681E+02  0.11100195831E+02  0.23023053163E+01  0.23513348994E+02  0.00000000000E+00 0.  1.
</event>
<event>
 4    1  0.3586324E+003  0.2281582E+02  0.7546771E-02  0.1494824E+00
          2   -1    0    0  502    0  0.00000000000E+00  0.00000000000E+00  0.86948259949E+03  0.86948259949E+03  0.00000000000E+00 0. -1.
          1   -1    0    0  501    0 -0.00000000000E+00 -0.00000000000E+00 -0.85414433457E+00  0.85414433457E+00  0.00000000000E+00 0. -1.
          2    1    1    2  501    0  0.22722740658E+02  0.20587930188E+01  0.67229262810E+03  0.67267967070E+03  0.00000000000E+00 0. -1.
          1    1    1    2  502    0 -0.22722740658E+02 -0.20587930188E+01  0.19633582705E+03  0.19765707313E+03  0.00000000000E+00 0. -1.
</event>
<event>
 4    1  0.3586324E+003  0.2093233E+02  0.7546771E-02  0.1520233E+00
          2   -1    0    0  502    0  0.00000000000E+00  0.00000000000E+00  0.45747335628E+01  0.45747335628E+01  0.00000000000E+00 0.  1.
          1   -1    0    0  501    0 -0.00000000000E+00 -0.00000000000E+00 -0.16698924638E+03  0.16698924638E+03  0.00000000000E+00 0.  1.
          2    1    1    2  501    0  0.13338115050E+02 -0.16132484378E+02 -0.25189746165E+02  0.32751880513E+02  0.00000000000E+00 0.  1.
          1    1    1    2  502    0 -0.13338115050E+02  0.16132484378E+02 -0.13722476665E+03  0.13881209943E+03  0.00000000000E+00 0.  1.
</event>
<event>
 4    1  0.3586324E+003  0.2509141E+02  0.7546771E-02  0.1467783E+00
          2   -1    0    0  502    0  0.00000000000E+00  0.00000000000E+00  0.16349485109E+04  0.16349485109E+04  0.00000000000E+00 0.  1.
          1   -1    0    0  501    0 -0.00000000000E+00 -0.00000000000E+00 -0.78784975019E+02  0.78784975019E+02  0.00000000000E+00 0. -1.
          2    1    1    2  501    0  0.23132183582E+02 -0.97201247057E+01  0.16328519015E+04  0.16330446752E+04  0.00000000000E+00 0.  1.
          1    1    1    2  502    0 -0.23132183582E+02  0.97201247057E+01 -0.76688365694E+02  0.80688810714E+02  0.00000000000E+00 0. -1.
</event>
<event>
 4    1  0.3586324E+003  0.3002959E+02  0.7546771E-02  0.1419340E+00
          2   -1    0    0  502    0  0.00000000000E+00  0.00000000000E+00  0.13991847903E+02  0.13991847903E+02  0.00000000000E+00 0.  1.
          1   -1    0    0  501    0 -0.00000000000E+00 -0.00000000000E+00 -0.57349236492E+03  0.57349236492E+03  0.00000000000E+00 0. -1.
          2    1    1    2  501    0  0.76369704243E+01 -0.29042259376E+02 -0.30055655147E+01  0.30179621784E+02  0.00000000000E+00 0.  1.
          1    1    1    2  502    0 -0.76369704243E+01  0.29042259376E+02 -0.55649495150E+03  0.55730459104E+03  0.00000000000E+00 0. -1.
</event>
<event>
 4    1  0.3586324E+003  0.3269689E+02  0.7546771E-02  0.1397520E+00
          2   -1    0    0  502    0  0.00000000000E+00  0.00000000000E+00  0.17399420654E+04  0.17399420654E+04  0.00000000000E+00 0. -1.
          1   -1    0    0  501    0 -0.00000000000E+00 -0.00000000000E+00 -0.83315984666E+02  0.83315984666E+02  0.00000000000E+00 0.  1.
          2    1    1    2  501    0  0.44191862282E+00  0.32693907271E+02  0.17365743068E+04  0.17368820945E+04  0.00000000000E+00 0. -1.
          1    1    1    2  502    0 -0.44191862282E+00 -0.32693907271E+02 -0.79948226062E+02  0.86375955654E+02  0.00000000000E+00 0.  1.
</event>
<event>
 4    1  0.3586324E+003  0.2007822E+02  0.7546771E-02  0.1532843E+00
          2   -1    0    0  502    0  0.00000000000E+00  0.00000000000E+00  0.10702335880E+04  0.10702335880E+04  0.00000000000E+00 0.  1.
          1   -1    0    0  501    0 -0.00000000000E+00 -0.00000000000E+00 -0.46089184988E+01  0.46089184988E+01  0.00000000000E+00 0.  1.
          2    1    1    2  501    0 -0.19114610578E+02  0.61454382369E+01  0.10478042725E+04  0.10479966260E+04  0.00000000000E+00 0.  1.
          1    1    1    2  502    0  0.19114610578E+02 -0.61454382369E+01  0.17820397057E+02  0.26845880502E+02  0.00000000000E+00 0.  1.
</event>
<event>
 4    1  0.3586324E+003  0.2746372E+02  0.7546771E-02  0.1443005E+00
          2   -1    0    0  502    0  0.00000000000E+00  0.00000000000E+00  0.14813691885E+04  0.14813691885E+04  0.00000000000E+00 0. -1.
          1   -1    0    0  501    0 -0.00000000000E+00 -0.00000000000E+00 -0.51803814551E+00  0.51803814551E+00  0.00000000000E+00 0. -1.
          2    1    1    2  501    0 -0.12606474200E+02  0.24399444653E+02  0.83741621691E+03  0.83786644307E+03  0.00000000000E+00 0. -1.
          1    1    1    2  502    0  0.12606474200E+02 -0.24399444653E+02  0.64343493344E+03  0.64402078356E+03  0.00000000000E+00 0. -1.
</event>
<event>
 4    1  0.3586324E+003  0.2804112E+02  0.7546771E-02  0.1437421E+00
          2   -1    0    0  502    0  0.00000000000E+00  0.00000000000E+00  0.44787724163E+02  0.44787724163E+02  0.00000000000E+00 0.  1.
          1   -1    0    0  501    0 -0.00000000000E+00 -0.00000000000E+00 -0.97323120049E+03  0.97323120049E+03  0.00000000000E+00 0. -1.
          2    1    1    2  501    0 -0.22316581523E+02  0.16978652224E+02  0.40175785435E+02  0.48993858569E+02  0.00000000000E+00 0.  1.
          1    1    1    2  502    0  0.22316581523E+02 -0.16978652224E+02 -0.96861926176E+03  0.96902506609E+03  0.00000000000E+00 0. -1.
</event>
<event>
 4    1  0.3586324E+003  0.2180325E+02  0.7546771E-02  0.1508099E+00
          2   -1    0    0  502    0  0.00000000000E+00  0.00000000000E+00  0.10066086737E+04  0.10066086737E+04  0.00000000000E+00 0.  1.
          1   -1    0    0  501    0 -0.00000000000E+00 -0.00000000000E+00 -0.19950239357E+01  0.19950239357E+01  0.00000000000E+00 0.  1.
          2    1    1    2  501    0  0.18394584226E+02 -0.11705593498E+02  0.94289486737E+03  0.94314691992E+03  0.00000000000E+00 0.  1.
          1    1    1    2  502    0 -0.18394584226E+02  0.11705593498E+02  0.61718782357E+02  0.65456777675E+02  0.00000000000E+00 0.  1.
</event>
<event>
 4    1  0.3586324E+003  0.2385140E+02  0.7546771E-02  0.1482075E+00
          2   -1    0    0  502    0  0.00000000000E+00  0.00000000000E+00  0.26930336926E+01  0.26930336926E+01  0.00000000000E+00 0. -1.
          1   -1    0    0  501    0 -0.00000000000E+00 -0.00000000000E+00 -0.25099909924E+03  0.25099909924E+03  0.00000000000E+00 0. -1.
          2    1    1    2  501    0 -0.90073960408E+01  0.22085205926E+02 -0.73671481852E+02  0.77436275366E+02  0.00000000000E+00 0. -1.
          1    1    1    2  502    0  0.90073960408E+01 -0.22085205926E+02 -0.17463458370E+03  0.17625585757E+03  0.00000000000E+00 0. -1.
</event>
<event>
 4    1  0.3586324E+003  0.2142092E+02  0.7546771E-02  0.1513339E+00
          2   -1    0    0  502    0  0.00000000000E+00  0.00000000000E+00  0.10471731966E+03  0.10471731966E+03  0.00000000000E+00 0.  1.
          1   -1    0    0  501    0 -0.00000000000E+00 -0.00000000000E+00 -0.86399343193E+02  0.86399343193E+02  0.00000000000E+00 0.  1.
          2    1    1    2  501    0 -0.18261489644E+02 -0.11197041498E+02  0.10226261074E+03  0.10448204295E+03  0.00000000000E+00 0.  1.
          1    1    1    2  502    0  0.18261489644E+02  0.11197041498E+02 -0.83944634277E+02  0.86634619906E+02  0.00000000000E+00 0.  1.
</event>
<event>
 4    1  0.3586324E+003  0.2725475E+02  0.7546771E-02  0.1445066E+00
          2   -1    0    0  502    0  0.00000000000E+00  0.00000000000E+00  0.39165021198E+03  0.39165021198E+03  0.00000000000E+00 0. -1.
          1   -1    0    0  501    0 -0.00000000000E+00 -0.00000000000E+00 -0.20472592565E+01  0.20472592565E+01  0.00000000000E+00 0. -1.
          2    1    1    2  501    0  0.94680936019E+01  0.25557320252E+02  0.24819385315E+03  0.24968582289E+03  0.00000000000E+00 0. -1.
          1    1    1    2  502    0 -0.94680936019E+01 -0.25557320252E+02  0.14140909958E+03  0.14401164834E+03  0.00000000000E+00 0. -1.
</event>
<event>
 4    1  0.3586324E+003  0.2244141E+02  0.7546771E-02  0.1499634E+00
          2   -1    0    0  502    0  0.00000000000E+00  0.00000000000E+00  0.22343265488E+03  0.22343265488E+03  0.00000000000E+00 0.  1.
          1   -1    0    0  501    0 -0.00000000000E+00 -0.00000000000E+00 -0.15422465201E+02  0.15422465201E+02  0.00000000000E+00 0. -1.
          2    1    1    2  501    0  0.19109144249E+02 -0.11766789566E+02  0.21436092324E+03  0.21553241553E+03  0.00000000000E+00 0.  1.
          1    1    1    2  502    0 -0.19109144249E+02  0.11766789566E+02 -0.63507335660E+01  0.23322704549E+02  0.00000000000E+00 0. -1.
</event>
<event>
 4    1  0.3586324E+003  0.2339700E+02  0.7546771E-02  0.1487572E+00
          2   -1    0    0  502    0  0.00000000000E+00  0.00000000000E+00  0.51928714549E+02  0.51928714549E+02  0.00000000000E+00 0. -1.
          1   -1    0    0  501    0 -0.00000000000E+00 -0.00000000000E+00 -0.77555392593E+03  0.77555392593E+03  0.00000000000E+00 0.  1.
          2    1    1    2  501    0  0.20611522191E+00 -0.23396096119E+02  0.49107194121E+02  0.54396105665E+02  0.00000000000E+00 0. -1.
          1    1    1    2  502    0 -0.20611522191E+00  0.23396096119E+02 -0.77273240550E+03  0.77308653481E+03  0.00000000000E+00 0.  1.
</event>
<event>
 4    1  0.3586324E+003  0.3416359E+02  0.7546771E-02  0.1386541E+00
          2   -1    0    0  502    0  0.00000000000E+00  0.00000000000E+00  0.22366812142E+03  0.22366812142E+03  0.00000000000E+00 0.  1.
          1   -1    0    0  501    0 -0.00000000000E+00 -0.00000000000E+00 -0.15122791295E+03  0.15122791295E+03  0.00000000000E+00 0. -1.
          2    1    1    2  501    0 -0.70077880124E+01 -0.33437136643E+02  0.22040571723E+03  0.22303773535E+03  0.00000000000E+00 0.  1.
          1    1    1    2  502    0  0.70077880124E+01  0.33437136643E+02 -0.14796550876E+03  0.15185829902E+03  0.00000000000E+00 0. -1.
</event>
<event>
 4    1  0.3586324E+003  0.2004728E+02  0.7546771E-02  0.1533314E+00
          2   -1    0    0  502    0  0.00000000000E+00  0.00000000000E+00  0.65943312783E+03  0.65943312783E+03  0.00000000000E+00 0.  1.
          1   -1    0    0  501    0 -0.00000000000E+00 -0.00000000000E+00 -0.37355217630E+01  0.37355217630E+01  0.00000000000E+00 0.  1.
          2    1    1    2  501    0 -0.20020174691E+02  0.10422215675E+01  0.63118036867E+03  0.63149865512E+03  0.00000000000E+00 0.  1.
          1    1    1    2  502    0  0.20020174691E+02 -0.10422215675E+01  0.24517237393E+02  0.31669994472E+02  0.00000000000E+00 0.  1.
</event>
<event>
 4    1  0.3586324E+003  0.2740908E+02  0.7546771E-02  0.1443542E+00
          2   -1    0    0  502    0  0.00000000000E+00  0.00000000000E+00  0.51671737770E+02  0.51671737770E+02  0.00000000000E+00 0.  1.
          1   -1    0    0  501    0 -0.00000000000E+00 -0.00000000000E+00 -0.14559135245E+02  0.14559135245E+02  0.00000000000E+00 0.  1.
          2    1    1    2  501    0  0.11993804544E+02 -0.24645601763E+02  0.17325752130E+02  0.32425895833E+02  0.00000000000E+00 0.  1.
          1    1    1    2  502    0 -0.11993804544E+02  0.24645601763E+02  0.19786850396E+02  0.33804977182E+02  0.00000000000E+00 0.  1.
</event>
<event>
 4    1  0.3586324E+003  0.2476318E+02  0.7546771E-02  0.1471470E+00
          2   -1    0    0  502    0  0.00000000000E+00  0.00000000000E+00  0.78969655368E+03  0.78969655368E+03  0.00000000000E+00 0. -1.
          1   -1    0    0  501    0 -0.00000000000E+00 -0.00000000000E+00 -0.11278167180E+01  0.11278167180E+01  0.00000000000E+00 0. -1.
          2    1    1    2  501    0 -0.10632065755E+02 -0.22364562607E+02  0.17360162875E+03  0.17535888910E+03  0.00000000000E+00 0. -1.
          1    1    1    2  502    0  0.10632065755E+02  0.22364562607E+02  0.61496710821E+03  0.61546548130E+03  0.00000000000E+00 0. -1.
</event>
<event>
 4    1  0.3586324E+003  0.2670326E+02  0.7546771E-02  0.1450612E+00
          2   -1    0    0  502    0  0.00000000000E+00  0.00000000000E+00  0.21411160356E+03  0.21411160356E+03  0.00000000000E+00 0.  1.
          1   -1    0    0  501    0 -0.00000000000E+00 -0.00000000000E+00 -0.59445200849E+01  0.59445200849E+01  0.00000000000E+00 0.  1.
          2    1    1    2  501    0  0.26595483133E+02  0.23967246157E+01  0.17704827171E+03  0.17905070379E+03  0.00000000000E+00 0.  1.
          1    1    1    2  502    0 -0.26595483133E+02 -0.23967246157E+01  0.31118811770E+02  0.41005419861E+02  0.00000000000E+00 0.  1.
</event>
<event>
 4    1  0.3586324E+003  0.2278220E+02  0.7546771E-02  0.1495251E+00
          2   -1    0    0  502    0  0.00000000000E+00  0.00000000000E+00  0.53287485090E+03  0.53287485090E+03  0.00000000000E+00 0.  1.
          1   -1    0    0  501    0 -0.00000000000E+00 -0.00000000000E+00 -0.25814243691E+02  0.25814243691E+02  0.00000000000E+00 0. -1.
          2    1    1    2  501    0 -0.16364982693E+02 -0.15849792386E+02  0.52755410248E+03  0.52804579311E+03  0.00000000000E+00 0.  1.
          1    1    1    2  502    0  0.16364982693E+02  0.15849792386E+02 -0.20493495271E+02  0.30643301481E+02  0.00000000000E+00 0. -1.
</event>
<event>
 4    1  0.3586324E+003  0.2281817E+02  0.7546771E-02  0.1494794E+00
          2   -1    0    0  502    0  0.00000000000E+00  0.00000000000E+00  0.22180887396E+03  0.22180887396E+03  0.00000000000E+00 0.  1.
          1   -1    0    0  501    0 -0.00000000000E+00 -0.00000000000E+00 -0.61315639455E+02  0.61315639455E+02  0.00000000000E+00 0. -1.
          2    1    1    2  501    0  0.11573885058E+02 -0.19665044747E+02  0.21907268298E+03  0.22025782444E+03  0.00000000000E+00 0.  1.
          1    1    1    2  502    0 -0.11573885058E+02  0.19665044747E+02 -0.58579448469E+02  0.62866688978E+02  0.00000000000E+00 0. -1.
</event>
<event>
 4    1  0.3586324E+003  0.2741725E+02  0.7546771E-02  0.1443461E+00
          2   -1    0    0  502    0  0.00000000000E+00  0.00000000000E+00  0.91232255287E+02  0.91232255287E+02  0.00000000000E+00 0.  1.
          1   -1    0    0  501    0 -0.00000000000E+00 -0.00000000000E+00 -0.24422315260E+02  0.24422315260E+02  0.00000000000E+00 0. -1.
          2    1    1    2  501    0 -0.26998659093E+02 -0.47726452535E+01  0.80477417968E+02  0.85019530334E+02  0.00000000000E+00 0.  1.
          1    1    1    2  502    0  0.26998659093E+02  0.47726452535E+01 -0.13667477941E+02  0.30635040212E+02  0.00000000000E+00 0. -1.
</event>
<event>
 4    1  0.3586324E+003  0.2325709E+02  0.7546771E-02  0.1489295E+00
          2   -1    0    0  502    0  0.00000000000E+00  0.00000000000E+00  0.87396782715E+00  0.87396782715E+00  0.00000000000E+00 0.  1.
          1   -1    0    0  501    0 -0.00000000000E+00 -0.00000000000E+00 -0.18309745003E+04  0.18309745003E+04  0.00000000000E+00 0. -1.
          2    1    1    2  501    0 -0.30497426011E+00  0.23255087078E+02 -0.16983041867E+03  0.17141546951E+03  0.00000000000E+00 0.  1.
          1    1    1    2  502    0  0.30497426011E+00 -0.23255087078E+02 -0.16602701138E+04  0.16604329986E+04  0.00000000000E+00 0. -1.
</event>
<event>
 4    1  0.3586324E+003  0.2916843E+02  0.7546771E-02  0.1426963E+00
          2   -1    0    0  502    0  0.00000000000E+00  0.00000000000E+00  0.30097000271E+01  0.30097000271E+01  0.00000000000E+00 0. -1.
          1   -1    0    0  501    0 -0.00000000000E+00 -0.00000000000E+00 -0.57091488458E+03  0.57091488458E+03  0.00000000000E+00 0.  1.
          2    1    1    2  501    0  0.25705828014E+02 -0.13784332121E+02 -0.80056658285E+02  0.85204846937E+02  0.00000000000E+00 0. -1.
          1    1    1    2  502    0 -0.25705828014E+02  0.13784332121E+02 -0.48784852626E+03  0.48871973766E+03  0.00000000000E+00 0.  1.
</event>
<event>
 4    1  0.3586324E+003  0.2977839E+02  0.7546771E-02  0.1421532E+00
          2   -1    0    0  502    0  0.00000000000E+00  0.00000000000E+00  0.10314276148E+04  0.10314276148E+04  0.00000000000E+00 0. -1.
          1   -1    0    0  501    0 -0.00000000000E+00 -0.00000000000E+00 -0.15165402639E+01  0.15165402639E+01  0.00000000000E+00 0. -1.
          2    1    1    2  501    0 -0.11931383165E+02 -0.27283594118E+02  0.85484588402E+03  0.85536438892E+03  0.00000000000E+00 0. -1.
          1    1    1    2  502    0  0.11931383165E+02  0.27283594118E+02  0.17506519054E+03  0.17757976617E+03  0.00000000000E+00 0. -1.
</event>
<event>
 4    1  0.3586324E+003  0.3702275E+02  0.7546771E-02  0.1366875E+00
          2   -1    0    0  502    0  0.00000000000E+00  0.00000000000E+00  0.24318452222E+02  0.24318452222E+02  0.00000000000E+00 0.  1.
          1   -1    0    0  501    0 -0.00000000000E+00 -0.00000000000E+00 -0.97645663421E+02  0.97645663421E+02  0.00000000000E+00 0. -1.
          2    1    1    2  501    0  0.36933017230E+02  0.25760816592E+01  0.29874238200E+01  0.37143083602E+02  0.00000000000E+00 0.  1.
          1    1    1    2  502    0 -0.36933017230E+02 -0.25760816592E+01 -0.76314635019E+02  0.84821032040E+02  0.00000000000E+00 0. -1.
</event>
<event>
 4    1  0.3586324E+003  0.2430490E+02  0.7546771E-02  0.1476732E+00
          2   -1    0    0  502    0  0.00000000000E+00  0.00000000000E+00  0.59061361304E+01  0.59061361304E+01  0.00000000000E+00 0. -1.
          1   -1    0    0  501    0 -0.00000000000E+00 -0.00000000000E+00 -0.52656882151E+03  0.52656882151E+03  0.00000000000E+00 0.  1.
          2    1    1    2  501    0  0.23365764004E+02 -0.66909850188E+01 -0.20709557721E+02  0.31931395037E+02  0.00000000000E+00 0. -1.
          1    1    1    2  502    0 -0.23365764004E+02  0.66909850188E+01 -0.49995312766E+03  0.50054356261E+03  0.00000000000E+00 0.  1.
</event>
<event>
 4    1  0.3586324E+003  0.2095305E+02  0.7546771E-02  0.1519936E+00
          2   -1    0    0  502    0  0.00000000000E+00  0.00000000000E+00  0.10714023904E+02  0.10714023904E+02  0.00000000000E+00 0.  1.
          1   -1    0    0  501    0 -0.00000000000E+00 -0.00000000000E+00 -0.88778248409E+03  0.88778248409E+03  0.00000000000E+00 0.  1.
          2    1    1    2  501    0 -0.11603654164E+02  0.17446644898E+02  0.22362353733E+00  0.20954240994E+02  0.00000000000E+00 0.  1.
          1    1    1    2  502    0  0.11603654164E+02 -0.17446644898E+02 -0.87729208373E+03  0.87754226700E+03  0.00000000000E+00 0.  1.
</event>
<event>
 4    1  0.3586324E+003  0.2403476E+02  0.7546771E-02  0.1479898E+00
          2   -1    0    0  502    0  0.00000000000E+00  0.00000000000E+00  0.13618363763E+03  0.13618363763E+03  0.00000000000E+00 0.  1.
          1   -1    0    0  501    0 -0.00000000000E+00 -0.00000000000E+00 -0.13027654718E+02  0.13027654718E+02  0.00000000000E+00 0. -1.
          2    1    1    2  501    0  0.23244349731E+02  0.61130985207E+01  0.12284539754E+03  0.12517452403E+03  0.00000000000E+00 0.  1.
          1    1    1    2  502    0 -0.23244349731E+02 -0.61130985207E+01  0.31058536593E+00  0.24036768319E+02  0.00000000000E+00 0. -1.
</event>
<event>
 4    1  0.3586324E+003  0.2536703E+02  0.7546771E-02  0.1464739E+00
          2   -1    0    0  502    0  0.00000000000E+00  0.00000000000E+00  0.21113198233E+03  0.21113198233E+03  0.00000000000E+00 0. -1.
          1   -1    0    0  501    0 -0.00000000000E+00 -0.00000000000E+00 -0.23575081438E+02  0.23575081438E+02  0.00000000000E+00 0. -1.
          2    1    1    2  501    0  0.21993754437E+02  0.12639658425E+02  0.20328380994E+03  0.20486042463E+03  0.00000000000E+00 0. -1.
          1    1    1    2  502    0 -0.21993754437E+02 -0.12639658425E+02 -0.15726909046E+02  0.29846639132E+02  0.00000000000E+00 0. -1.
</event>
<event>
 4    1  0.3586324E+003  0.3476915E+02  0.7546771E-02  0.1382193E+00
          2   -1    0    0  502    0  0.00000000000E+00  0.00000000000E+00  0.96267529067E+03  0.96267529067E+03  0.00000000000E+00 0. -1.
          1   -1    0    0  501    0 -0.00000000000E+00 -0.00000000000E+00 -0.14064527467E+01  0.14064527467E+01  0.00000000000E+00 0.  1.
          2    1    1    2  501    0 -0.31234602934E+02 -0.15273953189E+02  0.63841736656E+03  0.63936345532E+03  0.00000000000E+00 0. -1.
          1    1    1    2  502    0  0.31234602934E+02  0.15273953189E+02  0.32285147136E+03  0.32471828810E+03  0.00000000000E+00 0.  1.
</event>
<event>
 4    1  0.3586324E+003  0.8733918E+02  0.7546771E-02  0.1187763E+00
          2   -1    0    0  502    0  0.00000000000E+00  0.00000000000E+00  0.25777498491E+03  0.25777498491E+03  0.00000000000E+00 0. -1.
          1   -1    0    0  501    0 -0.00000000000E+00 -0.00000000000E+00 -0.12536989867E+03  0.12536989867E+03  0.00000000000E+00 0.  1.
          2    1    1    2  501    0 -0.84389688335E+02 -0.22505829259E+02  0.23364614995E+03  0.24943667580E+03  0.00000000000E+00 0. -1.
          1    1    1    2  502    0  0.84389688335E+02  0.22505829259E+02 -0.10124106371E+03  0.13370820779E+03  0.00000000000E+00 0.  1.
</event>
<event>
 4    1  0.3586324E+003  0.2083305E+02  0.7546771E-02  0.1521662E+00
          2   -1    0    0  502    0  0.00000000000E+00  0.00000000000E+00  0.86003439671E+02  0.86003439671E+02  0.00000000000E+00 0. -1.
          1   -1    0    0  501    0 -0.00000000000E+00 -0.00000000000E+00 -0.65754852068E+01  0.65754852068E+01  0.00000000000E+00 0. -1.
          2    1    1    2  501    0  0.20826714571E+02  0.51391509288E+00  0.62035315188E+02  0.65440021997E+02  0.00000000000E+00 0. -1.
          1    1    1    2  502    0 -0.20826714571E+02 -0.51391509288E+00  0.17392639276E+02  0.27138902880E+02  0.00000000000E+00 0. -1.
</event>
<event>
 4    1  0.3586324E+003  0.3644841E+02  0.7546771E-02  0.1370657E+00
          2   -1    0    0  502    0  0.00000000000E+00  0.00000000000E+00  0.39419595301E+03  0.39419595301E+03  0.00000000000E+00 0. -1.
          1   -1    0    0  501    0 -0.00000000000E+00 -0.00000000000E+00 -0.23303248296E+03  0.23303248296E+03  0.00000000000E+00 0.  1.
          2    1    1    2  501    0 -0.32345427432E+02  0.16800582696E+02  0.39191994929E+03  0.39361114429E+03  0.00000000000E+00 0. -1.
          1    1    1    2  502    0  0.32345427432E+02 -0.16800582696E+02 -0.23075647925E+03  0.23361729168E+03  0.00000000000E+00 0.  1.
</event>
<event>
 4    1  0.3586324E+003  0.2228137E+02  0.7546771E-02  0.1501725E+00
          2   -1    0    0  502    0  0.00000000000E+00  0.00000000000E+00  0.10731142681E+04  0.10731142681E+04  0.00000000000E+00 0.  1.
          1   -1    0    0  501    0 -0.00000000000E+00 -0.00000000000E+00 -0.51618762942E+02  0.51618762942E+02  0.00000000000E+00 0.  1.
          2    1    1    2  501    0  0.13674674854E+02 -0.17591551688E+02  0.10705884851E+04  0.10708203229E+04  0.00000000000E+00 0.  1.
          1    1    1    2  502    0 -0.13674674854E+02  0.17591551688E+02 -0.49092979945E+02  0.53912708178E+02  0.00000000000E+00 0.  1.
</event>
<event>
 4    1  0.3586324E+003  0.3679531E+02  0.7546771E-02  0.1368363E+00
          2   -1    0    0  502    0  0.00000000000E+00  0.00000000000E+00  0.15768399792E+04  0.15768399792E+04  0.00000000000E+00 0.  1.
          1   -1    0    0  501    0 -0.00000000000E+00 -0.00000000000E+00 -0.37605920438E+01  0.37605920438E+01  0.00000000000E+00 0.  1.
          2    1    1    2  501    0 -0.29617058072E+02  0.21834027097E+02  0.14807821735E+04  0.14812392583E+04  0.00000000000E+00 0.  1.
          1    1    1    2  502    0  0.29617058072E+02 -0.21834027097E+02  0.92297213641E+02  0.99361312964E+02  0.00000000000E+00 0.  1.
</event>
<event>
 4    1  0.3586324E+003  0.3490916E+02  0.7546771E-02  0.1381203E+00
          2   -1    0    0  502    0  0.00000000000E+00  0.00000000000E+00  0.13746083944E+01  0.13746083944E+01  0.00000000000E+00 0. -1.
          1   -1    0    0  501    0 -0.00000000000E+00 -0.00000000000E+00 -0.88745227695E+03  0.88745227695E+03  0.00000000000E+00 0. -1.
          2    1    1    2  501    0  0.44206212813E+01 -0.34628117987E+02 -0.45726987865E+03  0.45860046922E+03  0.00000000000E+00 0. -1.
          1    1    1    2  502    0 -0.44206212813E+01  0.34628117987E+02 -0.42880778991E+03  0.43022641613E+03  0.00000000000E+00 0. -1.
</event>
<event>
 4    1  0.3586324E+003  0.2393543E+02  0.7546771E-02  0.1481074E+00
          2   -1    0    0  502    0  0.00000000000E+00  0.00000000000E+00  0.23468090115E+03  0.23468090115E+03  0.00000000000E+00 0. -1.
          1   -1    0    0  501    0 -0.00000000000E+00 -0.00000000000E+00 -0.53285673408E+02  0.53285673408E+02  0.00000000000E+00 0.  1.
          2    1    1    2  501    0  0.23904849216E+02  0.12095917387E+01  0.23134403883E+03  0.23257895268E+03  0.00000000000E+00 0. -1.
          1    1    1    2  502    0 -0.23904849216E+02 -0.12095917387E+01 -0.49948811087E+02  0.55387621877E+02  0.00000000000E+00 0.  1.
</event>
<event>
 4    1  0.3586324E+003  0.7923756E+02  0.7546771E-02  0.1205629E+00
          2   -1    0    0  502    0  0.00000000000E+00  0.00000000000E+00  0.46474283493E+04  0.46474283493E+04  0.00000000000E+00 0.  1.
          1   -1    0    0  501    0 -0.00000000000E+00 -0.00000000000E+00 -0.43303246402E+01  0.43303246402E+01  0.00000000000E+00 0.  1.
          2    1    1    2  501    0 -0.18276898147E+02 -0.77100884099E+02  0.42507931518E+04  0.42515316076E+04  0.00000000000E+00 0.  1.
          1    1    1    2  502    0  0.18276898147E+02  0.77100884099E+02  0.39230487295E+03  0.40022706639E+03  0.00000000000E+00 0.  1.
</event>
<event>
 4    1  0.3586324E+003  0.2693214E+02  0.7546771E-02  0.1448291E+00
          2   -1    0    0  502    0  0.00000000000E+00  0.00000000000E+00  0.42976915956E+03  0.42976915956E+03  0.00000000000E+00 0. -1.
          1   -1    0    0  501    0 -0.00000000000E+00 -0.00000000000E+00 -0.38172637483E+03  0.38172637483E+03  0.00000000000E+00 0.  1.
          2    1    1    2  501    0 -0.27877126297E+00  0.26930698156E+02  0.42887119060E+03  0.42971599731E+03  0.00000000000E+00 0. -1.
          1    1    1    2  502    0  0.27877126297E+00 -0.26930698156E+02 -0.38082840587E+03  0.38177953708E+03  0.00000000000E+00 0.  1.
</event>
<event>
 4    1  0.3586324E+003  0.2169997E+02  0.7546771E-02  0.1509501E+00
          2   -1    0    0  502    0  0.00000000000E+00  0.00000000000E+00  0.17060044574E+01  0.17060044574E+01  0.00000000000E+00 0. -1.
          1   -1    0    0  501    0 -0.00000000000E+00 -0.00000000000E+00 -0.93011811626E+03  0.93011811626E+03  0.00000000000E+00 0. -1.
          2    1    1    2  501    0  0.41410041907E+01 -0.21301187461E+02 -0.73493917239E+02  0.76630570754E+02  0.00000000000E+00 0. -1.
          1    1    1    2  502    0 -0.41410041907E+01  0.21301187461E+02 -0.85491819456E+03  0.85519354996E+03  0.00000000000E+00 0. -1.
</event>
<event>
 4    1  0.3586324E+003  0.2018025E+02  0.7546771E-02  0.1531298E+00
          2   -1    0    0  502    0  0.00000000000E+00  0.00000000000E+00  0.20233183223E+03  0.20233183223E+03  0.00000000000E+00 0. -1.
          1   -1    0    0  501    0 -0.00000000000E+00 -0.00000000000E+00 -0.55417584944E+01  0.55417584944E+01  0.00000000000E+00 0. -1.
          2    1    1    2  501    0 -0.15250405963E+02 -0.13216179788E+02  0.18133659933E+03  0.18245603456E+03  0.00000000000E+00 0. -1.
          1    1    1    2  502    0  0.15250405963E+02  0.13216179788E+02  0.15453474404E+02  0.25417556164E+02  0.00000000000E+00 0. -1.
</event>
<event>
 4    1  0.3586324E+003  0.3283339E+02  0.7546771E-02  0.1396470E+00
          2   -1    0    0  502    0  0.00000000000E+00  0.00000000000E+00  0.15055134627E+01  0.15055134627E+01  0.00000000000E+00 0. -1.
          1   -1    0    0  501    0 -0.00000000000E+00 -0.00000000000E+00 -0.12161434371E+04  0.12161434371E+04  0.00000000000E+00 0.  1.
          2    1    1    2  501    0 -0.11033378478E+02  0.30924038064E+02 -0.21690729805E+03  0.21937822936E+03  0.00000000000E+00 0. -1.
          1    1    1    2  502    0  0.11033378478E+02 -0.30924038064E+02 -0.99773062555E+03  0.99827072116E+03  0.00000000000E+00 0.  1.
</event>
<event>
 4    1  0.3586324E+003  0.3233295E+02  0.7546771E-02  0.1400350E+00
          2   -1    0    0  502    0  0.00000000000E+00  0.00000000000E+00  0.97619919235E+02  0.97619919235E+02  0.00000000000E+00 0. -1.
          1   -1    0    0  501    0 -0.00000000000E+00 -0.00000000000E+00 -0.36177615033E+02  0.36177615033E+02  0.00000000000E+00 0. -1.
          2    1    1    2  501    0 -0.31960426762E+02 -0.48939521725E+01  0.86851808311E+02  0.92675003391E+02  0.00000000000E+00 0. -1.
          1    1    1    2  502    0  0.31960426762E+02  0.48939521725E+01 -0.25409504109E+02  0.41122530877E+02  0.00000000000E+00 0. -1.
</event>
<event>
 4    1  0.3586324E+003  0.2663892E+02  0.7546771E-02  0.1451269E+00
          2   -1    0    0  502    0  0.00000000000E+00  0.00000000000E+00  0.10854125832E+02  0.10854125832E+02  0.00000000000E+00 0.  1.
          1   -1    0    0  501    0 -0.00000000000E+00 -0.00000000000E+00 -0.46517295116E+03  0.46517295116E+03  0.00000000000E+00 0.  1.
          2    1    1    2  501    0  0.20968423369E+02  0.16430377400E+02 -0.65050419573E+01  0.27421663898E+02  0.00000000000E+00 0.  1.
          1    1    1    2  502    0 -0.20968423369E+02 -0.16430377400E+02 -0.44781378337E+03  0.44860541309E+03  0.00000000000E+00 0.  1.
</event>
<event>
 4    1  0.3586324E+003  0.5959526E+02  0.7546771E-02  0.1261214E+00
          2   -1    0    0  502    0  0.00000000000E+00  0.00000000000E+00  0.10185091989E+04  0.10185091989E+04  0.00000000000E+00 0. -1.
          1   -1    0    0  501    0 -0.00000000000E+00 -0.00000000000E+00 -0.75309532422E+02  0.75309532422E+02  0.00000000000E+00 0. -1.
          2    1    1    2  501    0 -0.30330550756E+02 -0.51299634005E+02  0.10056973812E+04  0.10074615711E+04  0.00000000000E+00 0. -1.
          1    1    1    2  502    0  0.30330550756E+02  0.51299634005E+02 -0.62497714763E+02  0.86357160148E+02  0.00000000000E+00 0. -1.
</event>
<event>
 4    1  0.3586324E+003  0.2056011E+02  0.7546771E-02  0.1525639E+00
          2   -1    0    0  502    0  0.00000000000E+00  0.00000000000E+00  0.10813447649E+04  0.10813447649E+04  0.00000000000E+00 0.  1.
          1   -1    0    0  501    0 -0.00000000000E+00 -0.00000000000E+00 -0.37383615997E+01  0.37383615997E+01  0.00000000000E+00 0.  1.
          2    1    1    2  501    0  0.36628277612E+01  0.20231211112E+02  0.10521950049E+04  0.10523958601E+04  0.00000000000E+00 0.  1.
          1    1    1    2  502    0 -0.36628277612E+01 -0.20231211112E+02  0.25411398411E+02  0.32687266320E+02  0.00000000000E+00 0.  1.
</event>
<event>
 4    1  0.3586324E+003  0.5020838E+02  0.7546771E-02  0.1297271E+00
          2   -1    0    0  502    0  0.00000000000E+00  0.00000000000E+00  0.60808815564E+03  0.60808815564E+03  0.00000000000E+00 0. -1.
          1   -1    0    0  501    0 -0.00000000000E+00 -0.00000000000E+00 -0.49343234178E+02  0.49343234178E+02  0.00000000000E+00 0. -1.
          2    1    1    2  501    0  0.42744160704E+01 -0.50026104592E+02  0.59397668740E+03  0.59609494793E+03  0.00000000000E+00 0. -1.
          1    1    1    2  502    0 -0.42744160704E+01  0.50026104592E+02 -0.35231765933E+02  0.61336441893E+02  0.00000000000E+00 0. -1.
</event>
<event>
 4    1  0.3586324E+003  0.3940430E+02  0.7546771E-02  0.1352012E+00
          2   -1    0    0  502    0  0.00000000000E+00  0.00000000000E+00  0.10103942036E+02  0.10103942036E+02  0.00000000000E+00 0. -1.
          1   -1    0    0  501    0 -0.00000000000E+00 -0.00000000000E+00 -0.37213940121E+03  0.37213940121E+03  0.00000000000E+00 0. -1.
          2    1    1    2  501    0 -0.37256195055E+02  0.12832579273E+02 -0.34581067364E+02  0.52426609473E+02  0.00000000000E+00 0. -1.
          1    1    1    2  502    0  0.37256195055E+02 -0.12832579273E+02 -0.32745439181E+03  0.32981673377E+03  0.00000000000E+00 0. -1.
</event>
<event>
 4    1  0.3586324E+003  0.4813343E+02  0.7546771E-02  0.1306475E+00
          2   -1    0    0  502    0  0.00000000000E+00  0.00000000000E+00  0.14139546606E+03  0.14139546606E+03  0.00000000000E+00 0.  1.
          1   -1    0    0  501    0 -0.00000000000E+00 -0.00000000000E+00 -0.21429556741E+02  0.21429556741E+02  0.00000000000E+00 0. -1.
          2    1    1    2  501    0  0.24532446753E+02  0.41412391639E+02  0.99481132590E+02  0.11051390350E+03  0.00000000000E+00 0.  1.
          1    1    1    2  502    0 -0.24532446753E+02 -0.41412391639E+02  0.20484776726E+02  0.52311119300E+02  0.00000000000E+00 0. -1.
</event>
<event>
 4    1  0.3586324E+003  0.2314625E+02  0.7546771E-02  0.1490670E+00
          2   -1    0    0  502    0  0.00000000000E+00  0.00000000000E+00  0.11051602674E+04  0.11051602674E+04  0.00000000000E+00 0. -1.
          1   -1    0    0  501    0 -0.00000000000E+00 -0.00000000000E+00 -0.19631050223E+02  0.19631050223E+02  0.00000000000E+00 0. -1.
          2    1    1    2  501    0 -0.23141430590E+02 -0.47232517409E+00  0.10981729455E+04  0.10984168458E+04  0.00000000000E+00 0. -1.
          1    1    1    2  502    0  0.23141430590E+02  0.47232517409E+00 -0.12643728290E+02  0.26374471860E+02  0.00000000000E+00 0. -1.
</event>
<event>
 4    1  0.3586324E+003  0.2189547E+02  0.7546771E-02  0.1506854E+00
          2   -1    0    0  502    0  0.00000000000E+00  0.00000000000E+00  0.14562955158E+04  0.14562955158E+04  0.00000000000E+00 0. -1.
          1   -1    0    0  501    0 -0.00000000000E+00 -0.00000000000E+00 -0.38241623425E+03  0.38241623425E+03  0.00000000000E+00 0.  1.
          2    1    1    2  501    0 -0.21893689380E+02  0.27926531483E+00  0.14558997212E+04  0.14560643563E+04  0.00000000000E+00 0. -1.
          1    1    1    2  502    0  0.21893689380E+02 -0.27926531483E+00 -0.38202043963E+03  0.38264739372E+03  0.00000000000E+00 0.  1.
</event>
<event>
 4    1  0.3586324E+003  0.2623472E+02  0.7546771E-02  0.1455451E+00
          2   -1    0    0  502    0  0.00000000000E+00  0.00000000000E+00  0.15629209795E+04  0.15629209795E+04  0.00000000000E+00 0. -1.
          1   -1    0    0  501    0 -0.00000000000E+00 -0.00000000000E+00 -0.91898565777E+00  0.91898565777E+00  0.00000000000E+00 0.  1.
          2    1    1    2  501    0  0.18564162702E+02  0.18537321360E+02  0.13452909187E+04  0.13455466980E+04  0.00000000000E+00 0. -1.
          1    1    1    2  502    0 -0.18564162702E+02 -0.18537321360E+02  0.21671107510E+03  0.21829326717E+03  0.00000000000E+00 0.  1.
</event>
<event>
 4    1  0.3586324E+003  0.2327677E+02  0.7546771E-02  0.1489052E+00
          2   -1    0    0  502    0  0.00000000000E+00  0.00000000000E+00  0.47153536901E+01  0.47153536901E+01  0.00000000000E+00 0.  1.
          1   -1    0    0  501    0 -0.00000000000E+00 -0.00000000000E+00 -0.14035790570E+04  0.14035790570E+04  0.00000000000E+00 0. -1.
          2    1    1    2  501    0 -0.16916617223E+01 -0.23215215158E+02 -0.24722215747E+02  0.33955793109E+02  0.00000000000E+00 0.  1.
          1    1    1    2  502    0  0.16916617223E+01  0.23215215158E+02 -0.13741414876E+04  0.13743386176E+04  0.00000000000E+00 0. -1.
</event>
<event>
 4    1  0.3586324E+003  0.3379025E+02  0.7546771E-02  0.1389273E+00
          2   -1    0    0  502    0  0.00000000000E+00  0.00000000000E+00  0.93110026229E+02  0.93110026229E+02  0.00000000000E+00 0. -1.
          1   -1    0    0  501    0 -0.00000000000E+00 -0.00000000000E+00 -0.20525278787E+03  0.20525278787E+03  0.00000000000E+00 0. -1.
          2    1    1    2  501    0 -0.33578083267E+02 -0.37806772654E+01  0.88585020909E+02  0.94810796463E+02  0.00000000000E+00 0. -1.
          1    1    1    2  502    0  0.33578083267E+02  0.37806772654E+01 -0.20072778255E+03  0.20355201764E+03  0.00000000000E+00 0. -1.
</event>
<event>
 4    1  0.3586324E+003  0.2012586E+02  0.7546771E-02  0.1532120E+00
          2   -1    0    0  502    0  0.00000000000E+00  0.00000000000E+00  0.12981933446E+02  0.12981933446E+02  0.00000000000E+00 0.  1.
          1   -1    0    0  501    0 -0.00000000000E+00 -0.00000000000E+00 -0.49999926144E+02  0.49999926144E+02  0.00000000000E+00 0.  1.
          2    1    1    2  501    0 -0.78227260341E+01 -0.18543337444E+02  0.80029536649E+00  0.20141769507E+02  0.00000000000E+00 0.  1.
          1    1    1    2  502    0  0.78227260341E+01  0.18543337444E+02 -0.37818288064E+02  0.42840090083E+02  0.00000000000E+00 0.  1.
</event>
<event>
 4    1  0.3586324E+003  0.5319950E+02  0.7546771E-02  0.1284866E+00
          2   -1    0    0  502    0  0.00000000000E+00  0.00000000000E+00  0.10626457147E+04  0.10626457147E+04  0.00000000000E+00 0.  1.
          1   -1    0    0  501    0 -0.00000000000E+00 -0.00000000000E+00 -0.18299548363E+02  0.18299548363E+02  0.00000000000E+00 0.  1.
          2    1    1    2  501    0  0.49742100864E+02  0.18865576429E+02  0.10217694246E+04  0.10231534311E+04  0.00000000000E+00 0.  1.
          1    1    1    2  502    0 -0.49742100864E+02 -0.18865576429E+02  0.22576741749E+02  0.57791831952E+02  0.00000000000E+00 0.  1.
</event>
<event>
 4    1  0.3586324E+003  0.3592910E+02  0.7546771E-02  0.1374146E+00
          2   -1    0    0  502    0  0.00000000000E+00  0.00000000000E+00  0.24096470962E+03  0.24096470962E+03  0.00000000000E+00 0. -1.
          1   -1    0    0  501    0 -0.00000000000E+00 -0.00000000000E+00 -0.22948978459E+03  0.22948978459E+03  0.00000000000E+00 0. -1.
          2    1    1    2  501    0 -0.78163850445E+01  0.35068570476E+02  0.23820291978E+03  0.24089734640E+03  0.00000000000E+00 0. -1.
          1    1    1    2  502    0  0.78163850445E+01 -0.35068570476E+02 -0.22672799475E+03  0.22955714781E+03  0.00000000000E+00 0. -1.
</event>
<event>
 4    1  0.3586324E+003  0.2195162E+02  0.7546771E-02  0.1506100E+00
          2   -1    0    0  502    0  0.00000000000E+00  0.00000000000E+00  0.22291803244E+01  0.22291803244E+01  0.00000000000E+00 0.  1.
          1   -1    0    0  501    0 -0.00000000000E+00 -0.00000000000E+00 -0.15397076631E+04  0.15397076631E+04  0.00000000000E+00 0. -1.
          2    1    1    2  501    0 -0.21309442258E+02  0.52708105120E+01 -0.53936506490E+02  0.58232469509E+02  0.00000000000E+00 0.  1.
          1    1    1    2  502    0  0.21309442258E+02 -0.52708105120E+01 -0.14835419763E+04  0.14837043739E+04  0.00000000000E+00 0. -1.
</event>
<event>
 4    1  0.3586324E+003  0.2500826E+02  0.7546771E-02  0.1468711E+00
          2   -1    0    0  502    0  0.00000000000E+00  0.00000000000E+00  0.81829228729E+03  0.81829228729E+03  0.00000000000E+00 0. -1.
          1   -1    0    0  501    0 -0.00000000000E+00 -0.00000000000E+00 -0.93843553347E+00  0.93843553347E+00  0.00000000000E+00 0.  1.
          2    1    1    2  501    0  0.13275543884E+02  0.21193707279E+02  0.58512996591E+03  0.58566414462E+03  0.00000000000E+00 0. -1.
          1    1    1    2  502    0 -0.13275543884E+02 -0.21193707279E+02  0.23222388585E+03  0.23356657820E+03  0.00000000000E+00 0.  1.
</event>
<event>
 4    1  0.3586324E+003  0.2076406E+02  0.7546771E-02  0.1522660E+00
          2   -1    0    0  502    0  0.00000000000E+00  0.00000000000E+00  0.60077865976E+03  0.60077865976E+03  0.00000000000E+00 0.  1.
          1   -1    0    0  501    0 -0.00000000000E+00 -0.00000000000E+00 -0.15851377425E+01  0.15851377425E+01  0.00000000000E+00 0.  1.
          2    1    1    2  501    0  0.20593254017E+02  0.26578295423E+01  0.52240340413E+03  0.52281589763E+03  0.00000000000E+00 0.  1.
          1    1    1    2  502    0 -0.20593254017E+02 -0.26578295423E+01  0.76790117895E+02  0.79547899880E+02  0.00000000000E+00 0.  1.
</event>
<event>
 4    1  0.3586324E+003  0.2219928E+02  0.7546771E-02  0.1502805E+00
          2   -1    0    0  502    0  0.00000000000E+00  0.00000000000E+00  0.13468656407E+03  0.13468656407E+03  0.00000000000E+00 0. -1.
          1   -1    0    0  501    0 -0.00000000000E+00 -0.00000000000E+00 -0.78801960944E+01  0.78801960944E+01  0.00000000000E+00 0. -1.
          2    1    1    2  501    0 -0.18762964458E+02 -0.11864202107E+02  0.11557564939E+03  0.11768831232E+03  0.00000000000E+00 0. -1.
          1    1    1    2  502    0  0.18762964458E+02  0.11864202107E+02  0.11230718591E+02  0.24878447841E+02  0.00000000000E+00 0. -1.
</event>
<event>
 4    1  0.3586324E+003  0.3944579E+02  0.7546771E-02  0.1351764E+00
          2   -1    0    0  502    0  0.00000000000E+00  0.00000000000E+00  0.76027062210E+03  0.76027062210E+03  0.00000000000E+00 0.  1.
          1   -1    0    0  501    0 -0.00000000000E+00 -0.00000000000E+00 -0.39864432297E+01  0.39864432297E+01  0.00000000000E+00 0. -1.
          2    1    1    2  501    0 -0.27433678632E+02  0.28343670894E+02  0.64470511606E+03  0.64591071912E+03  0.00000000000E+00 0.  1.
          1    1    1    2  502    0  0.27433678632E+02 -0.28343670894E+02  0.11157906281E+03  0.11834634621E+03  0.00000000000E+00 0. -1.
</event>
<event>
 4    1  0.3586324E+003  0.2114202E+02  0.7546771E-02  0.1517247E+00
          2   -1    0    0  502    0  0.00000000000E+00  0.00000000000E+00  0.24390690506E+02  0.24390690506E+02  0.00000000000E+00 0. -1.
          1   -1    0    0  501    0 -0.00000000000E+00 -0.00000000000E+00 -0.32382914166E+02  0.32382914166E+02  0.00000000000E+00 0. -1.
          2    1    1    2  501    0 -0.48946679130E+01  0.20567624686E+02  0.14706521865E+02  0.25753965609E+02  0.00000000000E+00 0. -1.
          1    1    1    2  502    0  0.48946679130E+01 -0.20567624686E+02 -0.22698745525E+02  0.31019639063E+02  0.00000000000E+00 0. -1.
</event>
<event>
 4    1  0.3586324E+003  0.2221586E+02  0.7546771E-02  0.1502587E+00
          2   -1    0    0  502    0  0.00000000000E+00  0.00000000000E+00  0.53067518820E+03  0.53067518820E+03  0.00000000000E+00 0. -1.
          1   -1    0    0  501    0 -0.00000000000E+00 -0.00000000000E+00 -0.13040165843E+01  0.13040165843E+01  0.00000000000E+00 0.  1.
          2    1    1    2  501    0  0.19981473370E+02 -0.97100537719E+01  0.40713165957E+03  0.40773733290E+03  0.00000000000E+00 0. -1.
          1    1    1    2  502    0 -0.19981473370E+02  0.97100537719E+01  0.12223951205E+03  0.12424187188E+03  0.00000000000E+00 0.  1.
</event>
<event>
 4    1  0.3586324E+003  0.2242857E+02  0.7546771E-02  0.1499801E+00
          2   -1    0    0  502    0  0.00000000000E+00  0.00000000000E+00  0.21779674758E+03  0.21779674758E+03  0.00000000000E+00 0.  1.
          1   -1    0    0  501    0 -0.00000000000E+00 -0.00000000000E+00 -0.57380427832E+01  0.57380427832E+01  0.00000000000E+00 0.  1.
          2    1    1    2  501    0  0.11158137954E+02 -0.19456020607E+02  0.19242196899E+03  0.19372468849E+03  0.00000000000E+00 0.  1.
          1    1    1    2  502    0 -0.11158137954E+02  0.19456020607E+02  0.19636735801E+02  0.29810101868E+02  0.00000000000E+00 0.  1.
</event>
<event>
 4    1  0.3586324E+003  0.2349859E+02  0.7546771E-02  0.1486330E+00
          2   -1    0    0  502    0  0.00000000000E+00  0.00000000000E+00  0.73142356785E+02  0.73142356785E+02  0.00000000000E+00 0. -1.
          1   -1    0    0  501    0 -0.00000000000E+00 -0.00000000000E+00 -0.46121699354E+02  0.46121699354E+02  0.00000000000E+00 0. -1.
          2    1    1    2  501    0  0.93576916967E+01 -0.21554982463E+02  0.68043968090E+02  0.71987257597E+02  0.00000000000E+00 0. -1.
          1    1    1    2  502    0 -0.93576916967E+01  0.21554982463E+02 -0.41023310659E+02  0.47276798541E+02  0.00000000000E+00 0. -1.
</event>
<event>
 4    1  0.3586324E+003  0.2781260E+02  0.7546771E-02  0.1439612E+00
          2   -1    0    0  502    0  0.00000000000E+00  0.00000000000E+00  0.81663588268E+01  0.81663588268E+01  0.00000000000E+00 0. -1.
          1   -1    0    0  501    0 -0.00000000000E+00 -0.00000000000E+00 -0.88043302563E+03  0.88043302563E+03  0.00000000000E+00 0.  1.
          2    1    1    2  501    0  0.27736065899E+02 -0.20618712960E+01 -0.16413933960E+02  0.32294858614E+02  0.00000000000E+00 0. -1.
          1    1    1    2  502    0 -0.27736065899E+02  0.20618712960E+01 -0.85585273284E+03  0.85630452584E+03  0.00000000000E+00 0.  1.
</event>
<event>
 4    1  0.3586324E+003  0.2030659E+02  0.7546771E-02  0.1529399E+00
          2   -1    0    0  502    0  0.00000000000E+00  0.00000000000E+00  0.15708188553E+01  0.15708188553E+01  0.00000000000E+00 0. -1.
          1   -1    0    0  501    0 -0.00000000000E+00 -0.00000000000E+00 -0.52080015259E+03  0.52080015259E+03  0.00000000000E+00 0.  1.
          2    1    1    2  501    0 -0.90811155942E+00  0.20286273670E+02 -0.75678813794E+02  0.78355857619E+02  0.00000000000E+00 0. -1.
          1    1    1    2  502    0  0.90811155942E+00 -0.20286273670E+02 -0.44355051994E+03  0.44401511382E+03  0.00000000000E+00 0.  1.
</event>
<event>
 4    1  0.3586324E+003  0.4062898E+02  0.7546771E-02  0.1344839E+00
          2   -1    0    0  502    0  0.00000000000E+00  0.00000000000E+00  0.86523769626E+03  0.86523769626E+03  0.00000000000E+00 0.  1.
          1   -1    0    0  501    0 -0.00000000000E+00 -0.00000000000E+00 -0.31384127116E+01  0.31384127116E+01  0.00000000000E+00 0. -1.
          2    1    1    2  501    0 -0.34240509312E+02  0.21870106230E+02  0.70293184418E+03  0.70410502880E+03  0.00000000000E+00 0.  1.
          1    1    1    2  502    0  0.34240509312E+02 -0.21870106230E+02  0.15916743937E+03  0.16427108017E+03  0.00000000000E+00 0. -1.
</event>
<event>
 4    1  0.3836272E+003  0.3013207E+02  0.7546771E-02  0.1418452E+00
          2   -1    0    0  502    0  0.00000000000E+00  0.00000000000E+00  0.12430344911E+04  0.12430344911E+04  0.00000000000E+00 0. -1.
          1   -1    0    0  501    0 -0.00000000000E+00 -0.00000000000E+00 -0.48969392324E+03  0.48969392324E+03  0.00000000000E+00 0.  1.
          2    1    1    2  501    0 -0.16006083997E+02 -0.25529331484E+02  0.12423881191E+04  0.12427534671E+04  0.00000000000E+00 0. -1.
          1    1    1    2  502    0  0.16006083997E+02  0.25529331484E+02 -0.48904755127E+03  0.48997494721E+03  0.00000000000E+00 0.  1.
</event>
<event>
 4    1  0.3586324E+003  0.2011667E+02  0.7546771E-02  0.1532260E+00
          2   -1    0    0  502    0  0.00000000000E+00  0.00000000000E+00  0.53747260934E+03  0.53747260934E+03  0.00000000000E+00 0. -1.
          1   -1    0    0  501    0 -0.00000000000E+00 -0.00000000000E+00 -0.21281608641E+02  0.21281608641E+02  0.00000000000E+00 0. -1.
          2    1    1    2  501    0  0.96499230105E+00  0.20093506494E+02  0.53248600088E+03  0.53286585680E+03  0.00000000000E+00 0. -1.
          1    1    1    2  502    0 -0.96499230105E+00 -0.20093506494E+02 -0.16295000183E+02  0.25888361175E+02  0.00000000000E+00 0. -1.
</event>
<event>
 4    1  0.3586324E+003  0.2049525E+02  0.7546771E-02  0.1526595E+00
          2   -1    0    0  502    0  0.00000000000E+00  0.00000000000E+00  0.90056724498E+02  0.90056724498E+02  0.00000000000E+00 0.  1.
          1   -1    0    0  501    0 -0.00000000000E+00 -0.00000000000E+00 -0.19934322811E+03  0.19934322811E+03  0.00000000000E+00 0.  1.
          2    1    1    2  501    0  0.15183880916E+02 -0.13766084722E+02  0.88353819662E+02  0.90699794802E+02  0.00000000000E+00 0.  1.
          1    1    1    2  502    0 -0.15183880916E+02  0.13766084722E+02 -0.19764032328E+03  0.19870015781E+03  0.00000000000E+00 0.  1.
</event>
<event>
 4    1  0.3586324E+003  0.2928091E+02  0.7546771E-02  0.1425950E+00
          2   -1    0    0  502    0  0.00000000000E+00  0.00000000000E+00  0.34625208968E+02  0.34625208968E+02  0.00000000000E+00 0. -1.
          1   -1    0    0  501    0 -0.00000000000E+00 -0.00000000000E+00 -0.46184509827E+02  0.46184509827E+02  0.00000000000E+00 0. -1.
          2    1    1    2  501    0  0.61714476929E+01 -0.28623152121E+02  0.21738917074E+02  0.36468508600E+02  0.00000000000E+00 0. -1.
          1    1    1    2  502    0 -0.61714476929E+01  0.28623152121E+02 -0.33298217933E+02  0.44341210194E+02  0.00000000000E+00 0. -1.
</event>
<event>
 4    1  0.3586324E+003  0.2048127E+02  0.7546771E-02  0.1526801E+00
          2   -1    0    0  502    0  0.00000000000E+00  0.00000000000E+00  0.17273623114E+04  0.17273623114E+04  0.00000000000E+00 0. -1.
          1   -1    0    0  501    0 -0.00000000000E+00 -0.00000000000E+00 -0.24945294552E+00  0.24945294552E+00  0.00000000000E+00 0.  1.
          2    1    1    2  501    0 -0.12719806653E+02  0.16052692465E+02  0.10041397607E+04  0.10043486155E+04  0.00000000000E+00 0. -1.
          1    1    1    2  502    0  0.12719806653E+02 -0.16052692465E+02  0.72297309781E+03  0.72326314891E+03  0.00000000000E+00 0.  1.
</event>
<event>
 4    1  0.3586324E+003  0.3390161E+02  0.7546771E-02  0.1388454E+00
          2   -1    0    0  502    0  0.00000000000E+00  0.00000000000E+00  0.15818050206E+03  0.15818050206E+03  0.00000000000E+00 0.  1.
          1   -1    0    0  501    0 -0.00000000000E+00 -0.00000000000E+00 -0.71400860406E+03  0.71400860406E+03  0.00000000000E+00 0. -1.
          2    1    1    2  501    0  0.29724346727E+01  0.33771045774E+02  0.15595594309E+03  0.15959816755E+03  0.00000000000E+00 0.  1.
          1    1    1    2  502    0 -0.29724346727E+01 -0.33771045774E+02 -0.71178404509E+03  0.71259093858E+03  0.00000000000E+00 0. -1.
</event>
<event>
 4    1  0.3586324E+003  0.2348848E+02  0.7546771E-02  0.1486454E+00
          2   -1    0    0  502    0  0.00000000000E+00  0.00000000000E+00  0.51386277838E+01  0.51386277838E+01  0.00000000000E+00 0.  1.
          1   -1    0    0  501    0 -0.00000000000E+00 -0.00000000000E+00 -0.92396364973E+03  0.92396364973E+03  0.00000000000E+00 0.  1.
          2    1    1    2  501    0 -0.15759905182E+02  0.17416494033E+02 -0.22685141757E+02  0.32654624975E+02  0.00000000000E+00 0.  1.
          1    1    1    2  502    0  0.15759905182E+02 -0.17416494033E+02 -0.89613988019E+03  0.89644765254E+03  0.00000000000E+00 0.  1.
</event>
<event>
 4    1  0.3586324E+003  0.2162944E+02  0.7546771E-02  0.1510465E+00
          2   -1    0    0  502    0  0.00000000000E+00  0.00000000000E+00  0.33585657097E+01  0.33585657097E+01  0.00000000000E+00 0. -1.
          1   -1    0    0  501    0 -0.00000000000E+00 -0.00000000000E+00 -0.27444518411E+03  0.27444518411E+03  0.00000000000E+00 0. -1.
          2    1    1    2  501    0  0.17582207054E+02  0.12597573880E+02 -0.38069503613E+02  0.43784928661E+02  0.00000000000E+00 0. -1.
          1    1    1    2  502    0 -0.17582207054E+02 -0.12597573880E+02 -0.23301711478E+03  0.23401882115E+03  0.00000000000E+00 0. -1.
</event>
<event>
 4    1  0.3586324E+003  0.2018950E+02  0.7546771E-02  0.1531158E+00
          2   -1    0    0  502    0  0.00000000000E+00  0.00000000000E+00  0.81075594943E+01  0.81075594943E+01  0.00000000000E+00 0. -1.
          1   -1    0    0  501    0 -0.00000000000E+00 -0.00000000000E+00 -0.11482261506E+04  0.11482261506E+04  0.00000000000E+00 0.  1.
          2    1    1    2  501    0  0.20098649239E+02  0.19131216891E+01 -0.46918683535E+01  0.20727502611E+02  0.00000000000E+00 0. -1.
          1    1    1    2  502    0 -0.20098649239E+02 -0.19131216891E+01 -0.11354267227E+04  0.11356062075E+04  0.00000000000E+00 0.  1.
</event>
<event>
 4    1  0.3586324E+003  0.2340575E+02  0.7546771E-02  0.1487465E+00
          2   -1    0    0  502    0  0.00000000000E+00  0.00000000000E+00  0.81005026470E+01  0.81005026470E+01  0.00000000000E+00 0.  1.
          1   -1    0    0  501    0 -0.00000000000E+00 -0.00000000000E+00 -0.91174136074E+02  0.91174136074E+02  0.00000000000E+00 0. -1.
          2    1    1    2  501    0 -0.21446576320E+02  0.93740812318E+01 -0.16312295438E+02  0.28529283504E+02  0.00000000000E+00 0.  1.
          1    1    1    2  502    0  0.21446576320E+02 -0.93740812318E+01 -0.66761337989E+02  0.70745355218E+02  0.00000000000E+00 0. -1.
</event>
<event>
 4    1  0.3586324E+003  0.2733150E+02  0.7546771E-02  0.1444306E+00
          2   -1    0    0  502    0  0.00000000000E+00  0.00000000000E+00  0.15019734482E+04  0.15019734482E+04  0.00000000000E+00 0. -1.
          1   -1    0    0  501    0 -0.00000000000E+00 -0.00000000000E+00 -0.36615927585E+01  0.36615927585E+01  0.00000000000E+00 0. -1.
          2    1    1    2  501    0  0.16712663430E+02  0.21626319696E+02  0.14489808384E+04  0.14492385866E+04  0.00000000000E+00 0. -1.
          1    1    1    2  502    0 -0.16712663430E+02 -0.21626319696E+02  0.49331017041E+02  0.56396454364E+02  0.00000000000E+00 0. -1.
</event>
<event>
 4    1  0.3586324E+003  0.3133361E+02  0.7546771E-02  0.1408351E+00
          2   -1    0    0  502    0  0.00000000000E+00  0.00000000000E+00  0.10410491937E+04  0.10410491937E+04  0.00000000000E+00 0.  1.
          1   -1    0    0  501    0 -0.00000000000E+00 -0.00000000000E+00 -0.20538137693E+02  0.20538137693E+02  0.00000000000E+00 0.  1.
          2    1    1    2  501    0 -0.11611861576E+02  0.29102578428E+02  0.10287193358E+04  0.10291964182E+04  0.00000000000E+00 0.  1.
          1    1    1    2  502    0  0.11611861576E+02 -0.29102578428E+02 -0.82082797866E+01  0.32390913193E+02  0.00000000000E+00 0.  1.
</event>
<event>
 4    1  0.3586324E+003  0.2028959E+02  0.7546771E-02  0.1529654E+00
          2   -1    0    0  502    0  0.00000000000E+00  0.00000000000E+00  0.74848533843E+01  0.74848533843E+01  0.00000000000E+00 0. -1.
          1   -1    0    0  501    0 -0.00000000000E+00 -0.00000000000E+00 -0.55878884224E+02  0.55878884224E+02  0.00000000000E+00 0. -1.
          2    1    1    2  501    0 -0.15796889046E+02  0.12732844740E+02 -0.28170297302E+02  0.34716461351E+02  0.00000000000E+00 0. -1.
          1    1    1    2  502    0  0.15796889046E+02 -0.12732844740E+02 -0.20223733538E+02  0.28647276257E+02  0.00000000000E+00 0. -1.
</event>
<event>
 4    1  0.3586324E+003  0.2534098E+02  0.7546771E-02  0.1465025E+00
          2   -1    0    0  502    0  0.00000000000E+00  0.00000000000E+00  0.11604620209E+02  0.11604620209E+02  0.00000000000E+00 0.  1.
          1   -1    0    0  501    0 -0.00000000000E+00 -0.00000000000E+00 -0.39050529063E+03  0.39050529063E+03  0.00000000000E+00 0.  1.
          2    1    1    2  501    0 -0.41740277890E+01 -0.24994851218E+02 -0.31846861214E+01  0.25540307772E+02  0.00000000000E+00 0.  1.
          1    1    1    2  502    0  0.41740277890E+01  0.24994851218E+02 -0.37571598430E+03  0.37656960307E+03  0.00000000000E+00 0.  1.
</event>
<event>
 4    1  0.3586324E+003  0.2551734E+02  0.7546771E-02  0.1463098E+00
          2   -1    0    0  502    0  0.00000000000E+00  0.00000000000E+00  0.10356949611E+04  0.10356949611E+04  0.00000000000E+00 0. -1.
          1   -1    0    0  501    0 -0.00000000000E+00 -0.00000000000E+00 -0.67187079978E+02  0.67187079978E+02  0.00000000000E+00 0. -1.
          2    1    1    2  501    0  0.11435118316E+02 -0.22811679007E+02  0.10331088821E+04  0.10334239677E+04  0.00000000000E+00 0. -1.
          1    1    1    2  502    0 -0.11435118316E+02  0.22811679007E+02 -0.64601001006E+02  0.69458073404E+02  0.00000000000E+00 0. -1.
</event>
<event>
 4    1  0.3586324E+003  0.2150797E+02  0.7546771E-02  0.1512135E+00
          2   -1    0    0  502    0  0.00000000000E+00  0.00000000000E+00  0.11014243956E+04  0.11014243956E+04  0.00000000000E+00 0.  1.
          1   -1    0    0  501    0 -0.00000000000E+00 -0.00000000000E+00 -0.87779296043E+00  0.87779296043E+00  0.00000000000E+00 0. -1.
          2    1    1    2  501    0  0.21501980888E+02 -0.50738142799E+00  0.94829945158E+03  0.94854332662E+03  0.00000000000E+00 0.  1.
          1    1    1    2  502    0 -0.21501980888E+02  0.50738142799E+00  0.15224715110E+03  0.15375886197E+03  0.00000000000E+00 0. -1.
</event>
<event>
 4    1  0.3586324E+003  0.2122461E+02  0.7546771E-02  0.1516082E+00
          2   -1    0    0  502    0  0.00000000000E+00  0.00000000000E+00  0.15945044541E+03  0.15945044541E+03  0.00000000000E+00 0. -1.
          1   -1    0    0  501    0 -0.00000000000E+00 -0.00000000000E+00 -0.16511353776E+03  0.16511353776E+03  0.00000000000E+00 0. -1.
          2    1    1    2  501    0  0.21096523751E+02 -0.23282818532E+01  0.15805606489E+03  0.15947477499E+03  0.00000000000E+00 0. -1.
          1    1    1    2  502    0 -0.21096523751E+02  0.23282818532E+01 -0.16371915724E+03  0.16508920818E+03  0.00000000000E+00 0. -1.
</event>
<event>
 4    1  0.3586324E+003  0.5027363E+02  0.7546771E-02  0.1296990E+00
          2   -1    0    0  502    0  0.00000000000E+00  0.00000000000E+00  0.58730357044E+03  0.58730357044E+03  0.00000000000E+00 0.  1.
          1   -1    0    0  501    0 -0.00000000000E+00 -0.00000000000E+00 -0.58021270558E+01  0.58021270558E+01  0.00000000000E+00 0.  1.
          2    1    1    2  501    0 -0.26852228030E+02  0.42501708547E+02  0.44146731671E+03  0.44432063772E+03  0.00000000000E+00 0.  1.
          1    1    1    2  502    0  0.26852228030E+02 -0.42501708547E+02  0.14003412668E+03  0.14878505978E+03  0.00000000000E+00 0.  1.
</event>
<event>
 4    1  0.3586324E+003  0.3289898E+02  0.7546771E-02  0.1395968E+00
          2   -1    0    0  502    0  0.00000000000E+00  0.00000000000E+00  0.15580452658E+04  0.15580452658E+04  0.00000000000E+00 0.  1.
          1   -1    0    0  501    0 -0.00000000000E+00 -0.00000000000E+00 -0.10545517754E+02  0.10545517754E+02  0.00000000000E+00 0.  1.
          2    1    1    2  501    0 -0.15371151158E+02  0.29087292064E+02  0.15317727170E+04  0.15321259738E+04  0.00000000000E+00 0.  1.
          1    1    1    2  502    0  0.15371151158E+02 -0.29087292064E+02  0.15727030996E+02  0.36464809769E+02  0.00000000000E+00 0.  1.
</event>
<event>
 4    1  0.3586324E+003  0.2386817E+02  0.7546771E-02  0.1481875E+00
          2   -1    0    0  502    0  0.00000000000E+00  0.00000000000E+00  0.24136482134E+03  0.24136482134E+03  0.00000000000E+00 0. -1.
          1   -1    0    0  501    0 -0.00000000000E+00 -0.00000000000E+00 -0.10579303911E+02  0.10579303911E+02  0.00000000000E+00 0. -1.
          2    1    1    2  501    0  0.14609027546E+02 -0.18875007101E+02  0.22642668680E+03  0.22768121150E+03  0.00000000000E+00 0. -1.
          1    1    1    2  502    0 -0.14609027546E+02  0.18875007101E+02  0.43588306306E+01  0.24262913744E+02  0.00000000000E+00 0. -1.
</event>
<event>
 4    1  0.3586324E+003  0.2370247E+02  0.7546771E-02  0.1483861E+00
          2   -1    0    0  502    0  0.00000000000E+00  0.00000000000E+00  0.75202831915E+03  0.75202831915E+03  0.00000000000E+00 0.  1.
          1   -1    0    0  501    0 -0.00000000000E+00 -0.00000000000E+00 -0.54748719652E+01  0.54748719652E+01  0.00000000000E+00 0. -1.
          2    1    1    2  501    0  0.21189975198E+02 -0.10620365075E+02  0.72524034114E+03  0.72562756261E+03  0.00000000000E+00 0.  1.
          1    1    1    2  502    0 -0.21189975198E+02  0.10620365075E+02  0.21313106042E+02  0.31875628502E+02  0.00000000000E+00 0. -1.
</event>
<event>
 4    1  0.3586324E+003  0.3219677E+02  0.7546771E-02  0.1401420E+00
          2   -1    0    0  502    0  0.00000000000E+00  0.00000000000E+00  0.28461973373E+02  0.28461973373E+02  0.00000000000E+00 0.  1.
          1   -1    0    0  501    0 -0.00000000000E+00 -0.00000000000E+00 -0.13687970617E+03  0.13687970617E+03  0.00000000000E+00 0.  1.
          2    1    1    2  501    0  0.29741180722E+02  0.12332644133E+02  0.16614278746E+02  0.36230735575E+02  0.00000000000E+00 0.  1.
          1    1    1    2  502    0 -0.29741180722E+02 -0.12332644133E+02 -0.12503201155E+03  0.12911094397E+03  0.00000000000E+00 0.  1.
</event>
<event>
 4    1  0.3586324E+003  0.2960934E+02  0.7546771E-02  0.1423022E+00
          2   -1    0    0  502    0  0.00000000000E+00  0.00000000000E+00  0.28943454390E+01  0.28943454390E+01  0.00000000000E+00 0.  1.
          1   -1    0    0  501    0 -0.00000000000E+00 -0.00000000000E+00 -0.14014682564E+04  0.14014682564E+04  0.00000000000E+00 0.  1.
          2    1    1    2  501    0  0.19943120896E+02  0.21885718052E+02 -0.77602380106E+02  0.83059268741E+02  0.00000000000E+00 0.  1.
          1    1    1    2  502    0 -0.19943120896E+02 -0.21885718052E+02 -0.13209715309E+04  0.13213033331E+04  0.00000000000E+00 0.  1.
</event>
<event>
 4    1  0.3586324E+003  0.2791816E+02  0.7546771E-02  0.1438597E+00
          2   -1    0    0  502    0  0.00000000000E+00  0.00000000000E+00  0.45038994743E+03  0.45038994743E+03  0.00000000000E+00 0.  1.
          1   -1    0    0  501    0 -0.00000000000E+00 -0.00000000000E+00 -0.48474127119E+01  0.48474127119E+01  0.00000000000E+00 0. -1.
          2    1    1    2  501    0  0.19188504453E+02  0.20278680529E+02  0.40529172252E+03  0.40625214329E+03  0.00000000000E+00 0.  1.
          1    1    1    2  502    0 -0.19188504453E+02 -0.20278680529E+02  0.40250812200E+02  0.48985216851E+02  0.00000000000E+00 0. -1.
</event>
<event>
 4    1  0.3586324E+003  0.2272354E+02  0.7546771E-02  0.1495999E+00
          2   -1    0    0  502    0  0.00000000000E+00  0.00000000000E+00  0.13497483414E+04  0.13497483414E+04  0.00000000000E+00 0.  1.
          1   -1    0    0  501    0 -0.00000000000E+00 -0.00000000000E+00 -0.61384490250E+01  0.61384490250E+01  0.00000000000E+00 0.  1.
          2    1    1    2  501    0  0.15848239975E+02  0.16284735910E+02  0.13282831693E+04  0.13284775261E+04  0.00000000000E+00 0.  1.
          1    1    1    2  502    0 -0.15848239975E+02 -0.16284735910E+02  0.15326723066E+02  0.27409264381E+02  0.00000000000E+00 0.  1.
</event>
<event>
 4    1  0.3586324E+003  0.2311108E+02  0.7546771E-02  0.1491108E+00
          2   -1    0    0  502    0  0.00000000000E+00  0.00000000000E+00  0.11326780453E+04  0.11326780453E+04  0.00000000000E+00 0.  1.
          1   -1    0    0  501    0 -0.00000000000E+00 -0.00000000000E+00 -0.13522310281E+01  0.13522310281E+01  0.00000000000E+00 0. -1.
          2    1    1    2  501    0 -0.41619633261E+01 -0.22733238456E+02  0.10232532406E+04  0.10235141994E+04  0.00000000000E+00 0.  1.
          1    1    1    2  502    0  0.41619633261E+01  0.22733238456E+02  0.10807257369E+03  0.11051607690E+03  0.00000000000E+00 0. -1.
</event>
<event>
 4    1  0.3586324E+003  0.2922239E+02  0.7546771E-02  0.1426476E+00
          2   -1    0    0  502    0  0.00000000000E+00  0.00000000000E+00  0.62322217240E+03  0.62322217240E+03  0.00000000000E+00 0. -1.
          1   -1    0    0  501    0 -0.00000000000E+00 -0.00000000000E+00 -0.54166233288E+01  0.54166233288E+01  0.00000000000E+00 0.  1.
          2    1    1    2  501    0 -0.23210238564E+02 -0.17754803454E+02  0.58057280516E+03  0.58130777589E+03  0.00000000000E+00 0. -1.
          1    1    1    2  502    0  0.23210238564E+02  0.17754803454E+02  0.37232743919E+02  0.47331019846E+02  0.00000000000E+00 0.  1.
</event>
<event>
 4    1  0.3586324E+003  0.2200691E+02  0.7546771E-02  0.1505360E+00
          2   -1    0    0  502    0  0.00000000000E+00  0.00000000000E+00  0.37653082571E+03  0.37653082571E+03  0.00000000000E+00 0.  1.
          1   -1    0    0  501    0 -0.00000000000E+00 -0.00000000000E+00 -0.31131966357E+02  0.31131966357E+02  0.00000000000E+00 0. -1.
          2    1    1    2  501    0 -0.21894238926E+02 -0.22240185112E+01  0.37227573423E+03  0.37292563100E+03  0.00000000000E+00 0.  1.
          1    1    1    2  502    0  0.21894238926E+02  0.22240185112E+01 -0.26876874874E+02  0.34737161075E+02  0.00000000000E+00 0. -1.
</event>
<event>
 4    1  0.3586324E+003  0.2739094E+02  0.7546771E-02  0.1443720E+00
          2   -1    0    0  502    0  0.00000000000E+00  0.00000000000E+00  0.10258079311E+02  0.10258079311E+02  0.00000000000E+00 0.  1.
          1   -1    0    0  501    0 -0.00000000000E+00 -0.00000000000E+00 -0.74281015753E+02  0.74281015753E+02  0.00000000000E+00 0.  1.
          2    1    1    2  501    0 -0.26743653833E+02 -0.59195286487E+01 -0.26769932904E+02  0.38300041090E+02  0.00000000000E+00 0.  1.
          1    1    1    2  502    0  0.26743653833E+02  0.59195286487E+01 -0.37253003539E+02  0.46239053974E+02  0.00000000000E+00 0.  1.
</event>
<event>
 4    1  0.3586324E+003  0.2102726E+02  0.7546771E-02  0.1518876E+00
          2   -1    0    0  502    0  0.00000000000E+00  0.00000000000E+00  0.66559040917E+03  0.66559040917E+03  0.00000000000E+00 0. -1.
          1   -1    0    0  501    0 -0.00000000000E+00 -0.00000000000E+00 -0.21634048974E+02  0.21634048974E+02  0.00000000000E+00 0. -1.
          2    1    1    2  501    0 -0.13041480720E+02 -0.16494406984E+02  0.66027383305E+03  0.66060856813E+03  0.00000000000E+00 0. -1.
          1    1    1    2  502    0  0.13041480720E+02  0.16494406984E+02 -0.16317472849E+02  0.26615890015E+02  0.00000000000E+00 0. -1.
</event>
<event>
 4    1  0.3586324E+003  0.2449462E+02  0.7546771E-02  0.1474537E+00
          2   -1    0    0  502    0  0.00000000000E+00  0.00000000000E+00  0.39864304451E+01  0.39864304451E+01  0.00000000000E+00 0.  1.
          1   -1    0    0  501    0 -0.00000000000E+00 -0.00000000000E+00 -0.27191132116E+03  0.27191132116E+03  0.00000000000E+00 0.  1.
          2    1    1    2  501    0 -0.21174471479E+02 -0.12313748013E+02 -0.41785742634E+02  0.48435884631E+02  0.00000000000E+00 0.  1.
          1    1    1    2  502    0  0.21174471479E+02  0.12313748013E+02 -0.22613914808E+03  0.22746186697E+03  0.00000000000E+00 0.  1.
</event>
<event>
 4    1  0.3586324E+003  0.8522382E+02  0.7546771E-02  0.1192213E+00
          2   -1    0    0  502    0  0.00000000000E+00  0.00000000000E+00  0.82924369176E+02  0.82924369176E+02  0.00000000000E+00 0.  1.
          1   -1    0    0  501    0 -0.00000000000E+00 -0.00000000000E+00 -0.90533907852E+02  0.90533907852E+02  0.00000000000E+00 0.  1.
          2    1    1    2  501    0 -0.51218640160E+02  0.68115715086E+02  0.11842551765E+02  0.86042697388E+02  0.00000000000E+00 0.  1.
          1    1    1    2  502    0  0.51218640160E+02 -0.68115715086E+02 -0.19452090441E+02  0.87415579641E+02  0.00000000000E+00 0.  1.
</event>
<event>
 4    1  0.3586324E+003  0.2701594E+02  0.7546771E-02  0.1447448E+00
          2   -1    0    0  502    0  0.00000000000E+00  0.00000000000E+00  0.16603489594E+02  0.16603489594E+02  0.00000000000E+00 0. -1.
          1   -1    0    0  501    0 -0.00000000000E+00 -0.00000000000E+00 -0.12585271134E+03  0.12585271134E+03  0.00000000000E+00 0. -1.
          2    1    1    2  501    0 -0.86800025074E+01  0.25583557570E+02  0.28329594856E+01  0.27164066722E+02  0.00000000000E+00 0. -1.
          1    1    1    2  502    0  0.86800025074E+01 -0.25583557570E+02 -0.11208218123E+03  0.11529213421E+03  0.00000000000E+00 0. -1.
</event>
<event>
 4    1  0.3586324E+003  0.2264216E+02  0.7546771E-02  0.1497041E+00
          2   -1    0    0  502    0  0.00000000000E+00  0.00000000000E+00  0.17403086874E+02  0.17403086874E+02  0.00000000000E+00 0. -1.
          1   -1    0    0  501    0 -0.00000000000E+00 -0.00000000000E+00 -0.46608516901E+02  0.46608516901E+02  0.00000000000E+00 0.  1.
          2    1    1    2  501    0  0.17747733973E+01 -0.22572500102E+02  0.48119212662E+01  0.23147832895E+02  0.00000000000E+00 0. -1.
          1    1    1    2  502    0 -0.17747733973E+01  0.22572500102E+02 -0.34017351294E+02  0.40863770880E+02  0.00000000000E+00 0.  1.
</event>
<event>
 4    1  0.3586324E+003  0.2510783E+02  0.7546771E-02  0.1467601E+00
          2   -1    0    0  502    0  0.00000000000E+00  0.00000000000E+00  0.11109984560E+03  0.11109984560E+03  0.00000000000E+00 0. -1.
          1   -1    0    0  501    0 -0.00000000000E+00 -0.00000000000E+00 -0.92606460942E+01  0.92606460942E+01  0.00000000000E+00 0.  1.
          2    1    1    2  501    0  0.95158512893E+01 -0.23234710310E+02  0.88370755537E+02  0.91868349409E+02  0.00000000000E+00 0. -1.
          1    1    1    2  502    0 -0.95158512893E+01  0.23234710310E+02  0.13468443966E+02  0.28492142282E+02  0.00000000000E+00 0.  1.
</event>
<event>
 4    1  0.3586324E+003  0.2303716E+02  0.7546771E-02  0.1492032E+00
          2   -1    0    0  502    0  0.00000000000E+00  0.00000000000E+00  0.84760757604E+03  0.84760757604E+03  0.00000000000E+00 0. -1.
          1   -1    0    0  501    0 -0.00000000000E+00 -0.00000000000E+00 -0.81087665348E+01  0.81087665348E+01  0.00000000000E+00 0.  1.
          2    1    1    2  501    0 -0.20914339227E+02  0.96592452100E+01  0.83075697719E+03  0.83107632968E+03  0.00000000000E+00 0. -1.
          1    1    1    2  502    0  0.20914339227E+02 -0.96592452100E+01  0.87418323177E+01  0.24640012898E+02  0.00000000000E+00 0.  1.
</event>
<event>
 4    1  0.3586324E+003  0.3310554E+02  0.7546771E-02  0.1394394E+00
          2   -1    0    0  502    0  0.00000000000E+00  0.00000000000E+00  0.20426075436E+03  0.20426075436E+03  0.00000000000E+00 0.  1.
          1   -1    0    0  501    0 -0.00000000000E+00 -0.00000000000E+00 -0.11832168939E+02  0.11832168939E+02  0.00000000000E+00 0.  1.
          2    1    1    2  501    0  0.31357714831E+02  0.10614621962E+02  0.17609026360E+03  0.17917521428E+03  0.00000000000E+00 0.  1.
          1    1    1    2  502    0 -0.31357714831E+02 -0.10614621962E+02  0.16338321817E+02  0.36917709011E+02  0.00000000000E+00 0.  1.
</event>
<event>
 4    1  0.3586324E+003  0.3106394E+02  0.7546771E-02  0.1410571E+00
          2   -1    0    0  502    0  0.00000000000E+00  0.00000000000E+00  0.34560675371E+01  0.34560675371E+01  0.00000000000E+00 0. -1.
          1   -1    0    0  501    0 -0.00000000000E+00 -0.00000000000E+00 -0.33080309633E+03  0.33080309633E+03  0.00000000000E+00 0. -1.
          2    1    1    2  501    0  0.95052403992E+01 -0.29573949777E+02 -0.97670317817E+02  0.10249126345E+03  0.00000000000E+00 0. -1.
          1    1    1    2  502    0 -0.95052403992E+01  0.29573949777E+02 -0.22967671098E+03  0.23176790042E+03  0.00000000000E+00 0. -1.
</event>
<event>
 4    1  0.3586324E+003  0.2038710E+02  0.7546771E-02  0.1528198E+00
          2   -1    0    0  502    0  0.00000000000E+00  0.00000000000E+00  0.67587920263E+01  0.67587920263E+01  0.00000000000E+00 0. -1.
          1   -1    0    0  501    0 -0.00000000000E+00 -0.00000000000E+00 -0.38578369557E+03  0.38578369557E+03  0.00000000000E+00 0.  1.
          2    1    1    2  501    0 -0.20157923553E+02  0.30482460149E+01 -0.95630241184E+01  0.22518550487E+02  0.00000000000E+00 0. -1.
          1    1    1    2  502    0  0.20157923553E+02 -0.30482460149E+01 -0.36946187942E+03  0.37002393711E+03  0.00000000000E+00 0.  1.
</event>
<event>
 4    1  0.3586324E+003  0.3283335E+02  0.7546771E-02  0.1396471E+00
          2   -1    0    0  502    0  0.00000000000E+00  0.00000000000E+00  0.10897213320E+04  0.10897213320E+04  0.00000000000E+00 0. -1.
          1   -1    0    0  501    0 -0.00000000000E+00 -0.00000000000E+00 -0.10017300069E+03  0.10017300069E+03  0.00000000000E+00 0. -1.
          2    1    1    2  501    0 -0.19513235747E+02  0.26405728571E+02  0.10867763077E+04  0.10872721701E+04  0.00000000000E+00 0. -1.
          1    1    1    2  502    0  0.19513235747E+02 -0.26405728571E+02 -0.97227976370E+02  0.10262216261E+03  0.00000000000E+00 0. -1.
</event>
<event>
 4    1  0.3586324E+003  0.2360878E+02  0.7546771E-02  0.1484992E+00
          2   -1    0    0  502    0  0.00000000000E+00  0.00000000000E+00  0.71681305652E+02  0.71681305652E+02  0.00000000000E+00 0. -1.
          1   -1    0    0  501    0 -0.00000000000E+00 -0.00000000000E+00 -0.11307767107E+02  0.11307767107E+02  0.00000000000E+00 0. -1.
          2    1    1    2  501    0  0.10742677335E+02  0.21023063653E+02  0.53377543746E+02  0.58365542044E+02  0.00000000000E+00 0. -1.
          1    1    1    2  502    0 -0.10742677335E+02 -0.21023063653E+02  0.69959947990E+01  0.24623530715E+02  0.00000000000E+00 0. -1.
</event>
<event>
 4    1  0.3586324E+003  0.3864350E+02  0.7546771E-02  0.1356624E+00
          2   -1    0    0  502    0  0.00000000000E+00  0.00000000000E+00  0.96178053505E+03  0.96178053505E+03  0.00000000000E+00 0.  1.
          1   -1    0    0  501    0 -0.00000000000E+00 -0.00000000000E+00 -0.24949459875E+03  0.24949459875E+03  0.00000000000E+00 0.  1.
          2    1    1    2  501    0  0.28521613672E+02  0.26073693645E+02  0.95989308353E+03  0.96067062605E+03  0.00000000000E+00 0.  1.
          1    1    1    2  502    0 -0.28521613672E+02 -0.26073693645E+02 -0.24760714722E+03  0.25060450775E+03  0.00000000000E+00 0.  1.
</event>
<event>
 4    1  0.3586324E+003  0.2425739E+02  0.7546771E-02  0.1477285E+00
          2   -1    0    0  502    0  0.00000000000E+00  0.00000000000E+00  0.16918459180E+03  0.16918459180E+03  0.00000000000E+00 0. -1.
          1   -1    0    0  501    0 -0.00000000000E+00 -0.00000000000E+00 -0.11248268124E+02  0.11248268124E+02  0.00000000000E+00 0.  1.
          2    1    1    2  501    0 -0.11160561700E+02 -0.21537479099E+02  0.15395089787E+03  0.15585024895E+03  0.00000000000E+00 0. -1.
          1    1    1    2  502    0  0.11160561700E+02  0.21537479099E+02  0.39854258063E+01  0.24582610973E+02  0.00000000000E+00 0.  1.
</event>
<event>
 4    1  0.3586324E+003  0.2380143E+02  0.7546771E-02  0.1482672E+00
          2   -1    0    0  502    0  0.00000000000E+00  0.00000000000E+00  0.29278865785E+03  0.29278865785E+03  0.00000000000E+00 0.  1.
          1   -1    0    0  501    0 -0.00000000000E+00 -0.00000000000E+00 -0.10528825967E+04  0.10528825967E+04  0.00000000000E+00 0. -1.
          2    1    1    2  501    0 -0.55184616339E+01  0.23152853647E+02  0.29217014242E+03  0.29313802240E+03  0.00000000000E+00 0.  1.
          1    1    1    2  502    0  0.55184616339E+01 -0.23152853647E+02 -0.10522640813E+04  0.10525332321E+04  0.00000000000E+00 0. -1.
</event>
<event>
 4    1  0.3586324E+003  0.2595423E+02  0.7546771E-02  0.1458406E+00
          2   -1    0    0  502    0  0.00000000000E+00  0.00000000000E+00  0.18615820925E+04  0.18615820925E+04  0.00000000000E+00 0.  1.
          1   -1    0    0  501    0 -0.00000000000E+00 -0.00000000000E+00 -0.10887085864E+01  0.10887085864E+01  0.00000000000E+00 0. -1.
          2    1    1    2  501    0 -0.23673022860E+02 -0.10640016125E+02  0.16912278252E+04  0.16914269652E+04  0.00000000000E+00 0.  1.
          1    1    1    2  502    0  0.23673022860E+02  0.10640016125E+02  0.16926555872E+03  0.17124383587E+03  0.00000000000E+00 0. -1.
</event>
<event>
 4    1  0.3586324E+003  0.3391780E+02  0.7546771E-02  0.1388335E+00
          2   -1    0    0  502    0  0.00000000000E+00  0.00000000000E+00  0.37134041817E+03  0.37134041817E+03  0.00000000000E+00 0.  1.
          1   -1    0    0  501    0 -0.00000000000E+00 -0.00000000000E+00 -0.73495392125E+01  0.73495392125E+01  0.00000000000E+00 0.  1.
          2    1    1    2  501    0 -0.33513677073E+02  0.52202310383E+01  0.32600660929E+03  0.32776626835E+03  0.00000000000E+00 0.  1.
          1    1    1    2  502    0  0.33513677073E+02 -0.52202310383E+01  0.37984269662E+02  0.50923689034E+02  0.00000000000E+00 0.  1.
</event>
<event>
 4    1  0.3586324E+003  0.3121876E+02  0.7546771E-02  0.1409293E+00
          2   -1    0    0  502    0  0.00000000000E+00  0.00000000000E+00  0.81832737063E+03  0.81832737063E+03  0.00000000000E+00 0. -1.
          1   -1    0    0  501    0 -0.00000000000E+00 -0.00000000000E+00 -0.15218651890E+01  0.15218651890E+01  0.00000000000E+00 0. -1.
          2    1    1    2  501    0 -0.92902466667E+01 -0.29804400399E+02  0.59954426883E+03  0.60035651179E+03  0.00000000000E+00 0. -1.
          1    1    1    2  502    0  0.92902466667E+01  0.29804400399E+02  0.21726123661E+03  0.21949272403E+03  0.00000000000E+00 0. -1.
</event>
<event>
 4    1  0.3586324E+003  0.5054753E+02  0.7546771E-02  0.1295816E+00
          2   -1    0    0  502    0  0.00000000000E+00  0.00000000000E+00  0.49388953134E+02  0.49388953134E+02  0.00000000000E+00 0.  1.
          1   -1    0    0  501    0 -0.00000000000E+00 -0.00000000000E+00 -0.29025706758E+03  0.29025706758E+03  0.00000000000E+00 0.  1.
          2    1    1    2  501    0  0.50495850901E+02  0.22851857387E+01  0.33512851593E+02  0.60647870977E+02  0.00000000000E+00 0.  1.
          1    1    1    2  502    0 -0.50495850901E+02 -0.22851857387E+01 -0.27438096604E+03  0.27899814973E+03  0.00000000000E+00 0.  1.
</event>
<event>
 4    1  0.3586324E+003  0.2577850E+02  0.7546771E-02  0.1460280E+00
          2   -1    0    0  502    0  0.00000000000E+00  0.00000000000E+00  0.95889139548E+02  0.95889139548E+02  0.00000000000E+00 0. -1.
          1   -1    0    0  501    0 -0.00000000000E+00 -0.00000000000E+00 -0.61208783318E+03  0.61208783318E+03  0.00000000000E+00 0. -1.
          2    1    1    2  501    0 -0.90384257160E+01 -0.24142036842E+02  0.93879464594E+02  0.97354429559E+02  0.00000000000E+00 0. -1.
          1    1    1    2  502    0  0.90384257160E+01  0.24142036842E+02 -0.61007815822E+03  0.61062254317E+03  0.00000000000E+00 0. -1.
</event>
<event>
 4    1  0.3586324E+003  0.3320397E+02  0.7546771E-02  0.1393649E+00
          2   -1    0    0  502    0  0.00000000000E+00  0.00000000000E+00  0.33920755223E+04  0.33920755223E+04  0.00000000000E+00 0. -1.
          1   -1    0    0  501    0 -0.00000000000E+00 -0.00000000000E+00 -0.38206468209E+00  0.38206468209E+00  0.00000000000E+00 0. -1.
          2    1    1    2  501    0  0.73992678948E+01  0.32369034682E+02  0.23512536355E+04  0.23514880739E+04  0.00000000000E+00 0. -1.
          1    1    1    2  502    0 -0.73992678948E+01 -0.32369034682E+02  0.10404398221E+04  0.10409695130E+04  0.00000000000E+00 0. -1.
</event>
<event>
 4    1  0.3586324E+003  0.2716200E+02  0.7546771E-02  0.1445988E+00
          2   -1    0    0  502    0  0.00000000000E+00  0.00000000000E+00  0.11449140551E+04  0.11449140551E+04  0.00000000000E+00 0. -1.
          1   -1    0    0  501    0 -0.00000000000E+00 -0.00000000000E+00 -0.85241383553E+02  0.85241383553E+02  0.00000000000E+00 0.  1.
          2    1    1    2  501    0 -0.24867068649E+01  0.27047934010E+02  0.11425847662E+04  0.11429075739E+04  0.00000000000E+00 0. -1.
          1    1    1    2  502    0  0.24867068649E+01 -0.27047934010E+02 -0.82912094727E+02  0.87247864714E+02  0.00000000000E+00 0.  1.
</event>
<event>
 4    1  0.3586324E+003  0.2130757E+02  0.7546771E-02  0.1514919E+00
          2   -1    0    0  502    0  0.00000000000E+00  0.00000000000E+00  0.34239703202E+03  0.34239703202E+03  0.00000000000E+00 0. -1.
          1   -1    0    0  501    0 -0.00000000000E+00 -0.00000000000E+00 -0.16272558752E+01  0.16272558752E+01  0.00000000000E+00 0. -1.
          2    1    1    2  501    0 -0.18302597985E+02 -0.10909971617E+02  0.24439845734E+03  0.24532553581E+03  0.00000000000E+00 0. -1.
          1    1    1    2  502    0  0.18302597985E+02  0.10909971617E+02  0.96371318807E+02  0.98698752081E+02  0.00000000000E+00 0. -1.
</event>
<event>
 4    1  0.3586324E+003  0.3789345E+02  0.7546771E-02  0.1361293E+00
          2   -1    0    0  502    0  0.00000000000E+00  0.00000000000E+00  0.18682255600E+03  0.18682255600E+03  0.00000000000E+00 0.  1.
          1   -1    0    0  501    0 -0.00000000000E+00 -0.00000000000E+00 -0.16528990943E+02  0.16528990943E+02  0.00000000000E+00 0. -1.
          2    1    1    2  501    0  0.17406540772E+02  0.33658963863E+02  0.15951622335E+03  0.16395529580E+03  0.00000000000E+00 0.  1.
          1    1    1    2  502    0 -0.17406540772E+02 -0.33658963863E+02  0.10777341713E+02  0.39396251146E+02  0.00000000000E+00 0. -1.
</event>
<event>
 4    1  0.3586324E+003  0.2036033E+02  0.7546771E-02  0.1528597E+00
          2   -1    0    0  502    0  0.00000000000E+00  0.00000000000E+00  0.17128749391E+02  0.17128749391E+02  0.00000000000E+00 0.  1.
          1   -1    0    0  501    0 -0.00000000000E+00 -0.00000000000E+00 -0.37714603272E+03  0.37714603272E+03  0.00000000000E+00 0.  1.
          2    1    1    2  501    0  0.31504923497E+00 -0.20357890791E+02  0.10698697558E+02  0.23000110932E+02  0.00000000000E+00 0.  1.
          1    1    1    2  502    0 -0.31504923497E+00  0.20357890791E+02 -0.37071598089E+03  0.37127467118E+03  0.00000000000E+00 0.  1.
</event>
<event>
 4    1  0.3586324E+003  0.2587021E+02  0.7546771E-02  0.1459299E+00
          2   -1    0    0  502    0  0.00000000000E+00  0.00000000000E+00  0.30157298036E+02  0.30157298036E+02  0.00000000000E+00 0. -1.
          1   -1    0    0  501    0 -0.00000000000E+00 -0.00000000000E+00 -0.31123232736E+02  0.31123232736E+02  0.00000000000E+00 0.  1.
          2    1    1    2  501    0  0.24975108611E+02 -0.67462444749E+01  0.15930188134E+02  0.30381552934E+02  0.00000000000E+00 0. -1.
          1    1    1    2  502    0 -0.24975108611E+02  0.67462444749E+01 -0.16896122833E+02  0.30898977838E+02  0.00000000000E+00 0.  1.
</event>
<event>
 4    1  0.3586324E+003  0.2357005E+02  0.7546771E-02  0.1485461E+00
          2   -1    0    0  502    0  0.00000000000E+00  0.00000000000E+00  0.14158709146E+04  0.14158709146E+04  0.00000000000E+00 0.  1.
          1   -1    0    0  501    0 -0.00000000000E+00 -0.00000000000E+00 -0.40468499217E+00  0.40468499217E+00  0.00000000000E+00 0.  1.
          2    1    1    2  501    0 -0.21936280523E+02 -0.86224618509E+01  0.83125719499E+03  0.83159128872E+03  0.00000000000E+00 0.  1.
          1    1    1    2  502    0  0.21936280523E+02  0.86224618509E+01  0.58420903462E+03  0.58468431088E+03  0.00000000000E+00 0.  1.
</event>
<event>
 4    1  0.3586324E+003  0.2170024E+02  0.7546771E-02  0.1509498E+00
          2   -1    0    0  502    0  0.00000000000E+00  0.00000000000E+00  0.13513089983E+01  0.13513089983E+01  0.00000000000E+00 0.  1.
          1   -1    0    0  501    0 -0.00000000000E+00 -0.00000000000E+00 -0.76312349876E+03  0.76312349876E+03  0.00000000000E+00 0.  1.
          2    1    1    2  501    0 -0.13937880507E+00  0.21699789634E+02 -0.99129106496E+02  0.10147650000E+03  0.00000000000E+00 0.  1.
          1    1    1    2  502    0  0.13937880507E+00 -0.21699789634E+02 -0.66264308327E+03  0.66299830776E+03  0.00000000000E+00 0.  1.
</event>
<event>
 4    1  0.3586324E+003  0.2253654E+02  0.7546771E-02  0.1498401E+00
          2   -1    0    0  502    0  0.00000000000E+00  0.00000000000E+00  0.84618468161E+02  0.84618468161E+02  0.00000000000E+00 0. -1.
          1   -1    0    0  501    0 -0.00000000000E+00 -0.00000000000E+00 -0.10361031616E+03  0.10361031616E+03  0.00000000000E+00 0. -1.
          2    1    1    2  501    0 -0.11057327923E+02  0.19637495365E+02  0.81851759907E+02  0.84897622611E+02  0.00000000000E+00 0. -1.
          1    1    1    2  502    0  0.11057327923E+02 -0.19637495365E+02 -0.10084360790E+03  0.10333116171E+03  0.00000000000E+00 0. -1.
</event>
<event>
 4    1  0.3586324E+003  0.2136340E+02  0.7546771E-02  0.1514139E+00
          2   -1    0    0  502    0  0.00000000000E+00  0.00000000000E+00  0.16790118571E+03  0.16790118571E+03  0.00000000000E+00 0. -1.
          1   -1    0    0  501    0 -0.00000000000E+00 -0.00000000000E+00 -0.27325013429E+01  0.27325013429E+01  0.00000000000E+00 0.  1.
          2    1    1    2  501    0  0.21019361407E+02  0.38185460790E+01  0.88749067964E+02  0.91284127386E+02  0.00000000000E+00 0. -1.
          1    1    1    2  502    0 -0.21019361407E+02 -0.38185460790E+01  0.76419616399E+02  0.79349559663E+02  0.00000000000E+00 0.  1.
</event>
<event>
 4    1  0.3586324E+003  0.2228054E+02  0.7546771E-02  0.1501736E+00
          2   -1    0    0  502    0  0.00000000000E+00  0.00000000000E+00  0.16537456689E+03  0.16537456689E+03  0.00000000000E+00 0.  1.
          1   -1    0    0  501    0 -0.00000000000E+00 -0.00000000000E+00 -0.10746804901E+02  0.10746804901E+02  0.00000000000E+00 0. -1.
          2    1    1    2  501    0 -0.97786206742E+01  0.20020020477E+02  0.15207107899E+03  0.15369461834E+03  0.00000000000E+00 0.  1.
          1    1    1    2  502    0  0.97786206742E+01 -0.20020020477E+02  0.25566829971E+01  0.22426753446E+02  0.00000000000E+00 0. -1.
</event>
<event>
 4    1  0.3586324E+003  0.3782921E+02  0.7546771E-02  0.1361699E+00
          2   -1    0    0  502    0  0.00000000000E+00  0.00000000000E+00  0.31946184961E+03  0.31946184961E+03  0.00000000000E+00 0. -1.
          1   -1    0    0  501    0 -0.00000000000E+00 -0.00000000000E+00 -0.72085695283E+02  0.72085695283E+02  0.00000000000E+00 0.  1.
          2    1    1    2  501    0  0.19309779915E+02 -0.32529697377E+02  0.31328139026E+03  0.31555709197E+03  0.00000000000E+00 0. -1.
          1    1    1    2  502    0 -0.19309779915E+02  0.32529697377E+02 -0.65905235932E+02  0.75990452920E+02  0.00000000000E+00 0.  1.
</event>
<event>
 4    1  0.3586324E+003  0.3417665E+02  0.7546771E-02  0.1386446E+00
          2   -1    0    0  502    0  0.00000000000E+00  0.00000000000E+00  0.38408308214E+03  0.38408308214E+03  0.00000000000E+00 0. -1.
          1   -1    0    0  501    0 -0.00000000000E+00 -0.00000000000E+00 -0.75042272496E+01  0.75042272496E+01  0.00000000000E+00 0. -1.
          2    1    1    2  501    0  0.28351118724E+01 -0.34058852157E+02  0.33928500209E+03  0.34100198814E+03  0.00000000000E+00 0. -1.
          1    1    1    2  502    0 -0.28351118724E+01  0.34058852157E+02  0.37293852800E+02  0.50585321253E+02  0.00000000000E+00 0. -1.
</event>
<event>
 4    1  0.3586324E+003  0.2259423E+02  0.7546771E-02  0.1497657E+00
          2   -1    0    0  502    0  0.00000000000E+00  0.00000000000E+00  0.76844825934E+03  0.76844825934E+03  0.00000000000E+00 0. -1.
          1   -1    0    0  501    0 -0.00000000000E+00 -0.00000000000E+00 -0.19375922672E+01  0.19375922672E+01  0.00000000000E+00 0.  1.
          2    1    1    2  501    0 -0.13535356804E+02  0.18091249214E+02  0.69550856368E+03  0.69587546395E+03  0.00000000000E+00 0. -1.
          1    1    1    2  502    0  0.13535356804E+02 -0.18091249214E+02  0.71002103397E+02  0.74510387657E+02  0.00000000000E+00 0.  1.
</event>
<event>
 4    1  0.3586324E+003  0.2037526E+02  0.7546771E-02  0.1528374E+00
          2   -1    0    0  502    0  0.00000000000E+00  0.00000000000E+00  0.11790781278E+02  0.11790781278E+02  0.00000000000E+00 0.  1.
          1   -1    0    0  501    0 -0.00000000000E+00 -0.00000000000E+00 -0.36324955018E+02  0.36324955018E+02  0.00000000000E+00 0.  1.
          2    1    1    2  501    0 -0.28679055880E+01  0.20172419936E+02 -0.80519050866E+01  0.21908550478E+02  0.00000000000E+00 0.  1.
          1    1    1    2  502    0  0.28679055880E+01 -0.20172419936E+02 -0.16482268653E+02  0.26207185818E+02  0.00000000000E+00 0.  1.
</event>
<event>
 4    1  0.3586324E+003  0.3771705E+02  0.7546771E-02  0.1362409E+00
          2   -1    0    0  502    0  0.00000000000E+00  0.00000000000E+00  0.83399910021E+03  0.83399910021E+03  0.00000000000E+00 0. -1.
          1   -1    0    0  501    0 -0.00000000000E+00 -0.00000000000E+00 -0.21816028055E+01  0.21816028055E+01  0.00000000000E+00 0. -1.
          2    1    1    2  501    0  0.11283892887E+01 -0.37700162783E+02  0.61117568125E+03  0.61233837777E+03  0.00000000000E+00 0. -1.
          1    1    1    2  502    0 -0.11283892887E+01  0.37700162783E+02  0.22064181615E+03  0.22384232525E+03  0.00000000000E+00 0. -1.
</event>
<event>
 4    1  0.3586324E+003  0.5790918E+02  0.7546771E-02  0.1267107E+00
          2   -1    0    0  502    0  0.00000000000E+00  0.00000000000E+00  0.25995523116E+02  0.25995523116E+02  0.00000000000E+00 0. -1.
          1   -1    0    0  501    0 -0.00000000000E+00 -0.00000000000E+00 -0.21952439038E+04  0.21952439038E+04  0.00000000000E+00 0.  1.
          2    1    1    2  501    0 -0.30654231309E+02 -0.49130352905E+02 -0.71308998674E+01  0.58346578363E+02  0.00000000000E+00 0. -1.
          1    1    1    2  502    0  0.30654231309E+02  0.49130352905E+02 -0.21621174808E+04  0.21628928485E+04  0.00000000000E+00 0.  1.
</event>
<event>
 4    1  0.3586324E+003  0.9657982E+02  0.7546771E-02  0.1169870E+00
          2   -1    0    0  502    0  0.00000000000E+00  0.00000000000E+00  0.19410648685E+04  0.19410648685E+04  0.00000000000E+00 0.  1.
          1   -1    0    0  501    0 -0.00000000000E+00 -0.00000000000E+00 -0.72271877186E+01  0.72271877186E+01  0.00000000000E+00 0. -1.
          2    1    1    2  501    0 -0.69688208384E+02 -0.66867147411E+02  0.15308216528E+04  0.15338652465E+04  0.00000000000E+00 0.  1.
          1    1    1    2  502    0  0.69688208384E+02  0.66867147411E+02  0.40301602803E+03  0.41442680975E+03  0.00000000000E+00 0. -1.
</event>
<event>
 4    1  0.3586324E+003  0.2609073E+02  0.7546771E-02  0.1456962E+00
          2   -1    0    0  502    0  0.00000000000E+00  0.00000000000E+00  0.76341467074E+01  0.76341467074E+01  0.00000000000E+00 0. -1.
          1   -1    0    0  501    0 -0.00000000000E+00 -0.00000000000E+00 -0.22685008762E+03  0.22685008762E+03  0.00000000000E+00 0. -1.
          2    1    1    2  501    0  0.22094662110E+02 -0.13876307947E+02 -0.18269868144E+02  0.31851437927E+02  0.00000000000E+00 0. -1.
          1    1    1    2  502    0 -0.22094662110E+02  0.13876307947E+02 -0.20094607277E+03  0.20263279640E+03  0.00000000000E+00 0. -1.
</event>
<event>
 4    1  0.3586324E+003  0.4558030E+02  0.7546771E-02  0.1318563E+00
          2   -1    0    0  502    0  0.00000000000E+00  0.00000000000E+00  0.23526469945E+03  0.23526469945E+03  0.00000000000E+00 0.  1.
          1   -1    0    0  501    0 -0.00000000000E+00 -0.00000000000E+00 -0.17860984759E+02  0.17860984759E+02  0.00000000000E+00 0.  1.
          2    1    1    2  501    0 -0.32100779447E+01 -0.45467119005E+02  0.19869368316E+03  0.20385471110E+03  0.00000000000E+00 0.  1.
          1    1    1    2  502    0  0.32100779447E+01  0.45467119005E+02  0.18710031531E+02  0.49270973107E+02  0.00000000000E+00 0.  1.
</event>
<event>
 4    1  0.3586324E+003  0.2252252E+02  0.7546771E-02  0.1498582E+00
          2   -1    0    0  502    0  0.00000000000E+00  0.00000000000E+00  0.47891903416E+03  0.47891903416E+03  0.00000000000E+00 0. -1.
          1   -1    0    0  501    0 -0.00000000000E+00 -0.00000000000E+00 -0.27012394452E+01  0.27012394452E+01  0.00000000000E+00 0. -1.
          2    1    1    2  501    0  0.22467488975E+02  0.15735412065E+01  0.42586191864E+03  0.42645707619E+03  0.00000000000E+00 0. -1.
          1    1    1    2  502    0 -0.22467488975E+02 -0.15735412065E+01  0.50355876075E+02  0.55163197406E+02  0.00000000000E+00 0. -1.
</event>
<event>
 4    1  0.3586324E+003  0.2192169E+02  0.7546771E-02  0.1506501E+00
          2   -1    0    0  502    0  0.00000000000E+00  0.00000000000E+00  0.22105382448E+03  0.22105382448E+03  0.00000000000E+00 0. -1.
          1   -1    0    0  501    0 -0.00000000000E+00 -0.00000000000E+00 -0.43192737455E+01  0.43192737455E+01  0.00000000000E+00 0. -1.
          2    1    1    2  501    0 -0.16056155566E+02  0.14925165975E+02  0.18778414992E+03  0.18905937605E+03  0.00000000000E+00 0. -1.
          1    1    1    2  502    0  0.16056155566E+02 -0.14925165975E+02  0.28950400811E+02  0.36313722173E+02  0.00000000000E+00 0. -1.
</event>
<event>
 4    1  0.3586324E+003  0.3013124E+02  0.7546771E-02  0.1418459E+00
          2   -1    0    0  502    0  0.00000000000E+00  0.00000000000E+00  0.78977477227E+03  0.78977477227E+03  0.00000000000E+00 0. -1.
          1   -1    0    0  501    0 -0.00000000000E+00 -0.00000000000E+00 -0.75697358469E+01  0.75697358469E+01  0.00000000000E+00 0.  1.
          2    1    1    2  501    0  0.29726085303E+02 -0.49245829936E+01  0.75825730022E+03  0.75885573398E+03  0.00000000000E+00 0. -1.
          1    1    1    2  502    0 -0.29726085303E+02  0.49245829936E+01  0.23947736210E+02  0.38488774139E+02  0.00000000000E+00 0.  1.
</event>
<event>
 4    1  0.3586324E+003  0.3057522E+02  0.7546771E-02  0.1414662E+00
          2   -1    0    0  502    0  0.00000000000E+00  0.00000000000E+00  0.18699225926E+04  0.18699225926E+04  0.00000000000E+00 0. -1.
          1   -1    0    0  501    0 -0.00000000000E+00 -0.00000000000E+00 -0.91540094921E+00  0.91540094921E+00  0.00000000000E+00 0.  1.
          2    1    1    2  501    0  0.26690374749E+02 -0.14915351907E+02  0.15646871786E+04  0.15649858819E+04  0.00000000000E+00 0. -1.
          1    1    1    2  502    0 -0.26690374749E+02  0.14915351907E+02  0.30432001311E+03  0.30585211165E+03  0.00000000000E+00 0.  1.
</event>
<event>
 4    1  0.3586324E+003  0.2986643E+02  0.7546771E-02  0.1420761E+00
          2   -1    0    0  502    0  0.00000000000E+00  0.00000000000E+00  0.21786882919E+02  0.21786882919E+02  0.00000000000E+00 0.  1.
          1   -1    0    0  501    0 -0.00000000000E+00 -0.00000000000E+00 -0.46850385003E+02  0.46850385003E+02  0.00000000000E+00 0.  1.
          2    1    1    2  501    0  0.12156854926E+01 -0.29841664792E+02 -0.24718856522E+02  0.38768862719E+02  0.00000000000E+00 0.  1.
          1    1    1    2  502    0 -0.12156854926E+01  0.29841664792E+02 -0.34464556190E+00  0.29868405202E+02  0.00000000000E+00 0.  1.
</event>
<event>
 4    1  0.3586324E+003  0.2414411E+02  0.7546771E-02  0.1478610E+00
          2   -1    0    0  502    0  0.00000000000E+00  0.00000000000E+00  0.85750062228E+03  0.85750062228E+03  0.00000000000E+00 0.  1.
          1   -1    0    0  501    0 -0.00000000000E+00 -0.00000000000E+00 -0.23445326467E+01  0.23445326467E+01  0.00000000000E+00 0. -1.
          2    1    1    2  501    0  0.24142775957E+02 -0.25363321394E+00  0.78984855605E+03  0.79021748871E+03  0.00000000000E+00 0.  1.
          1    1    1    2  502    0 -0.24142775957E+02  0.25363321394E+00  0.65307533581E+02  0.69627666219E+02  0.00000000000E+00 0. -1.
</event>
<event>
 4    1  0.3586324E+003  0.2296023E+02  0.7546771E-02  0.1492998E+00
          2   -1    0    0  502    0  0.00000000000E+00  0.00000000000E+00  0.18723743706E+03  0.18723743706E+03  0.00000000000E+00 0.  1.
          1   -1    0    0  501    0 -0.00000000000E+00 -0.00000000000E+00 -0.95579749297E+01  0.95579749297E+01  0.00000000000E+00 0.  1.
          2    1    1    2  501    0  0.50454285672E+01  0.22399017785E+02  0.17148362681E+03  0.17301389138E+03  0.00000000000E+00 0.  1.
          1    1    1    2  502    0 -0.50454285672E+01 -0.22399017785E+02  0.61958353213E+01  0.23781520609E+02  0.00000000000E+00 0.  1.
</event>
<event>
 4    1  0.3586324E+003  0.3734464E+02  0.7546771E-02  0.1364790E+00
          2   -1    0    0  502    0  0.00000000000E+00  0.00000000000E+00  0.59880028804E+03  0.59880028804E+03  0.00000000000E+00 0.  1.
          1   -1    0    0  501    0 -0.00000000000E+00 -0.00000000000E+00 -0.88872859770E+01  0.88872859770E+01  0.00000000000E+00 0.  1.
          2    1    1    2  501    0  0.21461133261E+02 -0.30562093194E+02  0.55596826286E+03  0.55722107918E+03  0.00000000000E+00 0.  1.
          1    1    1    2  502    0 -0.21461133261E+02  0.30562093194E+02  0.33944739210E+02  0.50466494838E+02  0.00000000000E+00 0.  1.
</event>
<event>
 4    1  0.3586324E+003  0.2414716E+02  0.7546771E-02  0.1478575E+00
          2   -1    0    0  502    0  0.00000000000E+00  0.00000000000E+00  0.16406301955E+03  0.16406301955E+03  0.00000000000E+00 0.  1.
          1   -1    0    0  501    0 -0.00000000000E+00 -0.00000000000E+00 -0.10745721355E+04  0.10745721355E+04  0.00000000000E+00 0.  1.
          2    1    1    2  501    0  0.24129264243E+02 -0.92950878094E+00  0.16303800783E+03  0.16481649607E+03  0.00000000000E+00 0.  1.
          1    1    1    2  502    0 -0.24129264243E+02  0.92950878094E+00 -0.10735471238E+04  0.10738186590E+04  0.00000000000E+00 0.  1.
</event>
<event>
 4    1  0.3586324E+003  0.6007973E+02  0.7546771E-02  0.1259562E+00
          2   -1    0    0  502    0  0.00000000000E+00  0.00000000000E+00  0.97692167980E+01  0.97692167980E+01  0.00000000000E+00 0. -1.
          1   -1    0    0  501    0 -0.00000000000E+00 -0.00000000000E+00 -0.10746737654E+04  0.10746737654E+04  0.00000000000E+00 0.  1.
          2    1    1    2  501    0  0.56079299420E+02  0.21556572717E+02 -0.93223011373E+02  0.11090583168E+03  0.00000000000E+00 0. -1.
          1    1    1    2  502    0 -0.56079299420E+02 -0.21556572717E+02 -0.97168153718E+03  0.97353715047E+03  0.00000000000E+00 0.  1.
</event>
<event>
 4    1  0.3586324E+003  0.3554862E+02  0.7546771E-02  0.1376747E+00
          2   -1    0    0  502    0  0.00000000000E+00  0.00000000000E+00  0.20968340527E+04  0.20968340527E+04  0.00000000000E+00 0. -1.
          1   -1    0    0  501    0 -0.00000000000E+00 -0.00000000000E+00 -0.52190214185E+02  0.52190214185E+02  0.00000000000E+00 0. -1.
          2    1    1    2  501    0 -0.31966357666E+02  0.15551725059E+02  0.20906120121E+04  0.20909142234E+04  0.00000000000E+00 0. -1.
          1    1    1    2  502    0  0.31966357666E+02 -0.15551725059E+02 -0.45968173608E+02  0.58110043534E+02  0.00000000000E+00 0. -1.
</event>
<event>
 4    1  0.3586324E+003  0.2544016E+02  0.7546771E-02  0.1463939E+00
          2   -1    0    0  502    0  0.00000000000E+00  0.00000000000E+00  0.11441734169E+03  0.11441734169E+03  0.00000000000E+00 0. -1.
          1   -1    0    0  501    0 -0.00000000000E+00 -0.00000000000E+00 -0.18563558301E+02  0.18563558301E+02  0.00000000000E+00 0.  1.
          2    1    1    2  501    0 -0.11435785690E+02 -0.22724978606E+02  0.10336932367E+03  0.10645383470E+03  0.00000000000E+00 0. -1.
          1    1    1    2  502    0  0.11435785690E+02  0.22724978606E+02 -0.75155402820E+01  0.26527065287E+02  0.00000000000E+00 0.  1.
</event>
<event>
 4    1  0.3586324E+003  0.2924173E+02  0.7546771E-02  0.1426302E+00
          2   -1    0    0  502    0  0.00000000000E+00  0.00000000000E+00  0.11034891966E+02  0.11034891966E+02  0.00000000000E+00 0. -1.
          1   -1    0    0  501    0 -0.00000000000E+00 -0.00000000000E+00 -0.88919874942E+03  0.88919874942E+03  0.00000000000E+00 0. -1.
          2    1    1    2  501    0  0.14042148993E+02  0.25649499173E+02 -0.90246536121E+01  0.30602665391E+02  0.00000000000E+00 0. -1.
          1    1    1    2  502    0 -0.14042148993E+02 -0.25649499173E+02 -0.86913920384E+03  0.86963097600E+03  0.00000000000E+00 0. -1.
</event>
<event>
 4    1  0.3586324E+003  0.2515653E+02  0.7546771E-02  0.1467060E+00
          2   -1    0    0  502    0  0.00000000000E+00  0.00000000000E+00  0.72017068844E+02  0.72017068844E+02  0.00000000000E+00 0. -1.
          1   -1    0    0  501    0 -0.00000000000E+00 -0.00000000000E+00 -0.99522008513E+01  0.99522008513E+01  0.00000000000E+00 0.  1.
          2    1    1    2  501    0  0.19160723867E+02 -0.16300842525E+02  0.45053033824E+02  0.51600645954E+02  0.00000000000E+00 0. -1.
          1    1    1    2  502    0 -0.19160723867E+02  0.16300842525E+02  0.17011834169E+02  0.30368623741E+02  0.00000000000E+00 0.  1.
</event>
<event>
 4    1  0.3586324E+003  0.2556748E+02  0.7546771E-02  0.1462554E+00
          2   -1    0    0  502    0  0.00000000000E+00  0.00000000000E+00  0.16784964264E+03  0.16784964264E+03  0.00000000000E+00 0. -1.
          1   -1    0    0  501    0 -0.00000000000E+00 -0.00000000000E+00 -0.39581421551E+03  0.39581421551E+03  0.00000000000E+00 0.  1.
          2    1    1    2  501    0  0.14181629720E+02  0.21273862824E+02  0.16645970161E+03  0.16841178142E+03  0.00000000000E+00 0. -1.
          1    1    1    2  502    0 -0.14181629720E+02 -0.21273862824E+02 -0.39442427448E+03  0.39525207673E+03  0.00000000000E+00 0.  1.
</event>
<event>
 4    1  0.3586324E+003  0.2252537E+02  0.7546771E-02  0.1498546E+00
          2   -1    0    0  502    0  0.00000000000E+00  0.00000000000E+00  0.30430639669E+02  0.30430639669E+02  0.00000000000E+00 0.  1.
          1   -1    0    0  501    0 -0.00000000000E+00 -0.00000000000E+00 -0.22184690705E+02  0.22184690705E+02  0.00000000000E+00 0. -1.
          2    1    1    2  501    0  0.62448674665E+01  0.21642412886E+02  0.17234979249E+02  0.28362597112E+02  0.00000000000E+00 0.  1.
          1    1    1    2  502    0 -0.62448674665E+01 -0.21642412886E+02 -0.89890302852E+01  0.24252733262E+02  0.00000000000E+00 0. -1.
</event>
<event>
 4    1  0.3586324E+003  0.2709062E+02  0.7546771E-02  0.1446700E+00
          2   -1    0    0  502    0  0.00000000000E+00  0.00000000000E+00  0.15947496179E+01  0.15947496179E+01  0.00000000000E+00 0.  1.
          1   -1    0    0  501    0 -0.00000000000E+00 -0.00000000000E+00 -0.75950230764E+03  0.75950230764E+03  0.00000000000E+00 0.  1.
          2    1    1    2  501    0  0.93303236609E+01  0.25433183632E+02 -0.14006186889E+03  0.14265773336E+03  0.00000000000E+00 0.  1.
          1    1    1    2  502    0 -0.93303236609E+01 -0.25433183632E+02 -0.61784568913E+03  0.61843932390E+03  0.00000000000E+00 0.  1.
</event>
<event>
 4    1  0.3586324E+003  0.3424744E+02  0.7546771E-02  0.1385932E+00
          2   -1    0    0  502    0  0.00000000000E+00  0.00000000000E+00  0.17376247733E+04  0.17376247733E+04  0.00000000000E+00 0.  1.
          1   -1    0    0  501    0 -0.00000000000E+00 -0.00000000000E+00 -0.72263918165E+02  0.72263918165E+02  0.00000000000E+00 0. -1.
          2    1    1    2  501    0  0.33300162416E+02 -0.79991512526E+01  0.17333884572E+04  0.17337267463E+04  0.00000000000E+00 0.  1.
          1    1    1    2  502    0 -0.33300162416E+02  0.79991512526E+01 -0.68027602110E+02  0.76161945133E+02  0.00000000000E+00 0. -1.
</event>
<event>
 4    1  0.3586324E+003  0.3295977E+02  0.7546771E-02  0.1395503E+00
          2   -1    0    0  502    0  0.00000000000E+00  0.00000000000E+00  0.18388946014E+03  0.18388946014E+03  0.00000000000E+00 0.  1.
          1   -1    0    0  501    0 -0.00000000000E+00 -0.00000000000E+00 -0.18571031954E+02  0.18571031954E+02  0.00000000000E+00 0.  1.
          2    1    1    2  501    0 -0.29679632073E+02  0.14334089254E+02  0.16625181981E+03  0.16948750474E+03  0.00000000000E+00 0.  1.
          1    1    1    2  502    0  0.29679632073E+02 -0.14334089254E+02 -0.93339162326E+00  0.32972987348E+02  0.00000000000E+00 0.  1.
</event>
<event>
 4    1  0.3586324E+003  0.2162049E+02  0.7546771E-02  0.1510587E+00
          2   -1    0    0  502    0  0.00000000000E+00  0.00000000000E+00  0.77430518751E+03  0.77430518751E+03  0.00000000000E+00 0.  1.
          1   -1    0    0  501    0 -0.00000000000E+00 -0.00000000000E+00 -0.17519557098E+02  0.17519557098E+02  0.00000000000E+00 0.  1.
          2    1    1    2  501    0 -0.10837038757E+02 -0.18708401220E+02  0.76742412485E+03  0.76772861942E+03  0.00000000000E+00 0.  1.
          1    1    1    2  502    0  0.10837038757E+02  0.18708401220E+02 -0.10638494433E+02  0.24096125187E+02  0.00000000000E+00 0.  1.
</event>
<event>
 4    1  0.3586324E+003  0.2066269E+02  0.7546771E-02  0.1524136E+00
          2   -1    0    0  502    0  0.00000000000E+00  0.00000000000E+00  0.77974052610E+02  0.77974052610E+02  0.00000000000E+00 0. -1.
          1   -1    0    0  501    0 -0.00000000000E+00 -0.00000000000E+00 -0.19887922757E+02  0.19887922757E+02  0.00000000000E+00 0. -1.
          2    1    1    2  501    0  0.19592485208E+02  0.65636296671E+01  0.70697169944E+02  0.73654847425E+02  0.00000000000E+00 0. -1.
          1    1    1    2  502    0 -0.19592485208E+02 -0.65636296671E+01 -0.12611040091E+02  0.24207127942E+02  0.00000000000E+00 0. -1.
</event>
<event>
 4    1  0.3586324E+003  0.4092480E+02  0.7546771E-02  0.1343150E+00
          2   -1    0    0  502    0  0.00000000000E+00  0.00000000000E+00  0.29034042366E+04  0.29034042366E+04  0.00000000000E+00 0.  1.
          1   -1    0    0  501    0 -0.00000000000E+00 -0.00000000000E+00 -0.67094929091E+00  0.67094929091E+00  0.00000000000E+00 0.  1.
          2    1    1    2  501    0  0.37813306337E+02  0.15652254570E+02  0.19951399202E+04  0.19955596058E+04  0.00000000000E+00 0.  1.
          1    1    1    2  502    0 -0.37813306337E+02 -0.15652254570E+02  0.90759336714E+03  0.90851558010E+03  0.00000000000E+00 0.  1.
</event>
<event>
 4    1  0.3586324E+003  0.2002582E+02  0.7546771E-02  0.1533641E+00
          2   -1    0    0  502    0  0.00000000000E+00  0.00000000000E+00  0.20638075891E+03  0.20638075891E+03  0.00000000000E+00 0. -1.
          1   -1    0    0  501    0 -0.00000000000E+00 -0.00000000000E+00 -0.90721177643E+03  0.90721177643E+03  0.00000000000E+00 0. -1.
          2    1    1    2  501    0 -0.18704769124E+02 -0.71529856202E+01  0.20578413324E+03  0.20675624074E+03  0.00000000000E+00 0. -1.
          1    1    1    2  502    0  0.18704769124E+02  0.71529856202E+01 -0.90661515077E+03  0.90683629460E+03  0.00000000000E+00 0. -1.
</event>
<event>
 4    1  0.3586324E+003  0.3116836E+02  0.7546771E-02  0.1409708E+00
          2   -1    0    0  502    0  0.00000000000E+00  0.00000000000E+00  0.61300881116E+02  0.61300881116E+02  0.00000000000E+00 0.  1.
          1   -1    0    0  501    0 -0.00000000000E+00 -0.00000000000E+00 -0.43205642686E+02  0.43205642686E+02  0.00000000000E+00 0. -1.
          2    1    1    2  501    0 -0.25895248501E+02  0.17346543778E+02  0.50627800450E+02  0.59452843956E+02  0.00000000000E+00 0.  1.
          1    1    1    2  502    0  0.25895248501E+02 -0.17346543778E+02 -0.32532562020E+02  0.45053679845E+02  0.00000000000E+00 0. -1.
</event>
<event>
 4    1  0.3586324E+003  0.2140520E+02  0.7546771E-02  0.1513558E+00
          2   -1    0    0  502    0  0.00000000000E+00  0.00000000000E+00  0.57477526271E+01  0.57477526271E+01  0.00000000000E+00 0.  1.
          1   -1    0    0  501    0 -0.00000000000E+00 -0.00000000000E+00 -0.98675903562E+03  0.98675903562E+03  0.00000000000E+00 0.  1.
          2    1    1    2  501    0 -0.68055805780E+01  0.20294499740E+02 -0.14719160946E+02  0.25977612393E+02  0.00000000000E+00 0.  1.
          1    1    1    2  502    0  0.68055805780E+01 -0.20294499740E+02 -0.96629212205E+03  0.96652917586E+03  0.00000000000E+00 0.  1.
</event>
<event>
 4    1  0.3586324E+003  0.2011312E+02  0.7546771E-02  0.1532314E+00
          2   -1    0    0  502    0  0.00000000000E+00  0.00000000000E+00  0.58526114167E+03  0.58526114167E+03  0.00000000000E+00 0. -1.
          1   -1    0    0  501    0 -0.00000000000E+00 -0.00000000000E+00 -0.69802746627E+00  0.69802746627E+00  0.00000000000E+00 0. -1.
          2    1    1    2  501    0  0.11346604107E+02 -0.16606989607E+02  0.32123881979E+03  0.32186785622E+03  0.00000000000E+00 0. -1.
          1    1    1    2  502    0 -0.11346604107E+02  0.16606989607E+02  0.26332429442E+03  0.26409131292E+03  0.00000000000E+00 0. -1.
</event>
<event>
 4    1  0.3586324E+003  0.2980934E+02  0.7546771E-02  0.1421261E+00
          2   -1    0    0  502    0  0.00000000000E+00  0.00000000000E+00  0.46665107289E+01  0.46665107289E+01  0.00000000000E+00 0.  1.
          1   -1    0    0  501    0 -0.00000000000E+00 -0.00000000000E+00 -0.77451229470E+03  0.77451229470E+03  0.00000000000E+00 0. -1.
          2    1    1    2  501    0  0.27341253375E+02  0.11876568616E+02 -0.46598186912E+02  0.55317158655E+02  0.00000000000E+00 0.  1.
          1    1    1    2  502    0 -0.27341253375E+02 -0.11876568616E+02 -0.72324759706E+03  0.72386164678E+03  0.00000000000E+00 0. -1.
</event>
<event>
 4    1  0.3586324E+003  0.2088896E+02  0.7546771E-02  0.1520856E+00
          2   -1    0    0  502    0  0.00000000000E+00  0.00000000000E+00  0.96610544787E+03  0.96610544787E+03  0.00000000000E+00 0. -1.
          1   -1    0    0  501    0 -0.00000000000E+00 -0.00000000000E+00 -0.14754727506E+03  0.14754727506E+03  0.00000000000E+00 0.  1.
          2    1    1    2  501    0  0.83588212656E+01 -0.19143636290E+02  0.96525254320E+03  0.96547854500E+03  0.00000000000E+00 0. -1.
          1    1    1    2  502    0 -0.83588212656E+01  0.19143636290E+02 -0.14669437038E+03  0.14817417793E+03  0.00000000000E+00 0.  1.
</event>
<event>
 4    1  0.3586324E+003  0.2082813E+02  0.7546771E-02  0.1521733E+00
          2   -1    0    0  502    0  0.00000000000E+00  0.00000000000E+00  0.12245188826E+04  0.12245188826E+04  0.00000000000E+00 0.  1.
          1   -1    0    0  501    0 -0.00000000000E+00 -0.00000000000E+00 -0.85655822958E+00  0.85655822958E+00  0.00000000000E+00 0. -1.
          2    1    1    2  501    0  0.15162900983E+02 -0.14279266932E+02  0.10810084437E+04  0.10812090762E+04  0.00000000000E+00 0.  1.
          1    1    1    2  502    0 -0.15162900983E+02  0.14279266932E+02  0.14265388066E+03  0.14416636465E+03  0.00000000000E+00 0. -1.
</event>
<event>
 4    1  0.3586324E+003  0.2511908E+02  0.7546771E-02  0.1467476E+00
          2   -1    0    0  502    0  0.00000000000E+00  0.00000000000E+00  0.10865397009E+04  0.10865397009E+04  0.00000000000E+00 0. -1.
          1   -1    0    0  501    0 -0.00000000000E+00 -0.00000000000E+00 -0.40429245692E+02  0.40429245692E+02  0.00000000000E+00 0. -1.
          2    1    1    2  501    0 -0.26014631153E+01  0.24984007540E+02  0.10824782032E+04  0.10827696101E+04  0.00000000000E+00 0. -1.
          1    1    1    2  502    0  0.26014631153E+01 -0.24984007540E+02 -0.36367748027E+02  0.44199336416E+02  0.00000000000E+00 0. -1.
</event>
<event>
 4    1  0.3586324E+003  0.3474489E+02  0.7546771E-02  0.1382366E+00
          2   -1    0    0  502    0  0.00000000000E+00  0.00000000000E+00  0.65913100584E+01  0.65913100584E+01  0.00000000000E+00 0. -1.
          1   -1    0    0  501    0 -0.00000000000E+00 -0.00000000000E+00 -0.27706998127E+03  0.27706998127E+03  0.00000000000E+00 0.  1.
          2    1    1    2  501    0  0.30937947595E+01 -0.34606879616E+02 -0.52663857325E+02  0.63092706006E+02  0.00000000000E+00 0. -1.
          1    1    1    2  502    0 -0.30937947595E+01  0.34606879616E+02 -0.21781481389E+03  0.22056858532E+03  0.00000000000E+00 0.  1.
</event>
<event>
 4    1  0.3586324E+003  0.2113595E+02  0.7546771E-02  0.1517333E+00
          2   -1    0    0  502    0  0.00000000000E+00  0.00000000000E+00  0.10871889495E+02  0.10871889495E+02  0.00000000000E+00 0. -1.
          1   -1    0    0  501    0 -0.00000000000E+00 -0.00000000000E+00 -0.13672027998E+03  0.13672027998E+03  0.00000000000E+00 0. -1.
          2    1    1    2  501    0  0.20259616693E+02 -0.60229867291E+01 -0.12058827300E+01  0.21170323352E+02  0.00000000000E+00 0. -1.
          1    1    1    2  502    0 -0.20259616693E+02  0.60229867291E+01 -0.12464250775E+03  0.12642184612E+03  0.00000000000E+00 0. -1.
</event>
<event>
 4    1  0.3586324E+003  0.2625170E+02  0.7546771E-02  0.1455273E+00
          2   -1    0    0  502    0  0.00000000000E+00  0.00000000000E+00  0.11646276348E+04  0.11646276348E+04  0.00000000000E+00 0. -1.
          1   -1    0    0  501    0 -0.00000000000E+00 -0.00000000000E+00 -0.67515855180E+01  0.67515855180E+01  0.00000000000E+00 0. -1.
          2    1    1    2  501    0 -0.25706194402E+02 -0.53238214254E+01  0.11383731135E+04  0.11386757647E+04  0.00000000000E+00 0. -1.
          1    1    1    2  502    0  0.25706194402E+02  0.53238214254E+01  0.19502935705E+02  0.32703455572E+02  0.00000000000E+00 0. -1.
</event>
<event>
 4    1  0.3586324E+003  0.2479390E+02  0.7546771E-02  0.1471122E+00
          2   -1    0    0  502    0  0.00000000000E+00  0.00000000000E+00  0.40905182503E+02  0.40905182503E+02  0.00000000000E+00 0. -1.
          1   -1    0    0  501    0 -0.00000000000E+00 -0.00000000000E+00 -0.46944824354E+03  0.46944824354E+03  0.00000000000E+00 0. -1.
          2    1    1    2  501    0  0.44094044995E+01 -0.24398665167E+02  0.36787497928E+02  0.44362796505E+02  0.00000000000E+00 0. -1.
          1    1    1    2  502    0 -0.44094044995E+01  0.24398665167E+02 -0.46533055897E+03  0.46599062954E+03  0.00000000000E+00 0. -1.
</event>
<event>
 4    1  0.3586324E+003  0.2535332E+02  0.7546771E-02  0.1464889E+00
          2   -1    0    0  502    0  0.00000000000E+00  0.00000000000E+00  0.29114682001E+02  0.29114682001E+02  0.00000000000E+00 0.  1.
          1   -1    0    0  501    0 -0.00000000000E+00 -0.00000000000E+00 -0.76181963162E+02  0.76181963162E+02  0.00000000000E+00 0.  1.
          2    1    1    2  501    0  0.18607246729E+02  0.17220954947E+02  0.20834723469E+02  0.32815798362E+02  0.00000000000E+00 0.  1.
          1    1    1    2  502    0 -0.18607246729E+02 -0.17220954947E+02 -0.67902004630E+02  0.72480846800E+02  0.00000000000E+00 0.  1.
</event>
<event>
 4    1  0.3586324E+003  0.2230959E+02  0.7546771E-02  0.1501354E+00
          2   -1    0    0  502    0  0.00000000000E+00  0.00000000000E+00  0.15138003564E+04  0.15138003564E+04  0.00000000000E+00 0. -1.
          1   -1    0    0  501    0 -0.00000000000E+00 -0.00000000000E+00 -0.82561995579E+01  0.82561995579E+01  0.00000000000E+00 0.  1.
          2    1    1    2  501    0  0.11326858788E+02 -0.19220309091E+02  0.14984931781E+04  0.14986592417E+04  0.00000000000E+00 0. -1.
          1    1    1    2  502    0 -0.11326858788E+02  0.19220309091E+02  0.70509787329E+01  0.23397314218E+02  0.00000000000E+00 0.  1.
</event>
<event>
 4    1  0.3586324E+003  0.3732034E+02  0.7546771E-02  0.1364947E+00
          2   -1    0    0  502    0  0.00000000000E+00  0.00000000000E+00  0.15595393596E+04  0.15595393596E+04  0.00000000000E+00 0. -1.
          1   -1    0    0  501    0 -0.00000000000E+00 -0.00000000000E+00 -0.90451234445E+00  0.90451234445E+00  0.00000000000E+00 0.  1.
          2    1    1    2  501    0 -0.30641824584E+01  0.37194336175E+02  0.86699782704E+03  0.86780069138E+03  0.00000000000E+00 0. -1.
          1    1    1    2  502    0  0.30641824584E+01 -0.37194336175E+02  0.69163702020E+03  0.69264318055E+03  0.00000000000E+00 0.  1.
</event>
<event>
 4    1  0.3586324E+003  0.3506062E+02  0.7546771E-02  0.1380138E+00
          2   -1    0    0  502    0  0.00000000000E+00  0.00000000000E+00  0.20878679414E+04  0.20878679414E+04  0.00000000000E+00 0.  1.
          1   -1    0    0  501    0 -0.00000000000E+00 -0.00000000000E+00 -0.51349557455E+02  0.51349557455E+02  0.00000000000E+00 0.  1.
          2    1    1    2  501    0 -0.34795194446E+02  0.43060133324E+01  0.20817183715E+04  0.20820135987E+04  0.00000000000E+00 0.  1.
          1    1    1    2  502    0  0.34795194446E+02 -0.43060133324E+01 -0.45199987556E+02  0.57203900063E+02  0.00000000000E+00 0.  1.
</event>
<event>
 4    1  0.3586324E+003  0.3931660E+02  0.7546771E-02  0.1352538E+00
          2   -1    0    0  502    0  0.00000000000E+00  0.00000000000E+00  0.20493586412E+03  0.20493586412E+03  0.00000000000E+00 0.  1.
          1   -1    0    0  501    0 -0.00000000000E+00 -0.00000000000E+00 -0.49217811372E+02  0.49217811372E+02  0.00000000000E+00 0. -1.
          2    1    1    2  501    0  0.29845823081E+02 -0.25593400066E+02  0.19479361321E+03  0.19872178298E+03  0.00000000000E+00 0.  1.
          1    1    1    2  502    0 -0.29845823081E+02  0.25593400066E+02 -0.39075560462E+02  0.55431892514E+02  0.00000000000E+00 0. -1.
</event>
<event>
 4    1  0.3586324E+003  0.2623205E+02  0.7546771E-02  0.1455479E+00
          2   -1    0    0  502    0  0.00000000000E+00  0.00000000000E+00  0.85241371889E+02  0.85241371889E+02  0.00000000000E+00 0.  1.
          1   -1    0    0  501    0 -0.00000000000E+00 -0.00000000000E+00 -0.73652277523E+02  0.73652277523E+02  0.00000000000E+00 0.  1.
          2    1    1    2  501    0 -0.24091203586E+02  0.10379507078E+02  0.80761190019E+02  0.84914604578E+02  0.00000000000E+00 0.  1.
          1    1    1    2  502    0  0.24091203586E+02 -0.10379507078E+02 -0.69172095653E+02  0.73979044833E+02  0.00000000000E+00 0.  1.
</event>
<event>
 4    1  0.3586324E+003  0.2439335E+02  0.7546771E-02  0.1475706E+00
          2   -1    0    0  502    0  0.00000000000E+00  0.00000000000E+00  0.98493284145E+03  0.98493284145E+03  0.00000000000E+00 0.  1.
          1   -1    0    0  501    0 -0.00000000000E+00 -0.00000000000E+00 -0.67227014065E+00  0.67227014065E+00  0.00000000000E+00 0.  1.
          2    1    1    2  501    0 -0.24317684939E+02 -0.19198742197E+01  0.64901328723E+03  0.64947154112E+03  0.00000000000E+00 0.  1.
          1    1    1    2  502    0  0.24317684939E+02  0.19198742197E+01  0.33524728408E+03  0.33613357047E+03  0.00000000000E+00 0.  1.
</event>
<event>
 4    1  0.3586324E+003  0.4155073E+02  0.7546771E-02  0.1339631E+00
          2   -1    0    0  502    0  0.00000000000E+00  0.00000000000E+00  0.51184310514E+02  0.51184310514E+02  0.00000000000E+00 0.  1.
          1   -1    0    0  501    0 -0.00000000000E+00 -0.00000000000E+00 -0.27188772275E+03  0.27188772275E+03  0.00000000000E+00 0. -1.
          2    1    1    2  501    0  0.26050021104E+02  0.32370657910E+02  0.40832566508E+02  0.58256000384E+02  0.00000000000E+00 0.  1.
          1    1    1    2  502    0 -0.26050021104E+02 -0.32370657910E+02 -0.26153597874E+03  0.26481603288E+03  0.00000000000E+00 0. -1.
</event>
<event>
 4    1  0.3586324E+003  0.3731550E+02  0.7546771E-02  0.1364978E+00
          2   -1    0    0  502    0  0.00000000000E+00  0.00000000000E+00  0.13639112734E+02  0.13639112734E+02  0.00000000000E+00 0. -1.
          1   -1    0    0  501    0 -0.00000000000E+00 -0.00000000000E+00 -0.12163151070E+03  0.12163151070E+03  0.00000000000E+00 0. -1.
          2    1    1    2  501    0 -0.36095984965E+02  0.94618579708E+01 -0.26887718317E+02  0.45993437392E+02  0.00000000000E+00 0. -1.
          1    1    1    2  502    0  0.36095984965E+02 -0.94618579708E+01 -0.81104679654E+02  0.89277186048E+02  0.00000000000E+00 0. -1.
</event>
<event>
 4    1  0.3586324E+003  0.2708079E+02  0.7546771E-02  0.1446798E+00
          2   -1    0    0  502    0  0.00000000000E+00  0.00000000000E+00  0.17005232237E+02  0.17005232237E+02  0.00000000000E+00 0.  1.
          1   -1    0    0  501    0 -0.00000000000E+00 -0.00000000000E+00 -0.17735424528E+04  0.17735424528E+04  0.00000000000E+00 0. -1.
          2    1    1    2  501    0  0.19407481583E+02  0.18886995491E+02  0.60533497429E+01  0.27749089772E+02  0.00000000000E+00 0.  1.
          1    1    1    2  502    0 -0.19407481583E+02 -0.18886995491E+02 -0.17625905703E+04  0.17627985953E+04  0.00000000000E+00 0. -1.
</event>
<event>
 4    1  0.3586324E+003  0.2989366E+02  0.7546771E-02  0.1420523E+00
          2   -1    0    0  502    0  0.00000000000E+00  0.00000000000E+00  0.12829114945E+01  0.12829114945E+01  0.00000000000E+00 0. -1.
          1   -1    0    0  501    0 -0.00000000000E+00 -0.00000000000E+00 -0.12903194780E+04  0.12903194780E+04  0.00000000000E+00 0.  1.
          2    1    1    2  501    0  0.37301135201E+01 -0.29660026367E+02 -0.20643794497E+03  0.20859112165E+03  0.00000000000E+00 0. -1.
          1    1    1    2  502    0 -0.37301135201E+01  0.29660026367E+02 -0.10825986215E+04  0.10830112678E+04  0.00000000000E+00 0.  1.
</event>
<event>
 4    1  0.3586324E+003  0.2645343E+02  0.7546771E-02  0.1453177E+00
          2   -1    0    0  502    0  0.00000000000E+00  0.00000000000E+00  0.17047191801E+02  0.17047191801E+02  0.00000000000E+00 0. -1.
          1   -1    0    0  501    0 -0.00000000000E+00 -0.00000000000E+00 -0.79850404976E+03  0.79850404976E+03  0.00000000000E+00 0.  1.
          2    1    1    2  501    0 -0.58914390967E+01 -0.25789044914E+02  0.64273606668E+01  0.27223057458E+02  0.00000000000E+00 0. -1.
          1    1    1    2  502    0  0.58914390967E+01  0.25789044914E+02 -0.78788421863E+03  0.78832818410E+03  0.00000000000E+00 0.  1.
</event>
<event>
 4    1  0.3586324E+003  0.2110897E+02  0.7546771E-02  0.1517715E+00
          2   -1    0    0  502    0  0.00000000000E+00  0.00000000000E+00  0.58647441010E+01  0.58647441010E+01  0.00000000000E+00 0. -1.
          1   -1    0    0  501    0 -0.00000000000E+00 -0.00000000000E+00 -0.12914592656E+04  0.12914592656E+04  0.00000000000E+00 0.  1.
          2    1    1    2  501    0  0.20422526056E+02 -0.53393837234E+01 -0.13505090844E+02  0.25059450667E+02  0.00000000000E+00 0. -1.
          1    1    1    2  502    0 -0.20422526056E+02  0.53393837234E+01 -0.12720894306E+04  0.12722645590E+04  0.00000000000E+00 0.  1.
</event>
<event>
 4    1  0.3586324E+003  0.4723483E+02  0.7546771E-02  0.1310628E+00
          2   -1    0    0  502    0  0.00000000000E+00  0.00000000000E+00  0.81954597502E+02  0.81954597502E+02  0.00000000000E+00 0. -1.
          1   -1    0    0  501    0 -0.00000000000E+00 -0.00000000000E+00 -0.15468902446E+03  0.15468902446E+03  0.00000000000E+00 0. -1.
          2    1    1    2  501    0  0.47100939877E+02 -0.35539866972E+01  0.71039302378E+02  0.85309506159E+02  0.00000000000E+00 0. -1.
          1    1    1    2  502    0 -0.47100939877E+02  0.35539866972E+01 -0.14377372933E+03  0.15133411580E+03  0.00000000000E+00 0. -1.
</event>
<event>
 4    1  0.3586324E+003  0.3137108E+02  0.7546771E-02  0.1408044E+00
          2   -1    0    0  502    0  0.00000000000E+00  0.00000000000E+00  0.70698912776E+03  0.70698912776E+03  0.00000000000E+00 0. -1.
          1   -1    0    0  501    0 -0.00000000000E+00 -0.00000000000E+00 -0.10642373587E+03  0.10642373587E+03  0.00000000000E+00 0. -1.
          2    1    1    2  501    0 -0.17019013689E+01 -0.31324886267E+02  0.70432051201E+03  0.70501881436E+03  0.00000000000E+00 0. -1.
          1    1    1    2  502    0  0.17019013689E+01  0.31324886267E+02 -0.10375512011E+03  0.10839404927E+03  0.00000000000E+00 0. -1.
</event>
<event>
 4    1  0.3586324E+003  0.2359742E+02  0.7546771E-02  0.1485130E+00
          2   -1    0    0  502    0  0.00000000000E+00  0.00000000000E+00  0.11891007945E+04  0.11891007945E+04  0.00000000000E+00 0. -1.
          1   -1    0    0  501    0 -0.00000000000E+00 -0.00000000000E+00 -0.68638647513E+00  0.68638647513E+00  0.00000000000E+00 0.  1.
          2    1    1    2  501    0  0.36117707339E+01  0.23319373430E+02  0.92954633376E+03  0.92984580694E+03  0.00000000000E+00 0. -1.
          1    1    1    2  502    0 -0.36117707339E+01 -0.23319373430E+02  0.25886807423E+03  0.25994137401E+03  0.00000000000E+00 0.  1.
</event>
<event>
 4    1  0.3586324E+003  0.2055424E+02  0.7546771E-02  0.1525725E+00
          2   -1    0    0  502    0  0.00000000000E+00  0.00000000000E+00  0.43686074717E+03  0.43686074717E+03  0.00000000000E+00 0. -1.
          1   -1    0    0  501    0 -0.00000000000E+00 -0.00000000000E+00 -0.43269197856E+02  0.43269197856E+02  0.00000000000E+00 0.  1.
          2    1    1    2  501    0  0.14178177623E+02 -0.14881394288E+02  0.43416284099E+03  0.43464911033E+03  0.00000000000E+00 0. -1.
          1    1    1    2  502    0 -0.14178177623E+02  0.14881394288E+02 -0.40571291673E+02  0.45480834696E+02  0.00000000000E+00 0.  1.
</event>
<event>
 4    1  0.3586324E+003  0.4600368E+02  0.7546771E-02  0.1316496E+00
          2   -1    0    0  502    0  0.00000000000E+00  0.00000000000E+00  0.43947621382E+03  0.43947621382E+03  0.00000000000E+00 0.  1.
          1   -1    0    0  501    0 -0.00000000000E+00 -0.00000000000E+00 -0.13206266323E+02  0.13206266323E+02  0.00000000000E+00 0.  1.
          2    1    1    2  501    0  0.38213349555E+02 -0.25614026535E+02  0.39354974001E+03  0.39622939859E+03  0.00000000000E+00 0.  1.
          1    1    1    2  502    0 -0.38213349555E+02  0.25614026535E+02  0.32720207488E+02  0.56453081560E+02  0.00000000000E+00 0.  1.
</event>
<event>
 4    1  0.3586324E+003  0.2283740E+02  0.7546771E-02  0.1494550E+00
          2   -1    0    0  502    0  0.00000000000E+00  0.00000000000E+00  0.20137266823E+01  0.20137266823E+01  0.00000000000E+00 0. -1.
          1   -1    0    0  501    0 -0.00000000000E+00 -0.00000000000E+00 -0.86669786838E+03  0.86669786838E+03  0.00000000000E+00 0.  1.
          2    1    1    2  501    0 -0.22826454008E+02  0.70695986237E+00 -0.68630507841E+02  0.72330445881E+02  0.00000000000E+00 0. -1.
          1    1    1    2  502    0  0.22826454008E+02 -0.70695986237E+00 -0.79605363386E+03  0.79638114919E+03  0.00000000000E+00 0.  1.
</event>
<event>
 4    1  0.3586324E+003  0.1757889E+03  0.7546771E-02  0.1073770E+00
          2   -1    0    0  502    0  0.00000000000E+00  0.00000000000E+00  0.24542270949E+04  0.24542270949E+04  0.00000000000E+00 0. -1.
          1   -1    0    0  501    0 -0.00000000000E+00 -0.00000000000E+00 -0.46069852719E+02  0.46069852719E+02  0.00000000000E+00 0. -1.
          2    1    1    2  501    0 -0.10523669449E+03 -0.14080825640E+03  0.22697836213E+04  0.22765806409E+04  0.00000000000E+00 0. -1.
          1    1    1    2  502    0  0.10523669449E+03  0.14080825640E+03  0.13837362086E+03  0.22371630671E+03  0.00000000000E+00 0. -1.
</event>
<event>
 4    1  0.3586324E+003  0.8537656E+02  0.7546771E-02  0.1191887E+00
          2   -1    0    0  502    0  0.00000000000E+00  0.00000000000E+00  0.78411585507E+03  0.78411585507E+03  0.00000000000E+00 0. -1.
          1   -1    0    0  501    0 -0.00000000000E+00 -0.00000000000E+00 -0.96493468994E+02  0.96493468994E+02  0.00000000000E+00 0. -1.
          2    1    1    2  501    0 -0.62747467626E+02 -0.57895698552E+02  0.76236973937E+03  0.76713543532E+03  0.00000000000E+00 0. -1.
          1    1    1    2  502    0  0.62747467626E+02  0.57895698552E+02 -0.74747353293E+02  0.11347388875E+03  0.00000000000E+00 0. -1.
</event>
<event>
 4    1  0.3586324E+003  0.2063109E+02  0.7546771E-02  0.1524598E+00
          2   -1    0    0  502    0  0.00000000000E+00  0.00000000000E+00  0.50061238803E+01  0.50061238803E+01  0.00000000000E+00 0.  1.
          1   -1    0    0  501    0 -0.00000000000E+00 -0.00000000000E+00 -0.18193268418E+03  0.18193268418E+03  0.00000000000E+00 0. -1.
          2    1    1    2  501    0  0.14257795225E+02 -0.14911641630E+02 -0.20245911343E+02  0.28905686411E+02  0.00000000000E+00 0.  1.
          1    1    1    2  502    0 -0.14257795225E+02  0.14911641630E+02 -0.15668064895E+03  0.15803312165E+03  0.00000000000E+00 0. -1.
</event>
<event>
 4    1  0.3586324E+003  0.5372854E+02  0.7546771E-02  0.1282769E+00
          2   -1    0    0  502    0  0.00000000000E+00  0.00000000000E+00  0.53768501693E+03  0.53768501693E+03  0.00000000000E+00 0.  1.
          1   -1    0    0  501    0 -0.00000000000E+00 -0.00000000000E+00 -0.13460766581E+02  0.13460766581E+02  0.00000000000E+00 0.  1.
          2    1    1    2  501    0 -0.52737460757E+02  0.10272088420E+02  0.47577399644E+03  0.47879813206E+03  0.00000000000E+00 0.  1.
          1    1    1    2  502    0  0.52737460757E+02 -0.10272088420E+02  0.48450253901E+02  0.72347651453E+02  0.00000000000E+00 0.  1.
</event>
<event>
 4    1  0.3586324E+003  0.4180617E+02  0.7546771E-02  0.1338215E+00
          2   -1    0    0  502    0  0.00000000000E+00  0.00000000000E+00  0.19974715217E+04  0.19974715217E+04  0.00000000000E+00 0. -1.
          1   -1    0    0  501    0 -0.00000000000E+00 -0.00000000000E+00 -0.16752562370E+02  0.16752562370E+02  0.00000000000E+00 0. -1.
          2    1    1    2  501    0 -0.32704826717E+02  0.26041310124E+02  0.19708181701E+04  0.19712615289E+04  0.00000000000E+00 0. -1.
          1    1    1    2  502    0  0.32704826717E+02 -0.26041310124E+02  0.99007892279E+01  0.42962555219E+02  0.00000000000E+00 0. -1.
</event>
<event>
 4    1  0.3586324E+003  0.2223607E+02  0.7546771E-02  0.1502320E+00
          2   -1    0    0  502    0  0.00000000000E+00  0.00000000000E+00  0.25581074612E+03  0.25581074612E+03  0.00000000000E+00 0. -1.
          1   -1    0    0  501    0 -0.00000000000E+00 -0.00000000000E+00 -0.62798194655E+03  0.62798194655E+03  0.00000000000E+00 0. -1.
          2    1    1    2  501    0  0.21599039886E+02  0.52843297574E+01  0.25513017272E+03  0.25609734028E+03  0.00000000000E+00 0. -1.
          1    1    1    2  502    0 -0.21599039886E+02 -0.52843297574E+01 -0.62730137314E+03  0.62769535239E+03  0.00000000000E+00 0. -1.
</event>
<event>
 4    1  0.3586324E+003  0.3457710E+02  0.7546771E-02  0.1383561E+00
          2   -1    0    0  502    0  0.00000000000E+00  0.00000000000E+00  0.11298418410E+03  0.11298418410E+03  0.00000000000E+00 0.  1.
          1   -1    0    0  501    0 -0.00000000000E+00 -0.00000000000E+00 -0.27100185703E+02  0.27100185703E+02  0.00000000000E+00 0. -1.
          2    1    1    2  501    0  0.46821495086E+01 -0.34258621769E+02  0.97625636438E+02  0.10356804806E+03  0.00000000000E+00 0.  1.
          1    1    1    2  502    0 -0.46821495086E+01  0.34258621769E+02 -0.11741638041E+02  0.36516321740E+02  0.00000000000E+00 0. -1.
</event>
<event>
 4    1  0.3586324E+003  0.2293663E+02  0.7546771E-02  0.1493295E+00
          2   -1    0    0  502    0  0.00000000000E+00  0.00000000000E+00  0.13587845693E+04  0.13587845693E+04  0.00000000000E+00 0. -1.
          1   -1    0    0  501    0 -0.00000000000E+00 -0.00000000000E+00 -0.30428294736E+02  0.30428294736E+02  0.00000000000E+00 0.  1.
          2    1    1    2  501    0 -0.16523219466E+02 -0.15908237716E+02  0.13543512623E+04  0.13545454701E+04  0.00000000000E+00 0. -1.
          1    1    1    2  502    0  0.16523219466E+02  0.15908237716E+02 -0.25994987800E+02  0.34667393896E+02  0.00000000000E+00 0.  1.
</event>
<event>
 4    1  0.3586324E+003  0.3684176E+02  0.7546771E-02  0.1368058E+00
          2   -1    0    0  502    0  0.00000000000E+00  0.00000000000E+00  0.22447816312E+04  0.22447816312E+04  0.00000000000E+00 0.  1.
          1   -1    0    0  501    0 -0.00000000000E+00 -0.00000000000E+00 -0.36734517764E+01  0.36734517764E+01  0.00000000000E+00 0.  1.
          2    1    1    2  501    0  0.36697422587E+02  0.32579400563E+01  0.21480999693E+04  0.21484158799E+04  0.00000000000E+00 0.  1.
          1    1    1    2  502    0 -0.36697422587E+02 -0.32579400563E+01  0.93008210178E+02  0.10003920311E+03  0.00000000000E+00 0.  1.
</event>
<event>
 4    1  0.3586324E+003  0.7645546E+02  0.7546771E-02  0.1212324E+00
          2   -1    0    0  502    0  0.00000000000E+00  0.00000000000E+00  0.10494490607E+02  0.10494490607E+02  0.00000000000E+00 0. -1.
          1   -1    0    0  501    0 -0.00000000000E+00 -0.00000000000E+00 -0.11942956412E+04  0.11942956412E+04  0.00000000000E+00 0.  1.
          2    1    1    2  501    0  0.59886057308E+02 -0.47529972286E+02 -0.15185695019E+03  0.17001756217E+03  0.00000000000E+00 0. -1.
          1    1    1    2  502    0 -0.59886057308E+02  0.47529972286E+02 -0.10319442004E+04  0.10347725696E+04  0.00000000000E+00 0.  1.
</event>
<event>
 4    1  0.3586324E+003  0.2054407E+02  0.7546771E-02  0.1525875E+00
          2   -1    0    0  502    0  0.00000000000E+00  0.00000000000E+00  0.30684313769E+01  0.30684313769E+01  0.00000000000E+00 0. -1.
          1   -1    0    0  501    0 -0.00000000000E+00 -0.00000000000E+00 -0.30538583441E+03  0.30538583441E+03  0.00000000000E+00 0. -1.
          2    1    1    2  501    0 -0.33760524748E+01  0.20264771347E+02 -0.36823386197E+02  0.42166579884E+02  0.00000000000E+00 0. -1.
          1    1    1    2  502    0  0.33760524748E+01 -0.20264771347E+02 -0.26549401684E+03  0.26628768590E+03  0.00000000000E+00 0. -1.
</event>
<event>
 4    1  0.3586324E+003  0.2497158E+02  0.7546771E-02  0.1469122E+00
          2   -1    0    0  502    0  0.00000000000E+00  0.00000000000E+00  0.41351819743E+02  0.41351819743E+02  0.00000000000E+00 0.  1.
          1   -1    0    0  501    0 -0.00000000000E+00 -0.00000000000E+00 -0.14428644338E+03  0.14428644338E+03  0.00000000000E+00 0.  1.
          2    1    1    2  501    0  0.37868358144E+01  0.24682781811E+02  0.36367575825E+02  0.44115534847E+02  0.00000000000E+00 0.  1.
          1    1    1    2  502    0 -0.37868358144E+01 -0.24682781811E+02 -0.13930219946E+03  0.14152272827E+03  0.00000000000E+00 0.  1.
</event>
<event>
 4    1  0.3586324E+003  0.2369399E+02  0.7546771E-02  0.1483963E+00
          2   -1    0    0  502    0  0.00000000000E+00  0.00000000000E+00  0.41364772741E+03  0.41364772741E+03  0.00000000000E+00 0.  1.
          1   -1    0    0  501    0 -0.00000000000E+00 -0.00000000000E+00 -0.12406649509E+02  0.12406649509E+02  0.00000000000E+00 0. -1.
          2    1    1    2  501    0  0.15652895857E+02  0.17787405516E+02  0.40165846387E+03  0.40235671554E+03  0.00000000000E+00 0.  1.
          1    1    1    2  502    0 -0.15652895857E+02 -0.17787405516E+02 -0.41738596809E+00  0.23697661377E+02  0.00000000000E+00 0. -1.
</event>
<event>
 4    1  0.3586324E+003  0.2086669E+02  0.7546771E-02  0.1521177E+00
          2   -1    0    0  502    0  0.00000000000E+00  0.00000000000E+00  0.99060264908E+02  0.99060264908E+02  0.00000000000E+00 0. -1.
          1   -1    0    0  501    0 -0.00000000000E+00 -0.00000000000E+00 -0.88399142205E+03  0.88399142205E+03  0.00000000000E+00 0.  1.
          2    1    1    2  501    0  0.13817392024E+02  0.15636443865E+02  0.97836728845E+02  0.10003721413E+03  0.00000000000E+00 0. -1.
          1    1    1    2  502    0 -0.13817392024E+02 -0.15636443865E+02 -0.88276788599E+03  0.88301447283E+03  0.00000000000E+00 0.  1.
</event>
<event>
 4    1  0.3586324E+003  0.2973737E+02  0.7546771E-02  0.1421893E+00
          2   -1    0    0  502    0  0.00000000000E+00  0.00000000000E+00  0.44456419768E+03  0.44456419768E+03  0.00000000000E+00 0.  1.
          1   -1    0    0  501    0 -0.00000000000E+00 -0.00000000000E+00 -0.54640090226E+02  0.54640090226E+02  0.00000000000E+00 0. -1.
          2    1    1    2  501    0  0.26028923060E+02  0.14380756161E+02  0.43997871427E+03  0.44098251666E+03  0.00000000000E+00 0.  1.
          1    1    1    2  502    0 -0.26028923060E+02 -0.14380756161E+02 -0.50054606820E+02  0.58221771248E+02  0.00000000000E+00 0. -1.
</event>
<event>
 4    1  0.3586324E+003  0.2803096E+02  0.7546771E-02  0.1437518E+00
          2   -1    0    0  502    0  0.00000000000E+00  0.00000000000E+00  0.94178445931E+02  0.94178445931E+02  0.00000000000E+00 0.  1.
          1   -1    0    0  501    0 -0.00000000000E+00 -0.00000000000E+00 -0.18522975261E+02  0.18522975261E+02  0.00000000000E+00 0.  1.
          2    1    1    2  501    0 -0.20304348066E+02  0.19325318142E+02  0.79602743891E+02  0.84393905625E+02  0.00000000000E+00 0.  1.
          1    1    1    2  502    0  0.20304348066E+02 -0.19325318142E+02 -0.39472732212E+01  0.28307515566E+02  0.00000000000E+00 0.  1.
</event>
<event>
 4    1  0.3586324E+003  0.2751620E+02  0.7546771E-02  0.1442491E+00
          2   -1    0    0  502    0  0.00000000000E+00  0.00000000000E+00  0.53676523615E+03  0.53676523615E+03  0.00000000000E+00 0.  1.
          1   -1    0    0  501    0 -0.00000000000E+00 -0.00000000000E+00 -0.23036376430E+01  0.23036376430E+01  0.00000000000E+00 0.  1.
          2    1    1    2  501    0  0.66756017342E+01  0.26694145819E+02  0.43505365339E+03  0.43592295467E+03  0.00000000000E+00 0.  1.
          1    1    1    2  502    0 -0.66756017342E+01 -0.26694145819E+02  0.99407945115E+02  0.10314591912E+03  0.00000000000E+00 0.  1.
</event>
<event>
 4    1  0.3586324E+003  0.2615018E+02  0.7546771E-02  0.1456337E+00
          2   -1    0    0  502    0  0.00000000000E+00  0.00000000000E+00  0.10894385128E+04  0.10894385128E+04  0.00000000000E+00 0.  1.
          1   -1    0    0  501    0 -0.00000000000E+00 -0.00000000000E+00 -0.65325902604E+01  0.65325902604E+01  0.00000000000E+00 0. -1.
          2    1    1    2  501    0 -0.14496397879E+02 -0.21764339619E+02  0.10624468168E+04  0.10627685875E+04  0.00000000000E+00 0.  1.
          1    1    1    2  502    0  0.14496397879E+02  0.21764339619E+02  0.20459105666E+02  0.33202515495E+02  0.00000000000E+00 0. -1.
</event>
<event>
 4    1  0.3586324E+003  0.3925911E+02  0.7546771E-02  0.1352883E+00
          2   -1    0    0  502    0  0.00000000000E+00  0.00000000000E+00  0.63156558882E+02  0.63156558882E+02  0.00000000000E+00 0. -1.
          1   -1    0    0  501    0 -0.00000000000E+00 -0.00000000000E+00 -0.27604463151E+02  0.27604463151E+02  0.00000000000E+00 0. -1.
          2    1    1    2  501    0 -0.87694472214E+01 -0.38267143487E+02  0.33227915356E+02  0.51433178340E+02  0.00000000000E+00 0. -1.
          1    1    1    2  502    0  0.87694472214E+01  0.38267143487E+02  0.23241803753E+01  0.39327843694E+02  0.00000000000E+00 0. -1.
</event>
<event>
 4    1  0.3586324E+003  0.2232370E+02  0.7546771E-02  0.1501170E+00
          2   -1    0    0  502    0  0.00000000000E+00  0.00000000000E+00  0.14854837566E+02  0.14854837566E+02  0.00000000000E+00 0. -1.
          1   -1    0    0  501    0 -0.00000000000E+00 -0.00000000000E+00 -0.14502809451E+03  0.14502809451E+03  0.00000000000E+00 0. -1.
          2    1    1    2  501    0  0.19078802345E+02  0.11590808638E+02  0.50015924246E+01  0.22877138601E+02  0.00000000000E+00 0. -1.
          1    1    1    2  502    0 -0.19078802345E+02 -0.11590808638E+02 -0.13517484937E+03  0.13700579347E+03  0.00000000000E+00 0. -1.
</event>
<event>
 4    1  0.3586324E+003  0.2182465E+02  0.7546771E-02  0.1507809E+00
          2   -1    0    0  502    0  0.00000000000E+00  0.00000000000E+00  0.15877398941E+02  0.15877398941E+02  0.00000000000E+00 0. -1.
          1   -1    0    0  501    0 -0.00000000000E+00 -0.00000000000E+00 -0.75916829674E+02  0.75916829674E+02  0.00000000000E+00 0. -1.
          2    1    1    2  501    0 -0.93234962731E+01  0.19732908463E+02  0.56750305457E+01  0.22550415315E+02  0.00000000000E+00 0. -1.
          1    1    1    2  502    0  0.93234962731E+01 -0.19732908463E+02 -0.65714461279E+02  0.69243813300E+02  0.00000000000E+00 0. -1.
</event>
<event>
 4    1  0.3586324E+003  0.5880397E+02  0.7546771E-02  0.1263951E+00
          2   -1    0    0  502    0  0.00000000000E+00  0.00000000000E+00  0.57170824250E+03  0.57170824250E+03  0.00000000000E+00 0. -1.
          1   -1    0    0  501    0 -0.00000000000E+00 -0.00000000000E+00 -0.31672100980E+02  0.31672100980E+02  0.00000000000E+00 0.  1.
          2    1    1    2  501    0 -0.33717215581E+02  0.48177340906E+02  0.54137683447E+03  0.54456109272E+03  0.00000000000E+00 0. -1.
          1    1    1    2  502    0  0.33717215581E+02 -0.48177340906E+02 -0.13406929431E+01  0.58819250768E+02  0.00000000000E+00 0.  1.
</event>
<event>
 4    1  0.3586324E+003  0.2064298E+02  0.7546771E-02  0.1524424E+00
          2   -1    0    0  502    0  0.00000000000E+00  0.00000000000E+00  0.67607890123E+02  0.67607890123E+02  0.00000000000E+00 0.  1.
          1   -1    0    0  501    0 -0.00000000000E+00 -0.00000000000E+00 -0.19517492774E+03  0.19517492774E+03  0.00000000000E+00 0.  1.
          2    1    1    2  501    0  0.15129588396E+02 -0.14043795874E+02  0.65468894470E+02  0.68646258389E+02  0.00000000000E+00 0.  1.
          1    1    1    2  502    0 -0.15129588396E+02  0.14043795874E+02 -0.19303593208E+03  0.19413655947E+03  0.00000000000E+00 0.  1.
</event>
<event>
 4    1  0.3586324E+003  0.2530288E+02  0.7546771E-02  0.1465443E+00
          2   -1    0    0  502    0  0.00000000000E+00  0.00000000000E+00  0.12518560051E+04  0.12518560051E+04  0.00000000000E+00 0. -1.
          1   -1    0    0  501    0 -0.00000000000E+00 -0.00000000000E+00 -0.86672941971E+02  0.86672941971E+02  0.00000000000E+00 0.  1.
          2    1    1    2  501    0  0.24979778023E+02 -0.40307030722E+01  0.12498785258E+04  0.12501346188E+04  0.00000000000E+00 0. -1.
          1    1    1    2  502    0 -0.24979778023E+02  0.40307030722E+01 -0.84695462657E+02  0.88394328280E+02  0.00000000000E+00 0.  1.
</event>
<event>
 4    1  0.3586324E+003  0.4736828E+02  0.7546771E-02  0.1310004E+00
          2   -1    0    0  502    0  0.00000000000E+00  0.00000000000E+00  0.14735244585E+04  0.14735244585E+04  0.00000000000E+00 0. -1.
          1   -1    0    0  501    0 -0.00000000000E+00 -0.00000000000E+00 -0.18493143063E+01  0.18493143063E+01  0.00000000000E+00 0. -1.
          2    1    1    2  501    0 -0.43808059229E+02  0.18016890958E+02  0.10458476796E+04  0.10469198266E+04  0.00000000000E+00 0. -1.
          1    1    1    2  502    0  0.43808059229E+02 -0.18016890958E+02  0.42582746454E+03  0.42845394615E+03  0.00000000000E+00 0. -1.
</event>
<event>
 4    1  0.3586324E+003  0.3743698E+02  0.7546771E-02  0.1364197E+00
          2   -1    0    0  502    0  0.00000000000E+00  0.00000000000E+00  0.42795113100E+02  0.42795113100E+02  0.00000000000E+00 0.  1.
          1   -1    0    0  501    0 -0.00000000000E+00 -0.00000000000E+00 -0.42357485221E+03  0.42357485221E+03  0.00000000000E+00 0.  1.
          2    1    1    2  501    0  0.36894928865E+02  0.63475904910E+01  0.33599155540E+02  0.50303388892E+02  0.00000000000E+00 0.  1.
          1    1    1    2  502    0 -0.36894928865E+02 -0.63475904910E+01 -0.41437889465E+03  0.41606657641E+03  0.00000000000E+00 0.  1.
</event>
<event>
 4    1  0.3586324E+003  0.3178124E+02  0.7546771E-02  0.1404724E+00
          2   -1    0    0  502    0  0.00000000000E+00  0.00000000000E+00  0.56882342771E+03  0.56882342771E+03  0.00000000000E+00 0.  1.
          1   -1    0    0  501    0 -0.00000000000E+00 -0.00000000000E+00 -0.67494101349E+01  0.67494101349E+01  0.00000000000E+00 0.  1.
          2    1    1    2  501    0 -0.92664417830E+01 -0.30400328889E+02  0.52808345167E+03  0.52903892000E+03  0.00000000000E+00 0.  1.
          1    1    1    2  502    0  0.92664417830E+01  0.30400328889E+02  0.33990565898E+02  0.46533917845E+02  0.00000000000E+00 0.  1.
</event>
<event>
 4    1  0.3586324E+003  0.2802474E+02  0.7546771E-02  0.1437577E+00
          2   -1    0    0  502    0  0.00000000000E+00  0.00000000000E+00  0.44911816746E+03  0.44911816746E+03  0.00000000000E+00 0.  1.
          1   -1    0    0  501    0 -0.00000000000E+00 -0.00000000000E+00 -0.16756758379E+02  0.16756758379E+02  0.00000000000E+00 0. -1.
          2    1    1    2  501    0  0.79245414249E+01 -0.26880995734E+02  0.43662870418E+03  0.43752715527E+03  0.00000000000E+00 0.  1.
          1    1    1    2  502    0 -0.79245414249E+01  0.26880995734E+02 -0.42672951000E+01  0.28347770563E+02  0.00000000000E+00 0. -1.
</event>
<event>
 4    1  0.3586324E+003  0.2024737E+02  0.7546771E-02  0.1530287E+00
          2   -1    0    0  502    0  0.00000000000E+00  0.00000000000E+00  0.27379315575E+01  0.27379315575E+01  0.00000000000E+00 0. -1.
          1   -1    0    0  501    0 -0.00000000000E+00 -0.00000000000E+00 -0.33168519700E+03  0.33168519700E+03  0.00000000000E+00 0. -1.
          2    1    1    2  501    0  0.15727390820E+02  0.12751676852E+02 -0.40627326075E+02  0.45393124023E+02  0.00000000000E+00 0. -1.
          1    1    1    2  502    0 -0.15727390820E+02 -0.12751676852E+02 -0.28831993937E+03  0.28903000454E+03  0.00000000000E+00 0. -1.
</event>
<event>
 4    1  0.3586324E+003  0.2545589E+02  0.7546771E-02  0.1463767E+00
          2   -1    0    0  502    0  0.00000000000E+00  0.00000000000E+00  0.19106642321E+01  0.19106642321E+01  0.00000000000E+00 0.  1.
          1   -1    0    0  501    0 -0.00000000000E+00 -0.00000000000E+00 -0.35243138900E+03  0.35243138900E+03  0.00000000000E+00 0.  1.
          2    1    1    2  501    0 -0.10277554158E+02  0.23288924309E+02 -0.14086703097E+03  0.14314860296E+03  0.00000000000E+00 0.  1.
          1    1    1    2  502    0  0.10277554158E+02 -0.23288924309E+02 -0.20965369380E+03  0.21119345028E+03  0.00000000000E+00 0.  1.
</event>
<event>
 4    1  0.3586324E+003  0.4037831E+02  0.7546771E-02  0.1346283E+00
          2   -1    0    0  502    0  0.00000000000E+00  0.00000000000E+00  0.27153131511E+04  0.27153131511E+04  0.00000000000E+00 0.  1.
          1   -1    0    0  501    0 -0.00000000000E+00 -0.00000000000E+00 -0.70618311697E+01  0.70618311697E+01  0.00000000000E+00 0.  1.
          2    1    1    2  501    0  0.40343469203E+02 -0.16770556197E+01  0.26561586457E+04  0.26564655388E+04  0.00000000000E+00 0.  1.
          1    1    1    2  502    0 -0.40343469203E+02  0.16770556197E+01  0.52092674258E+02  0.65909443437E+02  0.00000000000E+00 0.  1.
</event>
<event>
 4    1  0.3586324E+003  0.4710328E+02  0.7546771E-02  0.1311245E+00
          2   -1    0    0  502    0  0.00000000000E+00  0.00000000000E+00  0.88176416009E+03  0.88176416009E+03  0.00000000000E+00 0.  1.
          1   -1    0    0  501    0 -0.00000000000E+00 -0.00000000000E+00 -0.11460172998E+04  0.11460172998E+04  0.00000000000E+00 0. -1.
          2    1    1    2  501    0 -0.54572240564E+01  0.46786081908E+02  0.88065048532E+03  0.88190929015E+03  0.00000000000E+00 0.  1.
          1    1    1    2  502    0  0.54572240564E+01 -0.46786081908E+02 -0.11449036250E+04  0.11458721697E+04  0.00000000000E+00 0. -1.
</event>
<event>
 4    1  0.3586324E+003  0.2030984E+02  0.7546771E-02  0.1529351E+00
          2   -1    0    0  502    0  0.00000000000E+00  0.00000000000E+00  0.11633425906E+04  0.11633425906E+04  0.00000000000E+00 0. -1.
          1   -1    0    0  501    0 -0.00000000000E+00 -0.00000000000E+00 -0.43406945681E+00  0.43406945681E+00  0.00000000000E+00 0. -1.
          2    1    1    2  501    0  0.17779386188E+02 -0.98174777677E+01  0.83047466148E+03  0.83072296995E+03  0.00000000000E+00 0. -1.
          1    1    1    2  502    0 -0.17779386188E+02  0.98174777677E+01  0.33243385970E+03  0.33305369014E+03  0.00000000000E+00 0. -1.
</event>
<event>
 4    1  0.3586324E+003  0.3081385E+02  0.7546771E-02  0.1412653E+00
          2   -1    0    0  502    0  0.00000000000E+00  0.00000000000E+00  0.75407439810E+01  0.75407439810E+01  0.00000000000E+00 0. -1.
          1   -1    0    0  501    0 -0.00000000000E+00 -0.00000000000E+00 -0.67024009747E+03  0.67024009747E+03  0.00000000000E+00 0. -1.
          2    1    1    2  501    0 -0.26413815363E+02 -0.15868327844E+02 -0.25946723203E+02  0.40283072320E+02  0.00000000000E+00 0. -1.
          1    1    1    2  502    0  0.26413815363E+02  0.15868327844E+02 -0.63675263029E+03  0.63749776913E+03  0.00000000000E+00 0. -1.
</event>
<event>
 4    1  0.3586324E+003  0.2699760E+02  0.7546771E-02  0.1447632E+00
          2   -1    0    0  502    0  0.00000000000E+00  0.00000000000E+00  0.10243529027E+04  0.10243529027E+04  0.00000000000E+00 0.  1.
          1   -1    0    0  501    0 -0.00000000000E+00 -0.00000000000E+00 -0.10702668582E+01  0.10702668582E+01  0.00000000000E+00 0.  1.
          2    1    1    2  501    0  0.58177289681E+00 -0.26991326329E+02  0.80847132497E+03  0.80892196994E+03  0.00000000000E+00 0.  1.
          1    1    1    2  502    0 -0.58177289681E+00  0.26991326329E+02  0.21481131090E+03  0.21650119965E+03  0.00000000000E+00 0.  1.
</event>
<event>
 4    1  0.3586324E+003  0.2213320E+02  0.7546771E-02  0.1503679E+00
          2   -1    0    0  502    0  0.00000000000E+00  0.00000000000E+00  0.15128996672E+04  0.15128996672E+04  0.00000000000E+00 0.  1.
          1   -1    0    0  501    0 -0.00000000000E+00 -0.00000000000E+00 -0.40344663219E+00  0.40344663219E+00  0.00000000000E+00 0.  1.
          2    1    1    2  501    0 -0.19933859523E+02 -0.96186922981E+01  0.42005823023E+03  0.42064093332E+03  0.00000000000E+00 0.  1.
          1    1    1    2  502    0  0.19933859523E+02  0.96186922981E+01  0.10924379903E+04  0.10926621805E+04  0.00000000000E+00 0.  1.
</event>
<event>
 4    1  0.3586324E+003  0.2742855E+02  0.7546771E-02  0.1443350E+00
          2   -1    0    0  502    0  0.00000000000E+00  0.00000000000E+00  0.82072030025E+02  0.82072030025E+02  0.00000000000E+00 0. -1.
          1   -1    0    0  501    0 -0.00000000000E+00 -0.00000000000E+00 -0.18098724289E+04  0.18098724289E+04  0.00000000000E+00 0. -1.
          2    1    1    2  501    0 -0.14959863873E+02  0.22989728727E+02  0.79673408174E+02  0.84262548763E+02  0.00000000000E+00 0. -1.
          1    1    1    2  502    0  0.14959863873E+02 -0.22989728727E+02 -0.18074738070E+04  0.18076819102E+04  0.00000000000E+00 0. -1.
</event>
<event>
 4    1  0.3586324E+003  0.2495073E+02  0.7546771E-02  0.1469355E+00
          2   -1    0    0  502    0  0.00000000000E+00  0.00000000000E+00  0.66541194140E+01  0.66541194140E+01  0.00000000000E+00 0.  1.
          1   -1    0    0  501    0 -0.00000000000E+00 -0.00000000000E+00 -0.13761747735E+03  0.13761747735E+03  0.00000000000E+00 0. -1.
          2    1    1    2  501    0  0.16429309313E+02 -0.18778091223E+02 -0.24664870626E+02  0.35084109757E+02  0.00000000000E+00 0.  1.
          1    1    1    2  502    0 -0.16429309313E+02  0.18778091223E+02 -0.10629848731E+03  0.10918748700E+03  0.00000000000E+00 0. -1.
</event>
<event>
 4    1  0.3586324E+003  0.2406285E+02  0.7546771E-02  0.1479566E+00
          2   -1    0    0  502    0  0.00000000000E+00  0.00000000000E+00  0.98144410856E+01  0.98144410856E+01  0.00000000000E+00 0.  1.
          1   -1    0    0  501    0 -0.00000000000E+00 -0.00000000000E+00 -0.38078944951E+03  0.38078944951E+03  0.00000000000E+00 0. -1.
          2    1    1    2  501    0 -0.11654112141E+02 -0.21052376895E+02 -0.59512517098E+01  0.24787865976E+02  0.00000000000E+00 0.  1.
          1    1    1    2  502    0  0.11654112141E+02  0.21052376895E+02 -0.36502375672E+03  0.36581602462E+03  0.00000000000E+00 0. -1.
</event>
<event>
 4    1  0.3586324E+003  0.2022873E+02  0.7546771E-02  0.1530567E+00
          2   -1    0    0  502    0  0.00000000000E+00  0.00000000000E+00  0.14432166482E+03  0.14432166482E+03  0.00000000000E+00 0.  1.
          1   -1    0    0  501    0 -0.00000000000E+00 -0.00000000000E+00 -0.33118398562E+02  0.33118398562E+02  0.00000000000E+00 0. -1.
          2    1    1    2  501    0  0.14785007911E+02 -0.13805975967E+02  0.14043893938E+03  0.14188832624E+03  0.00000000000E+00 0.  1.
          1    1    1    2  502    0 -0.14785007911E+02  0.13805975967E+02 -0.29235673114E+02  0.35551737141E+02  0.00000000000E+00 0. -1.
</event>
<event>
 4    1  0.3586324E+003  0.5816470E+02  0.7546771E-02  0.1266199E+00
          2   -1    0    0  502    0  0.00000000000E+00  0.00000000000E+00  0.73222876044E+02  0.73222876044E+02  0.00000000000E+00 0.  1.
          1   -1    0    0  501    0 -0.00000000000E+00 -0.00000000000E+00 -0.11217539532E+03  0.11217539532E+03  0.00000000000E+00 0.  1.
          2    1    1    2  501    0 -0.39720202936E+00  0.58163340518E+02  0.51613543932E+02  0.77763036636E+02  0.00000000000E+00 0.  1.
          1    1    1    2  502    0  0.39720202936E+00 -0.58163340518E+02 -0.90566063204E+02  0.10763523472E+03  0.00000000000E+00 0.  1.
</event>
<event>
 4    1  0.3586324E+003  0.4935386E+02  0.7546771E-02  0.1300998E+00
          2   -1    0    0  502    0  0.00000000000E+00  0.00000000000E+00  0.33852106498E+03  0.33852106498E+03  0.00000000000E+00 0.  1.
          1   -1    0    0  501    0 -0.00000000000E+00 -0.00000000000E+00 -0.12135051906E+02  0.12135051906E+02  0.00000000000E+00 0.  1.
          2    1    1    2  501    0 -0.47968397291E+02  0.11611915889E+02  0.27505371740E+03  0.27944650862E+03  0.00000000000E+00 0.  1.
          1    1    1    2  502    0  0.47968397291E+02 -0.11611915889E+02  0.51332295683E+02  0.71209608265E+02  0.00000000000E+00 0.  1.
</event>
<event>
 4    1  0.3586324E+003  0.2456823E+02  0.7546771E-02  0.1473692E+00
          2   -1    0    0  502    0  0.00000000000E+00  0.00000000000E+00  0.52164563514E+01  0.52164563514E+01  0.00000000000E+00 0.  1.
          1   -1    0    0  501    0 -0.00000000000E+00 -0.00000000000E+00 -0.20718694791E+03  0.20718694791E+03  0.00000000000E+00 0. -1.
          2    1    1    2  501    0  0.12703553616E+02  0.21028967698E+02 -0.30417638954E+02  0.39100262358E+02  0.00000000000E+00 0.  1.
          1    1    1    2  502    0 -0.12703553616E+02 -0.21028967698E+02 -0.17155285260E+03  0.17330314190E+03  0.00000000000E+00 0. -1.
</event>
<event>
 4    1  0.3586324E+003  0.2334584E+02  0.7546771E-02  0.1488200E+00
          2   -1    0    0  502    0  0.00000000000E+00  0.00000000000E+00  0.43223371574E+02  0.43223371574E+02  0.00000000000E+00 0.  1.
          1   -1    0    0  501    0 -0.00000000000E+00 -0.00000000000E+00 -0.45732679605E+02  0.45732679605E+02  0.00000000000E+00 0.  1.
          2    1    1    2  501    0 -0.22463625603E+02 -0.63571907278E+01  0.36598118395E+02  0.43410259378E+02  0.00000000000E+00 0.  1.
          1    1    1    2  502    0  0.22463625603E+02  0.63571907278E+01 -0.39107426426E+02  0.45545791802E+02  0.00000000000E+00 0.  1.
</event>
<event>
 4    1  0.3586324E+003  0.3524871E+02  0.7546771E-02  0.1378823E+00
          2   -1    0    0  502    0  0.00000000000E+00  0.00000000000E+00  0.50772983348E+03  0.50772983348E+03  0.00000000000E+00 0.  1.
          1   -1    0    0  501    0 -0.00000000000E+00 -0.00000000000E+00 -0.54918913334E+03  0.54918913334E+03  0.00000000000E+00 0. -1.
          2    1    1    2  501    0 -0.27342086108E+02  0.22245946724E+02  0.50655114720E+03  0.50777606929E+03  0.00000000000E+00 0.  1.
          1    1    1    2  502    0  0.27342086108E+02 -0.22245946724E+02 -0.54801044706E+03  0.54914289753E+03  0.00000000000E+00 0. -1.
</event>
<event>
 4    1  0.3586324E+003  0.3842119E+02  0.7546771E-02  0.1357994E+00
          2   -1    0    0  502    0  0.00000000000E+00  0.00000000000E+00  0.10728952311E+03  0.10728952311E+03  0.00000000000E+00 0. -1.
          1   -1    0    0  501    0 -0.00000000000E+00 -0.00000000000E+00 -0.13844119875E+02  0.13844119875E+02  0.00000000000E+00 0. -1.
          2    1    1    2  501    0  0.36829629418E+02 -0.10943763485E+02  0.51474206278E+02  0.64232246374E+02  0.00000000000E+00 0. -1.
          1    1    1    2  502    0 -0.36829629418E+02  0.10943763485E+02  0.41971196957E+02  0.56901396611E+02  0.00000000000E+00 0. -1.
</event>
<event>
 4    1  0.3586324E+003  0.2673463E+02  0.7546771E-02  0.1450292E+00
          2   -1    0    0  502    0  0.00000000000E+00  0.00000000000E+00  0.39518949665E+03  0.39518949665E+03  0.00000000000E+00 0. -1.
          1   -1    0    0  501    0 -0.00000000000E+00 -0.00000000000E+00 -0.13928629636E+03  0.13928629636E+03  0.00000000000E+00 0. -1.
          2    1    1    2  501    0 -0.22553688546E+02  0.14355198692E+02  0.39344881467E+03  0.39435607052E+03  0.00000000000E+00 0. -1.
          1    1    1    2  502    0  0.22553688546E+02 -0.14355198692E+02 -0.13754561437E+03  0.14011972248E+03  0.00000000000E+00 0. -1.
</event>
<event>
 4    1  0.3586324E+003  0.6141840E+02  0.7546771E-02  0.1255088E+00
          2   -1    0    0  502    0  0.00000000000E+00  0.00000000000E+00  0.62010074498E+03  0.62010074498E+03  0.00000000000E+00 0. -1.
          1   -1    0    0  501    0 -0.00000000000E+00 -0.00000000000E+00 -0.51238431809E+02  0.51238431809E+02  0.00000000000E+00 0.  1.
          2    1    1    2  501    0 -0.45925520608E+02 -0.40780718718E+02  0.59954532906E+03  0.60268301955E+03  0.00000000000E+00 0. -1.
          1    1    1    2  502    0  0.45925520608E+02  0.40780718718E+02 -0.30683015888E+02  0.68656157235E+02  0.00000000000E+00 0.  1.
</event>
<event>
 4    1  0.3586324E+003  0.2133374E+02  0.7546771E-02  0.1514553E+00
          2   -1    0    0  502    0  0.00000000000E+00  0.00000000000E+00  0.25232565298E+03  0.25232565298E+03  0.00000000000E+00 0.  1.
          1   -1    0    0  501    0 -0.00000000000E+00 -0.00000000000E+00 -0.86663582699E+02  0.86663582699E+02  0.00000000000E+00 0.  1.
          2    1    1    2  501    0 -0.11704457918E+02 -0.17836315010E+02  0.25055252752E+03  0.25145913687E+03  0.00000000000E+00 0.  1.
          1    1    1    2  502    0  0.11704457918E+02  0.17836315010E+02 -0.84890457236E+02  0.87530098812E+02  0.00000000000E+00 0.  1.
</event>
<event>
 4    1  0.3586324E+003  0.2041531E+02  0.7546771E-02  0.1527779E+00
          2   -1    0    0  502    0  0.00000000000E+00  0.00000000000E+00  0.21146106158E+01  0.21146106158E+01  0.00000000000E+00 0.  1.
          1   -1    0    0  501    0 -0.00000000000E+00 -0.00000000000E+00 -0.29006941507E+03  0.29006941507E+03  0.00000000000E+00 0. -1.
          2    1    1    2  501    0 -0.12400726777E+02  0.16217482476E+02 -0.61268727121E+02  0.64580505460E+02  0.00000000000E+00 0.  1.
          1    1    1    2  502    0  0.12400726777E+02 -0.16217482476E+02 -0.22668607733E+03  0.22760352022E+03  0.00000000000E+00 0. -1.
</event>
<event>
 4    1  0.3586324E+003  0.2041538E+02  0.7546771E-02  0.1527778E+00
          2   -1    0    0  502    0  0.00000000000E+00  0.00000000000E+00  0.67904821218E+02  0.67904821218E+02  0.00000000000E+00 0. -1.
          1   -1    0    0  501    0 -0.00000000000E+00 -0.00000000000E+00 -0.96784581333E+01  0.96784581333E+01  0.00000000000E+00 0.  1.
          2    1    1    2  501    0 -0.50344764664E+01 -0.19784886257E+02  0.52575759204E+02  0.56400338060E+02  0.00000000000E+00 0. -1.
          1    1    1    2  502    0  0.50344764664E+01  0.19784886257E+02  0.56506038809E+01  0.21182941291E+02  0.00000000000E+00 0.  1.
</event>
<event>
 4    1  0.3586324E+003  0.2818726E+02  0.7546771E-02  0.1436033E+00
          2   -1    0    0  502    0  0.00000000000E+00  0.00000000000E+00  0.15313064876E+04  0.15313064876E+04  0.00000000000E+00 0.  1.
          1   -1    0    0  501    0 -0.00000000000E+00 -0.00000000000E+00 -0.10099059953E+01  0.10099059953E+01  0.00000000000E+00 0.  1.
          2    1    1    2  501    0  0.25538710688E+02 -0.11928783535E+02  0.12993958512E+04  0.12997015425E+04  0.00000000000E+00 0.  1.
          1    1    1    2  502    0 -0.25538710688E+02  0.11928783535E+02  0.23090073043E+03  0.23261485106E+03  0.00000000000E+00 0.  1.
</event>
<event>
 4    1  0.3586324E+003  0.2112308E+02  0.7546771E-02  0.1517515E+00
          2   -1    0    0  502    0  0.00000000000E+00  0.00000000000E+00  0.12127373425E+04  0.12127373425E+04  0.00000000000E+00 0.  1.
          1   -1    0    0  501    0 -0.00000000000E+00 -0.00000000000E+00 -0.56430237140E+02  0.56430237140E+02  0.00000000000E+00 0.  1.
          2    1    1    2  501    0 -0.52625724208E+01  0.20457022552E+02  0.12106652727E+04  0.12108495311E+04  0.00000000000E+00 0.  1.
          1    1    1    2  502    0  0.52625724208E+01 -0.20457022552E+02 -0.54358167291E+02  0.58318048591E+02  0.00000000000E+00 0.  1.
</event>
<event>
 4    1  0.3586324E+003  0.2116685E+02  0.7546771E-02  0.1516896E+00
          2   -1    0    0  502    0  0.00000000000E+00  0.00000000000E+00  0.18697657563E+03  0.18697657563E+03  0.00000000000E+00 0. -1.
          1   -1    0    0  501    0 -0.00000000000E+00 -0.00000000000E+00 -0.41400588274E+02  0.41400588274E+02  0.00000000000E+00 0.  1.
          2    1    1    2  501    0  0.13954952844E+02 -0.15915233170E+02  0.18362278222E+03  0.18483874460E+03  0.00000000000E+00 0. -1.
          1    1    1    2  502    0 -0.13954952844E+02  0.15915233170E+02 -0.38046794865E+02  0.43538419301E+02  0.00000000000E+00 0.  1.
</event>
<event>
 4    1  0.3586324E+003  0.3192973E+02  0.7546771E-02  0.1403536E+00
          2   -1    0    0  502    0  0.00000000000E+00  0.00000000000E+00  0.99465730503E+02  0.99465730503E+02  0.00000000000E+00 0. -1.
          1   -1    0    0  501    0 -0.00000000000E+00 -0.00000000000E+00 -0.10336698729E+04  0.10336698729E+04  0.00000000000E+00 0.  1.
          2    1    1    2  501    0  0.22833106790E+02  0.22319434159E+02  0.96649697141E+02  0.10178738559E+03  0.00000000000E+00 0. -1.
          1    1    1    2  502    0 -0.22833106790E+02 -0.22319434159E+02 -0.10308538396E+04  0.10313482179E+04  0.00000000000E+00 0.  1.
</event>
<event>
 4    1  0.3586324E+003  0.2593167E+02  0.7546771E-02  0.1458645E+00
          2   -1    0    0  502    0  0.00000000000E+00  0.00000000000E+00  0.19995361949E+02  0.19995361949E+02  0.00000000000E+00 0.  1.
          1   -1    0    0  501    0 -0.00000000000E+00 -0.00000000000E+00 -0.85409912235E+03  0.85409912235E+03  0.00000000000E+00 0.  1.
          2    1    1    2  501    0 -0.17315958387E+01  0.25873795773E+02  0.11304524683E+02  0.28288584450E+02  0.00000000000E+00 0.  1.
          1    1    1    2  502    0  0.17315958387E+01 -0.25873795773E+02 -0.84540828509E+03  0.84580589985E+03  0.00000000000E+00 0.  1.
</event>
<event>
 4    1  0.3586324E+003  0.6031230E+02  0.7546771E-02  0.1258775E+00
          2   -1    0    0  502    0  0.00000000000E+00  0.00000000000E+00  0.77789163482E+03  0.77789163482E+03  0.00000000000E+00 0.  1.
          1   -1    0    0  501    0 -0.00000000000E+00 -0.00000000000E+00 -0.90047845792E+02  0.90047845792E+02  0.00000000000E+00 0.  1.
          2    1    1    2  501    0  0.18063966828E+02 -0.57543607673E+02  0.76647336919E+03  0.76884263628E+03  0.00000000000E+00 0.  1.
          1    1    1    2  502    0 -0.18063966828E+02  0.57543607673E+02 -0.78629580159E+02  0.99096844337E+02  0.00000000000E+00 0.  1.
</event>
<event>
 4    1  0.3586324E+003  0.2275242E+02  0.7546771E-02  0.1495631E+00
          2   -1    0    0  502    0  0.00000000000E+00  0.00000000000E+00  0.76751531139E+02  0.76751531139E+02  0.00000000000E+00 0. -1.
          1   -1    0    0  501    0 -0.00000000000E+00 -0.00000000000E+00 -0.40125567883E+02  0.40125567883E+02  0.00000000000E+00 0.  1.
          2    1    1    2  501    0  0.21646355276E+02 -0.70077157558E+01  0.71614192339E+02  0.75141635071E+02  0.00000000000E+00 0. -1.
          1    1    1    2  502    0 -0.21646355276E+02  0.70077157558E+01 -0.34988229083E+02  0.41735463951E+02  0.00000000000E+00 0.  1.
</event>
<event>
 4    1  0.3586324E+003  0.2080200E+02  0.7546771E-02  0.1522111E+00
          2   -1    0    0  502    0  0.00000000000E+00  0.00000000000E+00  0.69110027258E+00  0.69110027258E+00  0.00000000000E+00 0. -1.
          1   -1    0    0  501    0 -0.00000000000E+00 -0.00000000000E+00 -0.69102930016E+03  0.69102930016E+03  0.00000000000E+00 0.  1.
          2    1    1    2  501    0  0.16585139291E+02 -0.12556133528E+02 -0.23918285447E+03  0.24008573720E+03  0.00000000000E+00 0. -1.
          1    1    1    2  502    0 -0.16585139291E+02  0.12556133528E+02 -0.45115534542E+03  0.45163466323E+03  0.00000000000E+00 0.  1.
</event>
<event>
 4    1  0.3586324E+003  0.3180307E+02  0.7546771E-02  0.1404549E+00
          2   -1    0    0  502    0  0.00000000000E+00  0.00000000000E+00  0.55827716754E+01  0.55827716754E+01  0.00000000000E+00 0. -1.
          1   -1    0    0  501    0 -0.00000000000E+00 -0.00000000000E+00 -0.99384221325E+03  0.99384221325E+03  0.00000000000E+00 0.  1.
          2    1    1    2  501    0  0.11590551773E+02  0.29615776697E+02 -0.42254025494E+02  0.52885137707E+02  0.00000000000E+00 0. -1.
          1    1    1    2  502    0 -0.11590551773E+02 -0.29615776697E+02 -0.94600541608E+03  0.94653984722E+03  0.00000000000E+00 0.  1.
</event>
<event>
 4    1  0.3586324E+003  0.3000017E+02  0.7546771E-02  0.1419595E+00
          2   -1    0    0  502    0  0.00000000000E+00  0.00000000000E+00  0.20470268974E+03  0.20470268974E+03  0.00000000000E+00 0.  1.
          1   -1    0    0  501    0 -0.00000000000E+00 -0.00000000000E+00 -0.55989192675E+03  0.55989192675E+03  0.00000000000E+00 0.  1.
          2    1    1    2  501    0 -0.23823899445E+02  0.18232717206E+02  0.20319869603E+03  0.20540136374E+03  0.00000000000E+00 0.  1.
          1    1    1    2  502    0  0.23823899445E+02 -0.18232717206E+02 -0.55838793303E+03  0.55919325275E+03  0.00000000000E+00 0.  1.
</event>
<event>
 4    1  0.3586324E+003  0.3857632E+02  0.7546771E-02  0.1357037E+00
          2   -1    0    0  502    0  0.00000000000E+00  0.00000000000E+00  0.13595353989E+01  0.13595353989E+01  0.00000000000E+00 0. -1.
          1   -1    0    0  501    0 -0.00000000000E+00 -0.00000000000E+00 -0.11767304327E+04  0.11767304327E+04  0.00000000000E+00 0. -1.
          2    1    1    2  501    0  0.18373275156E+02 -0.33919839235E+02 -0.43205640895E+03  0.43377514135E+03  0.00000000000E+00 0. -1.
          1    1    1    2  502    0 -0.18373275156E+02  0.33919839235E+02 -0.74331448833E+03  0.74431482673E+03  0.00000000000E+00 0. -1.
</event>
<event>
 4    1  0.3586324E+003  0.2588461E+02  0.7546771E-02  0.1459146E+00
          2   -1    0    0  502    0  0.00000000000E+00  0.00000000000E+00  0.52442474050E+02  0.52442474050E+02  0.00000000000E+00 0. -1.
          1   -1    0    0  501    0 -0.00000000000E+00 -0.00000000000E+00 -0.21884187934E+02  0.21884187934E+02  0.00000000000E+00 0. -1.
          2    1    1    2  501    0  0.21723326997E+02  0.14075163306E+02  0.39254314443E+02  0.47020361125E+02  0.00000000000E+00 0. -1.
          1    1    1    2  502    0 -0.21723326997E+02 -0.14075163306E+02 -0.86960283279E+01  0.27306300859E+02  0.00000000000E+00 0. -1.
</event>
<event>
 4    1  0.3586324E+003  0.2242281E+02  0.7546771E-02  0.1499876E+00
          2   -1    0    0  502    0  0.00000000000E+00  0.00000000000E+00  0.33599879980E+02  0.33599879980E+02  0.00000000000E+00 0.  1.
          1   -1    0    0  501    0 -0.00000000000E+00 -0.00000000000E+00 -0.31536878132E+03  0.31536878132E+03  0.00000000000E+00 0.  1.
          2    1    1    2  501    0  0.35989160808E+01  0.22132111231E+02  0.29410053555E+02  0.36982885158E+02  0.00000000000E+00 0.  1.
          1    1    1    2  502    0 -0.35989160808E+01 -0.22132111231E+02 -0.31117895489E+03  0.31198577614E+03  0.00000000000E+00 0.  1.
</event>
<event>
 4    1  0.3586324E+003  0.3584864E+02  0.7546771E-02  0.1374693E+00
          2   -1    0    0  502    0  0.00000000000E+00  0.00000000000E+00  0.85028026959E+03  0.85028026959E+03  0.00000000000E+00 0.  1.
          1   -1    0    0  501    0 -0.00000000000E+00 -0.00000000000E+00 -0.95571610470E+02  0.95571610470E+02  0.00000000000E+00 0. -1.
          2    1    1    2  501    0  0.26556521260E+02  0.24080617607E+02  0.84652583277E+03  0.84728455109E+03  0.00000000000E+00 0.  1.
          1    1    1    2  502    0 -0.26556521260E+02 -0.24080617607E+02 -0.91817173644E+02  0.98567328978E+02  0.00000000000E+00 0. -1.
</event>
<event>
 4    1  0.3586324E+003  0.2340785E+02  0.7546771E-02  0.1487439E+00
          2   -1    0    0  502    0  0.00000000000E+00  0.00000000000E+00  0.81634668556E+03  0.81634668556E+03  0.00000000000E+00 0.  1.
          1   -1    0    0  501    0 -0.00000000000E+00 -0.00000000000E+00 -0.12764649656E+01  0.12764649656E+01  0.00000000000E+00 0.  1.
          2    1    1    2  501    0  0.20787650373E+02 -0.10761095135E+02  0.68904483404E+03  0.68944231876E+03  0.00000000000E+00 0.  1.
          1    1    1    2  502    0 -0.20787650373E+02  0.10761095135E+02  0.12602538655E+03  0.12818083176E+03  0.00000000000E+00 0.  1.
</event>
<event>
 4    1  0.3586324E+003  0.2642313E+02  0.7546771E-02  0.1453490E+00
          2   -1    0    0  502    0  0.00000000000E+00  0.00000000000E+00  0.11913239860E+04  0.11913239860E+04  0.00000000000E+00 0.  1.
          1   -1    0    0  501    0 -0.00000000000E+00 -0.00000000000E+00 -0.59275299072E+00  0.59275299072E+00  0.00000000000E+00 0.  1.
          2    1    1    2  501    0  0.17994256240E+02 -0.19349107894E+02  0.53201435681E+03  0.53267012032E+03  0.00000000000E+00 0.  1.
          1    1    1    2  502    0 -0.17994256240E+02  0.19349107894E+02  0.65871687619E+03  0.65924661866E+03  0.00000000000E+00 0.  1.
</event>
<event>
 4    1  0.3586324E+003  0.2693840E+02  0.7546771E-02  0.1448228E+00
          2   -1    0    0  502    0  0.00000000000E+00  0.00000000000E+00  0.36618975581E+03  0.36618975581E+03  0.00000000000E+00 0. -1.
          1   -1    0    0  501    0 -0.00000000000E+00 -0.00000000000E+00 -0.22248405307E+01  0.22248405307E+01  0.00000000000E+00 0.  1.
          2    1    1    2  501    0 -0.20215560180E+02  0.17804733942E+02  0.24287835808E+03  0.24436770295E+03  0.00000000000E+00 0. -1.
          1    1    1    2  502    0  0.20215560180E+02 -0.17804733942E+02  0.12108655721E+03  0.12404689339E+03  0.00000000000E+00 0.  1.
</event>
<event>
 4    1  0.3586324E+003  0.2376865E+02  0.7546771E-02  0.1483065E+00
          2   -1    0    0  502    0  0.00000000000E+00  0.00000000000E+00  0.13301019260E+03  0.13301019260E+03  0.00000000000E+00 0.  1.
          1   -1    0    0  501    0 -0.00000000000E+00 -0.00000000000E+00 -0.81791083531E+01  0.81791083531E+01  0.00000000000E+00 0.  1.
          2    1    1    2  501    0  0.10255683669E+02 -0.21442240422E+02  0.11136061151E+03  0.11386893570E+03  0.00000000000E+00 0.  1.
          1    1    1    2  502    0 -0.10255683669E+02  0.21442240422E+02  0.13470472739E+02  0.27320365255E+02  0.00000000000E+00 0.  1.
</event>
<event>
 4    1  0.3586324E+003  0.3472302E+02  0.7546771E-02  0.1382521E+00
          2   -1    0    0  502    0  0.00000000000E+00  0.00000000000E+00  0.97170366893E+03  0.97170366893E+03  0.00000000000E+00 0.  1.
          1   -1    0    0  501    0 -0.00000000000E+00 -0.00000000000E+00 -0.66824702432E+01  0.66824702432E+01  0.00000000000E+00 0.  1.
          2    1    1    2  501    0  0.33285198814E+02  0.98885717077E+01  0.92395697454E+03  0.92460920345E+03  0.00000000000E+00 0.  1.
          1    1    1    2  502    0 -0.33285198814E+02 -0.98885717077E+01  0.41064224144E+02  0.53776935717E+02  0.00000000000E+00 0.  1.
</event>
<event>
 4    1  0.3586324E+003  0.2367977E+02  0.7546771E-02  0.1484134E+00
          2   -1    0    0  502    0  0.00000000000E+00  0.00000000000E+00  0.18587508937E+02  0.18587508937E+02  0.00000000000E+00 0. -1.
          1   -1    0    0  501    0 -0.00000000000E+00 -0.00000000000E+00 -0.34974355453E+02  0.34974355453E+02  0.00000000000E+00 0. -1.
          2    1    1    2  501    0  0.43887648973E+01  0.23269512113E+02  0.17354260419E+01  0.23743275993E+02  0.00000000000E+00 0. -1.
          1    1    1    2  502    0 -0.43887648973E+01 -0.23269512113E+02 -0.18122272558E+02  0.29818588397E+02  0.00000000000E+00 0. -1.
</event>
<event>
 4    1  0.3586324E+003  0.2120113E+02  0.7546771E-02  0.1516412E+00
          2   -1    0    0  502    0  0.00000000000E+00  0.00000000000E+00  0.56385494355E+02  0.56385494355E+02  0.00000000000E+00 0. -1.
          1   -1    0    0  501    0 -0.00000000000E+00 -0.00000000000E+00 -0.12719126292E+03  0.12719126292E+03  0.00000000000E+00 0.  1.
          2    1    1    2  501    0 -0.20443633739E+02 -0.56165780606E+01  0.53462541430E+02  0.57512880694E+02  0.00000000000E+00 0. -1.
          1    1    1    2  502    0  0.20443633739E+02  0.56165780606E+01 -0.12426830999E+03  0.12606387658E+03  0.00000000000E+00 0.  1.
</event>
<event>
 4    1  0.3586324E+003  0.2374207E+02  0.7546771E-02  0.1483384E+00
          2   -1    0    0  502    0  0.00000000000E+00  0.00000000000E+00  0.19047504575E+01  0.19047504575E+01  0.00000000000E+00 0.  1.
          1   -1    0    0  501    0 -0.00000000000E+00 -0.00000000000E+00 -0.99360885113E+03  0.99360885113E+03  0.00000000000E+00 0.  1.
          2    1    1    2  501    0 -0.16178674915E+02 -0.17376314149E+02 -0.78756910271E+02  0.82257745720E+02  0.00000000000E+00 0.  1.
          1    1    1    2  502    0  0.16178674915E+02  0.17376314149E+02 -0.91294719040E+03  0.91325585587E+03  0.00000000000E+00 0.  1.
</event>
<event>
 4    1  0.3586324E+003  0.7378484E+02  0.7546771E-02  0.1219061E+00
          2   -1    0    0  502    0  0.00000000000E+00  0.00000000000E+00  0.11628909645E+04  0.11628909645E+04  0.00000000000E+00 0. -1.
          1   -1    0    0  501    0 -0.00000000000E+00 -0.00000000000E+00 -0.10834717971E+02  0.10834717971E+02  0.00000000000E+00 0.  1.
          2    1    1    2  501    0  0.72084652853E+02  0.15748183249E+02  0.10182854735E+04  0.10209551940E+04  0.00000000000E+00 0. -1.
          1    1    1    2  502    0 -0.72084652853E+02 -0.15748183249E+02  0.13377077297E+03  0.15277048849E+03  0.00000000000E+00 0.  1.
</event>
<event>
 4    1  0.3586324E+003  0.2774707E+02  0.7546771E-02  0.1440245E+00
          2   -1    0    0  502    0  0.00000000000E+00  0.00000000000E+00  0.31599580599E+02  0.31599580599E+02  0.00000000000E+00 0. -1.
          1   -1    0    0  501    0 -0.00000000000E+00 -0.00000000000E+00 -0.36367093357E+02  0.36367093357E+02  0.00000000000E+00 0.  1.
          2    1    1    2  501    0  0.25938089794E+02  0.98547129246E+01  0.17139574611E+02  0.32613875679E+02  0.00000000000E+00 0. -1.
          1    1    1    2  502    0 -0.25938089794E+02 -0.98547129246E+01 -0.21907087368E+02  0.35352798276E+02  0.00000000000E+00 0.  1.
</event>
<event>
 4    1  0.3586324E+003  0.2554827E+02  0.7546771E-02  0.1462762E+00
          2   -1    0    0  502    0  0.00000000000E+00  0.00000000000E+00  0.71666057826E+03  0.71666057826E+03  0.00000000000E+00 0. -1.
          1   -1    0    0  501    0 -0.00000000000E+00 -0.00000000000E+00 -0.10984092340E+01  0.10984092340E+01  0.00000000000E+00 0.  1.
          2    1    1    2  501    0  0.25542970794E+02 -0.51970884160E+00  0.20945157002E+03  0.21100396593E+03  0.00000000000E+00 0. -1.
          1    1    1    2  502    0 -0.25542970794E+02  0.51970884160E+00  0.50611059900E+03  0.50675502156E+03  0.00000000000E+00 0.  1.
</event>
<event>
 4    1  0.3586324E+003  0.3107551E+02  0.7546771E-02  0.1410475E+00
          2   -1    0    0  502    0  0.00000000000E+00  0.00000000000E+00  0.84058219184E+02  0.84058219184E+02  0.00000000000E+00 0. -1.
          1   -1    0    0  501    0 -0.00000000000E+00 -0.00000000000E+00 -0.15489801034E+02  0.15489801034E+02  0.00000000000E+00 0.  1.
          2    1    1    2  501    0  0.42937323897E+01 -0.30777444270E+02  0.59582455622E+02  0.67199376720E+02  0.00000000000E+00 0. -1.
          1    1    1    2  502    0 -0.42937323897E+01  0.30777444270E+02  0.89859625284E+01  0.32348643499E+02  0.00000000000E+00 0.  1.
</event>
<event>
 4    1  0.3586324E+003  0.2292030E+02  0.7546771E-02  0.1493501E+00
          2   -1    0    0  502    0  0.00000000000E+00  0.00000000000E+00  0.15197107973E+04  0.15197107973E+04  0.00000000000E+00 0.  1.
          1   -1    0    0  501    0 -0.00000000000E+00 -0.00000000000E+00 -0.51532718529E+00  0.51532718529E+00  0.00000000000E+00 0.  1.
          2    1    1    2  501    0  0.22480576181E+02 -0.44681135136E+01  0.11957160666E+04  0.11959357225E+04  0.00000000000E+00 0.  1.
          1    1    1    2  502    0 -0.22480576181E+02  0.44681135136E+01  0.32347940346E+03  0.32429040196E+03  0.00000000000E+00 0.  1.
</event>
<event>
 4    1  0.3586324E+003  0.2607936E+02  0.7546771E-02  0.1457082E+00
          2   -1    0    0  502    0  0.00000000000E+00  0.00000000000E+00  0.53434214866E+02  0.53434214866E+02  0.00000000000E+00 0.  1.
          1   -1    0    0  501    0 -0.00000000000E+00 -0.00000000000E+00 -0.38224551676E+02  0.38224551676E+02  0.00000000000E+00 0. -1.
          2    1    1    2  501    0 -0.44096191320E+01 -0.25703856682E+02  0.45033983076E+02  0.52040298048E+02  0.00000000000E+00 0.  1.
          1    1    1    2  502    0  0.44096191320E+01  0.25703856682E+02 -0.29824319886E+02  0.39618468495E+02  0.00000000000E+00 0. -1.
</event>
<event>
 4    1  0.3586324E+003  0.2628252E+02  0.7546771E-02  0.1454952E+00
          2   -1    0    0  502    0  0.00000000000E+00  0.00000000000E+00  0.10509907810E+04  0.10509907810E+04  0.00000000000E+00 0. -1.
          1   -1    0    0  501    0 -0.00000000000E+00 -0.00000000000E+00 -0.35390300667E+03  0.35390300667E+03  0.00000000000E+00 0. -1.
          2    1    1    2  501    0  0.18689815555E+02 -0.18478675591E+02  0.10503381976E+04  0.10506669787E+04  0.00000000000E+00 0. -1.
          1    1    1    2  502    0 -0.18689815555E+02  0.18478675591E+02 -0.35325042330E+03  0.35422680900E+03  0.00000000000E+00 0. -1.
</event>
<event>
 4    1  0.3586324E+003  0.3980798E+02  0.7546771E-02  0.1349615E+00
          2   -1    0    0  502    0  0.00000000000E+00  0.00000000000E+00  0.82942896508E+02  0.82942896508E+02  0.00000000000E+00 0.  1.
          1   -1    0    0  501    0 -0.00000000000E+00 -0.00000000000E+00 -0.34309538297E+03  0.34309538297E+03  0.00000000000E+00 0. -1.
          2    1    1    2  501    0  0.22499422247E+02  0.32839777210E+02  0.76926851193E+02  0.86616484592E+02  0.00000000000E+00 0.  1.
          1    1    1    2  502    0 -0.22499422247E+02 -0.32839777210E+02 -0.33707933766E+03  0.33942179489E+03  0.00000000000E+00 0. -1.
</event>
<event>
 4    1  0.3586324E+003  0.2315523E+02  0.7546771E-02  0.1490558E+00
          2   -1    0    0  502    0  0.00000000000E+00  0.00000000000E+00  0.51330590663E+01  0.51330590663E+01  0.00000000000E+00 0.  1.
          1   -1    0    0  501    0 -0.00000000000E+00 -0.00000000000E+00 -0.10447265932E+03  0.10447265932E+03  0.00000000000E+00 0.  1.
          2    1    1    2  501    0  0.32052421803E+01  0.22932304873E+02 -0.50418714910E+02  0.55481627566E+02  0.00000000000E+00 0.  1.
          1    1    1    2  502    0 -0.32052421803E+01 -0.22932304873E+02 -0.48920885339E+02  0.54124090815E+02  0.00000000000E+00 0.  1.
</event>
<event>
 4    1  0.3586324E+003  0.2242305E+02  0.7546771E-02  0.1499873E+00
          2   -1    0    0  502    0  0.00000000000E+00  0.00000000000E+00  0.11863792706E+02  0.11863792706E+02  0.00000000000E+00 0.  1.
          1   -1    0    0  501    0 -0.00000000000E+00 -0.00000000000E+00 -0.45116978312E+02  0.45116978312E+02  0.00000000000E+00 0.  1.
          2    1    1    2  501    0 -0.84536874373E+01 -0.20768450733E+02 -0.96100217429E+01  0.24395612209E+02  0.00000000000E+00 0.  1.
          1    1    1    2  502    0  0.84536874373E+01  0.20768450733E+02 -0.23643163862E+02  0.32585158809E+02  0.00000000000E+00 0.  1.
</event>
<event>
 4    1  0.3586324E+003  0.2058386E+02  0.7546771E-02  0.1525290E+00
          2   -1    0    0  502    0  0.00000000000E+00  0.00000000000E+00  0.45676000143E+03  0.45676000143E+03  0.00000000000E+00 0.  1.
          1   -1    0    0  501    0 -0.00000000000E+00 -0.00000000000E+00 -0.92669365164E+01  0.92669365164E+01  0.00000000000E+00 0. -1.
          2    1    1    2  501    0 -0.18560265049E+02  0.89001009235E+01  0.44479037196E+03  0.44526640365E+03  0.00000000000E+00 0.  1.
          1    1    1    2  502    0  0.18560265049E+02 -0.89001009235E+01  0.27026929612E+01  0.20760534299E+02  0.00000000000E+00 0. -1.
</event>
<event>
 4    1  0.3586324E+003  0.2040486E+02  0.7546771E-02  0.1527934E+00
          2   -1    0    0  502    0  0.00000000000E+00  0.00000000000E+00  0.89483425900E+02  0.89483425900E+02  0.00000000000E+00 0. -1.
          1   -1    0    0  501    0 -0.00000000000E+00 -0.00000000000E+00 -0.26047413633E+02  0.26047413633E+02  0.00000000000E+00 0. -1.
          2    1    1    2  501    0 -0.20370352150E+02 -0.11862638775E+01  0.84070421299E+02  0.86511237455E+02  0.00000000000E+00 0. -1.
          1    1    1    2  502    0  0.20370352150E+02  0.11862638775E+01 -0.20634409031E+02  0.29019602078E+02  0.00000000000E+00 0. -1.
</event>
<event>
 4    1  0.3586324E+003  0.7095568E+02  0.7546771E-02  0.1226560E+00
          2   -1    0    0  502    0  0.00000000000E+00  0.00000000000E+00  0.45856914394E+03  0.45856914394E+03  0.00000000000E+00 0. -1.
          1   -1    0    0  501    0 -0.00000000000E+00 -0.00000000000E+00 -0.27640946014E+03  0.27640946014E+03  0.00000000000E+00 0.  1.
          2    1    1    2  501    0  0.28226657511E+02  0.65099645451E+02  0.45119673233E+03  0.45674193950E+03  0.00000000000E+00 0. -1.
          1    1    1    2  502    0 -0.28226657511E+02 -0.65099645451E+02 -0.26903704853E+03  0.27823666457E+03  0.00000000000E+00 0.  1.
</event>
<event>
 4    1  0.3586324E+003  0.3081709E+02  0.7546771E-02  0.1412626E+00
          2   -1    0    0  502    0  0.00000000000E+00  0.00000000000E+00  0.19237389528E+04  0.19237389528E+04  0.00000000000E+00 0. -1.
          1   -1    0    0  501    0 -0.00000000000E+00 -0.00000000000E+00 -0.10104285803E+01  0.10104285803E+01  0.00000000000E+00 0.  1.
          2    1    1    2  501    0  0.28655018619E+01  0.30683577659E+02  0.16495965590E+04  0.16498843900E+04  0.00000000000E+00 0. -1.
          1    1    1    2  502    0 -0.28655018619E+01 -0.30683577659E+02  0.27313196527E+03  0.27486499139E+03  0.00000000000E+00 0.  1.
</event>
<event>
 4    1  0.3586324E+003  0.8144362E+02  0.7546771E-02  0.1200535E+00
          2   -1    0    0  502    0  0.00000000000E+00  0.00000000000E+00  0.10689193180E+04  0.10689193180E+04  0.00000000000E+00 0.  1.
          1   -1    0    0  501    0 -0.00000000000E+00 -0.00000000000E+00 -0.99583605102E+01  0.99583605102E+01  0.00000000000E+00 0.  1.
          2    1    1    2  501    0 -0.68227110746E+02 -0.44476117466E+02  0.86063884777E+03  0.86448382862E+03  0.00000000000E+00 0.  1.
          1    1    1    2  502    0  0.68227110746E+02  0.44476117466E+02  0.19832210976E+03  0.21439384993E+03  0.00000000000E+00 0.  1.
</event>
<event>
 4    1  0.3586324E+003  0.2320669E+02  0.7546771E-02  0.1489919E+00
          2   -1    0    0  502    0  0.00000000000E+00  0.00000000000E+00  0.16175512888E+04  0.16175512888E+04  0.00000000000E+00 0.  1.
          1   -1    0    0  501    0 -0.00000000000E+00 -0.00000000000E+00 -0.47210675714E+02  0.47210675714E+02  0.00000000000E+00 0. -1.
          2    1    1    2  501    0 -0.18369254833E+01 -0.23133878048E+02  0.16146110127E+04  0.16147777781E+04  0.00000000000E+00 0.  1.
          1    1    1    2  502    0  0.18369254833E+01  0.23133878048E+02 -0.44270399569E+02  0.49984186367E+02  0.00000000000E+00 0. -1.
</event>
<event>
 4    1  0.3586324E+003  0.2711392E+02  0.7546771E-02  0.1446467E+00
          2   -1    0    0  502    0  0.00000000000E+00  0.00000000000E+00  0.10008596608E+03  0.10008596608E+03  0.00000000000E+00 0.  1.
          1   -1    0    0  501    0 -0.00000000000E+00 -0.00000000000E+00 -0.39971202781E+03  0.39971202781E+03  0.00000000000E+00 0. -1.
          2    1    1    2  501    0 -0.66640191616E+01  0.26282229921E+02  0.97779176937E+02  0.10146887308E+03  0.00000000000E+00 0.  1.
          1    1    1    2  502    0  0.66640191616E+01 -0.26282229921E+02 -0.39740523868E+03  0.39832912081E+03  0.00000000000E+00 0. -1.
</event>
<event>
 4    1  0.3586324E+003  0.2470741E+02  0.7546771E-02  0.1472103E+00
          2   -1    0    0  502    0  0.00000000000E+00  0.00000000000E+00  0.24108263290E+03  0.24108263290E+03  0.00000000000E+00 0.  1.
          1   -1    0    0  501    0 -0.00000000000E+00 -0.00000000000E+00 -0.15924058317E+02  0.15924058317E+02  0.00000000000E+00 0.  1.
          2    1    1    2  501    0  0.24530031919E+02 -0.29552620973E+01  0.23042366828E+03  0.23174452085E+03  0.00000000000E+00 0.  1.
          1    1    1    2  502    0 -0.24530031919E+02  0.29552620973E+01 -0.52650936975E+01  0.25262170367E+02  0.00000000000E+00 0.  1.
</event>
<event>
 4    1  0.3586324E+003  0.2732329E+02  0.7546771E-02  0.1444387E+00
          2   -1    0    0  502    0  0.00000000000E+00  0.00000000000E+00  0.26845321480E+03  0.26845321480E+03  0.00000000000E+00 0. -1.
          1   -1    0    0  501    0 -0.00000000000E+00 -0.00000000000E+00 -0.24792163082E+02  0.24792163082E+02  0.00000000000E+00 0.  1.
          2    1    1    2  501    0  0.59997833671E+01 -0.26656416771E+02  0.25998523793E+03  0.26141707270E+03  0.00000000000E+00 0. -1.
          1    1    1    2  502    0 -0.59997833671E+01  0.26656416771E+02 -0.16324186212E+02  0.31828305186E+02  0.00000000000E+00 0.  1.
</event>
<event>
 4    1  0.3586324E+003  0.2321830E+02  0.7546771E-02  0.1489775E+00
          2   -1    0    0  502    0  0.00000000000E+00  0.00000000000E+00  0.20705535845E+01  0.20705535845E+01  0.00000000000E+00 0.  1.
          1   -1    0    0  501    0 -0.00000000000E+00 -0.00000000000E+00 -0.13863023785E+04  0.13863023785E+04  0.00000000000E+00 0. -1.
          2    1    1    2  501    0  0.61846982485E+01 -0.22379427119E+02 -0.66503656021E+02  0.70440226538E+02  0.00000000000E+00 0.  1.
          1    1    1    2  502    0 -0.61846982485E+01  0.22379427119E+02 -0.13177281689E+04  0.13179327055E+04  0.00000000000E+00 0. -1.
</event>
<event>
 4    1  0.3586324E+003  0.3242067E+02  0.7546771E-02  0.1399664E+00
          2   -1    0    0  502    0  0.00000000000E+00  0.00000000000E+00  0.18973381268E+04  0.18973381268E+04  0.00000000000E+00 0. -1.
          1   -1    0    0  501    0 -0.00000000000E+00 -0.00000000000E+00 -0.24039309254E+03  0.24039309254E+03  0.00000000000E+00 0. -1.
          2    1    1    2  501    0  0.10967200266E+02  0.30509344290E+02  0.18961058148E+04  0.18963829677E+04  0.00000000000E+00 0. -1.
          1    1    1    2  502    0 -0.10967200266E+02 -0.30509344290E+02 -0.23916078055E+03  0.24134825155E+03  0.00000000000E+00 0. -1.
</event>
<event>
 4    1  0.3586324E+003  0.2494927E+02  0.7546771E-02  0.1469372E+00
          2   -1    0    0  502    0  0.00000000000E+00  0.00000000000E+00  0.21259664128E+03  0.21259664128E+03  0.00000000000E+00 0. -1.
          1   -1    0    0  501    0 -0.00000000000E+00 -0.00000000000E+00 -0.15440249737E+02  0.15440249737E+02  0.00000000000E+00 0. -1.
          2    1    1    2  501    0  0.17322802516E+02 -0.17955127560E+02  0.20121828828E+03  0.20275913206E+03  0.00000000000E+00 0. -1.
          1    1    1    2  502    0 -0.17322802516E+02  0.17955127560E+02 -0.40618967449E+01  0.25277758956E+02  0.00000000000E+00 0. -1.
</event>
<event>
 4    1  0.3586324E+003  0.2184357E+02  0.7546771E-02  0.1507553E+00
          2   -1    0    0  502    0  0.00000000000E+00  0.00000000000E+00  0.95454849192E+01  0.95454849192E+01  0.00000000000E+00 0. -1.
          1   -1    0    0  501    0 -0.00000000000E+00 -0.00000000000E+00 -0.35895728605E+03  0.35895728605E+03  0.00000000000E+00 0. -1.
          2    1    1    2  501    0  0.72603056164E+01 -0.20601683909E+02 -0.37640597177E+01  0.22165503899E+02  0.00000000000E+00 0. -1.
          1    1    1    2  502    0 -0.72603056164E+01  0.20601683909E+02 -0.34564774141E+03  0.34633726707E+03  0.00000000000E+00 0. -1.
</event>
<event>
 4    1  0.3586324E+003  0.3180668E+02  0.7546771E-02  0.1404520E+00
          2   -1    0    0  502    0  0.00000000000E+00  0.00000000000E+00  0.16603569329E+03  0.16603569329E+03  0.00000000000E+00 0.  1.
          1   -1    0    0  501    0 -0.00000000000E+00 -0.00000000000E+00 -0.25781711246E+02  0.25781711246E+02  0.00000000000E+00 0. -1.
          2    1    1    2  501    0  0.16643017027E+02 -0.27104887342E+02  0.15393975469E+03  0.15719132612E+03  0.00000000000E+00 0.  1.
          1    1    1    2  502    0 -0.16643017027E+02  0.27104887342E+02 -0.13685772646E+02  0.34626078416E+02  0.00000000000E+00 0. -1.
</event>
<event>
 4    1  0.3586324E+003  0.2360711E+02  0.7546771E-02  0.1485012E+00
          2   -1    0    0  502    0  0.00000000000E+00  0.00000000000E+00  0.74779466240E+02  0.74779466240E+02  0.00000000000E+00 0. -1.
          1   -1    0    0  501    0 -0.00000000000E+00 -0.00000000000E+00 -0.24160058396E+03  0.24160058396E+03  0.00000000000E+00 0.  1.
          2    1    1    2  501    0 -0.12593675413E+02 -0.19967342550E+02  0.72320555476E+02  0.76076002611E+02  0.00000000000E+00 0. -1.
          1    1    1    2  502    0  0.12593675413E+02  0.19967342550E+02 -0.23914167319E+03  0.24030404759E+03  0.00000000000E+00 0.  1.
</event>
<event>
 4    1  0.3586324E+003  0.2547728E+02  0.7546771E-02  0.1463534E+00
          2   -1    0    0  502    0  0.00000000000E+00  0.00000000000E+00  0.10615029522E+04  0.10615029522E+04  0.00000000000E+00 0. -1.
          1   -1    0    0  501    0 -0.00000000000E+00 -0.00000000000E+00 -0.16420171922E+01  0.16420171922E+01  0.00000000000E+00 0. -1.
          2    1    1    2  501    0  0.22124106578E+02  0.12633907294E+02  0.95104934283E+03  0.95139053191E+03  0.00000000000E+00 0. -1.
          1    1    1    2  502    0 -0.22124106578E+02 -0.12633907294E+02  0.10881159219E+03  0.11175443750E+03  0.00000000000E+00 0. -1.
</event>
<event>
 4    1  0.3586324E+003  0.3986970E+02  0.7546771E-02  0.1349251E+00
          2   -1    0    0  502    0  0.00000000000E+00  0.00000000000E+00  0.55251358774E+03  0.55251358774E+03  0.00000000000E+00 0. -1.
          1   -1    0    0  501    0 -0.00000000000E+00 -0.00000000000E+00 -0.47853717605E+01  0.47853717605E+01  0.00000000000E+00 0. -1.
          2    1    1    2  501    0 -0.25651173105E+02 -0.30522285382E+02  0.44983045637E+03  0.45159387957E+03  0.00000000000E+00 0. -1.
          1    1    1    2  502    0  0.25651173105E+02  0.30522285382E+02  0.97897759606E+02  0.10570507993E+03  0.00000000000E+00 0. -1.
</event>
<event>
 4    1  0.3586324E+003  0.2772638E+02  0.7546771E-02  0.1440445E+00
          2   -1    0    0  502    0  0.00000000000E+00  0.00000000000E+00  0.23646776952E+04  0.23646776952E+04  0.00000000000E+00 0.  1.
          1   -1    0    0  501    0 -0.00000000000E+00 -0.00000000000E+00 -0.45649507928E+00  0.45649507928E+00  0.00000000000E+00 0. -1.
          2    1    1    2  501    0  0.27444045867E+02 -0.39466784057E+01  0.18165653337E+04  0.18167769162E+04  0.00000000000E+00 0.  1.
          1    1    1    2  502    0 -0.27444045867E+02  0.39466784057E+01  0.54765586651E+03  0.54835727409E+03  0.00000000000E+00 0. -1.
</event>
<event>
 4    1  0.3586324E+003  0.2011170E+02  0.7546771E-02  0.1532335E+00
          2   -1    0    0  502    0  0.00000000000E+00  0.00000000000E+00  0.54282533042E+03  0.54282533042E+03  0.00000000000E+00 0.  1.
          1   -1    0    0  501    0 -0.00000000000E+00 -0.00000000000E+00 -0.19564447977E+03  0.19564447977E+03  0.00000000000E+00 0.  1.
          2    1    1    2  501    0  0.18442526700E+02  0.80220871414E+01  0.54212151798E+03  0.54249444323E+03  0.00000000000E+00 0.  1.
          1    1    1    2  502    0 -0.18442526700E+02 -0.80220871414E+01 -0.19494066734E+03  0.19597536696E+03  0.00000000000E+00 0.  1.
</event>
<event>
 4    1  0.3586324E+003  0.2103070E+02  0.7546771E-02  0.1518827E+00
          2   -1    0    0  502    0  0.00000000000E+00  0.00000000000E+00  0.55505020840E+01  0.55505020840E+01  0.00000000000E+00 0.  1.
          1   -1    0    0  501    0 -0.00000000000E+00 -0.00000000000E+00 -0.19729240859E+03  0.19729240859E+03  0.00000000000E+00 0.  1.
          2    1    1    2  501    0 -0.20910153191E+02 -0.22485492215E+01 -0.17565426323E+02  0.27401362776E+02  0.00000000000E+00 0.  1.
          1    1    1    2  502    0  0.20910153191E+02  0.22485492215E+01 -0.17417648018E+03  0.17544154790E+03  0.00000000000E+00 0.  1.
</event>
<event>
 4    1  0.3586324E+003  0.2767186E+02  0.7546771E-02  0.1440973E+00
          2   -1    0    0  502    0  0.00000000000E+00  0.00000000000E+00  0.13899919566E+04  0.13899919566E+04  0.00000000000E+00 0. -1.
          1   -1    0    0  501    0 -0.00000000000E+00 -0.00000000000E+00 -0.16590384050E+02  0.16590384050E+02  0.00000000000E+00 0. -1.
          2    1    1    2  501    0 -0.18149250440E+02  0.20888670462E+02  0.13782168698E+04  0.13784946399E+04  0.00000000000E+00 0. -1.
          1    1    1    2  502    0  0.18149250440E+02 -0.20888670462E+02 -0.48152973162E+01  0.28087700751E+02  0.00000000000E+00 0. -1.
</event>
<event>
 4    1  0.3586324E+003  0.2392188E+02  0.7546771E-02  0.1481236E+00
          2   -1    0    0  502    0  0.00000000000E+00  0.00000000000E+00  0.86985721478E+03  0.86985721478E+03  0.00000000000E+00 0. -1.
          1   -1    0    0  501    0 -0.00000000000E+00 -0.00000000000E+00 -0.67430048361E+00  0.67430048361E+00  0.00000000000E+00 0. -1.
          2    1    1    2  501    0  0.13707722282E+02 -0.19604961354E+02  0.50252815091E+03  0.50309720593E+03  0.00000000000E+00 0. -1.
          1    1    1    2  502    0 -0.13707722282E+02  0.19604961354E+02  0.36665476339E+03  0.36743430933E+03  0.00000000000E+00 0. -1.
</event>
<event>
 4    1  0.3586324E+003  0.4378644E+02  0.7546771E-02  0.1327620E+00
          2   -1    0    0  502    0  0.00000000000E+00  0.00000000000E+00  0.52194821980E+03  0.52194821980E+03  0.00000000000E+00 0.  1.
          1   -1    0    0  501    0 -0.00000000000E+00 -0.00000000000E+00 -0.71836007935E+02  0.71836007935E+02  0.00000000000E+00 0.  1.
          2    1    1    2  501    0  0.99832813734E+01  0.42633157618E+02  0.51425798409E+03  0.51611871332E+03  0.00000000000E+00 0.  1.
          1    1    1    2  502    0 -0.99832813734E+01 -0.42633157618E+02 -0.64145772225E+02  0.77665514418E+02  0.00000000000E+00 0.  1.
</event>
<event>
 4    1  0.3586324E+003  0.2256105E+02  0.7546771E-02  0.1498085E+00
          2   -1    0    0  502    0  0.00000000000E+00  0.00000000000E+00  0.65231479078E+01  0.65231479078E+01  0.00000000000E+00 0.  1.
          1   -1    0    0  501    0 -0.00000000000E+00 -0.00000000000E+00 -0.40252675214E+03  0.40252675214E+03  0.00000000000E+00 0. -1.
          2    1    1    2  501    0 -0.22017493873E+02 -0.49224953206E+01 -0.14367367622E+02  0.26747378358E+02  0.00000000000E+00 0.  1.
          1    1    1    2  502    0  0.22017493873E+02  0.49224953206E+01 -0.38163623661E+03  0.38230252169E+03  0.00000000000E+00 0. -1.
</event>
<event>
 4    1  0.3586324E+003  0.2178277E+02  0.7546771E-02  0.1508376E+00
          2   -1    0    0  502    0  0.00000000000E+00  0.00000000000E+00  0.20574775121E+01  0.20574775121E+01  0.00000000000E+00 0. -1.
          1   -1    0    0  501    0 -0.00000000000E+00 -0.00000000000E+00 -0.23121110013E+03  0.23121110013E+03  0.00000000000E+00 0. -1.
          2    1    1    2  501    0  0.21003583733E+02 -0.57739181241E+01 -0.12049057327E+03  0.12244372956E+03  0.00000000000E+00 0. -1.
          1    1    1    2  502    0 -0.21003583733E+02  0.57739181241E+01 -0.10866304935E+03  0.11082484809E+03  0.00000000000E+00 0. -1.
</event>
<event>
 4    1  0.3586324E+003  0.3159415E+02  0.7546771E-02  0.1406231E+00
          2   -1    0    0  502    0  0.00000000000E+00  0.00000000000E+00  0.23449329761E+04  0.23449329761E+04  0.00000000000E+00 0. -1.
          1   -1    0    0  501    0 -0.00000000000E+00 -0.00000000000E+00 -0.15291775120E+02  0.15291775120E+02  0.00000000000E+00 0. -1.
          2    1    1    2  501    0  0.13627211029E+02  0.28504200349E+02  0.23283915551E+04  0.23286058971E+04  0.00000000000E+00 0. -1.
          1    1    1    2  502    0 -0.13627211029E+02 -0.28504200349E+02  0.12496458666E+01  0.31618854071E+02  0.00000000000E+00 0. -1.
</event>
<event>
 4    1  0.3586324E+003  0.2162399E+02  0.7546771E-02  0.1510539E+00
          2   -1    0    0  502    0  0.00000000000E+00  0.00000000000E+00  0.34591746135E+02  0.34591746135E+02  0.00000000000E+00 0. -1.
          1   -1    0    0  501    0 -0.00000000000E+00 -0.00000000000E+00 -0.23738823544E+02  0.23738823544E+02  0.00000000000E+00 0. -1.
          2    1    1    2  501    0 -0.15635748352E+02 -0.14937209345E+02  0.24564102139E+02  0.32726013559E+02  0.00000000000E+00 0. -1.
          1    1    1    2  502    0  0.15635748352E+02  0.14937209345E+02 -0.13711179547E+02  0.25604556120E+02  0.00000000000E+00 0. -1.
</event>
<event>
 4    1  0.3586324E+003  0.2793745E+02  0.7546771E-02  0.1438412E+00
          2   -1    0    0  502    0  0.00000000000E+00  0.00000000000E+00  0.12141868172E+03  0.12141868172E+03  0.00000000000E+00 0. -1.
          1   -1    0    0  501    0 -0.00000000000E+00 -0.00000000000E+00 -0.10278494864E+02  0.10278494864E+02  0.00000000000E+00 0.  1.
          2    1    1    2  501    0  0.27735548476E+02 -0.33527098794E+01  0.95872385908E+02  0.99859980435E+02  0.00000000000E+00 0. -1.
          1    1    1    2  502    0 -0.27735548476E+02  0.33527098794E+01  0.15267800946E+02  0.31837196147E+02  0.00000000000E+00 0.  1.
</event>
<event>
 4    1  0.3586324E+003  0.3401042E+02  0.7546771E-02  0.1387657E+00
          2   -1    0    0  502    0  0.00000000000E+00  0.00000000000E+00  0.31680352689E+02  0.31680352689E+02  0.00000000000E+00 0.  1.
          1   -1    0    0  501    0 -0.00000000000E+00 -0.00000000000E+00 -0.14797026529E+03  0.14797026529E+03  0.00000000000E+00 0. -1.
          2    1    1    2  501    0  0.31506599571E+02  0.12807928787E+02  0.19814336438E+02  0.39361361573E+02  0.00000000000E+00 0.  1.
          1    1    1    2  502    0 -0.31506599571E+02 -0.12807928787E+02 -0.13610424904E+03  0.14028925641E+03  0.00000000000E+00 0. -1.
</event>
<event>
 4    1  0.3586324E+003  0.2058367E+02  0.7546771E-02  0.1525293E+00
          2   -1    0    0  502    0  0.00000000000E+00  0.00000000000E+00  0.25346579253E+03  0.25346579253E+03  0.00000000000E+00 0.  1.
          1   -1    0    0  501    0 -0.00000000000E+00 -0.00000000000E+00 -0.63578526370E+01  0.63578526370E+01  0.00000000000E+00 0. -1.
          2    1    1    2  501    0  0.10887956347E+02 -0.17468254787E+02  0.23508799477E+03  0.23598739967E+03  0.00000000000E+00 0.  1.
          1    1    1    2  502    0 -0.10887956347E+02  0.17468254787E+02  0.12019945130E+02  0.23836245502E+02  0.00000000000E+00 0. -1.
</event>
<event>
 4    1  0.3586324E+003  0.2329910E+02  0.7546771E-02  0.1488776E+00
          2   -1    0    0  502    0  0.00000000000E+00  0.00000000000E+00  0.10203672263E+02  0.10203672263E+02  0.00000000000E+00 0. -1.
          1   -1    0    0  501    0 -0.00000000000E+00 -0.00000000000E+00 -0.11466219162E+04  0.11466219162E+04  0.00000000000E+00 0.  1.
          2    1    1    2  501    0  0.23055357738E+02  0.33613007042E+01 -0.33743617914E+01  0.23542178751E+02  0.00000000000E+00 0. -1.
          1    1    1    2  502    0 -0.23055357738E+02 -0.33613007042E+01 -0.11330438822E+04  0.11332834097E+04  0.00000000000E+00 0.  1.
</event>
<event>
 4    1  0.3586324E+003  0.2214610E+02  0.7546771E-02  0.1503508E+00
          2   -1    0    0  502    0  0.00000000000E+00  0.00000000000E+00  0.55954101839E+03  0.55954101839E+03  0.00000000000E+00 0. -1.
          1   -1    0    0  501    0 -0.00000000000E+00 -0.00000000000E+00 -0.88253504125E+00  0.88253504125E+00  0.00000000000E+00 0. -1.
          2    1    1    2  501    0 -0.22104729512E+02  0.13528941385E+01  0.25619753318E+03  0.25715292220E+03  0.00000000000E+00 0. -1.
          1    1    1    2  502    0  0.22104729512E+02 -0.13528941385E+01  0.30246095017E+03  0.30327063123E+03  0.00000000000E+00 0. -1.
</event>
<event>
 4    1  0.3586324E+003  0.2057876E+02  0.7546771E-02  0.1525365E+00
          2   -1    0    0  502    0  0.00000000000E+00  0.00000000000E+00  0.15828404388E+02  0.15828404388E+02  0.00000000000E+00 0. -1.
          1   -1    0    0  501    0 -0.00000000000E+00 -0.00000000000E+00 -0.56346580254E+02  0.56346580254E+02  0.00000000000E+00 0. -1.
          2    1    1    2  501    0 -0.14508306838E+02  0.14594327175E+02  0.58931388607E+01  0.21405944002E+02  0.00000000000E+00 0. -1.
          1    1    1    2  502    0  0.14508306838E+02 -0.14594327175E+02 -0.46411314726E+02  0.50769040641E+02  0.00000000000E+00 0. -1.
</event>
<event>
 4    1  0.3586324E+003  0.2131585E+02  0.7546771E-02  0.1514803E+00
          2   -1    0    0  502    0  0.00000000000E+00  0.00000000000E+00  0.17047239786E+03  0.17047239786E+03  0.00000000000E+00 0. -1.
          1   -1    0    0  501    0 -0.00000000000E+00 -0.00000000000E+00 -0.82980164237E+03  0.82980164237E+03  0.00000000000E+00 0.  1.
          2    1    1    2  501    0 -0.17029892239E+02 -0.12819834501E+02  0.16966852929E+03  0.17100226671E+03  0.00000000000E+00 0. -1.
          1    1    1    2  502    0  0.17029892239E+02  0.12819834501E+02 -0.82899777381E+03  0.82927177352E+03  0.00000000000E+00 0.  1.
</event>
<event>
 4    1  0.3586324E+003  0.2610285E+02  0.7546771E-02  0.1456834E+00
          2   -1    0    0  502    0  0.00000000000E+00  0.00000000000E+00  0.91789537549E+03  0.91789537549E+03  0.00000000000E+00 0. -1.
          1   -1    0    0  501    0 -0.00000000000E+00 -0.00000000000E+00 -0.74476282074E+00  0.74476282074E+00  0.00000000000E+00 0. -1.
          2    1    1    2  501    0  0.19962744916E+02  0.16818058187E+02  0.43218846576E+03  0.43297601342E+03  0.00000000000E+00 0. -1.
          1    1    1    2  502    0 -0.19962744916E+02 -0.16818058187E+02  0.48496214691E+03  0.48566412489E+03  0.00000000000E+00 0. -1.
</event>
<event>
 4    1  0.3586324E+003  0.2394926E+02  0.7546771E-02  0.1480910E+00
          2   -1    0    0  502    0  0.00000000000E+00  0.00000000000E+00  0.67765774517E+02  0.67765774517E+02  0.00000000000E+00 0. -1.
          1   -1    0    0  501    0 -0.00000000000E+00 -0.00000000000E+00 -0.12420070839E+03  0.12420070839E+03  0.00000000000E+00 0.  1.
          2    1    1    2  501    0  0.21251424094E+02 -0.11042835248E+02  0.64437563361E+02  0.68744212907E+02  0.00000000000E+00 0. -1.
          1    1    1    2  502    0 -0.21251424094E+02  0.11042835248E+02 -0.12087249723E+03  0.12322227000E+03  0.00000000000E+00 0.  1.
</event>
<event>
 4    1  0.3586324E+003  0.2909434E+02  0.7546771E-02  0.1427633E+00
          2   -1    0    0  502    0  0.00000000000E+00  0.00000000000E+00  0.53715249028E+02  0.53715249028E+02  0.00000000000E+00 0.  1.
          1   -1    0    0  501    0 -0.00000000000E+00 -0.00000000000E+00 -0.10304244083E+04  0.10304244083E+04  0.00000000000E+00 0.  1.
          2    1    1    2  501    0  0.25112151367E+02  0.14692186617E+02  0.49554241280E+02  0.57463930623E+02  0.00000000000E+00 0.  1.
          1    1    1    2  502    0 -0.25112151367E+02 -0.14692186617E+02 -0.10262634006E+04  0.10266757267E+04  0.00000000000E+00 0.  1.
</event>
<event>
 4    1  0.3586324E+003  0.3888285E+02  0.7546771E-02  0.1355160E+00
          2   -1    0    0  502    0  0.00000000000E+00  0.00000000000E+00  0.42528747252E+02  0.42528747252E+02  0.00000000000E+00 0.  1.
          1   -1    0    0  501    0 -0.00000000000E+00 -0.00000000000E+00 -0.33142274609E+03  0.33142274609E+03  0.00000000000E+00 0. -1.
          2    1    1    2  501    0  0.19914101960E+02  0.33396176273E+02  0.32216554468E+02  0.50495370366E+02  0.00000000000E+00 0.  1.
          1    1    1    2  502    0 -0.19914101960E+02 -0.33396176273E+02 -0.32111055331E+03  0.32345612298E+03  0.00000000000E+00 0. -1.
</event>
<event>
 4    1  0.3586324E+003  0.2258374E+02  0.7546771E-02  0.1497792E+00
          2   -1    0    0  502    0  0.00000000000E+00  0.00000000000E+00  0.35191926527E+02  0.35191926527E+02  0.00000000000E+00 0.  1.
          1   -1    0    0  501    0 -0.00000000000E+00 -0.00000000000E+00 -0.40336404237E+02  0.40336404237E+02  0.00000000000E+00 0.  1.
          2    1    1    2  501    0  0.22517754690E+02  0.17251831987E+01  0.27655718515E+02  0.35705241911E+02  0.00000000000E+00 0.  1.
          1    1    1    2  502    0 -0.22517754690E+02 -0.17251831987E+01 -0.32800196225E+02  0.39823088852E+02  0.00000000000E+00 0.  1.
</event>
<event>
 4    1  0.3586324E+003  0.2531734E+02  0.7546771E-02  0.1465284E+00
          2   -1    0    0  502    0  0.00000000000E+00  0.00000000000E+00  0.61807471683E+03  0.61807471683E+03  0.00000000000E+00 0. -1.
          1   -1    0    0  501    0 -0.00000000000E+00 -0.00000000000E+00 -0.29756580726E+03  0.29756580726E+03  0.00000000000E+00 0.  1.
          2    1    1    2  501    0 -0.16228747938E+02 -0.19431820805E+02  0.61727625128E+03  0.61779522361E+03  0.00000000000E+00 0. -1.
          1    1    1    2  502    0  0.16228747938E+02  0.19431820805E+02 -0.29676734170E+03  0.29784530049E+03  0.00000000000E+00 0.  1.
</event>
<event>
 4    1  0.3586324E+003  0.3211902E+02  0.7546771E-02  0.1402034E+00
          2   -1    0    0  502    0  0.00000000000E+00  0.00000000000E+00  0.40076877204E+02  0.40076877204E+02  0.00000000000E+00 0. -1.
          1   -1    0    0  501    0 -0.00000000000E+00 -0.00000000000E+00 -0.31438232213E+02  0.31438232213E+02  0.00000000000E+00 0. -1.
          2    1    1    2  501    0  0.26675811771E+02  0.17889457944E+02  0.19540862528E+02  0.37596235815E+02  0.00000000000E+00 0. -1.
          1    1    1    2  502    0 -0.26675811771E+02 -0.17889457944E+02 -0.10902217537E+02  0.33918873601E+02  0.00000000000E+00 0. -1.
</event>
<event>
 4    1  0.3586324E+003  0.2672586E+02  0.7546771E-02  0.1450381E+00
          2   -1    0    0  502    0  0.00000000000E+00  0.00000000000E+00  0.10456856404E+03  0.10456856404E+03  0.00000000000E+00 0.  1.
          1   -1    0    0  501    0 -0.00000000000E+00 -0.00000000000E+00 -0.69066348358E+01  0.69066348358E+01  0.00000000000E+00 0. -1.
          2    1    1    2  501    0  0.10539163093E+01  0.26705072440E+02  0.54677092612E+02  0.60859313914E+02  0.00000000000E+00 0.  1.
          1    1    1    2  502    0 -0.10539163093E+01 -0.26705072440E+02  0.42984836592E+02  0.50615884961E+02  0.00000000000E+00 0. -1.
</event>
<event>
 4    1  0.3586324E+003  0.3297034E+02  0.7546771E-02  0.1395423E+00
          2   -1    0    0  502    0  0.00000000000E+00  0.00000000000E+00  0.33622149695E+02  0.33622149695E+02  0.00000000000E+00 0.  1.
          1   -1    0    0  501    0 -0.00000000000E+00 -0.00000000000E+00 -0.39857731790E+02  0.39857731790E+02  0.00000000000E+00 0. -1.
          2    1    1    2  501    0  0.12789978172E+02  0.30388482997E+02  0.12847633604E+02  0.35385097565E+02  0.00000000000E+00 0.  1.
          1    1    1    2  502    0 -0.12789978172E+02 -0.30388482997E+02 -0.19083215699E+02  0.38094783920E+02  0.00000000000E+00 0. -1.
</event>
<event>
 4    1  0.3586324E+003  0.4711990E+02  0.7546771E-02  0.1311167E+00
          2   -1    0    0  502    0  0.00000000000E+00  0.00000000000E+00  0.12192440370E+04  0.12192440370E+04  0.00000000000E+00 0.  1.
          1   -1    0    0  501    0 -0.00000000000E+00 -0.00000000000E+00 -0.19145995829E+01  0.19145995829E+01  0.00000000000E+00 0. -1.
          2    1    1    2  501    0  0.39905091392E+02 -0.25057299110E+02  0.74364232479E+03  0.74513367376E+03  0.00000000000E+00 0.  1.
          1    1    1    2  502    0 -0.39905091392E+02  0.25057299110E+02  0.47368711258E+03  0.47602496277E+03  0.00000000000E+00 0. -1.
</event>
<event>
 4    1  0.3586324E+003  0.3050342E+02  0.7546771E-02  0.1415271E+00
          2   -1    0    0  502    0  0.00000000000E+00  0.00000000000E+00  0.24572289107E+03  0.24572289107E+03  0.00000000000E+00 0.  1.
          1   -1    0    0  501    0 -0.00000000000E+00 -0.00000000000E+00 -0.13563179172E+02  0.13563179172E+02  0.00000000000E+00 0. -1.
          2    1    1    2  501    0  0.21717020917E+02 -0.21420312667E+02  0.22614796239E+03  0.22819588008E+03  0.00000000000E+00 0.  1.
          1    1    1    2  502    0 -0.21717020917E+02  0.21420312667E+02  0.60117495100E+01  0.31090190164E+02  0.00000000000E+00 0. -1.
</event>
<event>
 4    1  0.3586324E+003  0.2596420E+02  0.7546771E-02  0.1458300E+00
          2   -1    0    0  502    0  0.00000000000E+00  0.00000000000E+00  0.52993699671E+03  0.52993699671E+03  0.00000000000E+00 0. -1.
          1   -1    0    0  501    0 -0.00000000000E+00 -0.00000000000E+00 -0.20503901284E+03  0.20503901284E+03  0.00000000000E+00 0.  1.
          2    1    1    2  501    0 -0.25947487731E+02 -0.93140243669E+00  0.52879522973E+03  0.52943227576E+03  0.00000000000E+00 0. -1.
          1    1    1    2  502    0  0.25947487731E+02  0.93140243669E+00 -0.20389724586E+03  0.20554373379E+03  0.00000000000E+00 0.  1.
</event>
<event>
 4    1  0.3586324E+003  0.3185783E+02  0.7546771E-02  0.1404111E+00
          2   -1    0    0  502    0  0.00000000000E+00  0.00000000000E+00  0.22928113885E+04  0.22928113885E+04  0.00000000000E+00 0. -1.
          1   -1    0    0  501    0 -0.00000000000E+00 -0.00000000000E+00 -0.26071150212E+03  0.26071150212E+03  0.00000000000E+00 0.  1.
          2    1    1    2  501    0  0.14994532527E+02 -0.28108458127E+02  0.22917270419E+04  0.22919484628E+04  0.00000000000E+00 0. -1.
          1    1    1    2  502    0 -0.14994532527E+02  0.28108458127E+02 -0.25962715552E+03  0.26157442785E+03  0.00000000000E+00 0.  1.
</event>
<event>
 4    1  0.3586324E+003  0.9739326E+02  0.7546771E-02  0.1168403E+00
          2   -1    0    0  502    0  0.00000000000E+00  0.00000000000E+00  0.30981512736E+03  0.30981512736E+03  0.00000000000E+00 0. -1.
          1   -1    0    0  501    0 -0.00000000000E+00 -0.00000000000E+00 -0.73493281820E+02  0.73493281820E+02  0.00000000000E+00 0. -1.
          2    1    1    2  501    0 -0.75191693502E+02  0.61900376357E+02  0.26454901259E+03  0.28190712554E+03  0.00000000000E+00 0. -1.
          1    1    1    2  502    0  0.75191693502E+02 -0.61900376357E+02 -0.28227167053E+02  0.10140128364E+03  0.00000000000E+00 0. -1.
</event>
<event>
 4    1  0.3586324E+003  0.2308501E+02  0.7546771E-02  0.1491433E+00
          2   -1    0    0  502    0  0.00000000000E+00  0.00000000000E+00  0.16571806979E+02  0.16571806979E+02  0.00000000000E+00 0.  1.
          1   -1    0    0  501    0 -0.00000000000E+00 -0.00000000000E+00 -0.37618443350E+02  0.37618443350E+02  0.00000000000E+00 0.  1.
          2    1    1    2  501    0 -0.21888876656E+02  0.73344865099E+01 -0.20042966803E+00  0.23085878490E+02  0.00000000000E+00 0.  1.
          1    1    1    2  502    0  0.21888876656E+02 -0.73344865099E+01 -0.20846206703E+02  0.31104371839E+02  0.00000000000E+00 0.  1.
</event>
<event>
 4    1  0.3586324E+003  0.2230068E+02  0.7546771E-02  0.1501471E+00
          2   -1    0    0  502    0  0.00000000000E+00  0.00000000000E+00  0.27396114811E+02  0.27396114811E+02  0.00000000000E+00 0. -1.
          1   -1    0    0  501    0 -0.00000000000E+00 -0.00000000000E+00 -0.44885802594E+02  0.44885802594E+02  0.00000000000E+00 0. -1.
          2    1    1    2  501    0  0.20286181119E+02  0.92623605346E+01  0.19146392995E+02  0.29392258024E+02  0.00000000000E+00 0. -1.
          1    1    1    2  502    0 -0.20286181119E+02 -0.92623605346E+01 -0.36636080778E+02  0.42889659381E+02  0.00000000000E+00 0. -1.
</event>
<event>
 4    1  0.3586324E+003  0.2137316E+02  0.7546771E-02  0.1514003E+00
          2   -1    0    0  502    0  0.00000000000E+00  0.00000000000E+00  0.91038450951E+02  0.91038450951E+02  0.00000000000E+00 0. -1.
          1   -1    0    0  501    0 -0.00000000000E+00 -0.00000000000E+00 -0.69063410673E+02  0.69063410673E+02  0.00000000000E+00 0.  1.
          2    1    1    2  501    0 -0.94377843522E+01 -0.19176557329E+02  0.88075574314E+02  0.90631776520E+02  0.00000000000E+00 0. -1.
          1    1    1    2  502    0  0.94377843522E+01  0.19176557329E+02 -0.66100534036E+02  0.69470085104E+02  0.00000000000E+00 0.  1.
</event>
<event>
 4    1  0.3586324E+003  0.2592557E+02  0.7546771E-02  0.1458710E+00
          2   -1    0    0  502    0  0.00000000000E+00  0.00000000000E+00  0.41096932432E+03  0.41096932432E+03  0.00000000000E+00 0. -1.
          1   -1    0    0  501    0 -0.00000000000E+00 -0.00000000000E+00 -0.11804004572E+03  0.11804004572E+03  0.00000000000E+00 0.  1.
          2    1    1    2  501    0  0.22707521726E+02  0.12510142256E+02  0.40913052877E+03  0.40995112486E+03  0.00000000000E+00 0. -1.
          1    1    1    2  502    0 -0.22707521726E+02 -0.12510142256E+02 -0.11620125018E+03  0.11905824518E+03  0.00000000000E+00 0.  1.
</event>
<event>
 4    1  0.3586324E+003  0.2040281E+02  0.7546771E-02  0.1527965E+00
          2   -1    0    0  502    0  0.00000000000E+00  0.00000000000E+00  0.24580869836E+02  0.24580869836E+02  0.00000000000E+00 0.  1.
          1   -1    0    0  501    0 -0.00000000000E+00 -0.00000000000E+00 -0.82177647770E+02  0.82177647770E+02  0.00000000000E+00 0.  1.
          2    1    1    2  501    0  0.19458602715E+02  0.61349215186E+01  0.18763798483E+02  0.27719210219E+02  0.00000000000E+00 0.  1.
          1    1    1    2  502    0 -0.19458602715E+02 -0.61349215186E+01 -0.76360576416E+02  0.79039307387E+02  0.00000000000E+00 0.  1.
</event>
<event>
 4    1  0.3586324E+003  0.2167692E+02  0.7546771E-02  0.1509816E+00
          2   -1    0    0  502    0  0.00000000000E+00  0.00000000000E+00  0.15060780727E+04  0.15060780727E+04  0.00000000000E+00 0.  1.
          1   -1    0    0  501    0 -0.00000000000E+00 -0.00000000000E+00 -0.14201560819E+01  0.14201560819E+01  0.00000000000E+00 0. -1.
          2    1    1    2  501    0  0.98790186788E+01  0.19294922739E+02  0.14181541051E+04  0.14183197647E+04  0.00000000000E+00 0.  1.
          1    1    1    2  502    0 -0.98790186788E+01 -0.19294922739E+02  0.86503811545E+02  0.89178464135E+02  0.00000000000E+00 0. -1.
</event>
<event>
 4    1  0.3586324E+003  0.7972064E+02  0.7546771E-02  0.1204498E+00
          2   -1    0    0  502    0  0.00000000000E+00  0.00000000000E+00  0.15916968838E+03  0.15916968838E+03  0.00000000000E+00 0.  1.
          1   -1    0    0  501    0 -0.00000000000E+00 -0.00000000000E+00 -0.62514810790E+02  0.62514810790E+02  0.00000000000E+00 0. -1.
          2    1    1    2  501    0 -0.75708851795E+02  0.24970998377E+02  0.11495257123E+03  0.13989093835E+03  0.00000000000E+00 0.  1.
          1    1    1    2  502    0  0.75708851795E+02 -0.24970998377E+02 -0.18297693635E+02  0.81793560825E+02  0.00000000000E+00 0. -1.
</event>
<event>
 4    1  0.3586324E+003  0.2589684E+02  0.7546771E-02  0.1459016E+00
          2   -1    0    0  502    0  0.00000000000E+00  0.00000000000E+00  0.98764718773E+02  0.98764718773E+02  0.00000000000E+00 0. -1.
          1   -1    0    0  501    0 -0.00000000000E+00 -0.00000000000E+00 -0.13119959756E+03  0.13119959756E+03  0.00000000000E+00 0.  1.
          2    1    1    2  501    0  0.76701248751E+00 -0.25885474489E+02  0.95749692149E+02  0.99189967458E+02  0.00000000000E+00 0. -1.
          1    1    1    2  502    0 -0.76701248751E+00  0.25885474489E+02 -0.12818457094E+03  0.13077434887E+03  0.00000000000E+00 0.  1.
</event>
<event>
 4    1  0.3586324E+003  0.2004851E+02  0.7546771E-02  0.1533295E+00
          2   -1    0    0  502    0  0.00000000000E+00  0.00000000000E+00  0.14233775286E+04  0.14233775286E+04  0.00000000000E+00 0. -1.
          1   -1    0    0  501    0 -0.00000000000E+00 -0.00000000000E+00 -0.63659429200E+02  0.63659429200E+02  0.00000000000E+00 0. -1.
          2    1    1    2  501    0  0.18386771894E+02 -0.79918245556E+01  0.14217266109E+04  0.14218679611E+04  0.00000000000E+00 0. -1.
          1    1    1    2  502    0 -0.18386771894E+02  0.79918245556E+01 -0.62008511472E+02  0.65168996734E+02  0.00000000000E+00 0. -1.
</event>
<event>
 4    1  0.3586324E+003  0.2641153E+02  0.7546771E-02  0.1453611E+00
          2   -1    0    0  502    0  0.00000000000E+00  0.00000000000E+00  0.57218315187E+02  0.57218315187E+02  0.00000000000E+00 0.  1.
          1   -1    0    0  501    0 -0.00000000000E+00 -0.00000000000E+00 -0.12501223307E+03  0.12501223307E+03  0.00000000000E+00 0. -1.
          2    1    1    2  501    0 -0.77221581151E+01  0.25257419052E+02  0.52661529204E+02  0.58913543445E+02  0.00000000000E+00 0.  1.
          1    1    1    2  502    0  0.77221581151E+01 -0.25257419052E+02 -0.12045544709E+03  0.12331700481E+03  0.00000000000E+00 0. -1.
</event>
<event>
 4    1  0.3586324E+003  0.2014904E+02  0.7546771E-02  0.1531770E+00
          2   -1    0    0  502    0  0.00000000000E+00  0.00000000000E+00  0.30967951743E+02  0.30967951743E+02  0.00000000000E+00 0. -1.
          1   -1    0    0  501    0 -0.00000000000E+00 -0.00000000000E+00 -0.26505290674E+03  0.26505290674E+03  0.00000000000E+00 0.  1.
          2    1    1    2  501    0  0.99884146757E+01  0.17499007770E+02  0.27261157585E+02  0.33899180131E+02  0.00000000000E+00 0. -1.
          1    1    1    2  502    0 -0.99884146757E+01 -0.17499007770E+02 -0.26134611258E+03  0.26212167836E+03  0.00000000000E+00 0.  1.
</event>
<event>
 4    1  0.3586324E+003  0.2870850E+02  0.7546771E-02  0.1431162E+00
          2   -1    0    0  502    0  0.00000000000E+00  0.00000000000E+00  0.10826222808E+01  0.10826222808E+01  0.00000000000E+00 0. -1.
          1   -1    0    0  501    0 -0.00000000000E+00 -0.00000000000E+00 -0.11882261790E+04  0.11882261790E+04  0.00000000000E+00 0.  1.
          2    1    1    2  501    0 -0.22424538792E+02  0.17925349125E+02 -0.23711906053E+03  0.23885063732E+03  0.00000000000E+00 0. -1.
          1    1    1    2  502    0  0.22424538792E+02 -0.17925349125E+02 -0.95002449621E+03  0.95045816398E+03  0.00000000000E+00 0.  1.
</event>
<event>
 4    1  0.3586324E+003  0.2208671E+02  0.7546771E-02  0.1504296E+00
          2   -1    0    0  502    0  0.00000000000E+00  0.00000000000E+00  0.46874532793E+03  0.46874532793E+03  0.00000000000E+00 0. -1.
          1   -1    0    0  501    0 -0.00000000000E+00 -0.00000000000E+00 -0.27503904297E+01  0.27503904297E+01  0.00000000000E+00 0. -1.
          2    1    1    2  501    0 -0.61951684973E+01  0.21200059900E+02  0.41886755018E+03  0.41944945732E+03  0.00000000000E+00 0. -1.
          1    1    1    2  502    0  0.61951684973E+01 -0.21200059900E+02  0.47127387314E+02  0.52046261033E+02  0.00000000000E+00 0. -1.
</event>
<event>
 4    1  0.3586324E+003  0.3693206E+02  0.7546771E-02  0.1367467E+00
          2   -1    0    0  502    0  0.00000000000E+00  0.00000000000E+00  0.10690384958E+04  0.10690384958E+04  0.00000000000E+00 0.  1.
          1   -1    0    0  501    0 -0.00000000000E+00 -0.00000000000E+00 -0.11099239576E+02  0.11099239576E+02  0.00000000000E+00 0.  1.
          2    1    1    2  501    0 -0.30240615761E+01 -0.36808046658E+02  0.10370498557E+04  0.10377072711E+04  0.00000000000E+00 0.  1.
          1    1    1    2  502    0  0.30240615761E+01  0.36808046658E+02  0.20889400553E+02  0.42430464323E+02  0.00000000000E+00 0.  1.
</event>
<event>
 4    1  0.3586324E+003  0.2669844E+02  0.7546771E-02  0.1450661E+00
          2   -1    0    0  502    0  0.00000000000E+00  0.00000000000E+00  0.14650507673E+02  0.14650507673E+02  0.00000000000E+00 0.  1.
          1   -1    0    0  501    0 -0.00000000000E+00 -0.00000000000E+00 -0.71264203465E+03  0.71264203465E+03  0.00000000000E+00 0.  1.
          2    1    1    2  501    0  0.24688122311E+02 -0.10163820296E+02  0.20175016621E+01  0.26774557685E+02  0.00000000000E+00 0.  1.
          1    1    1    2  502    0 -0.24688122311E+02  0.10163820296E+02 -0.70000902864E+03  0.70051798464E+03  0.00000000000E+00 0.  1.
</event>
<event>
 4    1  0.3586324E+003  0.6360120E+02  0.7546771E-02  0.1248064E+00
          2   -1    0    0  502    0  0.00000000000E+00  0.00000000000E+00  0.41300537791E+03  0.41300537791E+03  0.00000000000E+00 0.  1.
          1   -1    0    0  501    0 -0.00000000000E+00 -0.00000000000E+00 -0.23615150203E+02  0.23615150203E+02  0.00000000000E+00 0. -1.
          2    1    1    2  501    0 -0.53090076471E+02 -0.35022232597E+02  0.36170632677E+03  0.36725546942E+03  0.00000000000E+00 0.  1.
          1    1    1    2  502    0  0.53090076471E+02  0.35022232597E+02  0.27683900933E+02  0.69365058687E+02  0.00000000000E+00 0. -1.
</event>
<event>
 4    1  0.3586324E+003  0.2483590E+02  0.7546771E-02  0.1470648E+00
          2   -1    0    0  502    0  0.00000000000E+00  0.00000000000E+00  0.42421238104E+03  0.42421238104E+03  0.00000000000E+00 0.  1.
          1   -1    0    0  501    0 -0.00000000000E+00 -0.00000000000E+00 -0.62268184798E+01  0.62268184798E+01  0.00000000000E+00 0. -1.
          2    1    1    2  501    0 -0.12684252157E+02  0.21352559943E+02  0.39741595887E+03  0.39819124354E+03  0.00000000000E+00 0.  1.
          1    1    1    2  502    0  0.12684252157E+02 -0.21352559943E+02  0.20569603695E+02  0.32247955983E+02  0.00000000000E+00 0. -1.
</event>
<event>
 4    1  0.3586324E+003  0.2193775E+02  0.7546771E-02  0.1506286E+00
          2   -1    0    0  502    0  0.00000000000E+00  0.00000000000E+00  0.28958161368E+03  0.28958161368E+03  0.00000000000E+00 0.  1.
          1   -1    0    0  501    0 -0.00000000000E+00 -0.00000000000E+00 -0.24600047806E+03  0.24600047806E+03  0.00000000000E+00 0.  1.
          2    1    1    2  501    0  0.14269164000E+01  0.21891294075E+02  0.28867550847E+03  0.28950788251E+03  0.00000000000E+00 0.  1.
          1    1    1    2  502    0 -0.14269164000E+01 -0.21891294075E+02 -0.24509437285E+03  0.24607420923E+03  0.00000000000E+00 0.  1.
</event>
<event>
 4    1  0.3586324E+003  0.6548202E+02  0.7546771E-02  0.1242264E+00
          2   -1    0    0  502    0  0.00000000000E+00  0.00000000000E+00  0.77177309652E+02  0.77177309652E+02  0.00000000000E+00 0.  1.
          1   -1    0    0  501    0 -0.00000000000E+00 -0.00000000000E+00 -0.12183999065E+03  0.12183999065E+03  0.00000000000E+00 0. -1.
          2    1    1    2  501    0 -0.31737953317E+02 -0.57276497834E+02  0.51062627909E+02  0.83037863977E+02  0.00000000000E+00 0.  1.
          1    1    1    2  502    0  0.31737953317E+02  0.57276497834E+02 -0.95725308907E+02  0.11597943633E+03  0.00000000000E+00 0. -1.
</event>
<event>
 4    1  0.3586324E+003  0.2872163E+02  0.7546771E-02  0.1431040E+00
          2   -1    0    0  502    0  0.00000000000E+00  0.00000000000E+00  0.20619920391E+02  0.20619920391E+02  0.00000000000E+00 0. -1.
          1   -1    0    0  501    0 -0.00000000000E+00 -0.00000000000E+00 -0.51684579566E+02  0.51684579566E+02  0.00000000000E+00 0.  1.
          2    1    1    2  501    0 -0.16561974739E+02 -0.23465576886E+02  0.16522627933E+01  0.28769120219E+02  0.00000000000E+00 0. -1.
          1    1    1    2  502    0  0.16561974739E+02  0.23465576886E+02 -0.32716921968E+02  0.43535379738E+02  0.00000000000E+00 0.  1.
</event>
<event>
 4    1  0.3586324E+003  0.3539464E+02  0.7546771E-02  0.1377810E+00
          2   -1    0    0  502    0  0.00000000000E+00  0.00000000000E+00  0.87980204230E+02  0.87980204230E+02  0.00000000000E+00 0.  1.
          1   -1    0    0  501    0 -0.00000000000E+00 -0.00000000000E+00 -0.28468220505E+02  0.28468220505E+02  0.00000000000E+00 0.  1.
          2    1    1    2  501    0  0.21230114285E+02 -0.28320713421E+02  0.70919154754E+02  0.79261006000E+02  0.00000000000E+00 0.  1.
          1    1    1    2  502    0 -0.21230114285E+02  0.28320713421E+02 -0.11407171029E+02  0.37187418734E+02  0.00000000000E+00 0.  1.
</event>
<event>
 4    1  0.3586324E+003  0.2767177E+02  0.7546771E-02  0.1440974E+00
          2   -1    0    0  502    0  0.00000000000E+00  0.00000000000E+00  0.30822329323E+01  0.30822329323E+01  0.00000000000E+00 0. -1.
          1   -1    0    0  501    0 -0.00000000000E+00 -0.00000000000E+00 -0.12272378280E+04  0.12272378280E+04  0.00000000000E+00 0. -1.
          2    1    1    2  501    0  0.21302577807E+02 -0.17661460967E+02 -0.62699003556E+02  0.68533875358E+02  0.00000000000E+00 0. -1.
          1    1    1    2  502    0 -0.21302577807E+02  0.17661460967E+02 -0.11614565915E+04  0.11617861856E+04  0.00000000000E+00 0. -1.
</event>
<event>
 4    1  0.3586324E+003  0.7630556E+02  0.7546771E-02  0.1212694E+00
          2   -1    0    0  502    0  0.00000000000E+00  0.00000000000E+00  0.79910649306E+02  0.79910649306E+02  0.00000000000E+00 0. -1.
          1   -1    0    0  501    0 -0.00000000000E+00 -0.00000000000E+00 -0.60480571670E+03  0.60480571670E+03  0.00000000000E+00 0.  1.
          2    1    1    2  501    0 -0.73261490846E+02  0.21337570143E+02  0.58626482198E+02  0.96226827629E+02  0.00000000000E+00 0. -1.
          1    1    1    2  502    0  0.73261490846E+02 -0.21337570143E+02 -0.58352154959E+03  0.58848953838E+03  0.00000000000E+00 0.  1.
</event>
<event>
 4    1  0.3586324E+003  0.2645448E+02  0.7546771E-02  0.1453166E+00
          2   -1    0    0  502    0  0.00000000000E+00  0.00000000000E+00  0.23275942944E+03  0.23275942944E+03  0.00000000000E+00 0. -1.
          1   -1    0    0  501    0 -0.00000000000E+00 -0.00000000000E+00 -0.13034145657E+02  0.13034145657E+02  0.00000000000E+00 0.  1.
          2    1    1    2  501    0  0.25530122226E+02  0.69319920707E+01  0.21765655295E+03  0.21925832868E+03  0.00000000000E+00 0. -1.
          1    1    1    2  502    0 -0.25530122226E+02 -0.69319920707E+01  0.20687308330E+01  0.26535246413E+02  0.00000000000E+00 0.  1.
</event>
<event>
 4    1  0.3586324E+003  0.2081466E+02  0.7546771E-02  0.1521928E+00
          2   -1    0    0  502    0  0.00000000000E+00  0.00000000000E+00  0.80313214000E+02  0.80313214000E+02  0.00000000000E+00 0. -1.
          1   -1    0    0  501    0 -0.00000000000E+00 -0.00000000000E+00 -0.24054955229E+02  0.24054955229E+02  0.00000000000E+00 0.  1.
          2    1    1    2  501    0 -0.20751869401E+02 -0.16155501639E+01  0.74090909929E+02  0.76959164627E+02  0.00000000000E+00 0. -1.
          1    1    1    2  502    0  0.20751869401E+02  0.16155501639E+01 -0.17832651158E+02  0.27409004602E+02  0.00000000000E+00 0.  1.
</event>
<event>
 4    1  0.3586324E+003  0.2078335E+02  0.7546771E-02  0.1522381E+00
          2   -1    0    0  502    0  0.00000000000E+00  0.00000000000E+00  0.94254950848E+03  0.94254950848E+03  0.00000000000E+00 0. -1.
          1   -1    0    0  501    0 -0.00000000000E+00 -0.00000000000E+00 -0.58771332374E+01  0.58771332374E+01  0.00000000000E+00 0.  1.
          2    1    1    2  501    0 -0.20775749401E+02  0.56206587953E+00  0.92368566416E+03  0.92391945204E+03  0.00000000000E+00 0. -1.
          1    1    1    2  502    0  0.20775749401E+02 -0.56206587953E+00  0.12986711084E+02  0.24507189680E+02  0.00000000000E+00 0.  1.
</event>
<event>
 4    1  0.3586324E+003  0.2606878E+02  0.7546771E-02  0.1457193E+00
          2   -1    0    0  502    0  0.00000000000E+00  0.00000000000E+00  0.43593296143E+03  0.43593296143E+03  0.00000000000E+00 0.  1.
          1   -1    0    0  501    0 -0.00000000000E+00 -0.00000000000E+00 -0.14676698583E+02  0.14676698583E+02  0.00000000000E+00 0.  1.
          2    1    1    2  501    0  0.23575559878E+02 -0.11125385000E+02  0.42363155877E+03  0.42443289081E+03  0.00000000000E+00 0.  1.
          1    1    1    2  502    0 -0.23575559878E+02  0.11125385000E+02 -0.23752959265E+01  0.26176769199E+02  0.00000000000E+00 0.  1.
</event>
<event>
 4    1  0.3586324E+003  0.3019836E+02  0.7546771E-02  0.1417880E+00
          2   -1    0    0  502    0  0.00000000000E+00  0.00000000000E+00  0.41891846727E+03  0.41891846727E+03  0.00000000000E+00 0. -1.
          1   -1    0    0  501    0 -0.00000000000E+00 -0.00000000000E+00 -0.21797743503E+01  0.21797743503E+01  0.00000000000E+00 0.  1.
          2    1    1    2  501    0 -0.18719487636E+02  0.23696432234E+02  0.20071255891E+03  0.20297160250E+03  0.00000000000E+00 0. -1.
          1    1    1    2  502    0  0.18719487636E+02 -0.23696432234E+02  0.21602613401E+03  0.21812663912E+03  0.00000000000E+00 0.  1.
</event>
<event>
 4    1  0.3586324E+003  0.3337245E+02  0.7546771E-02  0.1392381E+00
          2   -1    0    0  502    0  0.00000000000E+00  0.00000000000E+00  0.64151599968E+03  0.64151599968E+03  0.00000000000E+00 0. -1.
          1   -1    0    0  501    0 -0.00000000000E+00 -0.00000000000E+00 -0.38228913034E+02  0.38228913034E+02  0.00000000000E+00 0. -1.
          2    1    1    2  501    0 -0.31479174184E+02  0.11080706152E+02  0.63370908389E+03  0.63458720714E+03  0.00000000000E+00 0. -1.
          1    1    1    2  502    0  0.31479174184E+02 -0.11080706152E+02 -0.30421997248E+02  0.45157705574E+02  0.00000000000E+00 0. -1.
</event>
<event>
 4    1  0.3586324E+003  0.2161907E+02  0.7546771E-02  0.1510607E+00
          2   -1    0    0  502    0  0.00000000000E+00  0.00000000000E+00  0.29310982499E+03  0.29310982499E+03  0.00000000000E+00 0. -1.
          1   -1    0    0  501    0 -0.00000000000E+00 -0.00000000000E+00 -0.29222912741E+01  0.29222912741E+01  0.00000000000E+00 0.  1.
          2    1    1    2  501    0 -0.12309991251E+02 -0.17772125827E+02  0.24486387084E+03  0.24581639405E+03  0.00000000000E+00 0. -1.
          1    1    1    2  502    0  0.12309991251E+02  0.17772125827E+02  0.45323662875E+02  0.50215722213E+02  0.00000000000E+00 0.  1.
</event>
<event>
 4    1  0.3586324E+003  0.2354317E+02  0.7546771E-02  0.1485788E+00
          2   -1    0    0  502    0  0.00000000000E+00  0.00000000000E+00  0.11548332984E+04  0.11548332984E+04  0.00000000000E+00 0.  1.
          1   -1    0    0  501    0 -0.00000000000E+00 -0.00000000000E+00 -0.24394924195E+03  0.24394924195E+03  0.00000000000E+00 0.  1.
          2    1    1    2  501    0  0.84601263701E+01  0.21970597713E+02  0.11541449392E+04  0.11543850404E+04  0.00000000000E+00 0.  1.
          1    1    1    2  502    0 -0.84601263701E+01 -0.21970597713E+02 -0.24326088273E+03  0.24439749992E+03  0.00000000000E+00 0.  1.
</event>
<event>
 4    1  0.3586324E+003  0.2254907E+02  0.7546771E-02  0.1498239E+00
          2   -1    0    0  502    0  0.00000000000E+00  0.00000000000E+00  0.51851411120E+00  0.51851411120E+00  0.00000000000E+00 0.  1.
          1   -1    0    0  501    0 -0.00000000000E+00 -0.00000000000E+00 -0.15400695031E+04  0.15400695031E+04  0.00000000000E+00 0.  1.
          2    1    1    2  501    0  0.19403906938E+02  0.11486902020E+02 -0.30550574442E+03  0.30633677611E+03  0.00000000000E+00 0.  1.
          1    1    1    2  502    0 -0.19403906938E+02 -0.11486902020E+02 -0.12340452446E+04  0.12342512411E+04  0.00000000000E+00 0.  1.
</event>
<event>
 4    1  0.3586324E+003  0.2420958E+02  0.7546771E-02  0.1477843E+00
          2   -1    0    0  502    0  0.00000000000E+00  0.00000000000E+00  0.47474841235E+03  0.47474841235E+03  0.00000000000E+00 0. -1.
          1   -1    0    0  501    0 -0.00000000000E+00 -0.00000000000E+00 -0.41601763489E+01  0.41601763489E+01  0.00000000000E+00 0. -1.
          2    1    1    2  501    0  0.67245215604E+01 -0.23256930051E+02  0.43609964766E+03  0.43677111474E+03  0.00000000000E+00 0. -1.
          1    1    1    2  502    0 -0.67245215604E+01  0.23256930051E+02  0.34488588345E+02  0.42137473959E+02  0.00000000000E+00 0. -1.
</event>
<event>
 4    1  0.3586324E+003  0.2328791E+02  0.7546771E-02  0.1488914E+00
          2   -1    0    0  502    0  0.00000000000E+00  0.00000000000E+00  0.16474724066E+02  0.16474724066E+02  0.00000000000E+00 0.  1.
          1   -1    0    0  501    0 -0.00000000000E+00 -0.00000000000E+00 -0.20390240127E+03  0.20390240127E+03  0.00000000000E+00 0. -1.
          2    1    1    2  501    0 -0.23282557613E+02  0.49918410642E+00  0.71888390880E+01  0.24372239971E+02  0.00000000000E+00 0.  1.
          1    1    1    2  502    0  0.23282557613E+02 -0.49918410642E+00 -0.19461651629E+03  0.19600488536E+03  0.00000000000E+00 0. -1.
</event>
<event>
 4    1  0.3586324E+003  0.2319147E+02  0.7546771E-02  0.1490108E+00
          2   -1    0    0  502    0  0.00000000000E+00  0.00000000000E+00  0.47667592137E+03  0.47667592137E+03  0.00000000000E+00 0.  1.
          1   -1    0    0  501    0 -0.00000000000E+00 -0.00000000000E+00 -0.96980006902E+01  0.96980006902E+01  0.00000000000E+00 0.  1.
          2    1    1    2  501    0  0.11099070898E+02 -0.20363078589E+02  0.46209169832E+03  0.46267329943E+03  0.00000000000E+00 0.  1.
          1    1    1    2  502    0 -0.11099070898E+02  0.20363078589E+02  0.48862223614E+01  0.23700622637E+02  0.00000000000E+00 0.  1.
</event>
<event>
 4    1  0.3586324E+003  0.2629708E+02  0.7546771E-02  0.1454800E+00
          2   -1    0    0  502    0  0.00000000000E+00  0.00000000000E+00  0.94123400047E+03  0.94123400047E+03  0.00000000000E+00 0.  1.
          1   -1    0    0  501    0 -0.00000000000E+00 -0.00000000000E+00 -0.35341658412E+02  0.35341658412E+02  0.00000000000E+00 0. -1.
          2    1    1    2  501    0  0.14169012401E+02 -0.22153453690E+02  0.93613187242E+03  0.93650115802E+03  0.00000000000E+00 0.  1.
          1    1    1    2  502    0 -0.14169012401E+02  0.22153453690E+02 -0.30239530359E+02  0.40074500859E+02  0.00000000000E+00 0. -1.
</event>
<event>
 4    1  0.3586324E+003  0.6126194E+02  0.7546771E-02  0.1255604E+00
          2   -1    0    0  502    0  0.00000000000E+00  0.00000000000E+00  0.39833152775E+04  0.39833152775E+04  0.00000000000E+00 0.  1.
          1   -1    0    0  501    0 -0.00000000000E+00 -0.00000000000E+00 -0.52490581912E+01  0.52490581912E+01  0.00000000000E+00 0. -1.
          2    1    1    2  501    0  0.59920833612E+02  0.12748315469E+02  0.37954869949E+04  0.37959813691E+04  0.00000000000E+00 0.  1.
          1    1    1    2  502    0 -0.59920833612E+02 -0.12748315469E+02  0.18257922440E+03  0.19258296662E+03  0.00000000000E+00 0. -1.
</event>
<event>
 4    1  0.3586324E+003  0.2330356E+02  0.7546771E-02  0.1488721E+00
          2   -1    0    0  502    0  0.00000000000E+00  0.00000000000E+00  0.86274319185E+02  0.86274319185E+02  0.00000000000E+00 0.  1.
          1   -1    0    0  501    0 -0.00000000000E+00 -0.00000000000E+00 -0.19206056039E+02  0.19206056039E+02  0.00000000000E+00 0.  1.
          2    1    1    2  501    0 -0.12859241411E+02  0.19434397218E+02  0.76776696012E+02  0.80235384560E+02  0.00000000000E+00 0.  1.
          1    1    1    2  502    0  0.12859241411E+02 -0.19434397218E+02 -0.97084328672E+01  0.25244990664E+02  0.00000000000E+00 0.  1.
</event>
<event>
 4    1  0.3586324E+003  0.2497335E+02  0.7546771E-02  0.1469102E+00
          2   -1    0    0  502    0  0.00000000000E+00  0.00000000000E+00  0.16174533424E+04  0.16174533424E+04  0.00000000000E+00 0.  1.
          1   -1    0    0  501    0 -0.00000000000E+00 -0.00000000000E+00 -0.34790647695E+01  0.34790647695E+01  0.00000000000E+00 0.  1.
          2    1    1    2  501    0 -0.23116889238E+02  0.94486963277E+01  0.15712225836E+04  0.15714210370E+04  0.00000000000E+00 0.  1.
          1    1    1    2  502    0  0.23116889238E+02 -0.94486963277E+01  0.42751694066E+02  0.49511370167E+02  0.00000000000E+00 0.  1.
</event>
<event>
 4    1  0.3586324E+003  0.2046934E+02  0.7546771E-02  0.1526978E+00
          2   -1    0    0  502    0  0.00000000000E+00  0.00000000000E+00  0.18149610556E+02  0.18149610556E+02  0.00000000000E+00 0.  1.
          1   -1    0    0  501    0 -0.00000000000E+00 -0.00000000000E+00 -0.23093599877E+02  0.23093599877E+02  0.00000000000E+00 0.  1.
          2    1    1    2  501    0 -0.13568291808E+02  0.15326275860E+02 -0.28576196714E+01  0.20667831636E+02  0.00000000000E+00 0.  1.
          1    1    1    2  502    0  0.13568291808E+02 -0.15326275860E+02 -0.20863696492E+01  0.20575378797E+02  0.00000000000E+00 0.  1.
</event>
<event>
 4    1  0.3586324E+003  0.2088100E+02  0.7546771E-02  0.1520971E+00
          2   -1    0    0  502    0  0.00000000000E+00  0.00000000000E+00  0.37903550575E+03  0.37903550575E+03  0.00000000000E+00 0. -1.
          1   -1    0    0  501    0 -0.00000000000E+00 -0.00000000000E+00 -0.11532009248E+01  0.11532009248E+01  0.00000000000E+00 0.  1.
          2    1    1    2  501    0  0.12102901673E+02 -0.17015745828E+02  0.17945602279E+03  0.18066676493E+03  0.00000000000E+00 0. -1.
          1    1    1    2  502    0 -0.12102901673E+02  0.17015745828E+02  0.19842628204E+03  0.19952194175E+03  0.00000000000E+00 0.  1.
</event>
<event>
 4    1  0.3586324E+003  0.3982745E+02  0.7546771E-02  0.1349500E+00
          2   -1    0    0  502    0  0.00000000000E+00  0.00000000000E+00  0.10467269279E+02  0.10467269279E+02  0.00000000000E+00 0.  1.
          1   -1    0    0  501    0 -0.00000000000E+00 -0.00000000000E+00 -0.32166323717E+03  0.32166323717E+03  0.00000000000E+00 0. -1.
          2    1    1    2  501    0  0.37981154492E+02 -0.11985724874E+02 -0.34828291279E+02  0.52907802550E+02  0.00000000000E+00 0.  1.
          1    1    1    2  502    0 -0.37981154492E+02  0.11985724874E+02 -0.27636767661E+03  0.27922270389E+03  0.00000000000E+00 0. -1.
</event>
<event>
 4    1  0.3586324E+003  0.2250784E+02  0.7546771E-02  0.1498772E+00
          2   -1    0    0  502    0  0.00000000000E+00  0.00000000000E+00  0.60871035352E+03  0.60871035352E+03  0.00000000000E+00 0. -1.
          1   -1    0    0  501    0 -0.00000000000E+00 -0.00000000000E+00 -0.12110491475E+03  0.12110491475E+03  0.00000000000E+00 0. -1.
          2    1    1    2  501    0  0.14355765123E+01  0.22462010329E+02  0.60745433472E+03  0.60787118007E+03  0.00000000000E+00 0. -1.
          1    1    1    2  502    0 -0.14355765123E+01 -0.22462010329E+02 -0.11984889595E+03  0.12194408820E+03  0.00000000000E+00 0. -1.
</event>
<event>
 4    1  0.3586324E+003  0.2872013E+02  0.7546771E-02  0.1431054E+00
          2   -1    0    0  502    0  0.00000000000E+00  0.00000000000E+00  0.87336068990E+03  0.87336068990E+03  0.00000000000E+00 0. -1.
          1   -1    0    0  501    0 -0.00000000000E+00 -0.00000000000E+00 -0.20407570887E+02  0.20407570887E+02  0.00000000000E+00 0.  1.
          2    1    1    2  501    0 -0.28704775450E+02 -0.93899907643E+00  0.86289742991E+03  0.86337524889E+03  0.00000000000E+00 0. -1.
          1    1    1    2  502    0  0.28704775450E+02  0.93899907643E+00 -0.99443108963E+01  0.30393011896E+02  0.00000000000E+00 0.  1.
</event>
<event>
 4    1  0.3586324E+003  0.2437963E+02  0.7546771E-02  0.1475864E+00
          2   -1    0    0  502    0  0.00000000000E+00  0.00000000000E+00  0.57866038433E+03  0.57866038433E+03  0.00000000000E+00 0. -1.
          1   -1    0    0  501    0 -0.00000000000E+00 -0.00000000000E+00 -0.67142179995E+02  0.67142179995E+02  0.00000000000E+00 0. -1.
          2    1    1    2  501    0 -0.21139769220E+02 -0.12143993281E+02  0.57618099106E+03  0.57669654141E+03  0.00000000000E+00 0. -1.
          1    1    1    2  502    0  0.21139769220E+02  0.12143993281E+02 -0.64662786727E+02  0.69106022913E+02  0.00000000000E+00 0. -1.
</event>
<event>
 4    1  0.3586324E+003  0.5188454E+02  0.7546771E-02  0.1290202E+00
          2   -1    0    0  502    0  0.00000000000E+00  0.00000000000E+00  0.61062897823E+01  0.61062897823E+01  0.00000000000E+00 0. -1.
          1   -1    0    0  501    0 -0.00000000000E+00 -0.00000000000E+00 -0.44947990948E+03  0.44947990948E+03  0.00000000000E+00 0. -1.
          2    1    1    2  501    0 -0.19565967486E+02 -0.48053885222E+02 -0.25323704092E+03  0.25849758580E+03  0.00000000000E+00 0. -1.
          1    1    1    2  502    0  0.19565967486E+02  0.48053885222E+02 -0.19013657878E+03  0.19708861347E+03  0.00000000000E+00 0. -1.
</event>
<event>
 4    1  0.3586324E+003  0.2603765E+02  0.7546771E-02  0.1457522E+00
          2   -1    0    0  502    0  0.00000000000E+00  0.00000000000E+00  0.47801893451E+01  0.47801893451E+01  0.00000000000E+00 0. -1.
          1   -1    0    0  501    0 -0.00000000000E+00 -0.00000000000E+00 -0.45785800597E+03  0.45785800597E+03  0.00000000000E+00 0.  1.
          2    1    1    2  501    0  0.25111061496E+02 -0.68843311263E+01 -0.34357664241E+02  0.43109262539E+02  0.00000000000E+00 0. -1.
          1    1    1    2  502    0 -0.25111061496E+02  0.68843311263E+01 -0.41872015238E+03  0.41952893277E+03  0.00000000000E+00 0.  1.
</event>
<event>
 4    1  0.3586324E+003  0.2569851E+02  0.7546771E-02  0.1461139E+00
          2   -1    0    0  502    0  0.00000000000E+00  0.00000000000E+00  0.38295641567E+02  0.38295641567E+02  0.00000000000E+00 0.  1.
          1   -1    0    0  501    0 -0.00000000000E+00 -0.00000000000E+00 -0.89111004359E+03  0.89111004359E+03  0.00000000000E+00 0.  1.
          2    1    1    2  501    0 -0.23566812282E+02  0.10247862391E+02  0.33777112833E+02  0.42441803402E+02  0.00000000000E+00 0.  1.
          1    1    1    2  502    0  0.23566812282E+02 -0.10247862391E+02 -0.88659151485E+03  0.88696388175E+03  0.00000000000E+00 0.  1.
</event>
<event>
 4    1  0.3586324E+003  0.2240692E+02  0.7546771E-02  0.1500083E+00
          2   -1    0    0  502    0  0.00000000000E+00  0.00000000000E+00  0.94231934266E+03  0.94231934266E+03  0.00000000000E+00 0.  1.
          1   -1    0    0  501    0 -0.00000000000E+00 -0.00000000000E+00 -0.12702537017E+01  0.12702537017E+01  0.00000000000E+00 0.  1.
          2    1    1    2  501    0 -0.11571384854E+02  0.19187837389E+02  0.83000441222E+03  0.83030680736E+03  0.00000000000E+00 0.  1.
          1    1    1    2  502    0  0.11571384854E+02 -0.19187837389E+02  0.11104467675E+03  0.11328278901E+03  0.00000000000E+00 0.  1.
</event>
<event>
 4    1  0.3586324E+003  0.2970472E+02  0.7546771E-02  0.1422180E+00
          2   -1    0    0  502    0  0.00000000000E+00  0.00000000000E+00  0.12319359316E+03  0.12319359316E+03  0.00000000000E+00 0. -1.
          1   -1    0    0  501    0 -0.00000000000E+00 -0.00000000000E+00 -0.82684934851E+01  0.82684934851E+01  0.00000000000E+00 0. -1.
          2    1    1    2  501    0 -0.20304212301E+02  0.21681988900E+02  0.33422205839E+02  0.44714802056E+02  0.00000000000E+00 0. -1.
          1    1    1    2  502    0  0.20304212301E+02 -0.21681988900E+02  0.81502893832E+02  0.86747284584E+02  0.00000000000E+00 0. -1.
</event>
<event>
 4    1  0.3586324E+003  0.5522524E+02  0.7546771E-02  0.1276979E+00
          2   -1    0    0  502    0  0.00000000000E+00  0.00000000000E+00  0.24803640866E+04  0.24803640866E+04  0.00000000000E+00 0.  1.
          1   -1    0    0  501    0 -0.00000000000E+00 -0.00000000000E+00 -0.12308748930E+03  0.12308748930E+03  0.00000000000E+00 0.  1.
          2    1    1    2  501    0 -0.25837099203E+02  0.48808523046E+02  0.24738459397E+04  0.24744622771E+04  0.00000000000E+00 0.  1.
          1    1    1    2  502    0  0.25837099203E+02 -0.48808523046E+02 -0.11656934237E+03  0.12898929878E+03  0.00000000000E+00 0.  1.
</event>
<event>
 4    1  0.3586324E+003  0.2233672E+02  0.7546771E-02  0.1500999E+00
          2   -1    0    0  502    0  0.00000000000E+00  0.00000000000E+00  0.92656752279E+03  0.92656752279E+03  0.00000000000E+00 0. -1.
          1   -1    0    0  501    0 -0.00000000000E+00 -0.00000000000E+00 -0.21709422060E+02  0.21709422060E+02  0.00000000000E+00 0. -1.
          2    1    1    2  501    0 -0.16307706206E+02  0.15263931114E+02  0.92065045001E+03  0.92092137557E+03  0.00000000000E+00 0. -1.
          1    1    1    2  502    0  0.16307706206E+02 -0.15263931114E+02 -0.15792349281E+02  0.27355569280E+02  0.00000000000E+00 0. -1.
</event>
<event>
 4    1  0.3586324E+003  0.2464620E+02  0.7546771E-02  0.1472800E+00
          2   -1    0    0  502    0  0.00000000000E+00  0.00000000000E+00  0.32104012619E+00  0.32104012619E+00  0.00000000000E+00 0.  1.
          1   -1    0    0  501    0 -0.00000000000E+00 -0.00000000000E+00 -0.20161463320E+04  0.20161463320E+04  0.00000000000E+00 0.  1.
          2    1    1    2  501    0 -0.23725219771E+02 -0.66744987909E+01 -0.75780924502E+03  0.75820992267E+03  0.00000000000E+00 0.  1.
          1    1    1    2  502    0  0.23725219771E+02  0.66744987909E+01 -0.12580160469E+04  0.12582574495E+04  0.00000000000E+00 0.  1.
</event>
<event>
 4    1  0.3586324E+003  0.2118561E+02  0.7546771E-02  0.1516631E+00
          2   -1    0    0  502    0  0.00000000000E+00  0.00000000000E+00  0.39614949218E+03  0.39614949218E+03  0.00000000000E+00 0.  1.
          1   -1    0    0  501    0 -0.00000000000E+00 -0.00000000000E+00 -0.29256462362E+01  0.29256462362E+01  0.00000000000E+00 0.  1.
          2    1    1    2  501    0 -0.21162325410E+02 -0.99300306025E+00  0.35280554702E+03  0.35344106168E+03  0.00000000000E+00 0.  1.
          1    1    1    2  502    0  0.21162325410E+02  0.99300306025E+00  0.40418298920E+02  0.45634076735E+02  0.00000000000E+00 0.  1.
</event>
<event>
 4    1  0.3586324E+003  0.2786376E+02  0.7546771E-02  0.1439119E+00
          2   -1    0    0  502    0  0.00000000000E+00  0.00000000000E+00  0.93207918040E+03  0.93207918040E+03  0.00000000000E+00 0. -1.
          1   -1    0    0  501    0 -0.00000000000E+00 -0.00000000000E+00 -0.10626367048E+01  0.10626367048E+01  0.00000000000E+00 0. -1.
          2    1    1    2  501    0 -0.14383737444E+02 -0.23864135617E+02  0.68241821794E+03  0.68298683226E+03  0.00000000000E+00 0. -1.
          1    1    1    2  502    0  0.14383737444E+02  0.23864135617E+02  0.24859832575E+03  0.25015498484E+03  0.00000000000E+00 0. -1.
</event>
<event>
 4    1  0.3586324E+003  0.2129658E+02  0.7546771E-02  0.1515072E+00
          2   -1    0    0  502    0  0.00000000000E+00  0.00000000000E+00  0.63835446104E+02  0.63835446104E+02  0.00000000000E+00 0.  1.
          1   -1    0    0  501    0 -0.00000000000E+00 -0.00000000000E+00 -0.82569384800E+03  0.82569384800E+03  0.00000000000E+00 0. -1.
          2    1    1    2  501    0 -0.20044048115E+01  0.21202041929E+02  0.61917765688E+02  0.65477888851E+02  0.00000000000E+00 0.  1.
          1    1    1    2  502    0  0.20044048115E+01 -0.21202041929E+02 -0.82377616758E+03  0.82405140525E+03  0.00000000000E+00 0. -1.
</event>
<event>
 4    1  0.3586324E+003  0.2154236E+02  0.7546771E-02  0.1511660E+00
          2   -1    0    0  502    0  0.00000000000E+00  0.00000000000E+00  0.21178417101E+04  0.21178417101E+04  0.00000000000E+00 0.  1.
          1   -1    0    0  501    0 -0.00000000000E+00 -0.00000000000E+00 -0.25137148814E+00  0.25137148814E+00  0.00000000000E+00 0.  1.
          2    1    1    2  501    0  0.21128379477E+01  0.21438485623E+02  0.67948361596E+03  0.67982501948E+03  0.00000000000E+00 0.  1.
          1    1    1    2  502    0 -0.21128379477E+01 -0.21438485623E+02  0.14381067226E+04  0.14382680621E+04  0.00000000000E+00 0.  1.
</event>
<event>
 4    1  0.3586324E+003  0.3222472E+02  0.7546771E-02  0.1401200E+00
          2   -1    0    0  502    0  0.00000000000E+00  0.00000000000E+00  0.12669409628E+04  0.12669409628E+04  0.00000000000E+00 0.  1.
          1   -1    0    0  501    0 -0.00000000000E+00 -0.00000000000E+00 -0.15775119347E+01  0.15775119347E+01  0.00000000000E+00 0.  1.
          2    1    1    2  501    0  0.24188874802E+02  0.21291565555E+02  0.10723033828E+04  0.10727874800E+04  0.00000000000E+00 0.  1.
          1    1    1    2  502    0 -0.24188874802E+02 -0.21291565555E+02  0.19306006805E+03  0.19573099474E+03  0.00000000000E+00 0.  1.
</event>
<event>
 4    1  0.3586324E+003  0.2663066E+02  0.7546771E-02  0.1451354E+00
          2   -1    0    0  502    0  0.00000000000E+00  0.00000000000E+00  0.17237790699E+02  0.17237790699E+02  0.00000000000E+00 0. -1.
          1   -1    0    0  501    0 -0.00000000000E+00 -0.00000000000E+00 -0.93173811550E+03  0.93173811550E+03  0.00000000000E+00 0.  1.
          2    1    1    2  501    0 -0.25280208769E+02  0.83727730224E+01  0.66438073875E+01  0.27446902559E+02  0.00000000000E+00 0. -1.
          1    1    1    2  502    0  0.25280208769E+02 -0.83727730224E+01 -0.92114413219E+03  0.92152900364E+03  0.00000000000E+00 0.  1.
</event>
<event>
 4    1  0.3586324E+003  0.5622936E+02  0.7546771E-02  0.1273212E+00
          2   -1    0    0  502    0  0.00000000000E+00  0.00000000000E+00  0.21716000926E+02  0.21716000926E+02  0.00000000000E+00 0.  1.
          1   -1    0    0  501    0 -0.00000000000E+00 -0.00000000000E+00 -0.34568695176E+03  0.34568695176E+03  0.00000000000E+00 0.  1.
          2    1    1    2  501    0  0.19401302483E+02 -0.52776226130E+02 -0.22224477826E+02  0.60462120349E+02  0.00000000000E+00 0.  1.
          1    1    1    2  502    0 -0.19401302483E+02  0.52776226130E+02 -0.30174647301E+03  0.30694083234E+03  0.00000000000E+00 0.  1.
</event>
<event>
 4    1  0.3586324E+003  0.2700398E+02  0.7546771E-02  0.1447568E+00
          2   -1    0    0  502    0  0.00000000000E+00  0.00000000000E+00  0.12178546528E+03  0.12178546528E+03  0.00000000000E+00 0.  1.
          1   -1    0    0  501    0 -0.00000000000E+00 -0.00000000000E+00 -0.55352345735E+03  0.55352345735E+03  0.00000000000E+00 0. -1.
          2    1    1    2  501    0  0.26226011666E+02  0.64351565909E+01  0.11995422287E+03  0.12295621380E+03  0.00000000000E+00 0.  1.
          1    1    1    2  502    0 -0.26226011666E+02 -0.64351565909E+01 -0.55169221493E+03  0.55235270883E+03  0.00000000000E+00 0. -1.
</event>
<event>
 4    1  0.3586324E+003  0.2762097E+02  0.7546771E-02  0.1441468E+00
          2   -1    0    0  502    0  0.00000000000E+00  0.00000000000E+00  0.70276748847E+02  0.70276748847E+02  0.00000000000E+00 0. -1.
          1   -1    0    0  501    0 -0.00000000000E+00 -0.00000000000E+00 -0.13768721840E+02  0.13768721840E+02  0.00000000000E+00 0. -1.
          2    1    1    2  501    0 -0.17105493711E+00  0.27620444265E+02  0.47582309659E+02  0.55018127864E+02  0.00000000000E+00 0. -1.
          1    1    1    2  502    0  0.17105493711E+00 -0.27620444265E+02  0.89257173479E+01  0.29027342823E+02  0.00000000000E+00 0. -1.
</event>
<event>
 4    1  0.3586324E+003  0.2026326E+02  0.7546771E-02  0.1530049E+00
          2   -1    0    0  502    0  0.00000000000E+00  0.00000000000E+00  0.86559915564E+02  0.86559915564E+02  0.00000000000E+00 0.  1.
          1   -1    0    0  501    0 -0.00000000000E+00 -0.00000000000E+00 -0.90738897483E+02  0.90738897483E+02  0.00000000000E+00 0.  1.
          2    1    1    2  501    0 -0.21865920350E+01 -0.20144937957E+02  0.84211663889E+02  0.86615264504E+02  0.00000000000E+00 0.  1.
          1    1    1    2  502    0  0.21865920350E+01  0.20144937957E+02 -0.88390645809E+02  0.90683548544E+02  0.00000000000E+00 0.  1.
</event>
<event>
 4    1  0.3586324E+003  0.2156706E+02  0.7546771E-02  0.1511321E+00
          2   -1    0    0  502    0  0.00000000000E+00  0.00000000000E+00  0.61721506221E+03  0.61721506221E+03  0.00000000000E+00 0.  1.
          1   -1    0    0  501    0 -0.00000000000E+00 -0.00000000000E+00 -0.33096508571E+02  0.33096508571E+02  0.00000000000E+00 0.  1.
          2    1    1    2  501    0  0.60335737732E+01  0.20705897240E+02  0.61349184479E+03  0.61387081851E+03  0.00000000000E+00 0.  1.
          1    1    1    2  502    0 -0.60335737732E+01 -0.20705897240E+02 -0.29373291151E+02  0.36440752271E+02  0.00000000000E+00 0.  1.
</event>
<event>
 4    1  0.3586324E+003  0.3276197E+02  0.7546771E-02  0.1397019E+00
          2   -1    0    0  502    0  0.00000000000E+00  0.00000000000E+00  0.46112974736E+02  0.46112974736E+02  0.00000000000E+00 0. -1.
          1   -1    0    0  501    0 -0.00000000000E+00 -0.00000000000E+00 -0.39544459899E+03  0.39544459899E+03  0.00000000000E+00 0. -1.
          2    1    1    2  501    0  0.20240788103E+02  0.25761543512E+02  0.39516753349E+02  0.51331475943E+02  0.00000000000E+00 0. -1.
          1    1    1    2  502    0 -0.20240788103E+02 -0.25761543512E+02 -0.38884837761E+03  0.39022609779E+03  0.00000000000E+00 0. -1.
</event>
<event>
 4    1  0.3586324E+003  0.2665569E+02  0.7546771E-02  0.1451098E+00
          2   -1    0    0  502    0  0.00000000000E+00  0.00000000000E+00  0.48386860603E+03  0.48386860603E+03  0.00000000000E+00 0.  1.
          1   -1    0    0  501    0 -0.00000000000E+00 -0.00000000000E+00 -0.16400375547E+01  0.16400375547E+01  0.00000000000E+00 0.  1.
          2    1    1    2  501    0  0.14932453929E+02 -0.22080477084E+02  0.31964006674E+03  0.32074958755E+03  0.00000000000E+00 0.  1.
          1    1    1    2  502    0 -0.14932453929E+02  0.22080477084E+02  0.16258850174E+03  0.16475905604E+03  0.00000000000E+00 0.  1.
</event>
<event>
 4    1  0.3586324E+003  0.2057416E+02  0.7546771E-02  0.1525432E+00
          2   -1    0    0  502    0  0.00000000000E+00  0.00000000000E+00  0.87389995806E+00  0.87389995806E+00  0.00000000000E+00 0. -1.
          1   -1    0    0  501    0 -0.00000000000E+00 -0.00000000000E+00 -0.14726116598E+04  0.14726116598E+04  0.00000000000E+00 0.  1.
          2    1    1    2  501    0  0.72054723620E+01 -0.19271151132E+02 -0.13233445237E+03  0.13392424493E+03  0.00000000000E+00 0. -1.
          1    1    1    2  502    0 -0.72054723620E+01  0.19271151132E+02 -0.13394033075E+04  0.13395613148E+04  0.00000000000E+00 0.  1.
</event>
<event>
 4    1  0.3586324E+003  0.2639780E+02  0.7546771E-02  0.1453753E+00
          2   -1    0    0  502    0  0.00000000000E+00  0.00000000000E+00  0.25962933636E+03  0.25962933636E+03  0.00000000000E+00 0. -1.
          1   -1    0    0  501    0 -0.00000000000E+00 -0.00000000000E+00 -0.87193988779E+01  0.87193988779E+01  0.00000000000E+00 0. -1.
          2    1    1    2  501    0  0.20875822130E+02  0.16156855532E+02  0.23708458730E+03  0.23854967086E+03  0.00000000000E+00 0. -1.
          1    1    1    2  502    0 -0.20875822130E+02 -0.16156855532E+02  0.13825350179E+02  0.29799064379E+02  0.00000000000E+00 0. -1.
</event>
<event>
 4    1  0.3586324E+003  0.5135586E+02  0.7546771E-02  0.1292399E+00
          2   -1    0    0  502    0  0.00000000000E+00  0.00000000000E+00  0.20859154908E+02  0.20859154908E+02  0.00000000000E+00 0. -1.
          1   -1    0    0  501    0 -0.00000000000E+00 -0.00000000000E+00 -0.12285010633E+04  0.12285010633E+04  0.00000000000E+00 0. -1.
          2    1    1    2  501    0 -0.36586275674E+02 -0.36039818158E+02 -0.12160136793E+02  0.52775875051E+02  0.00000000000E+00 0. -1.
          1    1    1    2  502    0  0.36586275674E+02  0.36039818158E+02 -0.11954817716E+04  0.11965843432E+04  0.00000000000E+00 0. -1.
</event>
<event>
 4    1  0.3586324E+003  0.2080295E+02  0.7546771E-02  0.1522097E+00
          2   -1    0    0  502    0  0.00000000000E+00  0.00000000000E+00  0.13942387616E+02  0.13942387616E+02  0.00000000000E+00 0. -1.
          1   -1    0    0  501    0 -0.00000000000E+00 -0.00000000000E+00 -0.31649381668E+03  0.31649381668E+03  0.00000000000E+00 0. -1.
          2    1    1    2  501    0  0.10037928107E+02 -0.18220943229E+02  0.56316865547E+01  0.21551767127E+02  0.00000000000E+00 0. -1.
          1    1    1    2  502    0 -0.10037928107E+02  0.18220943229E+02 -0.30818311562E+03  0.30888443717E+03  0.00000000000E+00 0. -1.
</event>
<event>
 4    1  0.3586324E+003  0.2744779E+02  0.7546771E-02  0.1443161E+00
          2   -1    0    0  502    0  0.00000000000E+00  0.00000000000E+00  0.13107946329E+03  0.13107946329E+03  0.00000000000E+00 0. -1.
          1   -1    0    0  501    0 -0.00000000000E+00 -0.00000000000E+00 -0.18723406799E+02  0.18723406799E+02  0.00000000000E+00 0. -1.
          2    1    1    2  501    0  0.10365118445E+02 -0.25415461414E+02  0.11853231084E+03  0.12166877197E+03  0.00000000000E+00 0. -1.
          1    1    1    2  502    0 -0.10365118445E+02  0.25415461414E+02 -0.61762543489E+01  0.28134098120E+02  0.00000000000E+00 0. -1.
</event>
<event>
 4    1  0.3586324E+003  0.2568963E+02  0.7546771E-02  0.1461234E+00
          2   -1    0    0  502    0  0.00000000000E+00  0.00000000000E+00  0.19342088353E+04  0.19342088353E+04  0.00000000000E+00 0.  1.
          1   -1    0    0  501    0 -0.00000000000E+00 -0.00000000000E+00 -0.35301807830E+00  0.35301807830E+00  0.00000000000E+00 0.  1.
          2    1    1    2  501    0 -0.48887045991E+01  0.25220187654E+02  0.11438889915E+04  0.11441774260E+04  0.00000000000E+00 0.  1.
          1    1    1    2  502    0  0.48887045991E+01 -0.25220187654E+02  0.78996682573E+03  0.79038442738E+03  0.00000000000E+00 0.  1.
</event>
<event>
 4    1  0.3586324E+003  0.2250016E+02  0.7546771E-02  0.1498872E+00
          2   -1    0    0  502    0  0.00000000000E+00  0.00000000000E+00  0.17261809588E+02  0.17261809588E+02  0.00000000000E+00 0.  1.
          1   -1    0    0  501    0 -0.00000000000E+00 -0.00000000000E+00 -0.45159833428E+03  0.45159833428E+03  0.00000000000E+00 0.  1.
          2    1    1    2  501    0  0.11076692097E+02 -0.19584788080E+02  0.95217370477E+01  0.24431956704E+02  0.00000000000E+00 0.  1.
          1    1    1    2  502    0 -0.11076692097E+02  0.19584788080E+02 -0.44385826174E+03  0.44442818717E+03  0.00000000000E+00 0.  1.
</event>
<event>
 4    1  0.3586324E+003  0.2052695E+02  0.7546771E-02  0.1526127E+00
          2   -1    0    0  502    0  0.00000000000E+00  0.00000000000E+00  0.28998787146E+02  0.28998787146E+02  0.00000000000E+00 0.  1.
          1   -1    0    0  501    0 -0.00000000000E+00 -0.00000000000E+00 -0.92248228229E+02  0.92248228229E+02  0.00000000000E+00 0.  1.
          2    1    1    2  501    0 -0.20275398217E+02 -0.32037641266E+01  0.24019895841E+02  0.31596064212E+02  0.00000000000E+00 0.  1.
          1    1    1    2  502    0  0.20275398217E+02  0.32037641266E+01 -0.87269336924E+02  0.89650951164E+02  0.00000000000E+00 0.  1.
</event>
<event>
 4    1  0.3586324E+003  0.5413694E+02  0.7546771E-02  0.1281168E+00
          2   -1    0    0  502    0  0.00000000000E+00  0.00000000000E+00  0.37482641495E+02  0.37482641495E+02  0.00000000000E+00 0. -1.
          1   -1    0    0  501    0 -0.00000000000E+00 -0.00000000000E+00 -0.73776106442E+03  0.73776106442E+03  0.00000000000E+00 0. -1.
          2    1    1    2  501    0 -0.52802064106E+02 -0.11947824469E+02  0.16366567663E+02  0.56556812326E+02  0.00000000000E+00 0. -1.
          1    1    1    2  502    0  0.52802064106E+02  0.11947824469E+02 -0.71664499059E+03  0.71868689359E+03  0.00000000000E+00 0. -1.
</event>
<event>
 4    1  0.3586324E+003  0.3667830E+02  0.7546771E-02  0.1369133E+00
          2   -1    0    0  502    0  0.00000000000E+00  0.00000000000E+00  0.16574244607E+02  0.16574244607E+02  0.00000000000E+00 0. -1.
          1   -1    0    0  501    0 -0.00000000000E+00 -0.00000000000E+00 -0.18721853860E+03  0.18721853860E+03  0.00000000000E+00 0.  1.
          2    1    1    2  501    0  0.16474241292E+02 -0.32770367125E+02 -0.86317642961E+01  0.37680299130E+02  0.00000000000E+00 0. -1.
          1    1    1    2  502    0 -0.16474241292E+02  0.32770367125E+02 -0.16201252969E+03  0.16611248408E+03  0.00000000000E+00 0.  1.
</event>
<event>
 4    1  0.3586324E+003  0.1289100E+03  0.7546771E-02  0.1121434E+00
          2   -1    0    0  502    0  0.00000000000E+00  0.00000000000E+00  0.13887337251E+04  0.13887337251E+04  0.00000000000E+00 0. -1.
          1   -1    0    0  501    0 -0.00000000000E+00 -0.00000000000E+00 -0.45953868549E+02  0.45953868549E+02  0.00000000000E+00 0.  1.
          2    1    1    2  501    0  0.31179599005E+02  0.12508243113E+03  0.12883078399E+04  0.12947412376E+04  0.00000000000E+00 0. -1.
          1    1    1    2  502    0 -0.31179599005E+02 -0.12508243113E+03  0.54472016631E+02  0.13994635604E+03  0.00000000000E+00 0.  1.
</event>
<event>
 4    1  0.3586324E+003  0.2075501E+02  0.7546771E-02  0.1522792E+00
          2   -1    0    0  502    0  0.00000000000E+00  0.00000000000E+00  0.15177630027E+04  0.15177630027E+04  0.00000000000E+00 0.  1.
          1   -1    0    0  501    0 -0.00000000000E+00 -0.00000000000E+00 -0.24600391196E+02  0.24600391196E+02  0.00000000000E+00 0.  1.
          2    1    1    2  501    0  0.18920395121E+02  0.85316542038E+01  0.15133014630E+04  0.15134437844E+04  0.00000000000E+00 0.  1.
          1    1    1    2  502    0 -0.18920395121E+02 -0.85316542038E+01 -0.20138851513E+02  0.28919609528E+02  0.00000000000E+00 0.  1.
</event>
<event>
 4    1  0.3586324E+003  0.3131613E+02  0.7546771E-02  0.1408494E+00
          2   -1    0    0  502    0  0.00000000000E+00  0.00000000000E+00  0.22624399267E+04  0.22624399267E+04  0.00000000000E+00 0. -1.
          1   -1    0    0  501    0 -0.00000000000E+00 -0.00000000000E+00 -0.43937616758E+01  0.43937616758E+01  0.00000000000E+00 0.  1.
          2    1    1    2  501    0  0.56830132698E+00  0.31310968390E+02  0.22050794058E+04  0.22053017675E+04  0.00000000000E+00 0. -1.
          1    1    1    2  502    0 -0.56830132698E+00 -0.31310968390E+02  0.52966759214E+02  0.61531920899E+02  0.00000000000E+00 0.  1.
</event>
<event>
 4    1  0.3586324E+003  0.2669322E+02  0.7546771E-02  0.1450714E+00
          2   -1    0    0  502    0  0.00000000000E+00  0.00000000000E+00  0.64329355758E+03  0.64329355758E+03  0.00000000000E+00 0.  1.
          1   -1    0    0  501    0 -0.00000000000E+00 -0.00000000000E+00 -0.60267496153E+01  0.60267496153E+01  0.00000000000E+00 0.  1.
          2    1    1    2  501    0 -0.26380144432E+02 -0.40762398820E+01  0.61194642739E+03  0.61252833220E+03  0.00000000000E+00 0.  1.
          1    1    1    2  502    0  0.26380144432E+02  0.40762398820E+01  0.25320380583E+02  0.36791975004E+02  0.00000000000E+00 0.  1.
</event>
<event>
 4    1  0.3586324E+003  0.2189014E+02  0.7546771E-02  0.1506926E+00
          2   -1    0    0  502    0  0.00000000000E+00  0.00000000000E+00  0.97500910724E+02  0.97500910724E+02  0.00000000000E+00 0. -1.
          1   -1    0    0  501    0 -0.00000000000E+00 -0.00000000000E+00 -0.72319840078E+02  0.72319840078E+02  0.00000000000E+00 0.  1.
          2    1    1    2  501    0 -0.21519735801E+02 -0.40098675859E+01  0.94565050979E+02  0.97065580581E+02  0.00000000000E+00 0. -1.
          1    1    1    2  502    0  0.21519735801E+02  0.40098675859E+01 -0.69383980332E+02  0.72755170220E+02  0.00000000000E+00 0.  1.
</event>
<event>
 4    1  0.3586324E+003  0.2571493E+02  0.7546771E-02  0.1460962E+00
          2   -1    0    0  502    0  0.00000000000E+00  0.00000000000E+00  0.63347122984E+03  0.63347122984E+03  0.00000000000E+00 0. -1.
          1   -1    0    0  501    0 -0.00000000000E+00 -0.00000000000E+00 -0.92249386664E+02  0.92249386664E+02  0.00000000000E+00 0.  1.
          2    1    1    2  501    0 -0.12964119151E+02  0.22207864216E+02  0.63141238507E+03  0.63193580183E+03  0.00000000000E+00 0. -1.
          1    1    1    2  502    0  0.12964119151E+02 -0.22207864216E+02 -0.90190541886E+02  0.93784814678E+02  0.00000000000E+00 0.  1.
</event>
<event>
 4    1  0.3586324E+003  0.2495921E+02  0.7546771E-02  0.1469260E+00
          2   -1    0    0  502    0  0.00000000000E+00  0.00000000000E+00  0.13962421784E+02  0.13962421784E+02  0.00000000000E+00 0. -1.
          1   -1    0    0  501    0 -0.00000000000E+00 -0.00000000000E+00 -0.15137229831E+03  0.15137229831E+03  0.00000000000E+00 0.  1.
          2    1    1    2  501    0  0.14489379654E+02  0.20322891749E+02  0.71839895795E+00  0.24969544427E+02  0.00000000000E+00 0. -1.
          1    1    1    2  502    0 -0.14489379654E+02 -0.20322891749E+02 -0.13812827548E+03  0.14036517567E+03  0.00000000000E+00 0.  1.
</event>
<event>
 4    1  0.3586324E+003  0.3446848E+02  0.7546771E-02  0.1384339E+00
          2   -1    0    0  502    0  0.00000000000E+00  0.00000000000E+00  0.88715326978E+02  0.88715326978E+02  0.00000000000E+00 0. -1.
          1   -1    0    0  501    0 -0.00000000000E+00 -0.00000000000E+00 -0.87523673951E+02  0.87523673951E+02  0.00000000000E+00 0.  1.
          2    1    1    2  501    0 -0.18179284034E+02  0.29284629887E+02  0.81694014696E+02  0.88667851856E+02  0.00000000000E+00 0. -1.
          1    1    1    2  502    0  0.18179284034E+02 -0.29284629887E+02 -0.80502361669E+02  0.87571149072E+02  0.00000000000E+00 0.  1.
</event>
<event>
 4    1  0.3586324E+003  0.2351898E+02  0.7546771E-02  0.1486082E+00
          2   -1    0    0  502    0  0.00000000000E+00  0.00000000000E+00  0.35161690402E+02  0.35161690402E+02  0.00000000000E+00 0. -1.
          1   -1    0    0  501    0 -0.00000000000E+00 -0.00000000000E+00 -0.17484001546E+03  0.17484001546E+03  0.00000000000E+00 0.  1.
          2    1    1    2  501    0  0.48996229186E+01  0.23002955127E+02  0.30326593038E+02  0.38377656190E+02  0.00000000000E+00 0. -1.
          1    1    1    2  502    0 -0.48996229186E+01 -0.23002955127E+02 -0.17000491809E+03  0.17162404967E+03  0.00000000000E+00 0.  1.
</event>
<event>
 4    1  0.6344590E+003  0.2337652E+02  0.7546771E-02  0.1487824E+00
          2   -1    0    0  502    0  0.00000000000E+00  0.00000000000E+00  0.13180640280E+04  0.13180640280E+04  0.00000000000E+00 0. -1.
          1   -1    0    0  501    0 -0.00000000000E+00 -0.00000000000E+00 -0.88112971818E+03  0.88112971818E+03  0.00000000000E+00 0. -1.
          2    1    1    2  501    0 -0.20402558140E+02 -0.11410403612E+02  0.13178053033E+04  0.13180126248E+04  0.00000000000E+00 0. -1.
          1    1    1    2  502    0  0.20402558140E+02  0.11410403612E+02 -0.88087099344E+03  0.88118112143E+03  0.00000000000E+00 0. -1.
</event>
<event>
 4    1  0.3586324E+003  0.2043434E+02  0.7546771E-02  0.1527496E+00
          2   -1    0    0  502    0  0.00000000000E+00  0.00000000000E+00  0.76273604200E+01  0.76273604200E+01  0.00000000000E+00 0. -1.
          1   -1    0    0  501    0 -0.00000000000E+00 -0.00000000000E+00 -0.30250597446E+03  0.30250597446E+03  0.00000000000E+00 0.  1.
          2    1    1    2  501    0  0.58823441473E+01 -0.19569372144E+02 -0.71037755407E+01  0.21633906853E+02  0.00000000000E+00 0. -1.
          1    1    1    2  502    0 -0.58823441473E+01  0.19569372144E+02 -0.28777483850E+03  0.28849942803E+03  0.00000000000E+00 0.  1.
</event>
<event>
 4    1  0.3586324E+003  0.3065047E+02  0.7546771E-02  0.1414026E+00
          2   -1    0    0  502    0  0.00000000000E+00  0.00000000000E+00  0.46407744285E+03  0.46407744285E+03  0.00000000000E+00 0. -1.
          1   -1    0    0  501    0 -0.00000000000E+00 -0.00000000000E+00 -0.47258108730E+01  0.47258108730E+01  0.00000000000E+00 0.  1.
          2    1    1    2  501    0 -0.25132126412E+02 -0.17545008782E+02  0.40689980074E+03  0.40805256886E+03  0.00000000000E+00 0. -1.
          1    1    1    2  502    0  0.25132126412E+02  0.17545008782E+02  0.52451831236E+02  0.60750684862E+02  0.00000000000E+00 0.  1.
</event>
<event>
 4    1  0.3586324E+003  0.2093330E+02  0.7546771E-02  0.1520219E+00
          2   -1    0    0  502    0  0.00000000000E+00  0.00000000000E+00  0.13192671674E+03  0.13192671674E+03  0.00000000000E+00 0.  1.
          1   -1    0    0  501    0 -0.00000000000E+00 -0.00000000000E+00 -0.10128656456E+03  0.10128656456E+03  0.00000000000E+00 0.  1.
          2    1    1    2  501    0 -0.19873625636E+02 -0.65758552125E+01  0.12999879659E+03  0.13167342170E+03  0.00000000000E+00 0.  1.
          1    1    1    2  502    0  0.19873625636E+02  0.65758552125E+01 -0.99358644410E+02  0.10153985960E+03  0.00000000000E+00 0.  1.
</event>
<event>
 4    1  0.3586324E+003  0.3186650E+02  0.7546771E-02  0.1404041E+00
          2   -1    0    0  502    0  0.00000000000E+00  0.00000000000E+00  0.40042298841E+01  0.40042298841E+01  0.00000000000E+00 0. -1.
          1   -1    0    0  501    0 -0.00000000000E+00 -0.00000000000E+00 -0.68172784675E+03  0.68172784675E+03  0.00000000000E+00 0. -1.
          2    1    1    2  501    0  0.29961506335E+02 -0.10852743456E+02 -0.67151861202E+02  0.74329310270E+02  0.00000000000E+00 0. -1.
          1    1    1    2  502    0 -0.29961506335E+02  0.10852743456E+02 -0.61057175567E+03  0.61140276637E+03  0.00000000000E+00 0. -1.
</event>
<event>
 4    1  0.3586324E+003  0.2172981E+02  0.7546771E-02  0.1509095E+00
          2   -1    0    0  502    0  0.00000000000E+00  0.00000000000E+00  0.17108523525E+03  0.17108523525E+03  0.00000000000E+00 0. -1.
          1   -1    0    0  501    0 -0.00000000000E+00 -0.00000000000E+00 -0.27006173471E+02  0.27006173471E+02  0.00000000000E+00 0. -1.
          2    1    1    2  501    0 -0.98333497600E+01  0.19377566119E+02  0.16588780007E+03  0.16730495225E+03  0.00000000000E+00 0. -1.
          1    1    1    2  502    0  0.98333497600E+01 -0.19377566119E+02 -0.21808738289E+02  0.30786456470E+02  0.00000000000E+00 0. -1.
</event>
<event>
 4    1  0.3586324E+003  0.2377038E+02  0.7546771E-02  0.1483045E+00
          2   -1    0    0  502    0  0.00000000000E+00  0.00000000000E+00  0.36616123967E+02  0.36616123967E+02  0.00000000000E+00 0.  1.
          1   -1    0    0  501    0 -0.00000000000E+00 -0.00000000000E+00 -0.48169472990E+02  0.48169472990E+02  0.00000000000E+00 0.  1.
          2    1    1    2  501    0 -0.65401090240E+01 -0.22852959764E+02  0.29172265680E+02  0.37630464798E+02  0.00000000000E+00 0.  1.
          1    1    1    2  502    0  0.65401090240E+01  0.22852959764E+02 -0.40725614704E+02  0.47155132160E+02  0.00000000000E+00 0.  1.
</event>
<event>
 4    1  0.3586324E+003  0.2294784E+02  0.7546771E-02  0.1493154E+00
          2   -1    0    0  502    0  0.00000000000E+00  0.00000000000E+00  0.17513856344E+03  0.17513856344E+03  0.00000000000E+00 0. -1.
          1   -1    0    0  501    0 -0.00000000000E+00 -0.00000000000E+00 -0.10176832265E+03  0.10176832265E+03  0.00000000000E+00 0. -1.
          2    1    1    2  501    0  0.53904871964E+01  0.22305743596E+02  0.17307789969E+03  0.17459256259E+03  0.00000000000E+00 0. -1.
          1    1    1    2  502    0 -0.53904871964E+01 -0.22305743596E+02 -0.99707658903E+02  0.10231432350E+03  0.00000000000E+00 0. -1.
</event>
<event>
 4    1  0.3586324E+003  0.2295432E+02  0.7546771E-02  0.1493072E+00
          2   -1    0    0  502    0  0.00000000000E+00  0.00000000000E+00  0.12321353144E+04  0.12321353144E+04  0.00000000000E+00 0.  1.
          1   -1    0    0  501    0 -0.00000000000E+00 -0.00000000000E+00 -0.54454691221E+01  0.54454691221E+01  0.00000000000E+00 0.  1.
          2    1    1    2  501    0 -0.94745901223E+00 -0.22934762370E+02  0.12073418161E+04  0.12075600034E+04  0.00000000000E+00 0.  1.
          1    1    1    2  502    0  0.94745901223E+00  0.22934762370E+02  0.19348029172E+02  0.30020780076E+02  0.00000000000E+00 0.  1.
</event>
<event>
 4    1  0.3586324E+003  0.2452167E+02  0.7546771E-02  0.1474226E+00
          2   -1    0    0  502    0  0.00000000000E+00  0.00000000000E+00  0.42956705438E+03  0.42956705438E+03  0.00000000000E+00 0. -1.
          1   -1    0    0  501    0 -0.00000000000E+00 -0.00000000000E+00 -0.47848585778E+03  0.47848585778E+03  0.00000000000E+00 0.  1.
          2    1    1    2  501    0  0.13307002701E+02 -0.20596985266E+02  0.42890244107E+03  0.42960285855E+03  0.00000000000E+00 0. -1.
          1    1    1    2  502    0 -0.13307002701E+02  0.20596985266E+02 -0.47782124447E+03  0.47845005360E+03  0.00000000000E+00 0.  1.
</event>
<event>
 4    1  0.3586324E+003  0.2701995E+02  0.7546771E-02  0.1447408E+00
          2   -1    0    0  502    0  0.00000000000E+00  0.00000000000E+00  0.88531113880E+01  0.88531113880E+01  0.00000000000E+00 0.  1.
          1   -1    0    0  501    0 -0.00000000000E+00 -0.00000000000E+00 -0.19493464768E+03  0.19493464768E+03  0.00000000000E+00 0.  1.
          2    1    1    2  501    0 -0.27019299374E+02  0.18723824726E+00 -0.15644505616E+02  0.31222238113E+02  0.00000000000E+00 0.  1.
          1    1    1    2  502    0  0.27019299374E+02 -0.18723824726E+00 -0.17043703068E+03  0.17256552096E+03  0.00000000000E+00 0.  1.
</event>
<event>
 4    1  0.3586324E+003  0.2499898E+02  0.7546771E-02  0.1468815E+00
          2   -1    0    0  502    0  0.00000000000E+00  0.00000000000E+00  0.22361929057E+02  0.22361929057E+02  0.00000000000E+00 0.  1.
          1   -1    0    0  501    0 -0.00000000000E+00 -0.00000000000E+00 -0.40780288716E+02  0.40780288716E+02  0.00000000000E+00 0.  1.
          2    1    1    2  501    0 -0.60218876512E+01 -0.24262852505E+02  0.85014267142E+01  0.26404988141E+02  0.00000000000E+00 0.  1.
          1    1    1    2  502    0  0.60218876512E+01  0.24262852505E+02 -0.26919786374E+02  0.36737229632E+02  0.00000000000E+00 0.  1.
</event>
<event>
 4    1  0.3586324E+003  0.2147197E+02  0.7546771E-02  0.1512632E+00
          2   -1    0    0  502    0  0.00000000000E+00  0.00000000000E+00  0.55886760894E+03  0.55886760894E+03  0.00000000000E+00 0. -1.
          1   -1    0    0  501    0 -0.00000000000E+00 -0.00000000000E+00 -0.42839856130E+01  0.42839856130E+01  0.00000000000E+00 0. -1.
          2    1    1    2  501    0  0.45545840736E+01  0.20983360363E+02  0.53030779652E+03  0.53074231478E+03  0.00000000000E+00 0. -1.
          1    1    1    2  502    0 -0.45545840736E+01 -0.20983360363E+02  0.24275826806E+02  0.32409279772E+02  0.00000000000E+00 0. -1.
</event>
<event>
 4    1  0.3586324E+003  0.2332763E+02  0.7546771E-02  0.1488425E+00
          2   -1    0    0  502    0  0.00000000000E+00  0.00000000000E+00  0.77130750285E+01  0.77130750285E+01  0.00000000000E+00 0. -1.
          1   -1    0    0  501    0 -0.00000000000E+00 -0.00000000000E+00 -0.26760142284E+03  0.26760142284E+03  0.00000000000E+00 0. -1.
          2    1    1    2  501    0  0.68382456925E+01 -0.22302837142E+02 -0.11819205285E+02  0.26150941901E+02  0.00000000000E+00 0. -1.
          1    1    1    2  502    0 -0.68382456925E+01  0.22302837142E+02 -0.24806914253E+03  0.24916355597E+03  0.00000000000E+00 0. -1.
</event>
<event>
 4    1  0.3586324E+003  0.3517276E+02  0.7546771E-02  0.1379353E+00
          2   -1    0    0  502    0  0.00000000000E+00  0.00000000000E+00  0.23666320517E+04  0.23666320517E+04  0.00000000000E+00 0.  1.
          1   -1    0    0  501    0 -0.00000000000E+00 -0.00000000000E+00 -0.56106534481E+00  0.56106534481E+00  0.00000000000E+00 0.  1.
          2    1    1    2  501    0  0.37843604385E+01  0.34968579907E+02  0.14923958089E+04  0.14928102269E+04  0.00000000000E+00 0.  1.
          1    1    1    2  502    0 -0.37843604385E+01 -0.34968579907E+02  0.87367517740E+03  0.87438289014E+03  0.00000000000E+00 0.  1.
</event>
<event>
 4    1  0.3586324E+003  0.2505567E+02  0.7546771E-02  0.1468182E+00
          2   -1    0    0  502    0  0.00000000000E+00  0.00000000000E+00  0.62795916798E+01  0.62795916798E+01  0.00000000000E+00 0.  1.
          1   -1    0    0  501    0 -0.00000000000E+00 -0.00000000000E+00 -0.46850013085E+03  0.46850013085E+03  0.00000000000E+00 0. -1.
          2    1    1    2  501    0 -0.25051267791E+02  0.46969533351E+00 -0.20566535202E+02  0.32415567276E+02  0.00000000000E+00 0.  1.
          1    1    1    2  502    0  0.25051267791E+02 -0.46969533351E+00 -0.44165400397E+03  0.44236415525E+03  0.00000000000E+00 0. -1.
</event>
<event>
 4    1  0.3586324E+003  0.2218745E+02  0.7546771E-02  0.1502961E+00
          2   -1    0    0  502    0  0.00000000000E+00  0.00000000000E+00  0.95328088800E+03  0.95328088800E+03  0.00000000000E+00 0. -1.
          1   -1    0    0  501    0 -0.00000000000E+00 -0.00000000000E+00 -0.15037214058E+02  0.15037214058E+02  0.00000000000E+00 0. -1.
          2    1    1    2  501    0  0.66189475738E+01  0.21177170690E+02  0.94489474523E+03  0.94515520555E+03  0.00000000000E+00 0. -1.
          1    1    1    2  502    0 -0.66189475738E+01 -0.21177170690E+02 -0.66510712823E+01  0.23162896508E+02  0.00000000000E+00 0. -1.
</event>
<event>
 4    1  0.3586324E+003  0.2343978E+02  0.7546771E-02  0.1487048E+00
          2   -1    0    0  502    0  0.00000000000E+00  0.00000000000E+00  0.58968391973E+03  0.58968391973E+03  0.00000000000E+00 0. -1.
          1   -1    0    0  501    0 -0.00000000000E+00 -0.00000000000E+00 -0.23796210606E+01  0.23796210606E+01  0.00000000000E+00 0.  1.
          2    1    1    2  501    0  0.14736042344E+02  0.18228336357E+02  0.52456767241E+03  0.52509110269E+03  0.00000000000E+00 0. -1.
          1    1    1    2  502    0 -0.14736042344E+02 -0.18228336357E+02  0.62736626267E+02  0.66972438104E+02  0.00000000000E+00 0.  1.
</event>
<event>
 4    1  0.3586324E+003  0.4277982E+02  0.7546771E-02  0.1332923E+00
          2   -1    0    0  502    0  0.00000000000E+00  0.00000000000E+00  0.74224001213E+01  0.74224001213E+01  0.00000000000E+00 0. -1.
          1   -1    0    0  501    0 -0.00000000000E+00 -0.00000000000E+00 -0.41472479137E+03  0.41472479137E+03  0.00000000000E+00 0. -1.
          2    1    1    2  501    0 -0.11166267537E+02 -0.41296820846E+02 -0.69246807209E+02  0.81395535820E+02  0.00000000000E+00 0. -1.
          1    1    1    2  502    0  0.11166267537E+02  0.41296820846E+02 -0.33805558404E+03  0.34075165567E+03  0.00000000000E+00 0. -1.
</event>
<event>
 4    1  0.3586324E+003  0.4275170E+02  0.7546771E-02  0.1333074E+00
          2   -1    0    0  502    0  0.00000000000E+00  0.00000000000E+00  0.98687025419E+03  0.98687025419E+03  0.00000000000E+00 0.  1.
          1   -1    0    0  501    0 -0.00000000000E+00 -0.00000000000E+00 -0.23304487085E+02  0.23304487085E+02  0.00000000000E+00 0.  1.
          2    1    1    2  501    0 -0.81473553531E+00 -0.42743932466E+02  0.96638500942E+03  0.96733018871E+03  0.00000000000E+00 0.  1.
          1    1    1    2  502    0  0.81473553531E+00  0.42743932466E+02 -0.28192423228E+01  0.42844552558E+02  0.00000000000E+00 0.  1.
</event>
<event>
 4    1  0.3586324E+003  0.2918898E+02  0.7546771E-02  0.1426777E+00
          2   -1    0    0  502    0  0.00000000000E+00  0.00000000000E+00  0.32870957433E+02  0.32870957433E+02  0.00000000000E+00 0. -1.
          1   -1    0    0  501    0 -0.00000000000E+00 -0.00000000000E+00 -0.29647369113E+02  0.29647369113E+02  0.00000000000E+00 0. -1.
          2    1    1    2  501    0  0.23862613759E+02 -0.16809890163E+02  0.12696347786E+02  0.31830708283E+02  0.00000000000E+00 0. -1.
          1    1    1    2  502    0 -0.23862613759E+02  0.16809890163E+02 -0.94727594663E+01  0.30687618263E+02  0.00000000000E+00 0. -1.
</event>
<event>
 4    1  0.3586324E+003  0.3021165E+02  0.7546771E-02  0.1417766E+00
          2   -1    0    0  502    0  0.00000000000E+00  0.00000000000E+00  0.12023174601E+01  0.12023174601E+01  0.00000000000E+00 0.  1.
          1   -1    0    0  501    0 -0.00000000000E+00 -0.00000000000E+00 -0.10535223249E+04  0.10535223249E+04  0.00000000000E+00 0.  1.
          2    1    1    2  501    0 -0.80308643807E+01 -0.29124714172E+02 -0.24739838404E+03  0.24923624172E+03  0.00000000000E+00 0.  1.
          1    1    1    2  502    0  0.80308643807E+01  0.29124714172E+02 -0.80492162343E+03  0.80548840068E+03  0.00000000000E+00 0.  1.
</event>
<event>
 4    1  0.3586324E+003  0.2225339E+02  0.7546771E-02  0.1502092E+00
          2   -1    0    0  502    0  0.00000000000E+00  0.00000000000E+00  0.72997644863E+03  0.72997644863E+03  0.00000000000E+00 0. -1.
          1   -1    0    0  501    0 -0.00000000000E+00 -0.00000000000E+00 -0.18827536452E+01  0.18827536452E+01  0.00000000000E+00 0.  1.
          2    1    1    2  501    0 -0.14004683097E+02  0.17293998939E+02  0.65671699114E+03  0.65709392022E+03  0.00000000000E+00 0. -1.
          1    1    1    2  502    0  0.14004683097E+02 -0.17293998939E+02  0.71376703849E+02  0.74765282051E+02  0.00000000000E+00 0.  1.
</event>
<event>
 4    1  0.3586324E+003  0.2374222E+02  0.7546771E-02  0.1483383E+00
          2   -1    0    0  502    0  0.00000000000E+00  0.00000000000E+00  0.12389900532E+03  0.12389900532E+03  0.00000000000E+00 0.  1.
          1   -1    0    0  501    0 -0.00000000000E+00 -0.00000000000E+00 -0.19009048897E+03  0.19009048897E+03  0.00000000000E+00 0.  1.
          2    1    1    2  501    0  0.23441688362E+02 -0.37656606567E+01  0.12200887496E+03  0.12429745984E+03  0.00000000000E+00 0.  1.
          1    1    1    2  502    0 -0.23441688362E+02  0.37656606567E+01 -0.18820035861E+03  0.18969203445E+03  0.00000000000E+00 0.  1.
</event>
<event>
 4    1  0.3586324E+003  0.3482277E+02  0.7546771E-02  0.1381813E+00
          2   -1    0    0  502    0  0.00000000000E+00  0.00000000000E+00  0.21860396370E+04  0.21860396370E+04  0.00000000000E+00 0. -1.
          1   -1    0    0  501    0 -0.00000000000E+00 -0.00000000000E+00 -0.16385119461E+01  0.16385119461E+01  0.00000000000E+00 0.  1.
          2    1    1    2  501    0 -0.19786907320E+02  0.28654901402E+02  0.19818173023E+04  0.19821232163E+04  0.00000000000E+00 0. -1.
          1    1    1    2  502    0  0.19786907320E+02 -0.28654901402E+02  0.20258382281E+03  0.20555493266E+03  0.00000000000E+00 0.  1.
</event>
<event>
 4    1  0.3586324E+003  0.2454167E+02  0.7546771E-02  0.1473996E+00
          2   -1    0    0  502    0  0.00000000000E+00  0.00000000000E+00  0.52730236741E+02  0.52730236741E+02  0.00000000000E+00 0. -1.
          1   -1    0    0  501    0 -0.00000000000E+00 -0.00000000000E+00 -0.14002182163E+04  0.14002182163E+04  0.00000000000E+00 0.  1.
          2    1    1    2  501    0  0.23738810372E+02  0.62259470605E+01  0.49761091965E+02  0.55483869802E+02  0.00000000000E+00 0. -1.
          1    1    1    2  502    0 -0.23738810372E+02 -0.62259470605E+01 -0.13972490715E+04  0.13974645832E+04  0.00000000000E+00 0.  1.
</event>
<event>
 4    1  0.3586324E+003  0.2474979E+02  0.7546771E-02  0.1471622E+00
          2   -1    0    0  502    0  0.00000000000E+00  0.00000000000E+00  0.14222258324E+02  0.14222258324E+02  0.00000000000E+00 0. -1.
          1   -1    0    0  501    0 -0.00000000000E+00 -0.00000000000E+00 -0.10985000365E+04  0.10985000365E+04  0.00000000000E+00 0. -1.
          2    1    1    2  501    0  0.11994712613E+02 -0.21648999014E+02  0.32063003721E+01  0.24956615377E+02  0.00000000000E+00 0. -1.
          1    1    1    2  502    0 -0.11994712613E+02  0.21648999014E+02 -0.10874840785E+04  0.10877656794E+04  0.00000000000E+00 0. -1.
</event>
<event>
 4    1  0.3586324E+003  0.2350531E+02  0.7546771E-02  0.1486249E+00
          2   -1    0    0  502    0  0.00000000000E+00  0.00000000000E+00  0.62549100503E+03  0.62549100503E+03  0.00000000000E+00 0. -1.
          1   -1    0    0  501    0 -0.00000000000E+00 -0.00000000000E+00 -0.30556214979E+02  0.30556214979E+02  0.00000000000E+00 0.  1.
          2    1    1    2  501    0  0.14737939117E+02 -0.18310998969E+02  0.62071505718E+03  0.62115994860E+03  0.00000000000E+00 0. -1.
          1    1    1    2  502    0 -0.14737939117E+02  0.18310998969E+02 -0.25780267133E+02  0.34887271406E+02  0.00000000000E+00 0.  1.
</event>
<event>
 4    1  0.3586324E+003  0.3669086E+02  0.7546771E-02  0.1369050E+00
          2   -1    0    0  502    0  0.00000000000E+00  0.00000000000E+00  0.97279949627E+03  0.97279949627E+03  0.00000000000E+00 0. -1.
          1   -1    0    0  501    0 -0.00000000000E+00 -0.00000000000E+00 -0.17788742893E+01  0.17788742893E+01  0.00000000000E+00 0.  1.
          2    1    1    2  501    0 -0.83908660614E+01  0.35718520761E+02  0.71513572633E+03  0.71607634120E+03  0.00000000000E+00 0. -1.
          1    1    1    2  502    0  0.83908660614E+01 -0.35718520761E+02  0.25588489565E+03  0.25850202935E+03  0.00000000000E+00 0.  1.
</event>
<event>
 4    1  0.3586324E+003  0.3306810E+02  0.7546771E-02  0.1394679E+00
          2   -1    0    0  502    0  0.00000000000E+00  0.00000000000E+00  0.92060371522E+03  0.92060371522E+03  0.00000000000E+00 0. -1.
          1   -1    0    0  501    0 -0.00000000000E+00 -0.00000000000E+00 -0.95299065533E+01  0.95299065533E+01  0.00000000000E+00 0. -1.
          2    1    1    2  501    0  0.10070486255E+02  0.31497352008E+02  0.20417193092E+02  0.38863345851E+02  0.00000000000E+00 0. -1.
          1    1    1    2  502    0 -0.10070486255E+02 -0.31497352008E+02  0.89065661558E+03  0.89127027592E+03  0.00000000000E+00 0. -1.
</event>
<event>
 4    1  0.3586324E+003  0.2074426E+02  0.7546771E-02  0.1522948E+00
          2   -1    0    0  502    0  0.00000000000E+00  0.00000000000E+00  0.14570601212E+02  0.14570601212E+02  0.00000000000E+00 0.  1.
          1   -1    0    0  501    0 -0.00000000000E+00 -0.00000000000E+00 -0.15919762119E+03  0.15919762119E+03  0.00000000000E+00 0. -1.
          2    1    1    2  501    0 -0.18232911476E+02  0.98937011509E+01  0.60983183033E+01  0.21622069038E+02  0.00000000000E+00 0.  1.
          1    1    1    2  502    0  0.18232911476E+02 -0.98937011509E+01 -0.15072533828E+03  0.15214615336E+03  0.00000000000E+00 0. -1.
</event>
<event>
 4    1  0.3586324E+003  0.2434252E+02  0.7546771E-02  0.1476295E+00
          2   -1    0    0  502    0  0.00000000000E+00  0.00000000000E+00  0.35835870959E+01  0.35835870959E+01  0.00000000000E+00 0. -1.
          1   -1    0    0  501    0 -0.00000000000E+00 -0.00000000000E+00 -0.47744712926E+03  0.47744712926E+03  0.00000000000E+00 0. -1.
          2    1    1    2  501    0 -0.22510799389E+02  0.92640171798E+01 -0.42475151409E+02  0.48956067965E+02  0.00000000000E+00 0. -1.
          1    1    1    2  502    0  0.22510799389E+02 -0.92640171798E+01 -0.43138839075E+03  0.43207464839E+03  0.00000000000E+00 0. -1.
</event>
<event>
 4    1  0.3586324E+003  0.2267152E+02  0.7546771E-02  0.1496665E+00
          2   -1    0    0  502    0  0.00000000000E+00  0.00000000000E+00  0.24267211648E+01  0.24267211648E+01  0.00000000000E+00 0.  1.
          1   -1    0    0  501    0 -0.00000000000E+00 -0.00000000000E+00 -0.43205586842E+03  0.43205586842E+03  0.00000000000E+00 0.  1.
          2    1    1    2  501    0  0.97872644932E+01 -0.20450121405E+02 -0.59708548206E+02  0.63867900706E+02  0.00000000000E+00 0.  1.
          1    1    1    2  502    0 -0.97872644932E+01  0.20450121405E+02 -0.36992059905E+03  0.37061468888E+03  0.00000000000E+00 0.  1.
</event>
<event>
 4    1  0.3586324E+003  0.2463059E+02  0.7546771E-02  0.1472979E+00
          2   -1    0    0  502    0  0.00000000000E+00  0.00000000000E+00  0.19176470192E+03  0.19176470192E+03  0.00000000000E+00 0. -1.
          1   -1    0    0  501    0 -0.00000000000E+00 -0.00000000000E+00 -0.10265883632E+03  0.10265883632E+03  0.00000000000E+00 0. -1.
          2    1    1    2  501    0  0.50772519316E+01 -0.24101606681E+02  0.18947866970E+03  0.19107284528E+03  0.00000000000E+00 0. -1.
          1    1    1    2  502    0 -0.50772519316E+01  0.24101606681E+02 -0.10037280410E+03  0.10335069296E+03  0.00000000000E+00 0. -1.
</event>
<event>
 4    1  0.3586324E+003  0.5595165E+02  0.7546771E-02  0.1274245E+00
          2   -1    0    0  502    0  0.00000000000E+00  0.00000000000E+00  0.16188591259E+04  0.16188591259E+04  0.00000000000E+00 0. -1.
          1   -1    0    0  501    0 -0.00000000000E+00 -0.00000000000E+00 -0.50916784811E+01  0.50916784811E+01  0.00000000000E+00 0. -1.
          2    1    1    2  501    0 -0.51538857413E+02  0.21779202269E+02  0.14463365228E+04  0.14474183654E+04  0.00000000000E+00 0. -1.
          1    1    1    2  502    0  0.51538857413E+02 -0.21779202269E+02  0.16743092467E+03  0.17653243897E+03  0.00000000000E+00 0. -1.
</event>
<event>
 4    1  0.3586324E+003  0.2464119E+02  0.7546771E-02  0.1472858E+00
          2   -1    0    0  502    0  0.00000000000E+00  0.00000000000E+00  0.20067202690E+04  0.20067202690E+04  0.00000000000E+00 0.  1.
          1   -1    0    0  501    0 -0.00000000000E+00 -0.00000000000E+00 -0.64255711585E+00  0.64255711585E+00  0.00000000000E+00 0.  1.
          2    1    1    2  501    0  0.18947854810E+02 -0.15753319008E+02  0.17331122084E+04  0.17332873723E+04  0.00000000000E+00 0.  1.
          1    1    1    2  502    0 -0.18947854810E+02  0.15753319008E+02  0.27296550351E+03  0.27407545379E+03  0.00000000000E+00 0.  1.
</event>
<event>
 4    1  0.3586324E+003  0.2184157E+02  0.7546771E-02  0.1507580E+00
          2   -1    0    0  502    0  0.00000000000E+00  0.00000000000E+00  0.25515099777E+03  0.25515099777E+03  0.00000000000E+00 0. -1.
          1   -1    0    0  501    0 -0.00000000000E+00 -0.00000000000E+00 -0.56308637318E+01  0.56308637318E+01  0.00000000000E+00 0. -1.
          2    1    1    2  501    0 -0.21752748362E+02 -0.19677153120E+01  0.23132674224E+03  0.23235558017E+03  0.00000000000E+00 0. -1.
          1    1    1    2  502    0  0.21752748362E+02  0.19677153120E+01  0.18193391803E+02  0.28426281328E+02  0.00000000000E+00 0. -1.
</event>
<event>
 4    1  0.3586324E+003  0.6488641E+02  0.7546771E-02  0.1244077E+00
          2   -1    0    0  502    0  0.00000000000E+00  0.00000000000E+00  0.18146945906E+04  0.18146945906E+04  0.00000000000E+00 0. -1.
          1   -1    0    0  501    0 -0.00000000000E+00 -0.00000000000E+00 -0.82899270596E+02  0.82899270596E+02  0.00000000000E+00 0. -1.
          2    1    1    2  501    0 -0.63433979944E+02  0.13651958725E+02  0.18013234796E+04  0.18024917542E+04  0.00000000000E+00 0. -1.
          1    1    1    2  502    0  0.63433979944E+02 -0.13651958725E+02 -0.69528159566E+02  0.95102107028E+02  0.00000000000E+00 0. -1.
</event>
<event>
 4    1  0.3586324E+003  0.2090937E+02  0.7546771E-02  0.1520563E+00
          2   -1    0    0  502    0  0.00000000000E+00  0.00000000000E+00  0.69540870000E+03  0.69540870000E+03  0.00000000000E+00 0. -1.
          1   -1    0    0  501    0 -0.00000000000E+00 -0.00000000000E+00 -0.21778101973E+02  0.21778101973E+02  0.00000000000E+00 0. -1.
          2    1    1    2  501    0 -0.52819648409E+00 -0.20902694376E+02  0.69019479947E+03  0.69051145018E+03  0.00000000000E+00 0. -1.
          1    1    1    2  502    0  0.52819648409E+00  0.20902694376E+02 -0.16564201441E+02  0.26675351789E+02  0.00000000000E+00 0. -1.
</event>
<event>
 4    1  0.3586324E+003  0.2557324E+02  0.7546771E-02  0.1462492E+00
          2   -1    0    0  502    0  0.00000000000E+00  0.00000000000E+00  0.20898989280E+03  0.20898989280E+03  0.00000000000E+00 0. -1.
          1   -1    0    0  501    0 -0.00000000000E+00 -0.00000000000E+00 -0.50589539796E+02  0.50589539796E+02  0.00000000000E+00 0. -1.
          2    1    1    2  501    0 -0.15864038384E+02  0.20057992968E+02  0.20491164823E+03  0.20650126967E+03  0.00000000000E+00 0. -1.
          1    1    1    2  502    0  0.15864038384E+02 -0.20057992968E+02 -0.46511295226E+02  0.53078162924E+02  0.00000000000E+00 0. -1.
</event>
<event>
 4    1  0.3586324E+003  0.2636172E+02  0.7546771E-02  0.1454127E+00
          2   -1    0    0  502    0  0.00000000000E+00  0.00000000000E+00  0.17085186407E+02  0.17085186407E+02  0.00000000000E+00 0.  1.
          1   -1    0    0  501    0 -0.00000000000E+00 -0.00000000000E+00 -0.50543182149E+02  0.50543182149E+02  0.00000000000E+00 0. -1.
          2    1    1    2  501    0  0.69469424089E+01  0.25429905862E+02 -0.17877802243E+01  0.26422268621E+02  0.00000000000E+00 0.  1.
          1    1    1    2  502    0 -0.69469424089E+01 -0.25429905862E+02 -0.31670215517E+02  0.41206099935E+02  0.00000000000E+00 0. -1.
</event>
<event>
 4    1  0.3586324E+003  0.2464516E+02  0.7546771E-02  0.1472812E+00
          2   -1    0    0  502    0  0.00000000000E+00  0.00000000000E+00  0.24436749058E+00  0.24436749058E+00  0.00000000000E+00 0.  1.
          1   -1    0    0  501    0 -0.00000000000E+00 -0.00000000000E+00 -0.25322198738E+04  0.25322198738E+04  0.00000000000E+00 0. -1.
          2    1    1    2  501    0  0.22934544664E+02  0.90216595036E+01 -0.10940560828E+04  0.10943336310E+04  0.00000000000E+00 0.  1.
          1    1    1    2  502    0 -0.22934544664E+02 -0.90216595036E+01 -0.14379194235E+04  0.14381306102E+04  0.00000000000E+00 0. -1.
</event>
<event>
 4    1  0.3586324E+003  0.2572469E+02  0.7546771E-02  0.1460857E+00
          2   -1    0    0  502    0  0.00000000000E+00  0.00000000000E+00  0.97867560067E+01  0.97867560067E+01  0.00000000000E+00 0. -1.
          1   -1    0    0  501    0 -0.00000000000E+00 -0.00000000000E+00 -0.18039631427E+03  0.18039631427E+03  0.00000000000E+00 0. -1.
          2    1    1    2  501    0  0.24893757602E+02 -0.64854268874E+01 -0.10118081072E+02  0.27643000815E+02  0.00000000000E+00 0. -1.
          1    1    1    2  502    0 -0.24893757602E+02  0.64854268874E+01 -0.16049147720E+03  0.16254006947E+03  0.00000000000E+00 0. -1.
</event>
<event>
 4    1  0.3586324E+003  0.2024173E+02  0.7546771E-02  0.1530372E+00
          2   -1    0    0  502    0  0.00000000000E+00  0.00000000000E+00  0.10247966233E+04  0.10247966233E+04  0.00000000000E+00 0. -1.
          1   -1    0    0  501    0 -0.00000000000E+00 -0.00000000000E+00 -0.46145088401E+01  0.46145088401E+01  0.00000000000E+00 0.  1.
          2    1    1    2  501    0  0.16438692759E+02 -0.11810886119E+02  0.10019937623E+04  0.10021981976E+04  0.00000000000E+00 0. -1.
          1    1    1    2  502    0 -0.16438692759E+02  0.11810886119E+02  0.18188352178E+02  0.27212934525E+02  0.00000000000E+00 0.  1.
</event>
<event>
 4    1  0.3586324E+003  0.4540105E+02  0.7546771E-02  0.1319446E+00
          2   -1    0    0  502    0  0.00000000000E+00  0.00000000000E+00  0.13006899481E+04  0.13006899481E+04  0.00000000000E+00 0. -1.
          1   -1    0    0  501    0 -0.00000000000E+00 -0.00000000000E+00 -0.54376593206E+01  0.54376593206E+01  0.00000000000E+00 0.  1.
          2    1    1    2  501    0 -0.45015650173E+02  0.59030716480E+01  0.11973500076E+04  0.11982104555E+04  0.00000000000E+00 0. -1.
          1    1    1    2  502    0  0.45015650173E+02 -0.59030716480E+01  0.97902281226E+02  0.10791715195E+03  0.00000000000E+00 0.  1.
</event>
<event>
 4    1  0.3586324E+003  0.3742001E+02  0.7546771E-02  0.1364306E+00
          2   -1    0    0  502    0  0.00000000000E+00  0.00000000000E+00  0.14753621356E+04  0.14753621356E+04  0.00000000000E+00 0. -1.
          1   -1    0    0  501    0 -0.00000000000E+00 -0.00000000000E+00 -0.51314138574E+01  0.51314138574E+01  0.00000000000E+00 0. -1.
          2    1    1    2  501    0  0.17840210713E+02 -0.32893523892E+02  0.14034079355E+04  0.14039067242E+04  0.00000000000E+00 0. -1.
          1    1    1    2  502    0 -0.17840210713E+02  0.32893523892E+02  0.66822786326E+02  0.76586825269E+02  0.00000000000E+00 0. -1.
</event>
<event>
 4    1  0.3586324E+003  0.2474527E+02  0.7546771E-02  0.1471673E+00
          2   -1    0    0  502    0  0.00000000000E+00  0.00000000000E+00  0.69734867256E+01  0.69734867256E+01  0.00000000000E+00 0. -1.
          1   -1    0    0  501    0 -0.00000000000E+00 -0.00000000000E+00 -0.10960391951E+04  0.10960391951E+04  0.00000000000E+00 0. -1.
          2    1    1    2  501    0  0.24689952625E+02 -0.16536452493E+01 -0.15579322613E+02  0.29241128506E+02  0.00000000000E+00 0. -1.
          1    1    1    2  502    0 -0.24689952625E+02  0.16536452493E+01 -0.10734863858E+04  0.10737715533E+04  0.00000000000E+00 0. -1.
</event>
<event>
 4    1  0.3586324E+003  0.2087858E+02  0.7546771E-02  0.1521005E+00
          2   -1    0    0  502    0  0.00000000000E+00  0.00000000000E+00  0.26678478847E+02  0.26678478847E+02  0.00000000000E+00 0. -1.
          1   -1    0    0  501    0 -0.00000000000E+00 -0.00000000000E+00 -0.18967114293E+02  0.18967114293E+02  0.00000000000E+00 0. -1.
          2    1    1    2  501    0  0.65617665104E+01  0.19820656239E+02  0.12350269058E+02  0.24257871697E+02  0.00000000000E+00 0. -1.
          1    1    1    2  502    0 -0.65617665104E+01 -0.19820656239E+02 -0.46389045046E+01  0.21387721442E+02  0.00000000000E+00 0. -1.
</event>
<event>
 4    1  0.3586324E+003  0.2034633E+02  0.7546771E-02  0.1528806E+00
          2   -1    0    0  502    0  0.00000000000E+00  0.00000000000E+00  0.55069457293E+03  0.55069457293E+03  0.00000000000E+00 0. -1.
          1   -1    0    0  501    0 -0.00000000000E+00 -0.00000000000E+00 -0.97622085031E+00  0.97622085031E+00  0.00000000000E+00 0. -1.
          2    1    1    2  501    0 -0.17224584700E+02  0.10829897650E+02  0.40713375456E+03  0.40764183680E+03  0.00000000000E+00 0. -1.
          1    1    1    2  502    0  0.17224584700E+02 -0.10829897650E+02  0.14258459751E+03  0.14402895698E+03  0.00000000000E+00 0. -1.
</event>
<event>
 4    1  0.3586324E+003  0.2547811E+02  0.7546771E-02  0.1463525E+00
          2   -1    0    0  502    0  0.00000000000E+00  0.00000000000E+00  0.21032587904E+01  0.21032587904E+01  0.00000000000E+00 0.  1.
          1   -1    0    0  501    0 -0.00000000000E+00 -0.00000000000E+00 -0.32054411821E+03  0.32054411821E+03  0.00000000000E+00 0.  1.
          2    1    1    2  501    0  0.17526449109E+02  0.18492091648E+02 -0.12812182590E+03  0.13063053297E+03  0.00000000000E+00 0.  1.
          1    1    1    2  502    0 -0.17526449109E+02 -0.18492091648E+02 -0.19031903351E+03  0.19201684402E+03  0.00000000000E+00 0.  1.
</event>
<event>
 4    1  0.3586324E+003  0.2002635E+02  0.7546771E-02  0.1533633E+00
          2   -1    0    0  502    0  0.00000000000E+00  0.00000000000E+00  0.30196682721E+00  0.30196682721E+00  0.00000000000E+00 0. -1.
          1   -1    0    0  501    0 -0.00000000000E+00 -0.00000000000E+00 -0.14285166993E+04  0.14285166993E+04  0.00000000000E+00 0. -1.
          2    1    1    2  501    0  0.42989534019E+01 -0.19559483723E+02 -0.90348104257E+03  0.90370296486E+03  0.00000000000E+00 0. -1.
          1    1    1    2  502    0 -0.42989534019E+01  0.19559483723E+02 -0.52473368990E+03  0.52511570127E+03  0.00000000000E+00 0. -1.
</event>
<event>
 4    1  0.3586324E+003  0.2046853E+02  0.7546771E-02  0.1526990E+00
          2   -1    0    0  502    0  0.00000000000E+00  0.00000000000E+00  0.64599488521E+03  0.64599488521E+03  0.00000000000E+00 0.  1.
          1   -1    0    0  501    0 -0.00000000000E+00 -0.00000000000E+00 -0.13300865362E+01  0.13300865362E+01  0.00000000000E+00 0. -1.
          2    1    1    2  501    0 -0.20464140073E+02 -0.42403271578E+00  0.55401668007E+03  0.55439466324E+03  0.00000000000E+00 0.  1.
          1    1    1    2  502    0  0.20464140073E+02  0.42403271578E+00  0.90648118596E+02  0.92930308499E+02  0.00000000000E+00 0. -1.
</event>
<event>
 4    1  0.3586324E+003  0.2181537E+02  0.7546771E-02  0.1507935E+00
          2   -1    0    0  502    0  0.00000000000E+00  0.00000000000E+00  0.15327874449E+03  0.15327874449E+03  0.00000000000E+00 0. -1.
          1   -1    0    0  501    0 -0.00000000000E+00 -0.00000000000E+00 -0.69585101556E+02  0.69585101556E+02  0.00000000000E+00 0.  1.
          2    1    1    2  501    0 -0.61460761877E+01 -0.20931698289E+02  0.15076434581E+03  0.15233449449E+03  0.00000000000E+00 0. -1.
          1    1    1    2  502    0  0.61460761877E+01  0.20931698289E+02 -0.67070702876E+02  0.70529351550E+02  0.00000000000E+00 0.  1.
</event>
<event>
 4    1  0.3586324E+003  0.2621735E+02  0.7546771E-02  0.1455632E+00
          2   -1    0    0  502    0  0.00000000000E+00  0.00000000000E+00  0.25245575555E+03  0.25245575555E+03  0.00000000000E+00 0. -1.
          1   -1    0    0  501    0 -0.00000000000E+00 -0.00000000000E+00 -0.20353577083E+03  0.20353577083E+03  0.00000000000E+00 0.  1.
          2    1    1    2  501    0 -0.58073666639E+01  0.25566072538E+02  0.25092569671E+03  0.25229160676E+03  0.00000000000E+00 0. -1.
          1    1    1    2  502    0  0.58073666639E+01 -0.25566072538E+02 -0.20200571200E+03  0.20369991962E+03  0.00000000000E+00 0.  1.
</event>
<event>
 4    1  0.3586324E+003  0.2665508E+02  0.7546771E-02  0.1451104E+00
          2   -1    0    0  502    0  0.00000000000E+00  0.00000000000E+00  0.39849920994E+03  0.39849920994E+03  0.00000000000E+00 0.  1.
          1   -1    0    0  501    0 -0.00000000000E+00 -0.00000000000E+00 -0.36595283921E+02  0.36595283921E+02  0.00000000000E+00 0.  1.
          2    1    1    2  501    0 -0.25105906822E+02  0.89546944931E+01  0.39313358967E+03  0.39403618164E+03  0.00000000000E+00 0.  1.
          1    1    1    2  502    0  0.25105906822E+02 -0.89546944931E+01 -0.31229663652E+02  0.41058312224E+02  0.00000000000E+00 0.  1.
</event>
<event>
 4    1  0.3586324E+003  0.5109039E+02  0.7546771E-02  0.1293513E+00
          2   -1    0    0  502    0  0.00000000000E+00  0.00000000000E+00  0.15054975515E+04  0.15054975515E+04  0.00000000000E+00 0. -1.
          1   -1    0    0  501    0 -0.00000000000E+00 -0.00000000000E+00 -0.29759756307E+01  0.29759756307E+01  0.00000000000E+00 0.  1.
          2    1    1    2  501    0 -0.35307261084E+02 -0.36927294977E+02  0.12385479415E+04  0.12396012388E+04  0.00000000000E+00 0. -1.
          1    1    1    2  502    0  0.35307261084E+02  0.36927294977E+02  0.26397363444E+03  0.26887228842E+03  0.00000000000E+00 0.  1.
</event>
<event>
 4    1  0.3586324E+003  0.2003350E+02  0.7546771E-02  0.1533524E+00
          2   -1    0    0  502    0  0.00000000000E+00  0.00000000000E+00  0.63295280687E+03  0.63295280687E+03  0.00000000000E+00 0.  1.
          1   -1    0    0  501    0 -0.00000000000E+00 -0.00000000000E+00 -0.37720936899E+01  0.37720936899E+01  0.00000000000E+00 0. -1.
          2    1    1    2  501    0  0.15782264680E+02  0.12339415127E+02  0.60496467459E+03  0.60529628989E+03  0.00000000000E+00 0.  1.
          1    1    1    2  502    0 -0.15782264680E+02 -0.12339415127E+02  0.24216038590E+02  0.31428610677E+02  0.00000000000E+00 0. -1.
</event>
<event>
 4    1  0.3586324E+003  0.3920839E+02  0.7546771E-02  0.1353188E+00
          2   -1    0    0  502    0  0.00000000000E+00  0.00000000000E+00  0.26157268686E+04  0.26157268686E+04  0.00000000000E+00 0.  1.
          1   -1    0    0  501    0 -0.00000000000E+00 -0.00000000000E+00 -0.87346279777E+00  0.87346279777E+00  0.00000000000E+00 0. -1.
          2    1    1    2  501    0  0.32402140387E+02 -0.22077110728E+02  0.20557304391E+04  0.20561043105E+04  0.00000000000E+00 0.  1.
          1    1    1    2  502    0 -0.32402140387E+02  0.22077110728E+02  0.55912296674E+03  0.56049602091E+03  0.00000000000E+00 0. -1.
</event>
<event>
 4    1  0.3586324E+003  0.3143130E+02  0.7546771E-02  0.1407553E+00
          2   -1    0    0  502    0  0.00000000000E+00  0.00000000000E+00  0.58645120854E+03  0.58645120854E+03  0.00000000000E+00 0.  1.
          1   -1    0    0  501    0 -0.00000000000E+00 -0.00000000000E+00 -0.48654012040E+01  0.48654012040E+01  0.00000000000E+00 0.  1.
          2    1    1    2  501    0 -0.13604296275E+02 -0.28334608084E+02  0.52984912086E+03  0.53078057403E+03  0.00000000000E+00 0.  1.
          1    1    1    2  502    0  0.13604296275E+02  0.28334608084E+02  0.51736686479E+02  0.60536035716E+02  0.00000000000E+00 0.  1.
</event>
<event>
 4    1  0.3586324E+003  0.1206238E+03  0.7546771E-02  0.1132209E+00
          2   -1    0    0  502    0  0.00000000000E+00  0.00000000000E+00  0.19645901704E+04  0.19645901704E+04  0.00000000000E+00 0. -1.
          1   -1    0    0  501    0 -0.00000000000E+00 -0.00000000000E+00 -0.58064083137E+03  0.58064083137E+03  0.00000000000E+00 0. -1.
          2    1    1    2  501    0 -0.77953271106E+02 -0.92051001165E+02  0.19564479065E+04  0.19601628784E+04  0.00000000000E+00 0. -1.
          1    1    1    2  502    0  0.77953271106E+02  0.92051001165E+02 -0.57249856740E+03  0.58506812336E+03  0.00000000000E+00 0. -1.
</event>
<event>
 4    1  0.3586324E+003  0.3110440E+02  0.7546771E-02  0.1410236E+00
          2   -1    0    0  502    0  0.00000000000E+00  0.00000000000E+00  0.71812768123E+02  0.71812768123E+02  0.00000000000E+00 0.  1.
          1   -1    0    0  501    0 -0.00000000000E+00 -0.00000000000E+00 -0.37918939480E+02  0.37918939480E+02  0.00000000000E+00 0.  1.
          2    1    1    2  501    0  0.26637459219E+02 -0.16060190481E+02  0.61000730591E+02  0.68473155942E+02  0.00000000000E+00 0.  1.
          1    1    1    2  502    0 -0.26637459219E+02  0.16060190481E+02 -0.27106901948E+02  0.41258551661E+02  0.00000000000E+00 0.  1.
</event>
<event>
 4    1  0.3586324E+003  0.2734839E+02  0.7546771E-02  0.1444139E+00
          2   -1    0    0  502    0  0.00000000000E+00  0.00000000000E+00  0.26471547031E+04  0.26471547031E+04  0.00000000000E+00 0.  1.
          1   -1    0    0  501    0 -0.00000000000E+00 -0.00000000000E+00 -0.30329159517E+00  0.30329159517E+00  0.00000000000E+00 0.  1.
          2    1    1    2  501    0  0.12982130337E+02 -0.24070705620E+02  0.16696559793E+04  0.16698799429E+04  0.00000000000E+00 0.  1.
          1    1    1    2  502    0 -0.12982130337E+02  0.24070705620E+02  0.97719543221E+03  0.97757805177E+03  0.00000000000E+00 0.  1.
</event>
<event>
 4    1  0.3586324E+003  0.2162555E+02  0.7546771E-02  0.1510518E+00
          2   -1    0    0  502    0  0.00000000000E+00  0.00000000000E+00  0.61817164336E+03  0.61817164336E+03  0.00000000000E+00 0.  1.
          1   -1    0    0  501    0 -0.00000000000E+00 -0.00000000000E+00 -0.81342731150E+01  0.81342731150E+01  0.00000000000E+00 0. -1.
          2    1    1    2  501    0 -0.18711723674E+02  0.10841384786E+02  0.60325392839E+03  0.60364142199E+03  0.00000000000E+00 0.  1.
          1    1    1    2  502    0  0.18711723674E+02 -0.10841384786E+02  0.67834418604E+01  0.22664494488E+02  0.00000000000E+00 0. -1.
</event>
<event>
 4    1  0.3586324E+003  0.3195569E+02  0.7546771E-02  0.1403330E+00
          2   -1    0    0  502    0  0.00000000000E+00  0.00000000000E+00  0.75112450562E+01  0.75112450562E+01  0.00000000000E+00 0.  1.
          1   -1    0    0  501    0 -0.00000000000E+00 -0.00000000000E+00 -0.42826684089E+03  0.42826684089E+03  0.00000000000E+00 0. -1.
          2    1    1    2  501    0  0.31342479301E+02 -0.62301710935E+01 -0.30364797504E+02  0.44081594436E+02  0.00000000000E+00 0.  1.
          1    1    1    2  502    0 -0.31342479301E+02  0.62301710935E+01 -0.39039079833E+03  0.39169649151E+03  0.00000000000E+00 0. -1.
</event>
<event>
 4    1  0.3586324E+003  0.2061399E+02  0.7546771E-02  0.1524848E+00
          2   -1    0    0  502    0  0.00000000000E+00  0.00000000000E+00  0.92162898126E+03  0.92162898126E+03  0.00000000000E+00 0. -1.
          1   -1    0    0  501    0 -0.00000000000E+00 -0.00000000000E+00 -0.12315080024E+01  0.12315080024E+01  0.00000000000E+00 0. -1.
          2    1    1    2  501    0 -0.10868074631E+02  0.17516327387E+02  0.82516766270E+03  0.82542510765E+03  0.00000000000E+00 0. -1.
          1    1    1    2  502    0  0.10868074631E+02 -0.17516327387E+02  0.95229810550E+02  0.97435381606E+02  0.00000000000E+00 0. -1.
</event>
<event>
 4    1  0.3586324E+003  0.4564930E+02  0.7546771E-02  0.1318224E+00
          2   -1    0    0  502    0  0.00000000000E+00  0.00000000000E+00  0.13679916942E+02  0.13679916942E+02  0.00000000000E+00 0.  1.
          1   -1    0    0  501    0 -0.00000000000E+00 -0.00000000000E+00 -0.71887430926E+03  0.71887430926E+03  0.00000000000E+00 0. -1.
          2    1    1    2  501    0 -0.45317785303E+02 -0.54915251613E+01 -0.27434787250E+02  0.53259046789E+02  0.00000000000E+00 0.  1.
          1    1    1    2  502    0  0.45317785303E+02  0.54915251613E+01 -0.67775960507E+03  0.67929517941E+03  0.00000000000E+00 0. -1.
</event>
<event>
 4    1  0.3586324E+003  0.2183765E+02  0.7546771E-02  0.1507633E+00
          2   -1    0    0  502    0  0.00000000000E+00  0.00000000000E+00  0.59141510763E+01  0.59141510763E+01  0.00000000000E+00 0.  1.
          1   -1    0    0  501    0 -0.00000000000E+00 -0.00000000000E+00 -0.12051727965E+03  0.12051727965E+03  0.00000000000E+00 0.  1.
          2    1    1    2  501    0  0.13430346619E+02 -0.17219432355E+02 -0.20935647804E+02  0.30252014972E+02  0.00000000000E+00 0.  1.
          1    1    1    2  502    0 -0.13430346619E+02  0.17219432355E+02 -0.93667480768E+02  0.96179415752E+02  0.00000000000E+00 0.  1.
</event>
<event>
 4    1  0.3586324E+003  0.2131038E+02  0.7546771E-02  0.1514879E+00
          2   -1    0    0  502    0  0.00000000000E+00  0.00000000000E+00  0.66983493207E+03  0.66983493207E+03  0.00000000000E+00 0.  1.
          1   -1    0    0  501    0 -0.00000000000E+00 -0.00000000000E+00 -0.17708944502E+02  0.17708944502E+02  0.00000000000E+00 0. -1.
          2    1    1    2  501    0 -0.12425873616E+02  0.17312711414E+02  0.66319016111E+03  0.66353245746E+03  0.00000000000E+00 0.  1.
          1    1    1    2  502    0  0.12425873616E+02 -0.17312711414E+02 -0.11064173540E+02  0.24011419112E+02  0.00000000000E+00 0. -1.
</event>
<event>
 4    1  0.3586324E+003  0.2230433E+02  0.7546771E-02  0.1501423E+00
          2   -1    0    0  502    0  0.00000000000E+00  0.00000000000E+00  0.11293983720E+02  0.11293983720E+02  0.00000000000E+00 0.  1.
          1   -1    0    0  501    0 -0.00000000000E+00 -0.00000000000E+00 -0.10814170075E+03  0.10814170075E+03  0.00000000000E+00 0.  1.
          2    1    1    2  501    0 -0.15134159526E+02 -0.16384153262E+02 -0.24497386987E+01  0.22438459892E+02  0.00000000000E+00 0.  1.
          1    1    1    2  502    0  0.15134159526E+02  0.16384153262E+02 -0.94397978328E+02  0.96997224574E+02  0.00000000000E+00 0.  1.
</event>
<event>
 4    1  0.3586324E+003  0.2039922E+02  0.7546771E-02  0.1528018E+00
          2   -1    0    0  502    0  0.00000000000E+00  0.00000000000E+00  0.40922429270E+01  0.40922429270E+01  0.00000000000E+00 0. -1.
          1   -1    0    0  501    0 -0.00000000000E+00 -0.00000000000E+00 -0.11137022168E+04  0.11137022168E+04  0.00000000000E+00 0.  1.
          2    1    1    2  501    0  0.73441898554E+00  0.20385991319E+02 -0.22033553124E+02  0.30026746021E+02  0.00000000000E+00 0. -1.
          1    1    1    2  502    0 -0.73441898554E+00 -0.20385991319E+02 -0.10875764207E+04  0.10877677137E+04  0.00000000000E+00 0.  1.
</event>
<event>
 4    1  0.3586324E+003  0.2386536E+02  0.7546771E-02  0.1481909E+00
          2   -1    0    0  502    0  0.00000000000E+00  0.00000000000E+00  0.10310008258E+02  0.10310008258E+02  0.00000000000E+00 0. -1.
          1   -1    0    0  501    0 -0.00000000000E+00 -0.00000000000E+00 -0.56281164410E+02  0.56281164410E+02  0.00000000000E+00 0. -1.
          2    1    1    2  501    0 -0.20652797612E+02  0.11958993048E+02 -0.18463451575E+02  0.30173740371E+02  0.00000000000E+00 0. -1.
          1    1    1    2  502    0  0.20652797612E+02 -0.11958993048E+02 -0.27507704577E+02  0.36417432296E+02  0.00000000000E+00 0. -1.
</event>
<event>
 4    1  0.3586324E+003  0.2438240E+02  0.7546771E-02  0.1475832E+00
          2   -1    0    0  502    0  0.00000000000E+00  0.00000000000E+00  0.68465508168E+03  0.68465508168E+03  0.00000000000E+00 0.  1.
          1   -1    0    0  501    0 -0.00000000000E+00 -0.00000000000E+00 -0.32377610888E+01  0.32377610888E+01  0.00000000000E+00 0.  1.
          2    1    1    2  501    0  0.24372190556E+02  0.70555152458E+00  0.63494148121E+03  0.63540946329E+03  0.00000000000E+00 0.  1.
          1    1    1    2  502    0 -0.24372190556E+02 -0.70555152458E+00  0.46475839380E+02  0.52483379479E+02  0.00000000000E+00 0.  1.
</event>
<event>
 4    1  0.3586324E+003  0.2850402E+02  0.7546771E-02  0.1433058E+00
          2   -1    0    0  502    0  0.00000000000E+00  0.00000000000E+00  0.28538530516E+02  0.28538530516E+02  0.00000000000E+00 0. -1.
          1   -1    0    0  501    0 -0.00000000000E+00 -0.00000000000E+00 -0.31997335590E+02  0.31997335590E+02  0.00000000000E+00 0. -1.
          2    1    1    2  501    0 -0.68133024264E+01  0.27677755517E+02  0.83208434352E+01  0.29693697579E+02  0.00000000000E+00 0. -1.
          1    1    1    2  502    0  0.68133024264E+01 -0.27677755517E+02 -0.11779648509E+02  0.30842168527E+02  0.00000000000E+00 0. -1.
</event>
<event>
 4    1  0.3586324E+003  0.2096880E+02  0.7546771E-02  0.1519711E+00
          2   -1    0    0  502    0  0.00000000000E+00  0.00000000000E+00  0.13819980690E+04  0.13819980690E+04  0.00000000000E+00 0.  1.
          1   -1    0    0  501    0 -0.00000000000E+00 -0.00000000000E+00 -0.90821189234E+00  0.90821189234E+00  0.00000000000E+00 0. -1.
          2    1    1    2  501    0 -0.20040324841E+02  0.61705587843E+01  0.12478793764E+04  0.12480555390E+04  0.00000000000E+00 0.  1.
          1    1    1    2  502    0  0.20040324841E+02 -0.61705587843E+01  0.13321048079E+03  0.13485074196E+03  0.00000000000E+00 0. -1.
</event>
<event>
 4    1  0.3586324E+003  0.1065061E+03  0.7546771E-02  0.1152987E+00
          2   -1    0    0  502    0  0.00000000000E+00  0.00000000000E+00  0.17850325042E+03  0.17850325042E+03  0.00000000000E+00 0.  1.
          1   -1    0    0  501    0 -0.00000000000E+00 -0.00000000000E+00 -0.26732264060E+03  0.26732264060E+03  0.00000000000E+00 0.  1.
          2    1    1    2  501    0  0.10237564433E+03  0.29373203059E+02  0.15021246569E+03  0.18413946469E+03  0.00000000000E+00 0.  1.
          1    1    1    2  502    0 -0.10237564433E+03 -0.29373203059E+02 -0.23903185586E+03  0.26168642633E+03  0.00000000000E+00 0.  1.
</event>
<event>
 4    1  0.3586324E+003  0.2658818E+02  0.7546771E-02  0.1451789E+00
          2   -1    0    0  502    0  0.00000000000E+00  0.00000000000E+00  0.36493021443E+01  0.36493021443E+01  0.00000000000E+00 0.  1.
          1   -1    0    0  501    0 -0.00000000000E+00 -0.00000000000E+00 -0.58582149363E+03  0.58582149363E+03  0.00000000000E+00 0. -1.
          2    1    1    2  501    0  0.25892838680E+02 -0.60408945958E+01 -0.49956448039E+02  0.56591326218E+02  0.00000000000E+00 0.  1.
          1    1    1    2  502    0 -0.25892838680E+02  0.60408945958E+01 -0.53221574345E+03  0.53287946956E+03  0.00000000000E+00 0. -1.
</event>
<event>
 4    1  0.3586324E+003  0.2190244E+02  0.7546771E-02  0.1506760E+00
          2   -1    0    0  502    0  0.00000000000E+00  0.00000000000E+00  0.29984016272E+03  0.29984016272E+03  0.00000000000E+00 0.  1.
          1   -1    0    0  501    0 -0.00000000000E+00 -0.00000000000E+00 -0.16668007386E+01  0.16668007386E+01  0.00000000000E+00 0.  1.
          2    1    1    2  501    0 -0.20058728012E+02 -0.87956994591E+01  0.17928707291E+03  0.18061996404E+03  0.00000000000E+00 0.  1.
          1    1    1    2  502    0  0.20058728012E+02  0.87956994591E+01  0.11888628908E+03  0.12088699942E+03  0.00000000000E+00 0.  1.
</event>
<event>
 4    1  0.3586324E+003  0.6195472E+02  0.7546771E-02  0.1253332E+00
          2   -1    0    0  502    0  0.00000000000E+00  0.00000000000E+00  0.20036928237E+03  0.20036928237E+03  0.00000000000E+00 0.  1.
          1   -1    0    0  501    0 -0.00000000000E+00 -0.00000000000E+00 -0.40990450600E+03  0.40990450600E+03  0.00000000000E+00 0.  1.
          2    1    1    2  501    0  0.29262230480E+02  0.54608694882E+02  0.19315380383E+03  0.20284668995E+03  0.00000000000E+00 0.  1.
          1    1    1    2  502    0 -0.29262230480E+02 -0.54608694882E+02 -0.40268902746E+03  0.40742709842E+03  0.00000000000E+00 0.  1.
</event>
<event>
 4    1  0.3586324E+003  0.4344315E+02  0.7546771E-02  0.1329410E+00
          2   -1    0    0  502    0  0.00000000000E+00  0.00000000000E+00  0.39660581668E+02  0.39660581668E+02  0.00000000000E+00 0.  1.
          1   -1    0    0  501    0 -0.00000000000E+00 -0.00000000000E+00 -0.12166755292E+04  0.12166755292E+04  0.00000000000E+00 0. -1.
          2    1    1    2  501    0 -0.38795056732E+02 -0.19551227350E+02  0.27253640536E+02  0.51284187039E+02  0.00000000000E+00 0.  1.
          1    1    1    2  502    0  0.38795056732E+02  0.19551227350E+02 -0.12042685880E+04  0.12050519238E+04  0.00000000000E+00 0. -1.
</event>
<event>
 4    1  0.3586324E+003  0.4356765E+02  0.7546771E-02  0.1328759E+00
          2   -1    0    0  502    0  0.00000000000E+00  0.00000000000E+00  0.29742999232E+02  0.29742999232E+02  0.00000000000E+00 0.  1.
          1   -1    0    0  501    0 -0.00000000000E+00 -0.00000000000E+00 -0.37228942561E+03  0.37228942561E+03  0.00000000000E+00 0.  1.
          2    1    1    2  501    0 -0.22014836028E+02  0.37596367151E+02  0.11704493198E+02  0.45112470441E+02  0.00000000000E+00 0.  1.
          1    1    1    2  502    0  0.22014836028E+02 -0.37596367151E+02 -0.35425091957E+03  0.35691995440E+03  0.00000000000E+00 0.  1.
</event>
<event>
 4    1  0.3586324E+003  0.4673459E+02  0.7546771E-02  0.1312987E+00
          2   -1    0    0  502    0  0.00000000000E+00  0.00000000000E+00  0.87311049353E+02  0.87311049353E+02  0.00000000000E+00 0. -1.
          1   -1    0    0  501    0 -0.00000000000E+00 -0.00000000000E+00 -0.14148470859E+03  0.14148470859E+03  0.00000000000E+00 0. -1.
          2    1    1    2  501    0 -0.61602195417E+00  0.46730531027E+02  0.76706380330E+02  0.89821995059E+02  0.00000000000E+00 0. -1.
          1    1    1    2  502    0  0.61602195417E+00 -0.46730531027E+02 -0.13088003956E+03  0.13897376288E+03  0.00000000000E+00 0. -1.
</event>
<event>
 4    1  0.3586324E+003  0.3158422E+02  0.7546771E-02  0.1406312E+00
          2   -1    0    0  502    0  0.00000000000E+00  0.00000000000E+00  0.18745191910E+02  0.18745191910E+02  0.00000000000E+00 0. -1.
          1   -1    0    0  501    0 -0.00000000000E+00 -0.00000000000E+00 -0.42077493091E+03  0.42077493091E+03  0.00000000000E+00 0. -1.
          2    1    1    2  501    0  0.25982905984E+02  0.17956929626E+02  0.43786529223E+01  0.31886287435E+02  0.00000000000E+00 0. -1.
          1    1    1    2  502    0 -0.25982905984E+02 -0.17956929626E+02 -0.40640839192E+03  0.40763383539E+03  0.00000000000E+00 0. -1.
</event>
<event>
 4    1  0.3586324E+003  0.3228164E+02  0.7546771E-02  0.1400752E+00
          2   -1    0    0  502    0  0.00000000000E+00  0.00000000000E+00  0.82661731361E+03  0.82661731361E+03  0.00000000000E+00 0. -1.
          1   -1    0    0  501    0 -0.00000000000E+00 -0.00000000000E+00 -0.21690385262E+01  0.21690385262E+01  0.00000000000E+00 0.  1.
          2    1    1    2  501    0 -0.31566798324E+02  0.67558507008E+01  0.68039176499E+03  0.68115714644E+03  0.00000000000E+00 0. -1.
          1    1    1    2  502    0  0.31566798324E+02 -0.67558507008E+01  0.14405651009E+03  0.14762920570E+03  0.00000000000E+00 0.  1.
</event>
<event>
 4    1  0.3586324E+003  0.3768553E+02  0.7546771E-02  0.1362610E+00
          2   -1    0    0  502    0  0.00000000000E+00  0.00000000000E+00  0.11168702554E+01  0.11168702554E+01  0.00000000000E+00 0.  1.
          1   -1    0    0  501    0 -0.00000000000E+00 -0.00000000000E+00 -0.12778221493E+04  0.12778221493E+04  0.00000000000E+00 0.  1.
          2    1    1    2  501    0  0.19641033678E+02 -0.32162520043E+02 -0.68302118027E+03  0.68406003435E+03  0.00000000000E+00 0.  1.
          1    1    1    2  502    0 -0.19641033678E+02  0.32162520043E+02 -0.59368409874E+03  0.59487898517E+03  0.00000000000E+00 0.  1.
</event>
<event>
 4    1  0.3586324E+003  0.2880432E+02  0.7546771E-02  0.1430279E+00
          2   -1    0    0  502    0  0.00000000000E+00  0.00000000000E+00  0.38837659063E+03  0.38837659063E+03  0.00000000000E+00 0.  1.
          1   -1    0    0  501    0 -0.00000000000E+00 -0.00000000000E+00 -0.85983467332E+02  0.85983467332E+02  0.00000000000E+00 0. -1.
          2    1    1    2  501    0  0.41766523293E+01  0.28499904215E+02  0.38541163304E+03  0.38648650151E+03  0.00000000000E+00 0.  1.
          1    1    1    2  502    0 -0.41766523293E+01 -0.28499904215E+02 -0.83018509740E+02  0.87873556457E+02  0.00000000000E+00 0. -1.
</event>
<event>
 4    1  0.3586324E+003  0.2357087E+02  0.7546771E-02  0.1485451E+00
          2   -1    0    0  502    0  0.00000000000E+00  0.00000000000E+00  0.86731897227E+03  0.86731897227E+03  0.00000000000E+00 0. -1.
          1   -1    0    0  501    0 -0.00000000000E+00 -0.00000000000E+00 -0.20705360061E+02  0.20705360061E+02  0.00000000000E+00 0.  1.
          2    1    1    2  501    0 -0.18015226893E+02 -0.15199913677E+02  0.86039663042E+03  0.86071943594E+03  0.00000000000E+00 0. -1.
          1    1    1    2  502    0  0.18015226893E+02  0.15199913677E+02 -0.13783018209E+02  0.27304896388E+02  0.00000000000E+00 0.  1.
</event>
<event>
 4    1  0.3586324E+003  0.2053504E+02  0.7546771E-02  0.1526008E+00
          2   -1    0    0  502    0  0.00000000000E+00  0.00000000000E+00  0.43899366665E+02  0.43899366665E+02  0.00000000000E+00 0.  1.
          1   -1    0    0  501    0 -0.00000000000E+00 -0.00000000000E+00 -0.33647984550E+03  0.33647984550E+03  0.00000000000E+00 0.  1.
          2    1    1    2  501    0 -0.18390952841E+02 -0.91356755423E+01  0.41164956349E+02  0.46002623243E+02  0.00000000000E+00 0.  1.
          1    1    1    2  502    0  0.18390952841E+02  0.91356755423E+01 -0.33374543519E+03  0.33437658893E+03  0.00000000000E+00 0.  1.
</event>
<event>
 4    1  0.3586324E+003  0.2097237E+02  0.7546771E-02  0.1519660E+00
          2   -1    0    0  502    0  0.00000000000E+00  0.00000000000E+00  0.38837412583E+02  0.38837412583E+02  0.00000000000E+00 0. -1.
          1   -1    0    0  501    0 -0.00000000000E+00 -0.00000000000E+00 -0.48474007908E+02  0.48474007908E+02  0.00000000000E+00 0. -1.
          2    1    1    2  501    0  0.20921662684E+02 -0.14574870250E+01  0.33398933501E+02  0.39437659627E+02  0.00000000000E+00 0. -1.
          1    1    1    2  502    0 -0.20921662684E+02  0.14574870250E+01 -0.43035528826E+02  0.47873760864E+02  0.00000000000E+00 0. -1.
</event>
<event>
 4    1  0.3586324E+003  0.2211804E+02  0.7546771E-02  0.1503880E+00
          2   -1    0    0  502    0  0.00000000000E+00  0.00000000000E+00  0.20369740377E+03  0.20369740377E+03  0.00000000000E+00 0.  1.
          1   -1    0    0  501    0 -0.00000000000E+00 -0.00000000000E+00 -0.24291220112E+01  0.24291220112E+01  0.00000000000E+00 0.  1.
          2    1    1    2  501    0  0.20407634189E+02  0.85285625009E+01  0.11159640912E+03  0.11376715888E+03  0.00000000000E+00 0.  1.
          1    1    1    2  502    0 -0.20407634189E+02 -0.85285625009E+01  0.89671872638E+02  0.92359366899E+02  0.00000000000E+00 0.  1.
</event>
<event>
 4    1  0.3586324E+003  0.2216355E+02  0.7546771E-02  0.1503277E+00
          2   -1    0    0  502    0  0.00000000000E+00  0.00000000000E+00  0.28357188339E+02  0.28357188339E+02  0.00000000000E+00 0.  1.
          1   -1    0    0  501    0 -0.00000000000E+00 -0.00000000000E+00 -0.46886711757E+03  0.46886711757E+03  0.00000000000E+00 0.  1.
          2    1    1    2  501    0 -0.22081175834E+02 -0.19091419044E+01  0.23721370824E+02  0.32464235442E+02  0.00000000000E+00 0.  1.
          1    1    1    2  502    0  0.22081175834E+02  0.19091419044E+01 -0.46423130005E+03  0.46476007047E+03  0.00000000000E+00 0.  1.
</event>
<event>
 4    1  0.3586324E+003  0.2192712E+02  0.7546771E-02  0.1506428E+00
          2   -1    0    0  502    0  0.00000000000E+00  0.00000000000E+00  0.76172410128E+03  0.76172410128E+03  0.00000000000E+00 0. -1.
          1   -1    0    0  501    0 -0.00000000000E+00 -0.00000000000E+00 -0.14177618473E+02  0.14177618473E+02  0.00000000000E+00 0.  1.
          2    1    1    2  501    0 -0.20464113611E+02  0.78751824959E+01  0.75298985713E+03  0.75330904905E+03  0.00000000000E+00 0. -1.
          1    1    1    2  502    0  0.20464113611E+02 -0.78751824959E+01 -0.54433743249E+01  0.22592670698E+02  0.00000000000E+00 0.  1.
</event>
<event>
 4    1  0.3586324E+003  0.2769481E+02  0.7546771E-02  0.1440751E+00
          2   -1    0    0  502    0  0.00000000000E+00  0.00000000000E+00  0.36791781042E+03  0.36791781042E+03  0.00000000000E+00 0.  1.
          1   -1    0    0  501    0 -0.00000000000E+00 -0.00000000000E+00 -0.29618141323E+02  0.29618141323E+02  0.00000000000E+00 0.  1.
          2    1    1    2  501    0  0.22943884629E+02 -0.15510661827E+02  0.36079491366E+03  0.36185628666E+03  0.00000000000E+00 0.  1.
          1    1    1    2  502    0 -0.22943884629E+02  0.15510661827E+02 -0.22495244566E+02  0.35679665081E+02  0.00000000000E+00 0.  1.
</event>
<event>
 4    1  0.3586324E+003  0.3707063E+02  0.7546771E-02  0.1366563E+00
          2   -1    0    0  502    0  0.00000000000E+00  0.00000000000E+00  0.74227097550E+03  0.74227097550E+03  0.00000000000E+00 0. -1.
          1   -1    0    0  501    0 -0.00000000000E+00 -0.00000000000E+00 -0.63570485245E+01  0.63570485245E+01  0.00000000000E+00 0.  1.
          2    1    1    2  501    0 -0.37009946933E+02  0.21202825851E+01  0.68308536205E+03  0.68409052297E+03  0.00000000000E+00 0. -1.
          1    1    1    2  502    0  0.37009946933E+02 -0.21202825851E+01  0.52828564923E+02  0.64537501053E+02  0.00000000000E+00 0.  1.
</event>
<event>
 4    1  0.3586324E+003  0.4080191E+02  0.7546771E-02  0.1343850E+00
          2   -1    0    0  502    0  0.00000000000E+00  0.00000000000E+00  0.50002555941E+03  0.50002555941E+03  0.00000000000E+00 0. -1.
          1   -1    0    0  501    0 -0.00000000000E+00 -0.00000000000E+00 -0.66783132364E+02  0.66783132364E+02  0.00000000000E+00 0. -1.
          2    1    1    2  501    0  0.40738193622E+02  0.22793447670E+01  0.49287079320E+03  0.49455678604E+03  0.00000000000E+00 0. -1.
          1    1    1    2  502    0 -0.40738193622E+02 -0.22793447670E+01 -0.59628366152E+02  0.72251905733E+02  0.00000000000E+00 0. -1.
</event>
<event>
 4    1  0.3586324E+003  0.3515706E+02  0.7546771E-02  0.1379462E+00
          2   -1    0    0  502    0  0.00000000000E+00  0.00000000000E+00  0.47579128578E+02  0.47579128578E+02  0.00000000000E+00 0.  1.
          1   -1    0    0  501    0 -0.00000000000E+00 -0.00000000000E+00 -0.89883435912E+03  0.89883435912E+03  0.00000000000E+00 0.  1.
          2    1    1    2  501    0 -0.12040422390E+02  0.33031005730E+02  0.40690662304E+02  0.53774985910E+02  0.00000000000E+00 0.  1.
          1    1    1    2  502    0  0.12040422390E+02 -0.33031005730E+02 -0.89194589284E+03  0.89263850178E+03  0.00000000000E+00 0.  1.
</event>
<event>
 4    1  0.3586324E+003  0.2091130E+02  0.7546771E-02  0.1520535E+00
          2   -1    0    0  502    0  0.00000000000E+00  0.00000000000E+00  0.13526966038E+04  0.13526966038E+04  0.00000000000E+00 0.  1.
          1   -1    0    0  501    0 -0.00000000000E+00 -0.00000000000E+00 -0.33062301488E+00  0.33062301488E+00  0.00000000000E+00 0.  1.
          2    1    1    2  501    0  0.15218929911E+02  0.14341079553E+02  0.77709121277E+03  0.77737252033E+03  0.00000000000E+00 0.  1.
          1    1    1    2  502    0 -0.15218929911E+02 -0.14341079553E+02  0.57527476804E+03  0.57565470652E+03  0.00000000000E+00 0.  1.
</event>
<event>
 4    1  0.3586324E+003  0.3465074E+02  0.7546771E-02  0.1383035E+00
          2   -1    0    0  502    0  0.00000000000E+00  0.00000000000E+00  0.24109984429E+04  0.24109984429E+04  0.00000000000E+00 0. -1.
          1   -1    0    0  501    0 -0.00000000000E+00 -0.00000000000E+00 -0.84212046002E+00  0.84212046002E+00  0.00000000000E+00 0.  1.
          2    1    1    2  501    0 -0.72953390472E+01  0.33874060041E+02  0.19759596256E+04  0.19762634227E+04  0.00000000000E+00 0. -1.
          1    1    1    2  502    0  0.72953390472E+01 -0.33874060041E+02  0.43419669682E+03  0.43557714063E+03  0.00000000000E+00 0.  1.
</event>
<event>
 4    1  0.3586324E+003  0.2388783E+02  0.7546771E-02  0.1481641E+00
          2   -1    0    0  502    0  0.00000000000E+00  0.00000000000E+00  0.69363618492E+03  0.69363618492E+03  0.00000000000E+00 0.  1.
          1   -1    0    0  501    0 -0.00000000000E+00 -0.00000000000E+00 -0.62148940363E+02  0.62148940363E+02  0.00000000000E+00 0. -1.
          2    1    1    2  501    0  0.20949711253E+02  0.11477717623E+02  0.69112678063E+03  0.69153948211E+03  0.00000000000E+00 0.  1.
          1    1    1    2  502    0 -0.20949711253E+02 -0.11477717623E+02 -0.59639536078E+02  0.64245643175E+02  0.00000000000E+00 0. -1.
</event>
<event>
 4    1  0.3586324E+003  0.3189880E+02  0.7546771E-02  0.1403783E+00
          2   -1    0    0  502    0  0.00000000000E+00  0.00000000000E+00  0.22363474644E+04  0.22363474644E+04  0.00000000000E+00 0. -1.
          1   -1    0    0  501    0 -0.00000000000E+00 -0.00000000000E+00 -0.11976106740E+02  0.11976106740E+02  0.00000000000E+00 0. -1.
          2    1    1    2  501    0  0.31639645698E+02 -0.40578436081E+01  0.22147860381E+04  0.22150157399E+04  0.00000000000E+00 0. -1.
          1    1    1    2  502    0 -0.31639645698E+02  0.40578436081E+01  0.95853195880E+01  0.33307831305E+02  0.00000000000E+00 0. -1.
</event>
<event>
 4    1  0.3586324E+003  0.2038812E+02  0.7546771E-02  0.1528183E+00
          2   -1    0    0  502    0  0.00000000000E+00  0.00000000000E+00  0.28691496578E+03  0.28691496578E+03  0.00000000000E+00 0. -1.
          1   -1    0    0  501    0 -0.00000000000E+00 -0.00000000000E+00 -0.26783835405E+02  0.26783835405E+02  0.00000000000E+00 0.  1.
          2    1    1    2  501    0  0.18392621383E+02  0.87969794341E+01  0.28261389164E+03  0.28334834941E+03  0.00000000000E+00 0. -1.
          1    1    1    2  502    0 -0.18392621383E+02 -0.87969794341E+01 -0.22482761265E+02  0.30350451769E+02  0.00000000000E+00 0.  1.
</event>
<event>
 4    1  0.3586324E+003  0.2327203E+02  0.7546771E-02  0.1489110E+00
          2   -1    0    0  502    0  0.00000000000E+00  0.00000000000E+00  0.11436574086E+04  0.11436574086E+04  0.00000000000E+00 0. -1.
          1   -1    0    0  501    0 -0.00000000000E+00 -0.00000000000E+00 -0.10699013456E+03  0.10699013456E+03  0.00000000000E+00 0.  1.
          2    1    1    2  501    0 -0.15926176469E+02 -0.16968917769E+02  0.11422719771E+04  0.11425090183E+04  0.00000000000E+00 0. -1.
          1    1    1    2  502    0  0.15926176469E+02  0.16968917769E+02 -0.10560470301E+03  0.10813852489E+03  0.00000000000E+00 0.  1.
</event>
<event>
 4    1  0.3586324E+003  0.2594485E+02  0.7546771E-02  0.1458505E+00
          2   -1    0    0  502    0  0.00000000000E+00  0.00000000000E+00  0.58201108324E+02  0.58201108324E+02  0.00000000000E+00 0. -1.
          1   -1    0    0  501    0 -0.00000000000E+00 -0.00000000000E+00 -0.25585788713E+02  0.25585788713E+02  0.00000000000E+00 0. -1.
          2    1    1    2  501    0 -0.14081295112E+02 -0.21791103861E+02  0.47319138957E+02  0.53965136812E+02  0.00000000000E+00 0. -1.
          1    1    1    2  502    0  0.14081295112E+02  0.21791103861E+02 -0.14703819346E+02  0.29821760225E+02  0.00000000000E+00 0. -1.
</event>
<event>
 4    1  0.3586324E+003  0.2218709E+02  0.7546771E-02  0.1502966E+00
          2   -1    0    0  502    0  0.00000000000E+00  0.00000000000E+00  0.26530296329E+03  0.26530296329E+03  0.00000000000E+00 0.  1.
          1   -1    0    0  501    0 -0.00000000000E+00 -0.00000000000E+00 -0.18675010759E+02  0.18675010759E+02  0.00000000000E+00 0.  1.
          2    1    1    2  501    0 -0.74124322955E+01  0.20912267362E+02  0.25806467786E+03  0.25901668872E+03  0.00000000000E+00 0.  1.
          1    1    1    2  502    0  0.74124322955E+01 -0.20912267362E+02 -0.11436725329E+02  0.24961285324E+02  0.00000000000E+00 0.  1.
</event>
<event>
 4    1  0.3586324E+003  0.2149757E+02  0.7546771E-02  0.1512278E+00
          2   -1    0    0  502    0  0.00000000000E+00  0.00000000000E+00  0.84569341861E+01  0.84569341861E+01  0.00000000000E+00 0. -1.
          1   -1    0    0  501    0 -0.00000000000E+00 -0.00000000000E+00 -0.43772640922E+03  0.43772640922E+03  0.00000000000E+00 0. -1.
          2    1    1    2  501    0  0.12566694550E+02  0.17442005356E+02 -0.59328216997E+01  0.22301204812E+02  0.00000000000E+00 0. -1.
          1    1    1    2  502    0 -0.12566694550E+02 -0.17442005356E+02 -0.42333665333E+03  0.42388213859E+03  0.00000000000E+00 0. -1.
</event>
<event>
 4    1  0.3586324E+003  0.2110441E+02  0.7546771E-02  0.1517779E+00
          2   -1    0    0  502    0  0.00000000000E+00  0.00000000000E+00  0.90143111297E+01  0.90143111297E+01  0.00000000000E+00 0.  1.
          1   -1    0    0  501    0 -0.00000000000E+00 -0.00000000000E+00 -0.15823672971E+03  0.15823672971E+03  0.00000000000E+00 0.  1.
          2    1    1    2  501    0 -0.19474052504E+02 -0.81337244169E+01 -0.52601375648E+01  0.21750063011E+02  0.00000000000E+00 0.  1.
          1    1    1    2  502    0  0.19474052504E+02  0.81337244169E+01 -0.14396228102E+03  0.14550097783E+03  0.00000000000E+00 0.  1.
</event>
<event>
 4    1  0.3586324E+003  0.2432600E+02  0.7546771E-02  0.1476487E+00
          2   -1    0    0  502    0  0.00000000000E+00  0.00000000000E+00  0.51488303362E+00  0.51488303362E+00  0.00000000000E+00 0.  1.
          1   -1    0    0  501    0 -0.00000000000E+00 -0.00000000000E+00 -0.11506775179E+04  0.11506775179E+04  0.00000000000E+00 0.  1.
          2    1    1    2  501    0  0.21700573873E+02 -0.10992693963E+02 -0.55515404595E+03  0.55568675435E+03  0.00000000000E+00 0.  1.
          1    1    1    2  502    0 -0.21700573873E+02  0.10992693963E+02 -0.59500858888E+03  0.59550564655E+03  0.00000000000E+00 0.  1.
</event>
<event>
 4    1  0.3586324E+003  0.2222666E+02  0.7546771E-02  0.1502444E+00
          2   -1    0    0  502    0  0.00000000000E+00  0.00000000000E+00  0.25910021217E+03  0.25910021217E+03  0.00000000000E+00 0. -1.
          1   -1    0    0  501    0 -0.00000000000E+00 -0.00000000000E+00 -0.33970020721E+01  0.33970020721E+01  0.00000000000E+00 0. -1.
          2    1    1    2  501    0  0.19040266674E+02  0.11467022988E+02  0.21478468699E+03  0.21593167006E+03  0.00000000000E+00 0. -1.
          1    1    1    2  502    0 -0.19040266674E+02 -0.11467022988E+02  0.40918523103E+02  0.46565544173E+02  0.00000000000E+00 0. -1.
</event>
<event>
 4    1  0.3586324E+003  0.3597412E+02  0.7546771E-02  0.1373841E+00
          2   -1    0    0  502    0  0.00000000000E+00  0.00000000000E+00  0.50843497410E+01  0.50843497410E+01  0.00000000000E+00 0.  1.
          1   -1    0    0  501    0 -0.00000000000E+00 -0.00000000000E+00 -0.63919571551E+03  0.63919571551E+03  0.00000000000E+00 0.  1.
          2    1    1    2  501    0  0.26214420086E+02  0.24636181174E+02 -0.67154941139E+02  0.76183484842E+02  0.00000000000E+00 0.  1.
          1    1    1    2  502    0 -0.26214420086E+02 -0.24636181174E+02 -0.56695642463E+03  0.56809658041E+03  0.00000000000E+00 0.  1.
</event>
<event>
 4    1  0.3586324E+003  0.2809760E+02  0.7546771E-02  0.1436883E+00
          2   -1    0    0  502    0  0.00000000000E+00  0.00000000000E+00  0.11802956259E+04  0.11802956259E+04  0.00000000000E+00 0.  1.
          1   -1    0    0  501    0 -0.00000000000E+00 -0.00000000000E+00 -0.80135213554E+01  0.80135213554E+01  0.00000000000E+00 0. -1.
          2    1    1    2  501    0  0.13279650330E+02 -0.24761385431E+02  0.11549587007E+04  0.11553004266E+04  0.00000000000E+00 0.  1.
          1    1    1    2  502    0 -0.13279650330E+02  0.24761385431E+02  0.17323403880E+02  0.33008720716E+02  0.00000000000E+00 0. -1.
</event>
<event>
 4    1  0.3586324E+003  0.2457912E+02  0.7546771E-02  0.1473567E+00
          2   -1    0    0  502    0  0.00000000000E+00  0.00000000000E+00  0.31755666786E+02  0.31755666786E+02  0.00000000000E+00 0. -1.
          1   -1    0    0  501    0 -0.00000000000E+00 -0.00000000000E+00 -0.20106260742E+02  0.20106260742E+02  0.00000000000E+00 0. -1.
          2    1    1    2  501    0 -0.15408959876E+01 -0.24530760423E+02 -0.19033398506E+00  0.24579845288E+02  0.00000000000E+00 0. -1.
          1    1    1    2  502    0  0.15408959876E+01  0.24530760423E+02  0.11839740029E+02  0.27282082239E+02  0.00000000000E+00 0. -1.
</event>
<event>
 4    1  0.3586324E+003  0.2868528E+02  0.7546771E-02  0.1431376E+00
          2   -1    0    0  502    0  0.00000000000E+00  0.00000000000E+00  0.66948156861E+03  0.66948156861E+03  0.00000000000E+00 0.  1.
          1   -1    0    0  501    0 -0.00000000000E+00 -0.00000000000E+00 -0.26747751212E+03  0.26747751212E+03  0.00000000000E+00 0.  1.
          2    1    1    2  501    0  0.21565583229E+02 -0.18914830121E+02  0.66840398091E+03  0.66901922758E+03  0.00000000000E+00 0.  1.
          1    1    1    2  502    0 -0.21565583229E+02  0.18914830121E+02 -0.26639992441E+03  0.26793985315E+03  0.00000000000E+00 0.  1.
</event>
<event>
 4    1  0.3586324E+003  0.3265478E+02  0.7546771E-02  0.1397845E+00
          2   -1    0    0  502    0  0.00000000000E+00  0.00000000000E+00  0.20528916967E+02  0.20528916967E+02  0.00000000000E+00 0.  1.
          1   -1    0    0  501    0 -0.00000000000E+00 -0.00000000000E+00 -0.71549776248E+02  0.71549776248E+02  0.00000000000E+00 0. -1.
          2    1    1    2  501    0  0.23207790250E+02 -0.22972442846E+02 -0.14098492637E+01  0.32685200528E+02  0.00000000000E+00 0.  1.
          1    1    1    2  502    0 -0.23207790250E+02  0.22972442846E+02 -0.49611010017E+02  0.59393492687E+02  0.00000000000E+00 0. -1.
</event>
<event>
 4    1  0.3586324E+003  0.3777678E+02  0.7546771E-02  0.1362030E+00
          2   -1    0    0  502    0  0.00000000000E+00  0.00000000000E+00  0.18155607707E+04  0.18155607707E+04  0.00000000000E+00 0. -1.
          1   -1    0    0  501    0 -0.00000000000E+00 -0.00000000000E+00 -0.46287395194E+03  0.46287395194E+03  0.00000000000E+00 0. -1.
          2    1    1    2  501    0  0.83487671705E+01  0.36842685007E+02  0.18145930779E+04  0.18149862599E+04  0.00000000000E+00 0. -1.
          1    1    1    2  502    0 -0.83487671705E+01 -0.36842685007E+02 -0.46190625914E+03  0.46344846271E+03  0.00000000000E+00 0. -1.
</event>
<event>
 4    1  0.3586324E+003  0.3360124E+02  0.7546771E-02  0.1390673E+00
          2   -1    0    0  502    0  0.00000000000E+00  0.00000000000E+00  0.89834046204E+02  0.89834046204E+02  0.00000000000E+00 0.  1.
          1   -1    0    0  501    0 -0.00000000000E+00 -0.00000000000E+00 -0.60832834187E+02  0.60832834187E+02  0.00000000000E+00 0. -1.
          2    1    1    2  501    0  0.20937764224E+02  0.26280283758E+02  0.81602338618E+02  0.88249560640E+02  0.00000000000E+00 0.  1.
          1    1    1    2  502    0 -0.20937764224E+02 -0.26280283758E+02 -0.52601126602E+02  0.62417319751E+02  0.00000000000E+00 0. -1.
</event>
<event>
 4    1  0.3586324E+003  0.2523758E+02  0.7546771E-02  0.1466163E+00
          2   -1    0    0  502    0  0.00000000000E+00  0.00000000000E+00  0.13300589722E+03  0.13300589722E+03  0.00000000000E+00 0. -1.
          1   -1    0    0  501    0 -0.00000000000E+00 -0.00000000000E+00 -0.48054314595E+02  0.48054314595E+02  0.00000000000E+00 0.  1.
          2    1    1    2  501    0 -0.16248625462E+02  0.19311074258E+02  0.12837672674E+03  0.13083393821E+03  0.00000000000E+00 0. -1.
          1    1    1    2  502    0  0.16248625462E+02 -0.19311074258E+02 -0.43425144118E+02  0.50226273603E+02  0.00000000000E+00 0.  1.
</event>
<event>
 4    1  0.3586324E+003  0.4337611E+02  0.7546771E-02  0.1329762E+00
          2   -1    0    0  502    0  0.00000000000E+00  0.00000000000E+00  0.15264198689E+04  0.15264198689E+04  0.00000000000E+00 0.  1.
          1   -1    0    0  501    0 -0.00000000000E+00 -0.00000000000E+00 -0.11451169885E+02  0.11451169885E+02  0.00000000000E+00 0.  1.
          2    1    1    2  501    0  0.38962752314E+02  0.19062802785E+02  0.14838574551E+04  0.14844913047E+04  0.00000000000E+00 0.  1.
          1    1    1    2  502    0 -0.38962752314E+02 -0.19062802785E+02  0.31111243898E+02  0.53379734120E+02  0.00000000000E+00 0.  1.
</event>
<event>
 4    1  0.3586324E+003  0.2580279E+02  0.7546771E-02  0.1460020E+00
          2   -1    0    0  502    0  0.00000000000E+00  0.00000000000E+00  0.92513594458E+03  0.92513594458E+03  0.00000000000E+00 0.  1.
          1   -1    0    0  501    0 -0.00000000000E+00 -0.00000000000E+00 -0.10828352443E+01  0.10828352443E+01  0.00000000000E+00 0.  1.
          2    1    1    2  501    0 -0.25746722196E+02 -0.17001515866E+01  0.73022727614E+03  0.73068300859E+03  0.00000000000E+00 0.  1.
          1    1    1    2  502    0  0.25746722196E+02  0.17001515866E+01  0.19382583319E+03  0.19553577124E+03  0.00000000000E+00 0.  1.
</event>
<event>
 4    1  0.3586324E+003  0.2260371E+02  0.7546771E-02  0.1497535E+00
          2   -1    0    0  502    0  0.00000000000E+00  0.00000000000E+00  0.50835774177E+03  0.50835774177E+03  0.00000000000E+00 0. -1.
          1   -1    0    0  501    0 -0.00000000000E+00 -0.00000000000E+00 -0.10086096114E+01  0.10086096114E+01  0.00000000000E+00 0. -1.
          2    1    1    2  501    0  0.12558329179E+02 -0.18794037653E+02  0.26879400313E+03  0.26974273595E+03  0.00000000000E+00 0. -1.
          1    1    1    2  502    0 -0.12558329179E+02  0.18794037653E+02  0.23855512903E+03  0.23962361542E+03  0.00000000000E+00 0. -1.
</event>
<event>
 4    1  0.3586324E+003  0.2208266E+02  0.7546771E-02  0.1504350E+00
          2   -1    0    0  502    0  0.00000000000E+00  0.00000000000E+00  0.17071834581E+02  0.17071834581E+02  0.00000000000E+00 0. -1.
          1   -1    0    0  501    0 -0.00000000000E+00 -0.00000000000E+00 -0.74520743855E+02  0.74520743855E+02  0.00000000000E+00 0. -1.
          2    1    1    2  501    0  0.56626271137E+01 -0.21344281795E+02  0.72393197365E+01  0.23239007325E+02  0.00000000000E+00 0. -1.
          1    1    1    2  502    0 -0.56626271137E+01  0.21344281795E+02 -0.64688229010E+02  0.68353571111E+02  0.00000000000E+00 0. -1.
</event>
<event>
 4    1  0.3586324E+003  0.3269545E+02  0.7546771E-02  0.1397531E+00
          2   -1    0    0  502    0  0.00000000000E+00  0.00000000000E+00  0.60952381706E+03  0.60952381706E+03  0.00000000000E+00 0. -1.
          1   -1    0    0  501    0 -0.00000000000E+00 -0.00000000000E+00 -0.55120378183E+01  0.55120378183E+01  0.00000000000E+00 0. -1.
          2    1    1    2  501    0 -0.26667035193E+02  0.18917230799E+02  0.55593095433E+03  0.55689156788E+03  0.00000000000E+00 0. -1.
          1    1    1    2  502    0  0.26667035193E+02 -0.18917230799E+02  0.48080824913E+02  0.58144287006E+02  0.00000000000E+00 0. -1.
</event>
<event>
 4    1  0.3586324E+003  0.3100532E+02  0.7546771E-02  0.1411057E+00
          2   -1    0    0  502    0  0.00000000000E+00  0.00000000000E+00  0.11620312857E+04  0.11620312857E+04  0.00000000000E+00 0. -1.
          1   -1    0    0  501    0 -0.00000000000E+00 -0.00000000000E+00 -0.16941171722E+01  0.16941171722E+01  0.00000000000E+00 0.  1.
          2    1    1    2  501    0 -0.10935892542E+02 -0.29012690073E+02  0.99638245471E+03  0.99686474809E+03  0.00000000000E+00 0. -1.
          1    1    1    2  502    0  0.10935892542E+02  0.29012690073E+02  0.16395471378E+03  0.16686065474E+03  0.00000000000E+00 0.  1.
</event>
<event>
 4    1  0.3586324E+003  0.2104945E+02  0.7546771E-02  0.1518560E+00
          2   -1    0    0  502    0  0.00000000000E+00  0.00000000000E+00  0.93503194007E+02  0.93503194007E+02  0.00000000000E+00 0. -1.
          1   -1    0    0  501    0 -0.00000000000E+00 -0.00000000000E+00 -0.20754956685E+02  0.20754956685E+02  0.00000000000E+00 0. -1.
          2    1    1    2  501    0 -0.17998934548E+02  0.10914096722E+02  0.86559523543E+02  0.89082154600E+02  0.00000000000E+00 0. -1.
          1    1    1    2  502    0  0.17998934548E+02 -0.10914096722E+02 -0.13811286221E+02  0.25175996092E+02  0.00000000000E+00 0. -1.
</event>
<event>
 4    1  0.3586324E+003  0.1214729E+03  0.7546771E-02  0.1131062E+00
          2   -1    0    0  502    0  0.00000000000E+00  0.00000000000E+00  0.72798019915E+03  0.72798019915E+03  0.00000000000E+00 0.  1.
          1   -1    0    0  501    0 -0.00000000000E+00 -0.00000000000E+00 -0.33749928503E+03  0.33749928503E+03  0.00000000000E+00 0. -1.
          2    1    1    2  501    0 -0.11669062805E+03 -0.33748364807E+02  0.71173504779E+03  0.72202661520E+03  0.00000000000E+00 0.  1.
          1    1    1    2  502    0  0.11669062805E+03  0.33748364807E+02 -0.32125413368E+03  0.34345286897E+03  0.00000000000E+00 0. -1.
</event>
<event>
 4    1  0.3586324E+003  0.2082492E+02  0.7546771E-02  0.1521779E+00
          2   -1    0    0  502    0  0.00000000000E+00  0.00000000000E+00  0.27375097047E+02  0.27375097047E+02  0.00000000000E+00 0.  1.
          1   -1    0    0  501    0 -0.00000000000E+00 -0.00000000000E+00 -0.19668471053E+03  0.19668471053E+03  0.00000000000E+00 0. -1.
          2    1    1    2  501    0 -0.13417895559E+02  0.15925997843E+02  0.22768649374E+02  0.30855934969E+02  0.00000000000E+00 0.  1.
          1    1    1    2  502    0  0.13417895559E+02 -0.15925997843E+02 -0.19207826285E+03  0.19320387260E+03  0.00000000000E+00 0. -1.
</event>
<event>
 4    1  0.3586324E+003  0.2520747E+02  0.7546771E-02  0.1466496E+00
          2   -1    0    0  502    0  0.00000000000E+00  0.00000000000E+00  0.23630035622E+02  0.23630035622E+02  0.00000000000E+00 0.  1.
          1   -1    0    0  501    0 -0.00000000000E+00 -0.00000000000E+00 -0.13189802381E+03  0.13189802381E+03  0.00000000000E+00 0. -1.
          2    1    1    2  501    0  0.99163947501E+01  0.23175020745E+02  0.15251779498E+02  0.29462403996E+02  0.00000000000E+00 0.  1.
          1    1    1    2  502    0 -0.99163947501E+01 -0.23175020745E+02 -0.12351976768E+03  0.12606565544E+03  0.00000000000E+00 0. -1.
</event>
<event>
 4    1  0.3586324E+003  0.2620773E+02  0.7546771E-02  0.1455733E+00
          2   -1    0    0  502    0  0.00000000000E+00  0.00000000000E+00  0.13071860551E+04  0.13071860551E+04  0.00000000000E+00 0.  1.
          1   -1    0    0  501    0 -0.00000000000E+00 -0.00000000000E+00 -0.26193097092E+02  0.26193097092E+02  0.00000000000E+00 0. -1.
          2    1    1    2  501    0  0.20873242895E+02  0.15847798006E+02  0.13004652283E+04  0.13007292781E+04  0.00000000000E+00 0.  1.
          1    1    1    2  502    0 -0.20873242895E+02 -0.15847798006E+02 -0.19472270247E+02  0.32649874106E+02  0.00000000000E+00 0. -1.
</event>
<event>
 4    1  0.3586324E+003  0.5266230E+02  0.7546771E-02  0.1287025E+00
          2   -1    0    0  502    0  0.00000000000E+00  0.00000000000E+00  0.16211943720E+04  0.16211943720E+04  0.00000000000E+00 0. -1.
          1   -1    0    0  501    0 -0.00000000000E+00 -0.00000000000E+00 -0.22957025482E+02  0.22957025482E+02  0.00000000000E+00 0.  1.
          2    1    1    2  501    0  0.41286433365E+02 -0.32691714853E+02  0.15899726301E+04  0.15908445186E+04  0.00000000000E+00 0. -1.
          1    1    1    2  502    0 -0.41286433365E+02  0.32691714853E+02  0.82647163994E+01  0.53306878892E+02  0.00000000000E+00 0.  1.
</event>
<event>
 4    1  0.3586324E+003  0.2606889E+02  0.7546771E-02  0.1457192E+00
          2   -1    0    0  502    0  0.00000000000E+00  0.00000000000E+00  0.44006268984E+03  0.44006268984E+03  0.00000000000E+00 0. -1.
          1   -1    0    0  501    0 -0.00000000000E+00 -0.00000000000E+00 -0.87390811261E+03  0.87390811261E+03  0.00000000000E+00 0.  1.
          2    1    1    2  501    0 -0.21847677633E+01  0.25977182283E+02  0.43948194870E+03  0.44025443830E+03  0.00000000000E+00 0. -1.
          1    1    1    2  502    0  0.21847677633E+01 -0.25977182283E+02 -0.87332737147E+03  0.87371636414E+03  0.00000000000E+00 0.  1.
</event>
<event>
 4    1  0.3586324E+003  0.2444670E+02  0.7546771E-02  0.1475089E+00
          2   -1    0    0  502    0  0.00000000000E+00  0.00000000000E+00  0.19380915579E+02  0.19380915579E+02  0.00000000000E+00 0.  1.
          1   -1    0    0  501    0 -0.00000000000E+00 -0.00000000000E+00 -0.30185102591E+03  0.30185102591E+03  0.00000000000E+00 0. -1.
          2    1    1    2  501    0  0.21533061273E+02 -0.11574468932E+02  0.10955823020E+02  0.26789384407E+02  0.00000000000E+00 0.  1.
          1    1    1    2  502    0 -0.21533061273E+02  0.11574468932E+02 -0.29342593335E+03  0.29444255708E+03  0.00000000000E+00 0. -1.
</event>
<event>
 4    1  0.3586324E+003  0.2118685E+02  0.7546771E-02  0.1516614E+00
          2   -1    0    0  502    0  0.00000000000E+00  0.00000000000E+00  0.64227323326E+01  0.64227323326E+01  0.00000000000E+00 0.  1.
          1   -1    0    0  501    0 -0.00000000000E+00 -0.00000000000E+00 -0.35092564040E+03  0.35092564040E+03  0.00000000000E+00 0.  1.
          2    1    1    2  501    0  0.20547961954E+02  0.51637107628E+01 -0.12356331302E+02  0.24526752181E+02  0.00000000000E+00 0.  1.
          1    1    1    2  502    0 -0.20547961954E+02 -0.51637107628E+01 -0.33214657676E+03  0.33282162055E+03  0.00000000000E+00 0.  1.
</event>
<event>
 4    1  0.3586324E+003  0.2439769E+02  0.7546771E-02  0.1475655E+00
          2   -1    0    0  502    0  0.00000000000E+00  0.00000000000E+00  0.66354621255E+03  0.66354621255E+03  0.00000000000E+00 0. -1.
          1   -1    0    0  501    0 -0.00000000000E+00 -0.00000000000E+00 -0.77463183034E+02  0.77463183034E+02  0.00000000000E+00 0. -1.
          2    1    1    2  501    0  0.22239941169E+02 -0.10031558104E+02  0.66139463318E+03  0.66184447413E+03  0.00000000000E+00 0. -1.
          1    1    1    2  502    0 -0.22239941169E+02  0.10031558104E+02 -0.75311603666E+02  0.79164921449E+02  0.00000000000E+00 0. -1.
</event>
<event>
 4    1  0.3586324E+003  0.2226093E+02  0.7546771E-02  0.1501993E+00
          2   -1    0    0  502    0  0.00000000000E+00  0.00000000000E+00  0.51956377719E+01  0.51956377719E+01  0.00000000000E+00 0. -1.
          1   -1    0    0  501    0 -0.00000000000E+00 -0.00000000000E+00 -0.58829989785E+03  0.58829989785E+03  0.00000000000E+00 0.  1.
          2    1    1    2  501    0 -0.22184013167E+02  0.18489203848E+01 -0.19922475981E+02  0.29873968534E+02  0.00000000000E+00 0. -1.
          1    1    1    2  502    0  0.22184013167E+02 -0.18489203848E+01 -0.56318178410E+03  0.56362156709E+03  0.00000000000E+00 0.  1.
</event>
<event>
 4    1  0.3586324E+003  0.4630997E+02  0.7546771E-02  0.1315016E+00
          2   -1    0    0  502    0  0.00000000000E+00  0.00000000000E+00  0.69684543922E+03  0.69684543922E+03  0.00000000000E+00 0. -1.
          1   -1    0    0  501    0 -0.00000000000E+00 -0.00000000000E+00 -0.20262253814E+03  0.20262253814E+03  0.00000000000E+00 0.  1.
          2    1    1    2  501    0 -0.14156571637E+02 -0.44093134152E+02  0.69341690083E+03  0.69496158984E+03  0.00000000000E+00 0. -1.
          1    1    1    2  502    0  0.14156571637E+02  0.44093134152E+02 -0.19919399975E+03  0.20450638752E+03  0.00000000000E+00 0.  1.
</event>
<event>
 4    1  0.3586324E+003  0.3174057E+02  0.7546771E-02  0.1405051E+00
          2   -1    0    0  502    0  0.00000000000E+00  0.00000000000E+00  0.46026879048E+03  0.46026879048E+03  0.00000000000E+00 0. -1.
          1   -1    0    0  501    0 -0.00000000000E+00 -0.00000000000E+00 -0.32005975983E+01  0.32005975983E+01  0.00000000000E+00 0.  1.
          2    1    1    2  501    0 -0.23744019367E+02 -0.21063841295E+02  0.35882362209E+03  0.36022472935E+03  0.00000000000E+00 0. -1.
          1    1    1    2  502    0  0.23744019367E+02  0.21063841295E+02  0.98244570792E+02  0.10324465873E+03  0.00000000000E+00 0.  1.
</event>
<event>
 4    1  0.3586324E+003  0.2343275E+02  0.7546771E-02  0.1487134E+00
          2   -1    0    0  502    0  0.00000000000E+00  0.00000000000E+00  0.15642131060E+04  0.15642131060E+04  0.00000000000E+00 0.  1.
          1   -1    0    0  501    0 -0.00000000000E+00 -0.00000000000E+00 -0.35616318542E+00  0.35616318542E+00  0.00000000000E+00 0.  1.
          2    1    1    2  501    0 -0.19320216547E+01 -0.23352963089E+02  0.87579719817E+03  0.87611062424E+03  0.00000000000E+00 0.  1.
          1    1    1    2  502    0  0.19320216547E+01  0.23352963089E+02  0.68805974464E+03  0.68845864494E+03  0.00000000000E+00 0.  1.
</event>
<event>
 4    1  0.3586324E+003  0.2132240E+02  0.7546771E-02  0.1514711E+00
          2   -1    0    0  502    0  0.00000000000E+00  0.00000000000E+00  0.82088445309E+02  0.82088445309E+02  0.00000000000E+00 0.  1.
          1   -1    0    0  501    0 -0.00000000000E+00 -0.00000000000E+00 -0.58399918321E+03  0.58399918321E+03  0.00000000000E+00 0.  1.
          2    1    1    2  501    0  0.11161397924E+02  0.18167771885E+02  0.80505439032E+02  0.83281273121E+02  0.00000000000E+00 0.  1.
          1    1    1    2  502    0 -0.11161397924E+02 -0.18167771885E+02 -0.58241617693E+03  0.58280635540E+03  0.00000000000E+00 0.  1.
</event>
<event>
 4    1  0.3586324E+003  0.2103591E+02  0.7546771E-02  0.1518753E+00
          2   -1    0    0  502    0  0.00000000000E+00  0.00000000000E+00  0.27357624445E+01  0.27357624445E+01  0.00000000000E+00 0.  1.
          1   -1    0    0  501    0 -0.00000000000E+00 -0.00000000000E+00 -0.16175453359E+03  0.16175453359E+03  0.00000000000E+00 0. -1.
          2    1    1    2  501    0 -0.20631554109E+02  0.41046393651E+01 -0.79953251022E+02  0.82674248942E+02  0.00000000000E+00 0.  1.
          1    1    1    2  502    0  0.20631554109E+02 -0.41046393651E+01 -0.79065520119E+02  0.81816047088E+02  0.00000000000E+00 0. -1.
</event>
<event>
 4    1  0.3586324E+003  0.2358595E+02  0.7546771E-02  0.1485269E+00
          2   -1    0    0  502    0  0.00000000000E+00  0.00000000000E+00  0.43335518725E+01  0.43335518725E+01  0.00000000000E+00 0.  1.
          1   -1    0    0  501    0 -0.00000000000E+00 -0.00000000000E+00 -0.44085818921E+03  0.44085818921E+03  0.00000000000E+00 0. -1.
          2    1    1    2  501    0 -0.99504509443E+01 -0.21384238212E+02 -0.30855839813E+02  0.38837867713E+02  0.00000000000E+00 0.  1.
          1    1    1    2  502    0  0.99504509443E+01  0.21384238212E+02 -0.40566879752E+03  0.40635387337E+03  0.00000000000E+00 0. -1.
</event>
<event>
 4    1  0.3586324E+003  0.2757007E+02  0.7546771E-02  0.1441964E+00
          2   -1    0    0  502    0  0.00000000000E+00  0.00000000000E+00  0.80610721516E+03  0.80610721516E+03  0.00000000000E+00 0. -1.
          1   -1    0    0  501    0 -0.00000000000E+00 -0.00000000000E+00 -0.11571956481E+03  0.11571956481E+03  0.00000000000E+00 0.  1.
          2    1    1    2  501    0 -0.27075590778E+02  0.51981618559E+01  0.80422550494E+03  0.80469793792E+03  0.00000000000E+00 0. -1.
          1    1    1    2  502    0  0.27075590778E+02 -0.51981618559E+01 -0.11383785458E+03  0.11712884205E+03  0.00000000000E+00 0.  1.
</event>
<event>
 4    1  0.3586324E+003  0.2518046E+02  0.7546771E-02  0.1466795E+00
          2   -1    0    0  502    0  0.00000000000E+00  0.00000000000E+00  0.16087096587E+04  0.16087096587E+04  0.00000000000E+00 0.  1.
          1   -1    0    0  501    0 -0.00000000000E+00 -0.00000000000E+00 -0.41678020484E+01  0.41678020484E+01  0.00000000000E+00 0.  1.
          2    1    1    2  501    0  0.17006898531E+02 -0.18569361224E+02  0.15696313134E+04  0.15698332764E+04  0.00000000000E+00 0.  1.
          1    1    1    2  502    0 -0.17006898531E+02  0.18569361224E+02  0.34910543264E+02  0.43044184333E+02  0.00000000000E+00 0.  1.
</event>
<event>
 4    1  0.3586324E+003  0.2618740E+02  0.7546771E-02  0.1455946E+00
          2   -1    0    0  502    0  0.00000000000E+00  0.00000000000E+00  0.82882134429E+03  0.82882134429E+03  0.00000000000E+00 0.  1.
          1   -1    0    0  501    0 -0.00000000000E+00 -0.00000000000E+00 -0.99972838467E+01  0.99972838467E+01  0.00000000000E+00 0.  1.
          2    1    1    2  501    0 -0.23844638662E+02  0.10826492206E+02  0.81109054893E+03  0.81151319045E+03  0.00000000000E+00 0.  1.
          1    1    1    2  502    0  0.23844638662E+02 -0.10826492206E+02  0.77335115137E+01  0.27305437677E+02  0.00000000000E+00 0.  1.
</event>
<event>
 4    1  0.3586324E+003  0.4422374E+02  0.7546771E-02  0.1325367E+00
          2   -1    0    0  502    0  0.00000000000E+00  0.00000000000E+00  0.23701625276E+03  0.23701625276E+03  0.00000000000E+00 0. -1.
          1   -1    0    0  501    0 -0.00000000000E+00 -0.00000000000E+00 -0.21506656624E+03  0.21506656624E+03  0.00000000000E+00 0. -1.
          2    1    1    2  501    0  0.41480187547E+02  0.15334054500E+02  0.23263755641E+03  0.23680365673E+03  0.00000000000E+00 0. -1.
          1    1    1    2  502    0 -0.41480187547E+02 -0.15334054500E+02 -0.21068786990E+03  0.21527916227E+03  0.00000000000E+00 0. -1.
</event>
<event>
 4    1  0.4146708E+003  0.2205192E+02  0.7546771E-02  0.1504759E+00
          2   -1    0    0  502    0  0.00000000000E+00  0.00000000000E+00  0.13102745361E+04  0.13102745361E+04  0.00000000000E+00 0.  1.
          1   -1    0    0  501    0 -0.00000000000E+00 -0.00000000000E+00 -0.59953384543E+03  0.59953384543E+03  0.00000000000E+00 0.  1.
          2    1    1    2  501    0  0.11586981607E+02  0.18762431227E+02  0.13099789298E+04  0.13101645253E+04  0.00000000000E+00 0.  1.
          1    1    1    2  502    0 -0.11586981607E+02 -0.18762431227E+02 -0.59923823915E+03  0.59964385615E+03  0.00000000000E+00 0.  1.
</event>
<event>
 4    1  0.3586324E+003  0.3183893E+02  0.7546771E-02  0.1404262E+00
          2   -1    0    0  502    0  0.00000000000E+00  0.00000000000E+00  0.22315037717E+03  0.22315037717E+03  0.00000000000E+00 0. -1.
          1   -1    0    0  501    0 -0.00000000000E+00 -0.00000000000E+00 -0.49682528709E+02  0.49682528709E+02  0.00000000000E+00 0.  1.
          2    1    1    2  501    0  0.16363935247E+02  0.27311889234E+02  0.21676423239E+03  0.21909005024E+03  0.00000000000E+00 0. -1.
          1    1    1    2  502    0 -0.16363935247E+02 -0.27311889234E+02 -0.43296383932E+02  0.53742855636E+02  0.00000000000E+00 0.  1.
</event>
<event>
 4    1  0.3586324E+003  0.2495515E+02  0.7546771E-02  0.1469306E+00
          2   -1    0    0  502    0  0.00000000000E+00  0.00000000000E+00  0.43620142154E+02  0.43620142154E+02  0.00000000000E+00 0.  1.
          1   -1    0    0  501    0 -0.00000000000E+00 -0.00000000000E+00 -0.72335258422E+03  0.72335258422E+03  0.00000000000E+00 0. -1.
          2    1    1    2  501    0 -0.72577518338E+01 -0.23876439662E+02  0.39816829536E+02  0.46990842160E+02  0.00000000000E+00 0.  1.
          1    1    1    2  502    0  0.72577518338E+01  0.23876439662E+02 -0.71954927160E+03  0.71998188421E+03  0.00000000000E+00 0. -1.
</event>
<event>
 4    1  0.3586324E+003  0.2200916E+02  0.7546771E-02  0.1505330E+00
          2   -1    0    0  502    0  0.00000000000E+00  0.00000000000E+00  0.16182847058E+03  0.16182847058E+03  0.00000000000E+00 0. -1.
          1   -1    0    0  501    0 -0.00000000000E+00 -0.00000000000E+00 -0.15020691710E+03  0.15020691710E+03  0.00000000000E+00 0. -1.
          2    1    1    2  501    0 -0.96499946712E+01 -0.19780818187E+02  0.16026609312E+03  0.16177028085E+03  0.00000000000E+00 0. -1.
          1    1    1    2  502    0  0.96499946712E+01  0.19780818187E+02 -0.14864453964E+03  0.15026510683E+03  0.00000000000E+00 0. -1.
</event>
<event>
 4    1  0.3586324E+003  0.3183520E+02  0.7546771E-02  0.1404292E+00
          2   -1    0    0  502    0  0.00000000000E+00  0.00000000000E+00  0.17614539731E+03  0.17614539731E+03  0.00000000000E+00 0. -1.
          1   -1    0    0  501    0 -0.00000000000E+00 -0.00000000000E+00 -0.47846266139E+02  0.47846266139E+02  0.00000000000E+00 0.  1.
          2    1    1    2  501    0  0.14544995923E+02 -0.28318246060E+02  0.16919586645E+03  0.17216480823E+03  0.00000000000E+00 0. -1.
          1    1    1    2  502    0 -0.14544995923E+02  0.28318246060E+02 -0.40896735278E+02  0.51826855227E+02  0.00000000000E+00 0.  1.
</event>
<event>
 4    1  0.3586324E+003  0.2442180E+02  0.7546771E-02  0.1475377E+00
          2   -1    0    0  502    0  0.00000000000E+00  0.00000000000E+00  0.50723949407E+03  0.50723949407E+03  0.00000000000E+00 0. -1.
          1   -1    0    0  501    0 -0.00000000000E+00 -0.00000000000E+00 -0.21297849536E+01  0.21297849536E+01  0.00000000000E+00 0.  1.
          2    1    1    2  501    0  0.11280401682E+02 -0.21660489013E+02  0.42300612039E+03  0.42371051690E+03  0.00000000000E+00 0. -1.
          1    1    1    2  502    0 -0.11280401682E+02  0.21660489013E+02  0.82103588726E+02  0.85658762121E+02  0.00000000000E+00 0.  1.
</event>
<event>
 4    1  0.3586324E+003  0.2049335E+02  0.7546771E-02  0.1526623E+00
          2   -1    0    0  502    0  0.00000000000E+00  0.00000000000E+00  0.36210341315E+01  0.36210341315E+01  0.00000000000E+00 0.  1.
          1   -1    0    0  501    0 -0.00000000000E+00 -0.00000000000E+00 -0.36809463888E+03  0.36809463888E+03  0.00000000000E+00 0. -1.
          2    1    1    2  501    0 -0.10541964575E+02  0.17573966809E+02 -0.28422105183E+02  0.35039882841E+02  0.00000000000E+00 0.  1.
          1    1    1    2  502    0  0.10541964575E+02 -0.17573966809E+02 -0.33605149957E+03  0.33667579017E+03  0.00000000000E+00 0. -1.
</event>
<event>
 4    1  0.3586324E+003  0.2846234E+02  0.7546771E-02  0.1433447E+00
          2   -1    0    0  502    0  0.00000000000E+00  0.00000000000E+00  0.43357960283E+02  0.43357960283E+02  0.00000000000E+00 0. -1.
          1   -1    0    0  501    0 -0.00000000000E+00 -0.00000000000E+00 -0.48079897482E+02  0.48079897482E+02  0.00000000000E+00 0.  1.
          2    1    1    2  501    0 -0.19783202176E+02  0.20462885009E+02  0.33387451693E+02  0.43872846748E+02  0.00000000000E+00 0. -1.
          1    1    1    2  502    0  0.19783202176E+02 -0.20462885009E+02 -0.38109388893E+02  0.47565011017E+02  0.00000000000E+00 0.  1.
</event>
<event>
 4    1  0.3586324E+003  0.6086777E+02  0.7546771E-02  0.1256912E+00
          2   -1    0    0  502    0  0.00000000000E+00  0.00000000000E+00  0.35855164486E+03  0.35855164486E+03  0.00000000000E+00 0. -1.
          1   -1    0    0  501    0 -0.00000000000E+00 -0.00000000000E+00 -0.92606680726E+02  0.92606680726E+02  0.00000000000E+00 0.  1.
          2    1    1    2  501    0 -0.77602010172E+01 -0.60371062179E+02  0.34559462605E+03  0.35091385186E+03  0.00000000000E+00 0. -1.
          1    1    1    2  502    0  0.77602010172E+01  0.60371062179E+02 -0.79649661921E+02  0.10024447373E+03  0.00000000000E+00 0.  1.
</event>
<event>
 4    1  0.3586324E+003  0.2921012E+02  0.7546771E-02  0.1426587E+00
          2   -1    0    0  502    0  0.00000000000E+00  0.00000000000E+00  0.13008087673E+04  0.13008087673E+04  0.00000000000E+00 0. -1.
          1   -1    0    0  501    0 -0.00000000000E+00 -0.00000000000E+00 -0.68190122923E+01  0.68190122923E+01  0.00000000000E+00 0. -1.
          2    1    1    2  501    0 -0.86664853370E+01  0.27894854998E+02  0.12685685655E+04  0.12689048177E+04  0.00000000000E+00 0. -1.
          1    1    1    2  502    0  0.86664853370E+01 -0.27894854998E+02  0.25421189453E+02  0.38722961879E+02  0.00000000000E+00 0. -1.
</event>
<event>
 4    1  0.3586324E+003  0.2327130E+02  0.7546771E-02  0.1489119E+00
          2   -1    0    0  502    0  0.00000000000E+00  0.00000000000E+00  0.14537213711E+03  0.14537213711E+03  0.00000000000E+00 0. -1.
          1   -1    0    0  501    0 -0.00000000000E+00 -0.00000000000E+00 -0.10809554484E+02  0.10809554484E+02  0.00000000000E+00 0.  1.
          2    1    1    2  501    0 -0.38680094655E+01 -0.22947587535E+02  0.13049971070E+03  0.13255839379E+03  0.00000000000E+00 0. -1.
          1    1    1    2  502    0  0.38680094655E+01  0.22947587535E+02  0.40628719257E+01  0.23623297805E+02  0.00000000000E+00 0.  1.
</event>
<event>
 4    1  0.3586324E+003  0.3188171E+02  0.7546771E-02  0.1403920E+00
          2   -1    0    0  502    0  0.00000000000E+00  0.00000000000E+00  0.60714470802E+02  0.60714470802E+02  0.00000000000E+00 0. -1.
          1   -1    0    0  501    0 -0.00000000000E+00 -0.00000000000E+00 -0.93688466909E+02  0.93688466909E+02  0.00000000000E+00 0.  1.
          2    1    1    2  501    0  0.26081151689E+02 -0.18336217335E+02  0.53477644650E+02  0.62259953556E+02  0.00000000000E+00 0. -1.
          1    1    1    2  502    0 -0.26081151689E+02  0.18336217335E+02 -0.86451640757E+02  0.92142984155E+02  0.00000000000E+00 0.  1.
</event>
<event>
 4    1  0.3586324E+003  0.2856759E+02  0.7546771E-02  0.1432467E+00
          2   -1    0    0  502    0  0.00000000000E+00  0.00000000000E+00  0.47195246193E+01  0.47195246193E+01  0.00000000000E+00 0. -1.
          1   -1    0    0  501    0 -0.00000000000E+00 -0.00000000000E+00 -0.22617521160E+03  0.22617521160E+03  0.00000000000E+00 0.  1.
          2    1    1    2  501    0  0.26019957137E+02 -0.11792743027E+02 -0.54708663087E+02  0.61718269372E+02  0.00000000000E+00 0. -1.
          1    1    1    2  502    0 -0.26019957137E+02  0.11792743027E+02 -0.16674702389E+03  0.16917646685E+03  0.00000000000E+00 0.  1.
</event>
<event>
 4    1  0.3586324E+003  0.2335394E+02  0.7546771E-02  0.1488101E+00
          2   -1    0    0  502    0  0.00000000000E+00  0.00000000000E+00  0.21848547085E+02  0.21848547085E+02  0.00000000000E+00 0.  1.
          1   -1    0    0  501    0 -0.00000000000E+00 -0.00000000000E+00 -0.83286663486E+02  0.83286663486E+02  0.00000000000E+00 0.  1.
          2    1    1    2  501    0  0.16684263445E+02  0.16341410245E+02  0.13270811855E+02  0.26861138896E+02  0.00000000000E+00 0.  1.
          1    1    1    2  502    0 -0.16684263445E+02 -0.16341410245E+02 -0.74708928256E+02  0.78274071675E+02  0.00000000000E+00 0.  1.
</event>
<event>
 4    1  0.3586324E+003  0.2833748E+02  0.7546771E-02  0.1434616E+00
          2   -1    0    0  502    0  0.00000000000E+00  0.00000000000E+00  0.88632075680E+02  0.88632075680E+02  0.00000000000E+00 0.  1.
          1   -1    0    0  501    0 -0.00000000000E+00 -0.00000000000E+00 -0.12143431825E+02  0.12143431825E+02  0.00000000000E+00 0. -1.
          2    1    1    2  501    0 -0.63728370585E+01 -0.27611588230E+02  0.63634543282E+02  0.69658940241E+02  0.00000000000E+00 0.  1.
          1    1    1    2  502    0  0.63728370585E+01  0.27611588230E+02  0.12854100573E+02  0.31116567264E+02  0.00000000000E+00 0. -1.
</event>
<event>
 4    1  0.3586324E+003  0.3472384E+02  0.7546771E-02  0.1382515E+00
          2   -1    0    0  502    0  0.00000000000E+00  0.00000000000E+00  0.11602220665E+01  0.11602220665E+01  0.00000000000E+00 0.  1.
          1   -1    0    0  501    0 -0.00000000000E+00 -0.00000000000E+00 -0.10795215070E+04  0.10795215070E+04  0.00000000000E+00 0.  1.
          2    1    1    2  501    0  0.18573236800E+02  0.29339055386E+02 -0.43479925504E+03  0.43618360524E+03  0.00000000000E+00 0.  1.
          1    1    1    2  502    0 -0.18573236800E+02 -0.29339055386E+02 -0.64356202986E+03  0.64449812380E+03  0.00000000000E+00 0.  1.
</event>
<event>
 4    1  0.3586324E+003  0.3116012E+02  0.7546771E-02  0.1409776E+00
          2   -1    0    0  502    0  0.00000000000E+00  0.00000000000E+00  0.26959753529E+03  0.26959753529E+03  0.00000000000E+00 0.  1.
          1   -1    0    0  501    0 -0.00000000000E+00 -0.00000000000E+00 -0.36076769717E+01  0.36076769717E+01  0.00000000000E+00 0.  1.
          2    1    1    2  501    0  0.20870775923E+02 -0.23137926378E+02  0.13865173871E+03  0.14211001925E+03  0.00000000000E+00 0.  1.
          1    1    1    2  502    0 -0.20870775923E+02  0.23137926378E+02  0.12733811961E+03  0.13109519301E+03  0.00000000000E+00 0.  1.
</event>
<event>
 4    1  0.3586324E+003  0.2926615E+02  0.7546771E-02  0.1426083E+00
          2   -1    0    0  502    0  0.00000000000E+00  0.00000000000E+00  0.22095551448E+02  0.22095551448E+02  0.00000000000E+00 0. -1.
          1   -1    0    0  501    0 -0.00000000000E+00 -0.00000000000E+00 -0.52599169557E+02  0.52599169557E+02  0.00000000000E+00 0. -1.
          2    1    1    2  501    0  0.67565426786E+01  0.28475542412E+02  0.39024766243E+01  0.29525187695E+02  0.00000000000E+00 0. -1.
          1    1    1    2  502    0 -0.67565426786E+01 -0.28475542412E+02 -0.34406094733E+02  0.45169533309E+02  0.00000000000E+00 0. -1.
</event>
<event>
 4    1  0.3586324E+003  0.2294180E+02  0.7546771E-02  0.1493230E+00
          2   -1    0    0  502    0  0.00000000000E+00  0.00000000000E+00  0.10378381627E+04  0.10378381627E+04  0.00000000000E+00 0.  1.
          1   -1    0    0  501    0 -0.00000000000E+00 -0.00000000000E+00 -0.70012875613E+01  0.70012875613E+01  0.00000000000E+00 0. -1.
          2    1    1    2  501    0  0.44426253381E+01 -0.22507541886E+02  0.10185618347E+04  0.10188201694E+04  0.00000000000E+00 0.  1.
          1    1    1    2  502    0 -0.44426253381E+01  0.22507541886E+02  0.12275040444E+02  0.26019280919E+02  0.00000000000E+00 0. -1.
</event>
<event>
 4    1  0.3586324E+003  0.2543158E+02  0.7546771E-02  0.1464033E+00
          2   -1    0    0  502    0  0.00000000000E+00  0.00000000000E+00  0.31832518386E+02  0.31832518386E+02  0.00000000000E+00 0.  1.
          1   -1    0    0  501    0 -0.00000000000E+00 -0.00000000000E+00 -0.12916967774E+03  0.12916967774E+03  0.00000000000E+00 0.  1.
          2    1    1    2  501    0  0.90126072152E+01 -0.23781046200E+02  0.25230592355E+02  0.35823847334E+02  0.00000000000E+00 0.  1.
          1    1    1    2  502    0 -0.90126072152E+01  0.23781046200E+02 -0.12256775171E+03  0.12517834879E+03  0.00000000000E+00 0.  1.
</event>
<event>
 4    1  0.3586324E+003  0.2973357E+02  0.7546771E-02  0.1421926E+00
          2   -1    0    0  502    0  0.00000000000E+00  0.00000000000E+00  0.13227144686E+01  0.13227144686E+01  0.00000000000E+00 0. -1.
          1   -1    0    0  501    0 -0.00000000000E+00 -0.00000000000E+00 -0.66872289828E+03  0.66872289828E+03  0.00000000000E+00 0. -1.
          2    1    1    2  501    0 -0.23592173555E+02  0.18096812907E+02 -0.32619269779E+03  0.32754505245E+03  0.00000000000E+00 0. -1.
          1    1    1    2  502    0  0.23592173555E+02 -0.18096812907E+02 -0.34120748602E+03  0.34250056030E+03  0.00000000000E+00 0. -1.
</event>
<event>
 4    1  0.3586324E+003  0.3856710E+02  0.7546771E-02  0.1357093E+00
          2   -1    0    0  502    0  0.00000000000E+00  0.00000000000E+00  0.39204317015E+01  0.39204317015E+01  0.00000000000E+00 0. -1.
          1   -1    0    0  501    0 -0.00000000000E+00 -0.00000000000E+00 -0.45553810294E+03  0.45553810294E+03  0.00000000000E+00 0. -1.
          2    1    1    2  501    0  0.38354429193E+02 -0.40444695175E+01 -0.31972688079E+03  0.32204455945E+03  0.00000000000E+00 0. -1.
          1    1    1    2  502    0 -0.38354429193E+02  0.40444695175E+01 -0.13189079044E+03  0.13741397518E+03  0.00000000000E+00 0. -1.
</event>
<event>
 4    1  0.3586324E+003  0.2040215E+02  0.7546771E-02  0.1527974E+00
          2   -1    0    0  502    0  0.00000000000E+00  0.00000000000E+00  0.26804347267E+01  0.26804347267E+01  0.00000000000E+00 0. -1.
          1   -1    0    0  501    0 -0.00000000000E+00 -0.00000000000E+00 -0.57604901016E+03  0.57604901016E+03  0.00000000000E+00 0. -1.
          2    1    1    2  501    0 -0.32206979565E+01 -0.20146339816E+02 -0.39379819310E+02  0.44351077464E+02  0.00000000000E+00 0. -1.
          1    1    1    2  502    0  0.32206979565E+01  0.20146339816E+02 -0.53398875612E+03  0.53437836742E+03  0.00000000000E+00 0. -1.
</event>
<event>
 4    1  0.3586324E+003  0.4544677E+02  0.7546771E-02  0.1319220E+00
          2   -1    0    0  502    0  0.00000000000E+00  0.00000000000E+00  0.26773916372E+02  0.26773916372E+02  0.00000000000E+00 0. -1.
          1   -1    0    0  501    0 -0.00000000000E+00 -0.00000000000E+00 -0.81800830038E+03  0.81800830038E+03  0.00000000000E+00 0. -1.
          2    1    1    2  501    0  0.45438860839E+02  0.84768174326E+00  0.63639375946E+01  0.45890176949E+02  0.00000000000E+00 0. -1.
          1    1    1    2  502    0 -0.45438860839E+02 -0.84768174326E+00 -0.79759832160E+03  0.79889203980E+03  0.00000000000E+00 0. -1.
</event>
<event>
 4    1  0.4193628E+003  0.2932688E+02  0.7546771E-02  0.1425537E+00
          2   -1    0    0  502    0  0.00000000000E+00  0.00000000000E+00  0.11120839818E+04  0.11120839818E+04  0.00000000000E+00 0. -1.
          1   -1    0    0  501    0 -0.00000000000E+00 -0.00000000000E+00 -0.55035760896E+03  0.55035760896E+03  0.00000000000E+00 0.  1.
          2    1    1    2  501    0  0.11225261022E+02 -0.27093529976E+02  0.11114997460E+04  0.11118865730E+04  0.00000000000E+00 0. -1.
          1    1    1    2  502    0 -0.11225261022E+02  0.27093529976E+02 -0.54977337311E+03  0.55055501781E+03  0.00000000000E+00 0.  1.
</event>
<event>
 4    1  0.3586324E+003  0.3215521E+02  0.7546771E-02  0.1401748E+00
          2   -1    0    0  502    0  0.00000000000E+00  0.00000000000E+00  0.73403020244E+01  0.73403020244E+01  0.00000000000E+00 0. -1.
          1   -1    0    0  501    0 -0.00000000000E+00 -0.00000000000E+00 -0.23974849603E+03  0.23974849603E+03  0.00000000000E+00 0.  1.
          2    1    1    2  501    0  0.21529587295E+02 -0.23883766929E+02 -0.36859519696E+02  0.48914022980E+02  0.00000000000E+00 0. -1.
          1    1    1    2  502    0 -0.21529587295E+02  0.23883766929E+02 -0.19554867431E+03  0.19817477508E+03  0.00000000000E+00 0.  1.
</event>
<event>
 4    1  0.3586324E+003  0.3351407E+02  0.7546771E-02  0.1391322E+00
          2   -1    0    0  502    0  0.00000000000E+00  0.00000000000E+00  0.54565974415E+03  0.54565974415E+03  0.00000000000E+00 0. -1.
          1   -1    0    0  501    0 -0.00000000000E+00 -0.00000000000E+00 -0.21212974470E+01  0.21212974470E+01  0.00000000000E+00 0. -1.
          2    1    1    2  501    0  0.19399528085E+02 -0.27328551907E+02  0.22461089317E+03  0.22709743453E+03  0.00000000000E+00 0. -1.
          1    1    1    2  502    0 -0.19399528085E+02  0.27328551907E+02  0.31892755353E+03  0.32068360707E+03  0.00000000000E+00 0. -1.
</event>
<event>
 4    1  0.3586324E+003  0.2462269E+02  0.7546771E-02  0.1473069E+00
          2   -1    0    0  502    0  0.00000000000E+00  0.00000000000E+00  0.30870785559E+03  0.30870785559E+03  0.00000000000E+00 0.  1.
          1   -1    0    0  501    0 -0.00000000000E+00 -0.00000000000E+00 -0.13023513526E+02  0.13023513526E+02  0.00000000000E+00 0. -1.
          2    1    1    2  501    0  0.24075476334E+02 -0.51622057245E+01  0.29608338058E+03  0.29710544456E+03  0.00000000000E+00 0.  1.
          1    1    1    2  502    0 -0.24075476334E+02  0.51622057245E+01 -0.39903851766E+00  0.24625924559E+02  0.00000000000E+00 0. -1.
</event>
<event>
 4    1  0.3586324E+003  0.2114040E+02  0.7546771E-02  0.1517270E+00
          2   -1    0    0  502    0  0.00000000000E+00  0.00000000000E+00  0.14568896744E+04  0.14568896744E+04  0.00000000000E+00 0. -1.
          1   -1    0    0  501    0 -0.00000000000E+00 -0.00000000000E+00 -0.32729037497E+00  0.32729037497E+00  0.00000000000E+00 0. -1.
          2    1    1    2  501    0 -0.17287911649E+02  0.12167353499E+02  0.91076296209E+03  0.91100828179E+03  0.00000000000E+00 0. -1.
          1    1    1    2  502    0  0.17287911649E+02 -0.12167353499E+02  0.54579942195E+03  0.54620868300E+03  0.00000000000E+00 0. -1.
</event>
<event>
 4    1  0.3586324E+003  0.2199554E+02  0.7546771E-02  0.1505512E+00
          2   -1    0    0  502    0  0.00000000000E+00  0.00000000000E+00  0.42430732026E+03  0.42430732026E+03  0.00000000000E+00 0. -1.
          1   -1    0    0  501    0 -0.00000000000E+00 -0.00000000000E+00 -0.24128121106E+01  0.24128121106E+01  0.00000000000E+00 0.  1.
          2    1    1    2  501    0 -0.21991378466E+02 -0.42791366172E+00  0.36589880968E+03  0.36655933048E+03  0.00000000000E+00 0. -1.
          1    1    1    2  502    0  0.21991378466E+02  0.42791366172E+00  0.55995698461E+02  0.60160801882E+02  0.00000000000E+00 0.  1.
</event>
<event>
 4    1  0.3586324E+003  0.2883214E+02  0.7546771E-02  0.1430024E+00
          2   -1    0    0  502    0  0.00000000000E+00  0.00000000000E+00  0.94758355686E+02  0.94758355686E+02  0.00000000000E+00 0.  1.
          1   -1    0    0  501    0 -0.00000000000E+00 -0.00000000000E+00 -0.33948582128E+03  0.33948582128E+03  0.00000000000E+00 0.  1.
          2    1    1    2  501    0 -0.99788438499E+01  0.27050235616E+02  0.91934633105E+02  0.96349724108E+02  0.00000000000E+00 0.  1.
          1    1    1    2  502    0  0.99788438499E+01 -0.27050235616E+02 -0.33666209870E+03  0.33789445286E+03  0.00000000000E+00 0.  1.
</event>
<event>
 4    1  0.3586324E+003  0.2354037E+02  0.7546771E-02  0.1485822E+00
          2   -1    0    0  502    0  0.00000000000E+00  0.00000000000E+00  0.21169869762E+04  0.21169869762E+04  0.00000000000E+00 0. -1.
          1   -1    0    0  501    0 -0.00000000000E+00 -0.00000000000E+00 -0.27921696433E+00  0.27921696433E+00  0.00000000000E+00 0. -1.
          2    1    1    2  501    0  0.14990187535E+02  0.18150572751E+02  0.13230336307E+04  0.13232430377E+04  0.00000000000E+00 0. -1.
          1    1    1    2  502    0 -0.14990187535E+02 -0.18150572751E+02  0.79367412854E+03  0.79402315541E+03  0.00000000000E+00 0. -1.
</event>
<event>
 4    1  0.3586324E+003  0.2465477E+02  0.7546771E-02  0.1472703E+00
          2   -1    0    0  502    0  0.00000000000E+00  0.00000000000E+00  0.28943716680E+01  0.28943716680E+01  0.00000000000E+00 0. -1.
          1   -1    0    0  501    0 -0.00000000000E+00 -0.00000000000E+00 -0.27299946338E+03  0.27299946338E+03  0.00000000000E+00 0. -1.
          2    1    1    2  501    0  0.20589423749E+02  0.13562179771E+02 -0.20131279007E+03  0.20281690397E+03  0.00000000000E+00 0. -1.
          1    1    1    2  502    0 -0.20589423749E+02 -0.13562179771E+02 -0.68792301638E+02  0.73076931073E+02  0.00000000000E+00 0. -1.
</event>
<event>
 4    1  0.3586324E+003  0.2259168E+02  0.7546771E-02  0.1497690E+00
          2   -1    0    0  502    0  0.00000000000E+00  0.00000000000E+00  0.51146296314E+02  0.51146296314E+02  0.00000000000E+00 0.  1.
          1   -1    0    0  501    0 -0.00000000000E+00 -0.00000000000E+00 -0.12594889263E+02  0.12594889263E+02  0.00000000000E+00 0. -1.
          2    1    1    2  501    0  0.20679775594E+02  0.90956474545E+01  0.33800521818E+02  0.40655371064E+02  0.00000000000E+00 0.  1.
          1    1    1    2  502    0 -0.20679775594E+02 -0.90956474545E+01  0.47508852325E+01  0.23085814513E+02  0.00000000000E+00 0. -1.
</event>
<event>
 4    1  0.3586324E+003  0.2801061E+02  0.7546771E-02  0.1437712E+00
          2   -1    0    0  502    0  0.00000000000E+00  0.00000000000E+00  0.43316519642E+02  0.43316519642E+02  0.00000000000E+00 0.  1.
          1   -1    0    0  501    0 -0.00000000000E+00 -0.00000000000E+00 -0.26389975819E+02  0.26389975819E+02  0.00000000000E+00 0. -1.
          2    1    1    2  501    0 -0.13457573634E+02 -0.24565987304E+02  0.27982311705E+02  0.39592976507E+02  0.00000000000E+00 0.  1.
          1    1    1    2  502    0  0.13457573634E+02  0.24565987304E+02 -0.11055767882E+02  0.30113518954E+02  0.00000000000E+00 0. -1.
</event>
<event>
 4    1  0.3586324E+003  0.4634888E+02  0.7546771E-02  0.1314829E+00
          2   -1    0    0  502    0  0.00000000000E+00  0.00000000000E+00  0.47148628910E+03  0.47148628910E+03  0.00000000000E+00 0. -1.
          1   -1    0    0  501    0 -0.00000000000E+00 -0.00000000000E+00 -0.95061914380E+01  0.95061914380E+01  0.00000000000E+00 0. -1.
          2    1    1    2  501    0  0.45925307907E+02 -0.62518148495E+01  0.40453186659E+03  0.40717840093E+03  0.00000000000E+00 0. -1.
          1    1    1    2  502    0 -0.45925307907E+02  0.62518148495E+01  0.57448231068E+02  0.73814079607E+02  0.00000000000E+00 0. -1.
</event>
<event>
 4    1  0.3586324E+003  0.2588848E+02  0.7546771E-02  0.1459105E+00
          2   -1    0    0  502    0  0.00000000000E+00  0.00000000000E+00  0.12363460442E+04  0.12363460442E+04  0.00000000000E+00 0. -1.
          1   -1    0    0  501    0 -0.00000000000E+00 -0.00000000000E+00 -0.54042013880E+01  0.54042013880E+01  0.00000000000E+00 0.  1.
          2    1    1    2  501    0 -0.17071601893E+02  0.19462113381E+02  0.12043835317E+04  0.12046617388E+04  0.00000000000E+00 0. -1.
          1    1    1    2  502    0  0.17071601893E+02 -0.19462113381E+02  0.26558311125E+02  0.37088506822E+02  0.00000000000E+00 0.  1.
</event>
<event>
 4    1  0.3586324E+003  0.2221373E+02  0.7546771E-02  0.1502615E+00
          2   -1    0    0  502    0  0.00000000000E+00  0.00000000000E+00  0.58662846794E+02  0.58662846794E+02  0.00000000000E+00 0.  1.
          1   -1    0    0  501    0 -0.00000000000E+00 -0.00000000000E+00 -0.19769779621E+02  0.19769779621E+02  0.00000000000E+00 0. -1.
          2    1    1    2  501    0 -0.63336067182E+01 -0.21291665871E+02  0.49171393810E+02  0.53956237627E+02  0.00000000000E+00 0.  1.
          1    1    1    2  502    0  0.63336067182E+01  0.21291665871E+02 -0.10278326638E+02  0.24476388788E+02  0.00000000000E+00 0. -1.
</event>
<event>
 4    1  0.3586324E+003  0.2500603E+02  0.7546771E-02  0.1468736E+00
          2   -1    0    0  502    0  0.00000000000E+00  0.00000000000E+00  0.10568995228E+03  0.10568995228E+03  0.00000000000E+00 0.  1.
          1   -1    0    0  501    0 -0.00000000000E+00 -0.00000000000E+00 -0.51968642330E+03  0.51968642330E+03  0.00000000000E+00 0. -1.
          2    1    1    2  501    0  0.22429541024E+02 -0.11055189830E+02  0.10390495620E+03  0.10687161202E+03  0.00000000000E+00 0.  1.
          1    1    1    2  502    0 -0.22429541024E+02  0.11055189830E+02 -0.51790142722E+03  0.51850476357E+03  0.00000000000E+00 0. -1.
</event>
<event>
 4    1  0.3586324E+003  0.2440877E+02  0.7546771E-02  0.1475527E+00
          2   -1    0    0  502    0  0.00000000000E+00  0.00000000000E+00  0.24534550696E+02  0.24534550696E+02  0.00000000000E+00 0.  1.
          1   -1    0    0  501    0 -0.00000000000E+00 -0.00000000000E+00 -0.30714955043E+02  0.30714955043E+02  0.00000000000E+00 0.  1.
          2    1    1    2  501    0 -0.22382614960E+02 -0.97368566390E+01  0.95505773556E+01  0.26210710740E+02  0.00000000000E+00 0.  1.
          1    1    1    2  502    0  0.22382614960E+02  0.97368566390E+01 -0.15730981703E+02  0.29038794999E+02  0.00000000000E+00 0.  1.
</event>
<event>
 4    1  0.3586324E+003  0.2069655E+02  0.7546771E-02  0.1523642E+00
          2   -1    0    0  502    0  0.00000000000E+00  0.00000000000E+00  0.55558672486E+00  0.55558672486E+00  0.00000000000E+00 0.  1.
          1   -1    0    0  501    0 -0.00000000000E+00 -0.00000000000E+00 -0.94957487899E+03  0.94957487899E+03  0.00000000000E+00 0.  1.
          2    1    1    2  501    0  0.16120735059E+02 -0.12979566171E+02 -0.26848414085E+03  0.26928067351E+03  0.00000000000E+00 0.  1.
          1    1    1    2  502    0 -0.16120735059E+02  0.12979566171E+02 -0.68053515141E+03  0.68084979221E+03  0.00000000000E+00 0.  1.
</event>
<event>
 4    1  0.3586324E+003  0.2500050E+02  0.7546771E-02  0.1468798E+00
          2   -1    0    0  502    0  0.00000000000E+00  0.00000000000E+00  0.10225731299E+04  0.10225731299E+04  0.00000000000E+00 0.  1.
          1   -1    0    0  501    0 -0.00000000000E+00 -0.00000000000E+00 -0.10780640916E+02  0.10780640916E+02  0.00000000000E+00 0.  1.
          2    1    1    2  501    0 -0.24244522839E+02  0.61014652158E+01  0.10077124650E+04  0.10080225379E+04  0.00000000000E+00 0.  1.
          1    1    1    2  502    0  0.24244522839E+02 -0.61014652158E+01  0.40800239677E+01  0.25331232916E+02  0.00000000000E+00 0.  1.
</event>
<event>
 4    1  0.3586324E+003  0.3444369E+02  0.7546771E-02  0.1384517E+00
          2   -1    0    0  502    0  0.00000000000E+00  0.00000000000E+00  0.50336602757E+03  0.50336602757E+03  0.00000000000E+00 0.  1.
          1   -1    0    0  501    0 -0.00000000000E+00 -0.00000000000E+00 -0.14246712981E+02  0.14246712981E+02  0.00000000000E+00 0.  1.
          2    1    1    2  501    0  0.22397021569E+02  0.26167556148E+02  0.48099136014E+03  0.48222303564E+03  0.00000000000E+00 0.  1.
          1    1    1    2  502    0 -0.22397021569E+02 -0.26167556148E+02  0.81279544410E+01  0.35389704906E+02  0.00000000000E+00 0.  1.
</event>
<event>
 4    1  0.3586324E+003  0.2106639E+02  0.7546771E-02  0.1518319E+00
          2   -1    0    0  502    0  0.00000000000E+00  0.00000000000E+00  0.14212127282E+04  0.14212127282E+04  0.00000000000E+00 0.  1.
          1   -1    0    0  501    0 -0.00000000000E+00 -0.00000000000E+00 -0.26854742866E+03  0.26854742866E+03  0.00000000000E+00 0.  1.
          2    1    1    2  501    0 -0.14710597008E+02 -0.15079492419E+02  0.14207213776E+04  0.14208775548E+04  0.00000000000E+00 0.  1.
          1    1    1    2  502    0  0.14710597008E+02  0.15079492419E+02 -0.26805607805E+03  0.26888260214E+03  0.00000000000E+00 0.  1.
</event>
<event>
 4    1  0.3586324E+003  0.2599262E+02  0.7546771E-02  0.1457999E+00
          2   -1    0    0  502    0  0.00000000000E+00  0.00000000000E+00  0.51368916666E+03  0.51368916666E+03  0.00000000000E+00 0.  1.
          1   -1    0    0  501    0 -0.00000000000E+00 -0.00000000000E+00 -0.29626213745E+01  0.29626213745E+01  0.00000000000E+00 0. -1.
          2    1    1    2  501    0 -0.25884390674E+02 -0.23695090704E+01  0.44799555356E+03  0.44874896352E+03  0.00000000000E+00 0.  1.
          1    1    1    2  502    0  0.25884390674E+02  0.23695090704E+01  0.62730991730E+02  0.67902824516E+02  0.00000000000E+00 0. -1.
</event>
<event>
 4    1  0.3586324E+003  0.4578248E+02  0.7546771E-02  0.1317572E+00
          2   -1    0    0  502    0  0.00000000000E+00  0.00000000000E+00  0.13511687352E+03  0.13511687352E+03  0.00000000000E+00 0. -1.
          1   -1    0    0  501    0 -0.00000000000E+00 -0.00000000000E+00 -0.32749962099E+03  0.32749962099E+03  0.00000000000E+00 0. -1.
          2    1    1    2  501    0  0.24130281252E+02 -0.38907136427E+02  0.12957219867E+03  0.13742267064E+03  0.00000000000E+00 0. -1.
          1    1    1    2  502    0 -0.24130281252E+02  0.38907136427E+02 -0.32195494614E+03  0.32519382387E+03  0.00000000000E+00 0. -1.
</event>
<event>
 4    1  0.3586324E+003  0.3720467E+02  0.7546771E-02  0.1365694E+00
          2   -1    0    0  502    0  0.00000000000E+00  0.00000000000E+00  0.15284043817E+04  0.15284043817E+04  0.00000000000E+00 0. -1.
          1   -1    0    0  501    0 -0.00000000000E+00 -0.00000000000E+00 -0.43829270579E+01  0.43829270579E+01  0.00000000000E+00 0. -1.
          2    1    1    2  501    0  0.35052392701E+02 -0.12470648811E+02  0.14446478801E+04  0.14451268749E+04  0.00000000000E+00 0. -1.
          1    1    1    2  502    0 -0.35052392701E+02  0.12470648811E+02  0.79373574633E+02  0.87660433868E+02  0.00000000000E+00 0. -1.
</event>
<event>
 4    1  0.3586324E+003  0.2118725E+02  0.7546771E-02  0.1516608E+00
          2   -1    0    0  502    0  0.00000000000E+00  0.00000000000E+00  0.41325402704E+01  0.41325402704E+01  0.00000000000E+00 0.  1.
          1   -1    0    0  501    0 -0.00000000000E+00 -0.00000000000E+00 -0.15502691790E+03  0.15502691790E+03  0.00000000000E+00 0.  1.
          2    1    1    2  501    0  0.21170371553E+02 -0.84552676192E+00 -0.31909618116E+02  0.38303045251E+02  0.00000000000E+00 0.  1.
          1    1    1    2  502    0 -0.21170371553E+02  0.84552676192E+00 -0.11898475952E+03  0.12085641292E+03  0.00000000000E+00 0.  1.
</event>
<event>
 4    1  0.3586324E+003  0.2271226E+02  0.7546771E-02  0.1496143E+00
          2   -1    0    0  502    0  0.00000000000E+00  0.00000000000E+00  0.98746959422E+00  0.98746959422E+00  0.00000000000E+00 0. -1.
          1   -1    0    0  501    0 -0.00000000000E+00 -0.00000000000E+00 -0.12840691234E+04  0.12840691234E+04  0.00000000000E+00 0. -1.
          2    1    1    2  501    0 -0.21687912691E+02 -0.67439623381E+01 -0.14667962402E+03  0.14842762104E+03  0.00000000000E+00 0. -1.
          1    1    1    2  502    0  0.21687912691E+02  0.67439623381E+01 -0.11364020298E+04  0.11366289719E+04  0.00000000000E+00 0. -1.
</event>
<event>
 4    1  0.3586324E+003  0.2425627E+02  0.7546771E-02  0.1477298E+00
          2   -1    0    0  502    0  0.00000000000E+00  0.00000000000E+00  0.28710403261E+01  0.28710403261E+01  0.00000000000E+00 0.  1.
          1   -1    0    0  501    0 -0.00000000000E+00 -0.00000000000E+00 -0.20710469714E+03  0.20710469714E+03  0.00000000000E+00 0. -1.
          2    1    1    2  501    0  0.24082255955E+02  0.29002372589E+01 -0.91362093455E+02  0.94527237073E+02  0.00000000000E+00 0.  1.
          1    1    1    2  502    0 -0.24082255955E+02 -0.29002372589E+01 -0.11287156336E+03  0.11544850039E+03  0.00000000000E+00 0. -1.
</event>
<event>
 4    1  0.3586324E+003  0.2217162E+02  0.7546771E-02  0.1503171E+00
          2   -1    0    0  502    0  0.00000000000E+00  0.00000000000E+00  0.73345389640E+02  0.73345389640E+02  0.00000000000E+00 0.  1.
          1   -1    0    0  501    0 -0.00000000000E+00 -0.00000000000E+00 -0.85015541717E+02  0.85015541717E+02  0.00000000000E+00 0. -1.
          2    1    1    2  501    0  0.21918399782E+02 -0.33413100327E+01  0.70160195739E+02  0.73580117340E+02  0.00000000000E+00 0.  1.
          1    1    1    2  502    0 -0.21918399782E+02  0.33413100327E+01 -0.81830347816E+02  0.84780814017E+02  0.00000000000E+00 0. -1.
</event>
<event>
 4    1  0.3586324E+003  0.2667950E+02  0.7546771E-02  0.1450854E+00
          2   -1    0    0  502    0  0.00000000000E+00  0.00000000000E+00  0.14841532410E+04  0.14841532410E+04  0.00000000000E+00 0.  1.
          1   -1    0    0  501    0 -0.00000000000E+00 -0.00000000000E+00 -0.52922373846E+02  0.52922373846E+02  0.00000000000E+00 0. -1.
          2    1    1    2  501    0  0.15306595453E+02  0.21851866540E+02  0.14806629634E+04  0.14809033079E+04  0.00000000000E+00 0.  1.
          1    1    1    2  502    0 -0.15306595453E+02 -0.21851866540E+02 -0.49432096252E+02  0.56172307017E+02  0.00000000000E+00 0. -1.
</event>
<event>
 4    1  0.3586324E+003  0.4206439E+02  0.7546771E-02  0.1336795E+00
          2   -1    0    0  502    0  0.00000000000E+00  0.00000000000E+00  0.24620153456E+02  0.24620153456E+02  0.00000000000E+00 0. -1.
          1   -1    0    0  501    0 -0.00000000000E+00 -0.00000000000E+00 -0.27374973819E+03  0.27374973819E+03  0.00000000000E+00 0. -1.
          2    1    1    2  501    0 -0.41887673085E+02  0.38517137420E+01  0.35490783094E+01  0.42213846212E+02  0.00000000000E+00 0. -1.
          1    1    1    2  502    0  0.41887673085E+02 -0.38517137420E+01 -0.25267866304E+03  0.25615604543E+03  0.00000000000E+00 0. -1.
</event>
<event>
 4    1  0.3586324E+003  0.2781982E+02  0.7546771E-02  0.1439542E+00
          2   -1    0    0  502    0  0.00000000000E+00  0.00000000000E+00  0.23290846706E+02  0.23290846706E+02  0.00000000000E+00 0. -1.
          1   -1    0    0  501    0 -0.00000000000E+00 -0.00000000000E+00 -0.18486762703E+03  0.18486762703E+03  0.00000000000E+00 0. -1.
          2    1    1    2  501    0  0.11243062847E+02  0.25446731211E+02  0.13473882965E+02  0.30910970766E+02  0.00000000000E+00 0. -1.
          1    1    1    2  502    0 -0.11243062847E+02 -0.25446731211E+02 -0.17505066329E+03  0.17724750298E+03  0.00000000000E+00 0. -1.
</event>
<event>
 4    1  0.3586324E+003  0.1111128E+03  0.7546771E-02  0.1145830E+00
          2   -1    0    0  502    0  0.00000000000E+00  0.00000000000E+00  0.19997709009E+03  0.19997709009E+03  0.00000000000E+00 0. -1.
          1   -1    0    0  501    0 -0.00000000000E+00 -0.00000000000E+00 -0.72632536009E+03  0.72632536009E+03  0.00000000000E+00 0. -1.
          2    1    1    2  501    0 -0.96415604688E+02  0.55227588740E+02  0.17985620032E+03  0.21141028399E+03  0.00000000000E+00 0. -1.
          1    1    1    2  502    0  0.96415604688E+02 -0.55227588740E+02 -0.70620447032E+03  0.71489216619E+03  0.00000000000E+00 0. -1.
</event>
<event>
 4    1  0.3586324E+003  0.2388027E+02  0.7546771E-02  0.1481731E+00
          2   -1    0    0  502    0  0.00000000000E+00  0.00000000000E+00  0.15073824167E+03  0.15073824167E+03  0.00000000000E+00 0.  1.
          1   -1    0    0  501    0 -0.00000000000E+00 -0.00000000000E+00 -0.51697456522E+02  0.51697456522E+02  0.00000000000E+00 0. -1.
          2    1    1    2  501    0  0.23801870715E+02 -0.19334266711E+01  0.14696438400E+03  0.14889189821E+03  0.00000000000E+00 0.  1.
          1    1    1    2  502    0 -0.23801870715E+02  0.19334266711E+01 -0.47923598859E+02  0.53543799975E+02  0.00000000000E+00 0. -1.
</event>
<event>
 4    1  0.3586324E+003  0.2355275E+02  0.7546771E-02  0.1485671E+00
          2   -1    0    0  502    0  0.00000000000E+00  0.00000000000E+00  0.39963587751E+02  0.39963587751E+02  0.00000000000E+00 0.  1.
          1   -1    0    0  501    0 -0.00000000000E+00 -0.00000000000E+00 -0.25941653413E+03  0.25941653413E+03  0.00000000000E+00 0.  1.
          2    1    1    2  501    0 -0.23511496528E+02 -0.13934027784E+01  0.35903701633E+02  0.42939583501E+02  0.00000000000E+00 0.  1.
          1    1    1    2  502    0  0.23511496528E+02  0.13934027784E+01 -0.25535664802E+03  0.25644053838E+03  0.00000000000E+00 0.  1.
</event>
<event>
 4    1  0.3586324E+003  0.2870835E+02  0.7546771E-02  0.1431163E+00
          2   -1    0    0  502    0  0.00000000000E+00  0.00000000000E+00  0.51712810917E+02  0.51712810917E+02  0.00000000000E+00 0. -1.
          1   -1    0    0  501    0 -0.00000000000E+00 -0.00000000000E+00 -0.35750206350E+02  0.35750206350E+02  0.00000000000E+00 0. -1.
          2    1    1    2  501    0 -0.25915111111E+02  0.12352191447E+02  0.40537058330E+02  0.49673158903E+02  0.00000000000E+00 0. -1.
          1    1    1    2  502    0  0.25915111111E+02 -0.12352191447E+02 -0.24574453763E+02  0.37789858364E+02  0.00000000000E+00 0. -1.
</event>
<event>
 4    1  0.3586324E+003  0.2237047E+02  0.7546771E-02  0.1500558E+00
          2   -1    0    0  502    0  0.00000000000E+00  0.00000000000E+00  0.53798092307E+01  0.53798092307E+01  0.00000000000E+00 0.  1.
          1   -1    0    0  501    0 -0.00000000000E+00 -0.00000000000E+00 -0.26010648135E+03  0.26010648135E+03  0.00000000000E+00 0.  1.
          2    1    1    2  501    0  0.22120194798E+02  0.33368799365E+01 -0.20972246253E+02  0.30663869595E+02  0.00000000000E+00 0.  1.
          1    1    1    2  502    0 -0.22120194798E+02 -0.33368799365E+01 -0.23375442587E+03  0.23482242099E+03  0.00000000000E+00 0.  1.
</event>
<event>
 4    1  0.3586324E+003  0.3105200E+02  0.7546771E-02  0.1410669E+00
          2   -1    0    0  502    0  0.00000000000E+00  0.00000000000E+00  0.72343526486E+03  0.72343526486E+03  0.00000000000E+00 0.  1.
          1   -1    0    0  501    0 -0.00000000000E+00 -0.00000000000E+00 -0.44534998696E+02  0.44534998696E+02  0.00000000000E+00 0. -1.
          2    1    1    2  501    0  0.27292349199E+02  0.14810622279E+02  0.71764565901E+03  0.71831714357E+03  0.00000000000E+00 0.  1.
          1    1    1    2  502    0 -0.27292349199E+02 -0.14810622279E+02 -0.38745392846E+02  0.49653119981E+02  0.00000000000E+00 0. -1.
</event>
<event>
 4    1  0.3586324E+003  0.3862746E+02  0.7546771E-02  0.1356722E+00
          2   -1    0    0  502    0  0.00000000000E+00  0.00000000000E+00  0.79742970118E+03  0.79742970118E+03  0.00000000000E+00 0.  1.
          1   -1    0    0  501    0 -0.00000000000E+00 -0.00000000000E+00 -0.26963912808E+03  0.26963912808E+03  0.00000000000E+00 0.  1.
          2    1    1    2  501    0  0.22331991290E+02 -0.31517664824E+02  0.79557529474E+03  0.79651247990E+03  0.00000000000E+00 0.  1.
          1    1    1    2  502    0 -0.22331991290E+02  0.31517664824E+02 -0.26778472164E+03  0.27055634935E+03  0.00000000000E+00 0.  1.
</event>
<event>
 4    1  0.3586324E+003  0.2026223E+02  0.7546771E-02  0.1530064E+00
          2   -1    0    0  502    0  0.00000000000E+00  0.00000000000E+00  0.71027847123E+03  0.71027847123E+03  0.00000000000E+00 0.  1.
          1   -1    0    0  501    0 -0.00000000000E+00 -0.00000000000E+00 -0.58781609811E+00  0.58781609811E+00  0.00000000000E+00 0.  1.
          2    1    1    2  501    0 -0.19134841927E+02  0.66644940434E+01  0.30896929160E+03  0.30963297758E+03  0.00000000000E+00 0.  1.
          1    1    1    2  502    0  0.19134841927E+02 -0.66644940434E+01  0.40072136353E+03  0.40123330974E+03  0.00000000000E+00 0.  1.
</event>
<event>
 4    1  0.3586324E+003  0.2171618E+02  0.7546771E-02  0.1509280E+00
          2   -1    0    0  502    0  0.00000000000E+00  0.00000000000E+00  0.10220604971E+02  0.10220604971E+02  0.00000000000E+00 0. -1.
          1   -1    0    0  501    0 -0.00000000000E+00 -0.00000000000E+00 -0.63660210568E+03  0.63660210568E+03  0.00000000000E+00 0.  1.
          2    1    1    2  501    0 -0.11467804244E+02  0.18441316321E+02 -0.17203781439E+01  0.21784223255E+02  0.00000000000E+00 0. -1.
          1    1    1    2  502    0  0.11467804244E+02 -0.18441316321E+02 -0.62466112257E+03  0.62503848740E+03  0.00000000000E+00 0.  1.
</event>
<event>
 4    1  0.3586324E+003  0.3020871E+02  0.7546771E-02  0.1417791E+00
          2   -1    0    0  502    0  0.00000000000E+00  0.00000000000E+00  0.89373761793E+03  0.89373761793E+03  0.00000000000E+00 0.  1.
          1   -1    0    0  501    0 -0.00000000000E+00 -0.00000000000E+00 -0.55977233007E+01  0.55977233007E+01  0.00000000000E+00 0.  1.
          2    1    1    2  501    0 -0.25637949748E+02  0.15976908994E+02  0.85066313236E+03  0.85119934848E+03  0.00000000000E+00 0.  1.
          1    1    1    2  502    0  0.25637949748E+02 -0.15976908994E+02  0.37476762266E+02  0.48135992752E+02  0.00000000000E+00 0.  1.
</event>
<event>
 4    1  0.3586324E+003  0.2480263E+02  0.7546771E-02  0.1471024E+00
          2   -1    0    0  502    0  0.00000000000E+00  0.00000000000E+00  0.38435267675E+02  0.38435267675E+02  0.00000000000E+00 0. -1.
          1   -1    0    0  501    0 -0.00000000000E+00 -0.00000000000E+00 -0.16594854708E+04  0.16594854708E+04  0.00000000000E+00 0. -1.
          2    1    1    2  501    0  0.24374641990E+02  0.45877370250E+01  0.34331332081E+02  0.42353404415E+02  0.00000000000E+00 0. -1.
          1    1    1    2  502    0 -0.24374641990E+02 -0.45877370250E+01 -0.16553815352E+04  0.16555673340E+04  0.00000000000E+00 0. -1.
</event>
<event>
 4    1  0.3586324E+003  0.4267524E+02  0.7546771E-02  0.1333484E+00
          2   -1    0    0  502    0  0.00000000000E+00  0.00000000000E+00  0.14609753255E+04  0.14609753255E+04  0.00000000000E+00 0. -1.
          1   -1    0    0  501    0 -0.00000000000E+00 -0.00000000000E+00 -0.25711626728E+02  0.25711626728E+02  0.00000000000E+00 0.  1.
          2    1    1    2  501    0 -0.23428297138E+02  0.35669188958E+02  0.14427321148E+04  0.14433631322E+04  0.00000000000E+00 0. -1.
          1    1    1    2  502    0  0.23428297138E+02 -0.35669188958E+02 -0.74684160404E+01  0.43323820075E+02  0.00000000000E+00 0.  1.
</event>
<event>
 4    1  0.3586324E+003  0.2397170E+02  0.7546771E-02  0.1480644E+00
          2   -1    0    0  502    0  0.00000000000E+00  0.00000000000E+00  0.58950642918E+02  0.58950642918E+02  0.00000000000E+00 0.  1.
          1   -1    0    0  501    0 -0.00000000000E+00 -0.00000000000E+00 -0.21048815240E+02  0.21048815240E+02  0.00000000000E+00 0.  1.
          2    1    1    2  501    0  0.21446323423E+02 -0.10709687698E+02  0.48259909359E+02  0.53885629349E+02  0.00000000000E+00 0.  1.
          1    1    1    2  502    0 -0.21446323423E+02  0.10709687698E+02 -0.10358081682E+02  0.26113828809E+02  0.00000000000E+00 0.  1.
</event>
<event>
 4    1  0.3586324E+003  0.3862936E+02  0.7546771E-02  0.1356710E+00
          2   -1    0    0  502    0  0.00000000000E+00  0.00000000000E+00  0.22232276158E+03  0.22232276158E+03  0.00000000000E+00 0. -1.
          1   -1    0    0  501    0 -0.00000000000E+00 -0.00000000000E+00 -0.24918961286E+02  0.24918961286E+02  0.00000000000E+00 0. -1.
          2    1    1    2  501    0  0.17616887029E+02  0.34378374039E+02  0.20437043767E+03  0.20798918987E+03  0.00000000000E+00 0. -1.
          1    1    1    2  502    0 -0.17616887029E+02 -0.34378374039E+02 -0.69666373764E+01  0.39252532994E+02  0.00000000000E+00 0. -1.
</event>
<event>
 4    1  0.3586324E+003  0.3855859E+02  0.7546771E-02  0.1357146E+00
          2   -1    0    0  502    0  0.00000000000E+00  0.00000000000E+00  0.35798923812E+03  0.35798923812E+03  0.00000000000E+00 0. -1.
          1   -1    0    0  501    0 -0.00000000000E+00 -0.00000000000E+00 -0.23646622466E+02  0.23646622466E+02  0.00000000000E+00 0. -1.
          2    1    1    2  501    0 -0.21783005722E+02  0.31816114928E+02  0.34042392435E+03  0.34260066079E+03  0.00000000000E+00 0. -1.
          1    1    1    2  502    0  0.21783005722E+02 -0.31816114928E+02 -0.60813086943E+01  0.39035199792E+02  0.00000000000E+00 0. -1.
</event>
<event>
 4    1  0.3586324E+003  0.2188974E+02  0.7546771E-02  0.1506931E+00
          2   -1    0    0  502    0  0.00000000000E+00  0.00000000000E+00  0.12434602752E+02  0.12434602752E+02  0.00000000000E+00 0.  1.
          1   -1    0    0  501    0 -0.00000000000E+00 -0.00000000000E+00 -0.20150600374E+03  0.20150600374E+03  0.00000000000E+00 0. -1.
          2    1    1    2  501    0  0.12392338520E+02  0.18044131426E+02  0.16643097540E+01  0.21952919165E+02  0.00000000000E+00 0.  1.
          1    1    1    2  502    0 -0.12392338520E+02 -0.18044131426E+02 -0.19073571074E+03  0.19198768733E+03  0.00000000000E+00 0. -1.
</event>
<event>
 4    1  0.3586324E+003  0.3581209E+02  0.7546771E-02  0.1374942E+00
          2   -1    0    0  502    0  0.00000000000E+00  0.00000000000E+00  0.25416347179E+04  0.25416347179E+04  0.00000000000E+00 0. -1.
          1   -1    0    0  501    0 -0.00000000000E+00 -0.00000000000E+00 -0.99820574683E+02  0.99820574683E+02  0.00000000000E+00 0.  1.
          2    1    1    2  501    0  0.33040026120E+02 -0.13815308553E+02  0.25382923104E+04  0.25385449295E+04  0.00000000000E+00 0. -1.
          1    1    1    2  502    0 -0.33040026120E+02  0.13815308553E+02 -0.96478167207E+02  0.10291036305E+03  0.00000000000E+00 0.  1.
</event>
<event>
 4    1  0.3586324E+003  0.3451677E+02  0.7546771E-02  0.1383993E+00
          2   -1    0    0  502    0  0.00000000000E+00  0.00000000000E+00  0.54245534872E+03  0.54245534872E+03  0.00000000000E+00 0. -1.
          1   -1    0    0  501    0 -0.00000000000E+00 -0.00000000000E+00 -0.63819313548E+03  0.63819313548E+03  0.00000000000E+00 0.  1.
          2    1    1    2  501    0  0.32038805900E+02 -0.12842197221E+02  0.54143868150E+03  0.54253778941E+03  0.00000000000E+00 0. -1.
          1    1    1    2  502    0 -0.32038805900E+02  0.12842197221E+02 -0.63717646826E+03  0.63811069480E+03  0.00000000000E+00 0.  1.
</event>
<event>
 4    1  0.3586324E+003  0.2024944E+02  0.7546771E-02  0.1530256E+00
          2   -1    0    0  502    0  0.00000000000E+00  0.00000000000E+00  0.12407259179E+04  0.12407259179E+04  0.00000000000E+00 0. -1.
          1   -1    0    0  501    0 -0.00000000000E+00 -0.00000000000E+00 -0.84065182588E+00  0.84065182588E+00  0.00000000000E+00 0. -1.
          2    1    1    2  501    0 -0.74907261836E+01 -0.18812992121E+02  0.11035452129E+04  0.11037309802E+04  0.00000000000E+00 0. -1.
          1    1    1    2  502    0  0.74907261836E+01  0.18812992121E+02  0.13634005316E+03  0.13783558955E+03  0.00000000000E+00 0. -1.
</event>
<event>
 4    1  0.3586324E+003  0.8105675E+02  0.7546771E-02  0.1201415E+00
          2   -1    0    0  502    0  0.00000000000E+00  0.00000000000E+00  0.20686219712E+03  0.20686219712E+03  0.00000000000E+00 0. -1.
          1   -1    0    0  501    0 -0.00000000000E+00 -0.00000000000E+00 -0.98205294414E+03  0.98205294414E+03  0.00000000000E+00 0.  1.
          2    1    1    2  501    0  0.80949794913E+02 -0.41625643599E+01  0.19717031791E+03  0.21318144971E+03  0.00000000000E+00 0. -1.
          1    1    1    2  502    0 -0.80949794913E+02  0.41625643599E+01 -0.97236106492E+03  0.97573369154E+03  0.00000000000E+00 0.  1.
</event>
<event>
 4    1  0.3586324E+003  0.2449290E+02  0.7546771E-02  0.1474557E+00
          2   -1    0    0  502    0  0.00000000000E+00  0.00000000000E+00  0.97132572461E+02  0.97132572461E+02  0.00000000000E+00 0. -1.
          1   -1    0    0  501    0 -0.00000000000E+00 -0.00000000000E+00 -0.22625147139E+03  0.22625147139E+03  0.00000000000E+00 0. -1.
          2    1    1    2  501    0 -0.21454438258E+02  0.11815625034E+02  0.94910403150E+02  0.98019827290E+02  0.00000000000E+00 0. -1.
          1    1    1    2  502    0  0.21454438258E+02 -0.11815625034E+02 -0.22402930208E+03  0.22536421656E+03  0.00000000000E+00 0. -1.
</event>
<event>
 4    1  0.3586324E+003  0.2060163E+02  0.7546771E-02  0.1525029E+00
          2   -1    0    0  502    0  0.00000000000E+00  0.00000000000E+00  0.65628851972E+03  0.65628851972E+03  0.00000000000E+00 0. -1.
          1   -1    0    0  501    0 -0.00000000000E+00 -0.00000000000E+00 -0.20827948161E+02  0.20827948161E+02  0.00000000000E+00 0.  1.
          2    1    1    2  501    0 -0.33857536850E+01  0.20321512224E+02  0.65099095290E+03  0.65131685680E+03  0.00000000000E+00 0. -1.
          1    1    1    2  502    0  0.33857536850E+01 -0.20321512224E+02 -0.15530381347E+02  0.25799611080E+02  0.00000000000E+00 0.  1.
</event>
<event>
 4    1  0.3586324E+003  0.2159831E+02  0.7546771E-02  0.1510891E+00
          2   -1    0    0  502    0  0.00000000000E+00  0.00000000000E+00  0.58395885865E+03  0.58395885865E+03  0.00000000000E+00 0. -1.
          1   -1    0    0  501    0 -0.00000000000E+00 -0.00000000000E+00 -0.17828817033E+03  0.17828817033E+03  0.00000000000E+00 0.  1.
          2    1    1    2  501    0  0.20477067287E+02 -0.68685199303E+01  0.58310407212E+03  0.58350393809E+03  0.00000000000E+00 0. -1.
          1    1    1    2  502    0 -0.20477067287E+02  0.68685199303E+01 -0.17743338380E+03  0.17874309088E+03  0.00000000000E+00 0.  1.
</event>
<event>
 4    1  0.3586324E+003  0.2219999E+02  0.7546771E-02  0.1502796E+00
          2   -1    0    0  502    0  0.00000000000E+00  0.00000000000E+00  0.36984703436E+03  0.36984703436E+03  0.00000000000E+00 0. -1.
          1   -1    0    0  501    0 -0.00000000000E+00 -0.00000000000E+00 -0.24316460582E+03  0.24316460582E+03  0.00000000000E+00 0. -1.
          2    1    1    2  501    0  0.20452881408E+02  0.86324417263E+01  0.36900605010E+03  0.36967324006E+03  0.00000000000E+00 0. -1.
          1    1    1    2  502    0 -0.20452881408E+02 -0.86324417263E+01 -0.24232362156E+03  0.24333840012E+03  0.00000000000E+00 0. -1.
</event>
<event>
 4    1  0.3586324E+003  0.2753932E+02  0.7546771E-02  0.1442264E+00
          2   -1    0    0  502    0  0.00000000000E+00  0.00000000000E+00  0.40202170538E+01  0.40202170538E+01  0.00000000000E+00 0.  1.
          1   -1    0    0  501    0 -0.00000000000E+00 -0.00000000000E+00 -0.36454676772E+03  0.36454676772E+03  0.00000000000E+00 0.  1.
          2    1    1    2  501    0 -0.27507974072E+02  0.13135890982E+01 -0.52254814962E+02  0.59067587055E+02  0.00000000000E+00 0.  1.
          1    1    1    2  502    0  0.27507974072E+02 -0.13135890982E+01 -0.30827173571E+03  0.30949939772E+03  0.00000000000E+00 0.  1.
</event>
<event>
 4    1  0.3586324E+003  0.5404637E+02  0.7546771E-02  0.1281522E+00
          2   -1    0    0  502    0  0.00000000000E+00  0.00000000000E+00  0.47530125018E+03  0.47530125018E+03  0.00000000000E+00 0.  1.
          1   -1    0    0  501    0 -0.00000000000E+00 -0.00000000000E+00 -0.25624578630E+02  0.25624578630E+02  0.00000000000E+00 0.  1.
          2    1    1    2  501    0 -0.45546725643E+02 -0.29094773088E+02  0.44321095597E+03  0.44649407782E+03  0.00000000000E+00 0.  1.
          1    1    1    2  502    0  0.45546725643E+02  0.29094773088E+02  0.64657155819E+01  0.54431750990E+02  0.00000000000E+00 0.  1.
</event>
<event>
 4    1  0.3586324E+003  0.2004582E+02  0.7546771E-02  0.1533336E+00
          2   -1    0    0  502    0  0.00000000000E+00  0.00000000000E+00  0.84326706426E+03  0.84326706426E+03  0.00000000000E+00 0.  1.
          1   -1    0    0  501    0 -0.00000000000E+00 -0.00000000000E+00 -0.28875337804E+01  0.28875337804E+01  0.00000000000E+00 0.  1.
          2    1    1    2  501    0 -0.12999010901E+02  0.15259768547E+02  0.80678447304E+03  0.80703346941E+03  0.00000000000E+00 0.  1.
          1    1    1    2  502    0  0.12999010901E+02 -0.15259768547E+02  0.33595057448E+02  0.39121128632E+02  0.00000000000E+00 0.  1.
</event>
<event>
 4    1  0.3586324E+003  0.2934977E+02  0.7546771E-02  0.1425332E+00
          2   -1    0    0  502    0  0.00000000000E+00  0.00000000000E+00  0.98699235799E+03  0.98699235799E+03  0.00000000000E+00 0.  1.
          1   -1    0    0  501    0 -0.00000000000E+00 -0.00000000000E+00 -0.15968825168E+01  0.15968825168E+01  0.00000000000E+00 0.  1.
          2    1    1    2  501    0 -0.24381665657E+02 -0.16338403840E+02  0.82555262473E+03  0.82607417661E+03  0.00000000000E+00 0.  1.
          1    1    1    2  502    0  0.24381665657E+02  0.16338403840E+02  0.15984285074E+03  0.16251506389E+03  0.00000000000E+00 0.  1.
</event>
<event>
 4    1  0.3586324E+003  0.2586499E+02  0.7546771E-02  0.1459355E+00
          2   -1    0    0  502    0  0.00000000000E+00  0.00000000000E+00  0.89018552769E+02  0.89018552769E+02  0.00000000000E+00 0. -1.
          1   -1    0    0  501    0 -0.00000000000E+00 -0.00000000000E+00 -0.60103184790E+03  0.60103184790E+03  0.00000000000E+00 0. -1.
          2    1    1    2  501    0  0.24247748860E+02 -0.90024613655E+01  0.86854681620E+02  0.90624132298E+02  0.00000000000E+00 0. -1.
          1    1    1    2  502    0 -0.24247748860E+02  0.90024613655E+01 -0.59886797675E+03  0.59942626837E+03  0.00000000000E+00 0. -1.
</event>
<event>
 4    1  0.3586324E+003  0.2934574E+02  0.7546771E-02  0.1425368E+00
          2   -1    0    0  502    0  0.00000000000E+00  0.00000000000E+00  0.14917375645E+04  0.14917375645E+04  0.00000000000E+00 0.  1.
          1   -1    0    0  501    0 -0.00000000000E+00 -0.00000000000E+00 -0.86480409961E+00  0.86480409961E+00  0.00000000000E+00 0.  1.
          2    1    1    2  501    0 -0.27470352979E+02 -0.10322410025E+02  0.11757461013E+04  0.11761122681E+04  0.00000000000E+00 0.  1.
          1    1    1    2  502    0  0.27470352979E+02  0.10322410025E+02  0.31512665906E+03  0.31649010047E+03  0.00000000000E+00 0.  1.
</event>
<event>
 4    1  0.3586324E+003  0.4256640E+02  0.7546771E-02  0.1334069E+00
          2   -1    0    0  502    0  0.00000000000E+00  0.00000000000E+00  0.23813110886E+02  0.23813110886E+02  0.00000000000E+00 0. -1.
          1   -1    0    0  501    0 -0.00000000000E+00 -0.00000000000E+00 -0.51756835344E+03  0.51756835344E+03  0.00000000000E+00 0. -1.
          2    1    1    2  501    0  0.74203531731E+01 -0.41914635938E+02  0.31253033422E+01  0.42680977824E+02  0.00000000000E+00 0. -1.
          1    1    1    2  502    0 -0.74203531731E+01  0.41914635938E+02 -0.49688054589E+03  0.49870048650E+03  0.00000000000E+00 0. -1.
</event>
<event>
 4    1  0.3586324E+003  0.2112892E+02  0.7546771E-02  0.1517432E+00
          2   -1    0    0  502    0  0.00000000000E+00  0.00000000000E+00  0.73689952916E+00  0.73689952916E+00  0.00000000000E+00 0. -1.
          1   -1    0    0  501    0 -0.00000000000E+00 -0.00000000000E+00 -0.85569074629E+03  0.85569074629E+03  0.00000000000E+00 0. -1.
          2    1    1    2  501    0  0.19581873020E+02 -0.79360552522E+01 -0.65887370632E+03  0.65921240250E+03  0.00000000000E+00 0. -1.
          1    1    1    2  502    0 -0.19581873020E+02  0.79360552522E+01 -0.19608014044E+03  0.19721524333E+03  0.00000000000E+00 0. -1.
</event>
<event>
 4    1  0.3586324E+003  0.2124856E+02  0.7546771E-02  0.1515746E+00
          2   -1    0    0  502    0  0.00000000000E+00  0.00000000000E+00  0.15264369179E+03  0.15264369179E+03  0.00000000000E+00 0.  1.
          1   -1    0    0  501    0 -0.00000000000E+00 -0.00000000000E+00 -0.86915472223E+03  0.86915472223E+03  0.00000000000E+00 0. -1.
          2    1    1    2  501    0 -0.21246828284E+02  0.27119531820E+00  0.15177361375E+03  0.15325381264E+03  0.00000000000E+00 0.  1.
          1    1    1    2  502    0  0.21246828284E+02 -0.27119531820E+00 -0.86828464418E+03  0.86854460138E+03  0.00000000000E+00 0. -1.
</event>
<event>
 4    1  0.3586324E+003  0.2513837E+02  0.7546771E-02  0.1467261E+00
          2   -1    0    0  502    0  0.00000000000E+00  0.00000000000E+00  0.93026803996E+03  0.93026803996E+03  0.00000000000E+00 0.  1.
          1   -1    0    0  501    0 -0.00000000000E+00 -0.00000000000E+00 -0.12514045466E+01  0.12514045466E+01  0.00000000000E+00 0.  1.
          2    1    1    2  501    0 -0.26321224392E+01 -0.25000195429E+02  0.77942669583E+03  0.77983197678E+03  0.00000000000E+00 0.  1.
          1    1    1    2  502    0  0.26321224392E+01  0.25000195429E+02  0.14958993958E+03  0.15168746772E+03  0.00000000000E+00 0.  1.
</event>
<event>
 4    1  0.3586324E+003  0.4846545E+02  0.7546771E-02  0.1304966E+00
          2   -1    0    0  502    0  0.00000000000E+00  0.00000000000E+00  0.29989891970E+02  0.29989891970E+02  0.00000000000E+00 0. -1.
          1   -1    0    0  501    0 -0.00000000000E+00 -0.00000000000E+00 -0.10746637466E+03  0.10746637466E+03  0.00000000000E+00 0. -1.
          2    1    1    2  501    0 -0.28433817270E+02  0.39248159260E+02 -0.29477421090E+01  0.48555011620E+02  0.00000000000E+00 0. -1.
          1    1    1    2  502    0  0.28433817270E+02 -0.39248159260E+02 -0.74528740582E+02  0.88901255012E+02  0.00000000000E+00 0. -1.
</event>
<event>
 4    1  0.3586324E+003  0.2029968E+02  0.7546771E-02  0.1529503E+00
          2   -1    0    0  502    0  0.00000000000E+00  0.00000000000E+00  0.80580247678E+03  0.80580247678E+03  0.00000000000E+00 0.  1.
          1   -1    0    0  501    0 -0.00000000000E+00 -0.00000000000E+00 -0.20348297446E+03  0.20348297446E+03  0.00000000000E+00 0.  1.
          2    1    1    2  501    0  0.15048816325E+02  0.13623877952E+02  0.80516795174E+03  0.80542380610E+03  0.00000000000E+00 0.  1.
          1    1    1    2  502    0 -0.15048816325E+02 -0.13623877952E+02 -0.20284844943E+03  0.20386164514E+03  0.00000000000E+00 0.  1.
</event>
<event>
 4    1  0.3586324E+003  0.2282420E+02  0.7546771E-02  0.1494718E+00
          2   -1    0    0  502    0  0.00000000000E+00  0.00000000000E+00  0.45790238891E+02  0.45790238891E+02  0.00000000000E+00 0. -1.
          1   -1    0    0  501    0 -0.00000000000E+00 -0.00000000000E+00 -0.22808287220E+03  0.22808287220E+03  0.00000000000E+00 0.  1.
          2    1    1    2  501    0  0.22690078426E+02 -0.24706843954E+01  0.42331365598E+02  0.48092498935E+02  0.00000000000E+00 0. -1.
          1    1    1    2  502    0 -0.22690078426E+02  0.24706843954E+01 -0.22462399891E+03  0.22578061216E+03  0.00000000000E+00 0.  1.
</event>
<event>
 4    1  0.3586324E+003  0.3758970E+02  0.7546771E-02  0.1363220E+00
          2   -1    0    0  502    0  0.00000000000E+00  0.00000000000E+00  0.11502142382E+04  0.11502142382E+04  0.00000000000E+00 0. -1.
          1   -1    0    0  501    0 -0.00000000000E+00 -0.00000000000E+00 -0.46898355159E+02  0.46898355159E+02  0.00000000000E+00 0.  1.
          2    1    1    2  501    0 -0.29979298939E+02 -0.22676581644E+02  0.11423229345E+04  0.11429412375E+04  0.00000000000E+00 0. -1.
          1    1    1    2  502    0  0.29979298939E+02  0.22676581644E+02 -0.39007051518E+02  0.54171355789E+02  0.00000000000E+00 0.  1.
</event>
<event>
 4    1  0.3586324E+003  0.3509833E+02  0.7546771E-02  0.1379873E+00
          2   -1    0    0  502    0  0.00000000000E+00  0.00000000000E+00  0.42324683032E+01  0.42324683032E+01  0.00000000000E+00 0.  1.
          1   -1    0    0  501    0 -0.00000000000E+00 -0.00000000000E+00 -0.75592561982E+03  0.75592561982E+03  0.00000000000E+00 0. -1.
          2    1    1    2  501    0 -0.17505759214E+02  0.30421066949E+02 -0.77789707641E+02  0.85341265135E+02  0.00000000000E+00 0.  1.
          1    1    1    2  502    0  0.17505759214E+02 -0.30421066949E+02 -0.67390344387E+03  0.67481682299E+03  0.00000000000E+00 0. -1.
</event>
<event>
 4    1  0.3586324E+003  0.5709047E+02  0.7546771E-02  0.1270052E+00
          2   -1    0    0  502    0  0.00000000000E+00  0.00000000000E+00  0.14723493318E+04  0.14723493318E+04  0.00000000000E+00 0. -1.
          1   -1    0    0  501    0 -0.00000000000E+00 -0.00000000000E+00 -0.77877653419E+01  0.77877653419E+01  0.00000000000E+00 0. -1.
          2    1    1    2  501    0 -0.56134265410E+02  0.10405119827E+02  0.13583927561E+04  0.13595919248E+04  0.00000000000E+00 0. -1.
          1    1    1    2  502    0  0.56134265410E+02 -0.10405119827E+02  0.10616881035E+03  0.12054517230E+03  0.00000000000E+00 0. -1.
</event>
<event>
 4    1  0.3586324E+003  0.2724970E+02  0.7546771E-02  0.1445116E+00
          2   -1    0    0  502    0  0.00000000000E+00  0.00000000000E+00  0.22088145664E+03  0.22088145664E+03  0.00000000000E+00 0.  1.
          1   -1    0    0  501    0 -0.00000000000E+00 -0.00000000000E+00 -0.12331505910E+03  0.12331505910E+03  0.00000000000E+00 0.  1.
          2    1    1    2  501    0 -0.46920351506E-01  0.27249663340E+02  0.21851942740E+03  0.22021191273E+03  0.00000000000E+00 0.  1.
          1    1    1    2  502    0  0.46920351506E-01 -0.27249663340E+02 -0.12095302985E+03  0.12398460301E+03  0.00000000000E+00 0.  1.
</event>
<event>
 4    1  0.3586324E+003  0.2886426E+02  0.7546771E-02  0.1429729E+00
          2   -1    0    0  502    0  0.00000000000E+00  0.00000000000E+00  0.53777127182E+03  0.53777127182E+03  0.00000000000E+00 0. -1.
          1   -1    0    0  501    0 -0.00000000000E+00 -0.00000000000E+00 -0.67986647559E+03  0.67986647559E+03  0.00000000000E+00 0.  1.
          2    1    1    2  501    0 -0.28318246926E+02 -0.55876958303E+01  0.53707719851E+03  0.53785226839E+03  0.00000000000E+00 0. -1.
          1    1    1    2  502    0  0.28318246926E+02  0.55876958303E+01 -0.67917240228E+03  0.67978547901E+03  0.00000000000E+00 0.  1.
</event>
<event>
 4    1  0.3586324E+003  0.3243748E+02  0.7546771E-02  0.1399533E+00
          2   -1    0    0  502    0  0.00000000000E+00  0.00000000000E+00  0.26918553621E+02  0.26918553621E+02  0.00000000000E+00 0.  1.
          1   -1    0    0  501    0 -0.00000000000E+00 -0.00000000000E+00 -0.37215913385E+03  0.37215913385E+03  0.00000000000E+00 0. -1.
          2    1    1    2  501    0  0.22787640548E+02  0.23084913747E+02  0.16149142878E+02  0.36235129641E+02  0.00000000000E+00 0.  1.
          1    1    1    2  502    0 -0.22787640548E+02 -0.23084913747E+02 -0.36138972311E+03  0.36284255783E+03  0.00000000000E+00 0. -1.
</event>
<event>
 4    1  0.3586324E+003  0.2840798E+02  0.7546771E-02  0.1433955E+00
          2   -1    0    0  502    0  0.00000000000E+00  0.00000000000E+00  0.21800268654E+04  0.21800268654E+04  0.00000000000E+00 0. -1.
          1   -1    0    0  501    0 -0.00000000000E+00 -0.00000000000E+00 -0.12087757605E+01  0.12087757605E+01  0.00000000000E+00 0.  1.
          2    1    1    2  501    0  0.28363137046E+02  0.15956274574E+01  0.19978040057E+04  0.19980059707E+04  0.00000000000E+00 0. -1.
          1    1    1    2  502    0 -0.28363137046E+02 -0.15956274574E+01  0.18101408392E+03  0.18322967048E+03  0.00000000000E+00 0.  1.
</event>
<event>
 4    1  0.3586324E+003  0.2017440E+02  0.7546771E-02  0.1531386E+00
          2   -1    0    0  502    0  0.00000000000E+00  0.00000000000E+00  0.95689618948E+01  0.95689618948E+01  0.00000000000E+00 0.  1.
          1   -1    0    0  501    0 -0.00000000000E+00 -0.00000000000E+00 -0.32471816883E+03  0.32471816883E+03  0.00000000000E+00 0.  1.
          2    1    1    2  501    0  0.99279381429E+01 -0.17562534410E+02 -0.17619720532E+01  0.20251200364E+02  0.00000000000E+00 0.  1.
          1    1    1    2  502    0 -0.99279381429E+01  0.17562534410E+02 -0.31338723488E+03  0.31403593036E+03  0.00000000000E+00 0.  1.
</event>
<event>
 4    1  0.3586324E+003  0.2295950E+02  0.7546771E-02  0.1493007E+00
          2   -1    0    0  502    0  0.00000000000E+00  0.00000000000E+00  0.25650053792E+03  0.25650053792E+03  0.00000000000E+00 0.  1.
          1   -1    0    0  501    0 -0.00000000000E+00 -0.00000000000E+00 -0.36032262809E+01  0.36032262809E+01  0.00000000000E+00 0.  1.
          2    1    1    2  501    0 -0.10494579281E+02  0.20420632156E+02  0.21169422054E+03  0.21293562741E+03  0.00000000000E+00 0.  1.
          1    1    1    2  502    0  0.10494579281E+02 -0.20420632156E+02  0.41203091105E+02  0.47168136793E+02  0.00000000000E+00 0.  1.
</event>
<event>
 4    1  0.3586324E+003  0.2466297E+02  0.7546771E-02  0.1472609E+00
          2   -1    0    0  502    0  0.00000000000E+00  0.00000000000E+00  0.81354616162E+02  0.81354616162E+02  0.00000000000E+00 0.  1.
          1   -1    0    0  501    0 -0.00000000000E+00 -0.00000000000E+00 -0.32707935224E+03  0.32707935224E+03  0.00000000000E+00 0. -1.
          2    1    1    2  501    0  0.14248233757E+02  0.20130815470E+02  0.79007035262E+02  0.82766983257E+02  0.00000000000E+00 0.  1.
          1    1    1    2  502    0 -0.14248233757E+02 -0.20130815470E+02 -0.32473177134E+03  0.32566698514E+03  0.00000000000E+00 0. -1.
</event>
<event>
 4    1  0.3586324E+003  0.2630527E+02  0.7546771E-02  0.1454714E+00
          2   -1    0    0  502    0  0.00000000000E+00  0.00000000000E+00  0.88327115936E+01  0.88327115936E+01  0.00000000000E+00 0.  1.
          1   -1    0    0  501    0 -0.00000000000E+00 -0.00000000000E+00 -0.38429656969E+03  0.38429656969E+03  0.00000000000E+00 0.  1.
          2    1    1    2  501    0 -0.25987114514E+02  0.40788670302E+01 -0.12343467826E+02  0.29057330830E+02  0.00000000000E+00 0.  1.
          1    1    1    2  502    0  0.25987114514E+02 -0.40788670302E+01 -0.36312039027E+03  0.36407195045E+03  0.00000000000E+00 0.  1.
</event>
<event>
 4    1  0.3586324E+003  0.2365561E+02  0.7546771E-02  0.1484426E+00
          2   -1    0    0  502    0  0.00000000000E+00  0.00000000000E+00  0.34090344119E+02  0.34090344119E+02  0.00000000000E+00 0. -1.
          1   -1    0    0  501    0 -0.00000000000E+00 -0.00000000000E+00 -0.94563401916E+02  0.94563401916E+02  0.00000000000E+00 0.  1.
          2    1    1    2  501    0 -0.43563584859E+01 -0.23251019287E+02  0.28241318100E+02  0.36839649906E+02  0.00000000000E+00 0. -1.
          1    1    1    2  502    0  0.43563584859E+01  0.23251019287E+02 -0.88714375897E+02  0.91814096129E+02  0.00000000000E+00 0.  1.
</event>
<event>
 4    1  0.3586324E+003  0.2581746E+02  0.7546771E-02  0.1459863E+00
          2   -1    0    0  502    0  0.00000000000E+00  0.00000000000E+00  0.37774109101E+03  0.37774109101E+03  0.00000000000E+00 0. -1.
          1   -1    0    0  501    0 -0.00000000000E+00 -0.00000000000E+00 -0.27059905409E+02  0.27059905409E+02  0.00000000000E+00 0. -1.
          2    1    1    2  501    0 -0.24298718025E+02  0.87243220635E+01  0.37103069867E+03  0.37192784361E+03  0.00000000000E+00 0. -1.
          1    1    1    2  502    0  0.24298718025E+02 -0.87243220635E+01 -0.20349513075E+02  0.32873152808E+02  0.00000000000E+00 0. -1.
</event>
<event>
 4    1  0.3586324E+003  0.3716974E+02  0.7546771E-02  0.1365920E+00
          2   -1    0    0  502    0  0.00000000000E+00  0.00000000000E+00  0.65205660895E+03  0.65205660895E+03  0.00000000000E+00 0.  1.
          1   -1    0    0  501    0 -0.00000000000E+00 -0.00000000000E+00 -0.11231255979E+03  0.11231255979E+03  0.00000000000E+00 0. -1.
          2    1    1    2  501    0  0.17805593680E+02  0.32627445209E+02  0.64843441713E+03  0.64949887041E+03  0.00000000000E+00 0.  1.
          1    1    1    2  502    0 -0.17805593680E+02 -0.32627445209E+02 -0.10869036797E+03  0.11487029832E+03  0.00000000000E+00 0. -1.
</event>
<event>
 4    1  0.3586324E+003  0.2700988E+02  0.7546771E-02  0.1447509E+00
          2   -1    0    0  502    0  0.00000000000E+00  0.00000000000E+00  0.10600402666E+02  0.10600402666E+02  0.00000000000E+00 0. -1.
          1   -1    0    0  501    0 -0.00000000000E+00 -0.00000000000E+00 -0.14371769775E+04  0.14371769775E+04  0.00000000000E+00 0.  1.
          2    1    1    2  501    0 -0.34638152691E+01 -0.26786851126E+02 -0.69444409001E+01  0.27888324956E+02  0.00000000000E+00 0. -1.
          1    1    1    2  502    0  0.34638152691E+01  0.26786851126E+02 -0.14196321339E+04  0.14198890552E+04  0.00000000000E+00 0.  1.
</event>
<event>
 4    1  0.3586324E+003  0.2690258E+02  0.7546771E-02  0.1448589E+00
          2   -1    0    0  502    0  0.00000000000E+00  0.00000000000E+00  0.26378555644E+02  0.26378555644E+02  0.00000000000E+00 0. -1.
          1   -1    0    0  501    0 -0.00000000000E+00 -0.00000000000E+00 -0.64084506677E+03  0.64084506677E+03  0.00000000000E+00 0. -1.
          2    1    1    2  501    0  0.25990293458E+02  0.69464808410E+01  0.19158837879E+02  0.33027413144E+02  0.00000000000E+00 0. -1.
          1    1    1    2  502    0 -0.25990293458E+02 -0.69464808410E+01 -0.63362534901E+03  0.63419620927E+03  0.00000000000E+00 0. -1.
</event>
<event>
 4    1  0.3586324E+003  0.2797368E+02  0.7546771E-02  0.1438065E+00
          2   -1    0    0  502    0  0.00000000000E+00  0.00000000000E+00  0.19418271641E+02  0.19418271641E+02  0.00000000000E+00 0.  1.
          1   -1    0    0  501    0 -0.00000000000E+00 -0.00000000000E+00 -0.42305395602E+02  0.42305395602E+02  0.00000000000E+00 0. -1.
          2    1    1    2  501    0  0.25676330443E+02 -0.11101921206E+02 -0.47216984330E+01  0.28369367909E+02  0.00000000000E+00 0.  1.
          1    1    1    2  502    0 -0.25676330443E+02  0.11101921206E+02 -0.18165425528E+02  0.33354299334E+02  0.00000000000E+00 0. -1.
</event>
<event>
 4    1  0.3586324E+003  0.3990028E+02  0.7546771E-02  0.1349071E+00
          2   -1    0    0  502    0  0.00000000000E+00  0.00000000000E+00  0.62730325178E+02  0.62730325178E+02  0.00000000000E+00 0. -1.
          1   -1    0    0  501    0 -0.00000000000E+00 -0.00000000000E+00 -0.19277532483E+03  0.19277532483E+03  0.00000000000E+00 0. -1.
          2    1    1    2  501    0  0.15337753060E+02  0.36834577025E+02  0.54024307864E+02  0.67161436656E+02  0.00000000000E+00 0. -1.
          1    1    1    2  502    0 -0.15337753060E+02 -0.36834577025E+02 -0.18406930752E+03  0.18834421336E+03  0.00000000000E+00 0. -1.
</event>
<event>
 4    1  0.3586324E+003  0.2388502E+02  0.7546771E-02  0.1481674E+00
          2   -1    0    0  502    0  0.00000000000E+00  0.00000000000E+00  0.77942628812E+00  0.77942628812E+00  0.00000000000E+00 0.  1.
          1   -1    0    0  501    0 -0.00000000000E+00 -0.00000000000E+00 -0.79397936280E+03  0.79397936280E+03  0.00000000000E+00 0. -1.
          2    1    1    2  501    0  0.20918696995E+02  0.11528324592E+02 -0.28552134875E+03  0.28651864642E+03  0.00000000000E+00 0.  1.
          1    1    1    2  502    0 -0.20918696995E+02 -0.11528324592E+02 -0.50767858776E+03  0.50824014267E+03  0.00000000000E+00 0. -1.
</event>
<event>
 4    1  0.3586324E+003  0.2159824E+02  0.7546771E-02  0.1510892E+00
          2   -1    0    0  502    0  0.00000000000E+00  0.00000000000E+00  0.21125689595E+02  0.21125689595E+02  0.00000000000E+00 0. -1.
          1   -1    0    0  501    0 -0.00000000000E+00 -0.00000000000E+00 -0.25655138501E+02  0.25655138501E+02  0.00000000000E+00 0. -1.
          2    1    1    2  501    0 -0.10039293011E+02 -0.19123194192E+02  0.64652813993E+01  0.22545150783E+02  0.00000000000E+00 0. -1.
          1    1    1    2  502    0  0.10039293011E+02  0.19123194192E+02 -0.10994730305E+02  0.24235677312E+02  0.00000000000E+00 0. -1.
</event>
<event>
 4    1  0.3586324E+003  0.2082357E+02  0.7546771E-02  0.1521799E+00
          2   -1    0    0  502    0  0.00000000000E+00  0.00000000000E+00  0.49163192312E+03  0.49163192312E+03  0.00000000000E+00 0. -1.
          1   -1    0    0  501    0 -0.00000000000E+00 -0.00000000000E+00 -0.13635781698E+03  0.13635781698E+03  0.00000000000E+00 0. -1.
          2    1    1    2  501    0  0.19862008290E+02  0.62547196795E+01  0.49061476929E+03  0.49105648630E+03  0.00000000000E+00 0. -1.
          1    1    1    2  502    0 -0.19862008290E+02 -0.62547196795E+01 -0.13534066315E+03  0.13693325379E+03  0.00000000000E+00 0. -1.
</event>
<event>
 4    1  0.3586324E+003  0.4050468E+02  0.7546771E-02  0.1345554E+00
          2   -1    0    0  502    0  0.00000000000E+00  0.00000000000E+00  0.68600907712E+02  0.68600907712E+02  0.00000000000E+00 0. -1.
          1   -1    0    0  501    0 -0.00000000000E+00 -0.00000000000E+00 -0.24306350731E+03  0.24306350731E+03  0.00000000000E+00 0.  1.
          2    1    1    2  501    0 -0.32308744156E+02 -0.24428960774E+02  0.60736101682E+02  0.73003445953E+02  0.00000000000E+00 0. -1.
          1    1    1    2  502    0  0.32308744156E+02  0.24428960774E+02 -0.23519870128E+03  0.23866096907E+03  0.00000000000E+00 0.  1.
</event>
<event>
 4    1  0.3586324E+003  0.2494084E+02  0.7546771E-02  0.1469466E+00
          2   -1    0    0  502    0  0.00000000000E+00  0.00000000000E+00  0.44344196532E+03  0.44344196532E+03  0.00000000000E+00 0.  1.
          1   -1    0    0  501    0 -0.00000000000E+00 -0.00000000000E+00 -0.20817244453E+02  0.20817244453E+02  0.00000000000E+00 0. -1.
          2    1    1    2  501    0 -0.21129761838E+02  0.13250611515E+02  0.43548456844E+03  0.43619818305E+03  0.00000000000E+00 0.  1.
          1    1    1    2  502    0  0.21129761838E+02 -0.13250611515E+02 -0.12859847581E+02  0.28061026722E+02  0.00000000000E+00 0. -1.
</event>
<event>
 4    1  0.3586324E+003  0.2041353E+02  0.7546771E-02  0.1527805E+00
          2   -1    0    0  502    0  0.00000000000E+00  0.00000000000E+00  0.61252562358E+03  0.61252562358E+03  0.00000000000E+00 0.  1.
          1   -1    0    0  501    0 -0.00000000000E+00 -0.00000000000E+00 -0.64248716483E+01  0.64248716483E+01  0.00000000000E+00 0.  1.
          2    1    1    2  501    0 -0.14570242390E+01 -0.20361464789E+02  0.59568239133E+03  0.59603206584E+03  0.00000000000E+00 0.  1.
          1    1    1    2  502    0  0.14570242390E+01  0.20361464789E+02  0.10418360600E+02  0.22918429388E+02  0.00000000000E+00 0.  1.
</event>
<event>
 4    1  0.3586324E+003  0.2390155E+02  0.7546771E-02  0.1481477E+00
          2   -1    0    0  502    0  0.00000000000E+00  0.00000000000E+00  0.22556575623E+02  0.22556575623E+02  0.00000000000E+00 0. -1.
          1   -1    0    0  501    0 -0.00000000000E+00 -0.00000000000E+00 -0.34996461094E+02  0.34996461094E+02  0.00000000000E+00 0. -1.
          2    1    1    2  501    0  0.23091604128E+02  0.61694345286E+01  0.89063874954E+01  0.25507015542E+02  0.00000000000E+00 0. -1.
          1    1    1    2  502    0 -0.23091604128E+02 -0.61694345286E+01 -0.21346272966E+02  0.32046021175E+02  0.00000000000E+00 0. -1.
</event>
<event>
 4    1  0.3586324E+003  0.3949640E+02  0.7546771E-02  0.1351462E+00
          2   -1    0    0  502    0  0.00000000000E+00  0.00000000000E+00  0.22644495712E+04  0.22644495712E+04  0.00000000000E+00 0. -1.
          1   -1    0    0  501    0 -0.00000000000E+00 -0.00000000000E+00 -0.70148003075E+02  0.70148003075E+02  0.00000000000E+00 0.  1.
          2    1    1    2  501    0 -0.25089419972E+01  0.39416629105E+02  0.22587036554E+04  0.22590489522E+04  0.00000000000E+00 0. -1.
          1    1    1    2  502    0  0.25089419972E+01 -0.39416629105E+02 -0.64402087327E+02  0.75548622039E+02  0.00000000000E+00 0.  1.
</event>
<event>
 4    1  0.3586324E+003  0.2461828E+02  0.7546771E-02  0.1473119E+00
          2   -1    0    0  502    0  0.00000000000E+00  0.00000000000E+00  0.71094400137E+00  0.71094400137E+00  0.00000000000E+00 0.  1.
          1   -1    0    0  501    0 -0.00000000000E+00 -0.00000000000E+00 -0.97133821174E+03  0.97133821174E+03  0.00000000000E+00 0.  1.
          2    1    1    2  501    0  0.15673877818E+02  0.18983923609E+02 -0.31529272138E+03  0.31625236751E+03  0.00000000000E+00 0.  1.
          1    1    1    2  502    0 -0.15673877818E+02 -0.18983923609E+02 -0.65533454636E+03  0.65579678824E+03  0.00000000000E+00 0.  1.
</event>
<event>
 4    1  0.3586324E+003  0.2627708E+02  0.7546771E-02  0.1455008E+00
          2   -1    0    0  502    0  0.00000000000E+00  0.00000000000E+00  0.86948669955E+03  0.86948669955E+03  0.00000000000E+00 0.  1.
          1   -1    0    0  501    0 -0.00000000000E+00 -0.00000000000E+00 -0.13711786589E+01  0.13711786589E+01  0.00000000000E+00 0.  1.
          2    1    1    2  501    0 -0.13845451851E+02 -0.22333569092E+02  0.71653063941E+03  0.71701230259E+03  0.00000000000E+00 0.  1.
          1    1    1    2  502    0  0.13845451851E+02  0.22333569092E+02  0.15158488149E+03  0.15384557563E+03  0.00000000000E+00 0.  1.
</event>
<event>
 4    1  0.3586324E+003  0.2223049E+02  0.7546771E-02  0.1502394E+00
          2   -1    0    0  502    0  0.00000000000E+00  0.00000000000E+00  0.29941355540E+02  0.29941355540E+02  0.00000000000E+00 0.  1.
          1   -1    0    0  501    0 -0.00000000000E+00 -0.00000000000E+00 -0.86686998112E+03  0.86686998112E+03  0.00000000000E+00 0.  1.
          2    1    1    2  501    0  0.53992522853E+01  0.21564847349E+02  0.25651962636E+02  0.33944333158E+02  0.00000000000E+00 0.  1.
          1    1    1    2  502    0 -0.53992522853E+01 -0.21564847349E+02 -0.86258058822E+03  0.86286700351E+03  0.00000000000E+00 0.  1.
</event>
<event>
 4    1  0.3586324E+003  0.2291198E+02  0.7546771E-02  0.1493606E+00
          2   -1    0    0  502    0  0.00000000000E+00  0.00000000000E+00  0.12020136233E+01  0.12020136233E+01  0.00000000000E+00 0. -1.
          1   -1    0    0  501    0 -0.00000000000E+00 -0.00000000000E+00 -0.44565843977E+03  0.44565843977E+03  0.00000000000E+00 0. -1.
          2    1    1    2  501    0  0.17411015383E+02 -0.14893463232E+02 -0.19060820436E+03  0.19198032783E+03  0.00000000000E+00 0. -1.
          1    1    1    2  502    0 -0.17411015383E+02  0.14893463232E+02 -0.25384822178E+03  0.25488012556E+03  0.00000000000E+00 0. -1.
</event>
<event>
 4    1  0.3586324E+003  0.2826642E+02  0.7546771E-02  0.1435285E+00
          2   -1    0    0  502    0  0.00000000000E+00  0.00000000000E+00  0.90681364618E+03  0.90681364618E+03  0.00000000000E+00 0.  1.
          1   -1    0    0  501    0 -0.00000000000E+00 -0.00000000000E+00 -0.14208210034E+01  0.14208210034E+01  0.00000000000E+00 0. -1.
          2    1    1    2  501    0  0.19359472869E+02 -0.20596145184E+02  0.73258445330E+03  0.73312957354E+03  0.00000000000E+00 0.  1.
          1    1    1    2  502    0 -0.19359472869E+02  0.20596145184E+02  0.17280837188E+03  0.17510489364E+03  0.00000000000E+00 0. -1.
</event>
<event>
 4    1  0.3586324E+003  0.2105588E+02  0.7546771E-02  0.1518468E+00
          2   -1    0    0  502    0  0.00000000000E+00  0.00000000000E+00  0.52616092928E+03  0.52616092928E+03  0.00000000000E+00 0.  1.
          1   -1    0    0  501    0 -0.00000000000E+00 -0.00000000000E+00 -0.12670062261E+01  0.12670062261E+01  0.00000000000E+00 0.  1.
          2    1    1    2  501    0 -0.20937398851E+02  0.22305208037E+01  0.41507282066E+03  0.41560654031E+03  0.00000000000E+00 0.  1.
          1    1    1    2  502    0  0.20937398851E+02 -0.22305208037E+01  0.10982110239E+03  0.11182139519E+03  0.00000000000E+00 0.  1.
</event>
<event>
 4    1  0.3586324E+003  0.3243547E+02  0.7546771E-02  0.1399548E+00
          2   -1    0    0  502    0  0.00000000000E+00  0.00000000000E+00  0.11512963418E+03  0.11512963418E+03  0.00000000000E+00 0.  1.
          1   -1    0    0  501    0 -0.00000000000E+00 -0.00000000000E+00 -0.24427019034E+02  0.24427019034E+02  0.00000000000E+00 0.  1.
          2    1    1    2  501    0 -0.32078956233E+02 -0.47958856052E+01  0.10055580556E+03  0.10565760731E+03  0.00000000000E+00 0.  1.
          1    1    1    2  502    0  0.32078956233E+02  0.47958856052E+01 -0.98531904108E+01  0.33899045901E+02  0.00000000000E+00 0.  1.
</event>
<event>
 4    1  0.3586324E+003  0.2213919E+02  0.7546771E-02  0.1503600E+00
          2   -1    0    0  502    0  0.00000000000E+00  0.00000000000E+00  0.21674186443E+03  0.21674186443E+03  0.00000000000E+00 0. -1.
          1   -1    0    0  501    0 -0.00000000000E+00 -0.00000000000E+00 -0.98133843285E+02  0.98133843285E+02  0.00000000000E+00 0.  1.
          2    1    1    2  501    0  0.20315372936E+02  0.87993911123E+01  0.21491727632E+03  0.21605457487E+03  0.00000000000E+00 0. -1.
          1    1    1    2  502    0 -0.20315372936E+02 -0.87993911123E+01 -0.96309255182E+02  0.98821132837E+02  0.00000000000E+00 0.  1.
</event>
<event>
 4    1  0.3586324E+003  0.2634712E+02  0.7546771E-02  0.1454279E+00
          2   -1    0    0  502    0  0.00000000000E+00  0.00000000000E+00  0.21028831286E+02  0.21028831286E+02  0.00000000000E+00 0.  1.
          1   -1    0    0  501    0 -0.00000000000E+00 -0.00000000000E+00 -0.14968318052E+04  0.14968318052E+04  0.00000000000E+00 0.  1.
          2    1    1    2  501    0  0.10630305412E+02 -0.24107413628E+02  0.12613628616E+02  0.29210861197E+02  0.00000000000E+00 0.  1.
          1    1    1    2  502    0 -0.10630305412E+02  0.24107413628E+02 -0.14884166025E+04  0.14886497753E+04  0.00000000000E+00 0.  1.
</event>
<event>
 4    1  0.3586324E+003  0.2218833E+02  0.7546771E-02  0.1502950E+00
          2   -1    0    0  502    0  0.00000000000E+00  0.00000000000E+00  0.11120108854E+02  0.11120108854E+02  0.00000000000E+00 0.  1.
          1   -1    0    0  501    0 -0.00000000000E+00 -0.00000000000E+00 -0.45393065120E+03  0.45393065120E+03  0.00000000000E+00 0. -1.
          2    1    1    2  501    0 -0.12962305533E+02  0.18008344739E+02 -0.51017064076E+00  0.22194191111E+02  0.00000000000E+00 0.  1.
          1    1    1    2  502    0  0.12962305533E+02 -0.18008344739E+02 -0.44230037170E+03  0.44285656894E+03  0.00000000000E+00 0. -1.
</event>
<event>
 4    1  0.3586324E+003  0.2758729E+02  0.7546771E-02  0.1441796E+00
          2   -1    0    0  502    0  0.00000000000E+00  0.00000000000E+00  0.10658623723E+02  0.10658623723E+02  0.00000000000E+00 0.  1.
          1   -1    0    0  501    0 -0.00000000000E+00 -0.00000000000E+00 -0.24277749733E+03  0.24277749733E+03  0.00000000000E+00 0.  1.
          2    1    1    2  501    0 -0.12412630421E+02  0.24637064996E+02 -0.95943233739E+01  0.29208036678E+02  0.00000000000E+00 0.  1.
          1    1    1    2  502    0  0.12412630421E+02 -0.24637064996E+02 -0.22252455023E+03  0.22422808437E+03  0.00000000000E+00 0.  1.
</event>
<event>
 4    1  0.3586324E+003  0.3125482E+02  0.7546771E-02  0.1408997E+00
          2   -1    0    0  502    0  0.00000000000E+00  0.00000000000E+00  0.22501015138E+02  0.22501015138E+02  0.00000000000E+00 0. -1.
          1   -1    0    0  501    0 -0.00000000000E+00 -0.00000000000E+00 -0.48589679446E+02  0.48589679446E+02  0.00000000000E+00 0. -1.
          2    1    1    2  501    0  0.29047802553E+02  0.11536369734E+02 -0.24645126789E+02  0.39802574468E+02  0.00000000000E+00 0. -1.
          1    1    1    2  502    0 -0.29047802553E+02 -0.11536369734E+02 -0.14435375190E+01  0.31288120116E+02  0.00000000000E+00 0. -1.
</event>
<event>
 4    1  0.3586324E+003  0.2252801E+02  0.7546771E-02  0.1498512E+00
          2   -1    0    0  502    0  0.00000000000E+00  0.00000000000E+00  0.39053567972E+03  0.39053567972E+03  0.00000000000E+00 0.  1.
          1   -1    0    0  501    0 -0.00000000000E+00 -0.00000000000E+00 -0.84351951103E+01  0.84351951103E+01  0.00000000000E+00 0. -1.
          2    1    1    2  501    0  0.14603099173E+02  0.17154028533E+02  0.37452697091E+03  0.37520389543E+03  0.00000000000E+00 0.  1.
          1    1    1    2  502    0 -0.14603099173E+02 -0.17154028533E+02  0.75735136976E+01  0.23766979407E+02  0.00000000000E+00 0. -1.
</event>
<event>
 4    1  0.3586324E+003  0.2642127E+02  0.7546771E-02  0.1453510E+00
          2   -1    0    0  502    0  0.00000000000E+00  0.00000000000E+00  0.20476301691E+02  0.20476301691E+02  0.00000000000E+00 0. -1.
          1   -1    0    0  501    0 -0.00000000000E+00 -0.00000000000E+00 -0.74397667341E+02  0.74397667341E+02  0.00000000000E+00 0.  1.
          2    1    1    2  501    0  0.12986980877E+02 -0.23009164331E+02  0.79548837947E+01  0.27592815943E+02  0.00000000000E+00 0. -1.
          1    1    1    2  502    0 -0.12986980877E+02  0.23009164331E+02 -0.61876249445E+02  0.67281153088E+02  0.00000000000E+00 0.  1.
</event>
<event>
 4    1  0.3586324E+003  0.2210732E+02  0.7546771E-02  0.1504022E+00
          2   -1    0    0  502    0  0.00000000000E+00  0.00000000000E+00  0.25870597444E+03  0.25870597444E+03  0.00000000000E+00 0. -1.
          1   -1    0    0  501    0 -0.00000000000E+00 -0.00000000000E+00 -0.48279183194E+01  0.48279183194E+01  0.00000000000E+00 0.  1.
          2    1    1    2  501    0 -0.20854146596E+01 -0.22008737987E+02  0.22974289559E+03  0.23080409783E+03  0.00000000000E+00 0. -1.
          1    1    1    2  502    0  0.20854146596E+01  0.22008737987E+02  0.24135160528E+02  0.32729794925E+02  0.00000000000E+00 0.  1.
</event>
<event>
 4    1  0.3586324E+003  0.3329215E+02  0.7546771E-02  0.1392984E+00
          2   -1    0    0  502    0  0.00000000000E+00  0.00000000000E+00  0.15488328099E+04  0.15488328099E+04  0.00000000000E+00 0.  1.
          1   -1    0    0  501    0 -0.00000000000E+00 -0.00000000000E+00 -0.14440278200E+02  0.14440278200E+02  0.00000000000E+00 0. -1.
          2    1    1    2  501    0  0.19475295550E+02  0.27001479184E+02  0.15292190094E+04  0.15295813629E+04  0.00000000000E+00 0.  1.
          1    1    1    2  502    0 -0.19475295550E+02 -0.27001479184E+02  0.51735223135E+01  0.33691725215E+02  0.00000000000E+00 0. -1.
</event>
<event>
 4    1  0.3586324E+003  0.2125357E+02  0.7546771E-02  0.1515675E+00
          2   -1    0    0  502    0  0.00000000000E+00  0.00000000000E+00  0.21353538220E+04  0.21353538220E+04  0.00000000000E+00 0. -1.
          1   -1    0    0  501    0 -0.00000000000E+00 -0.00000000000E+00 -0.25475276498E+00  0.25475276498E+00  0.00000000000E+00 0. -1.
          2    1    1    2  501    0  0.11004491764E+01 -0.21225057894E+02  0.15073291756E+04  0.15074790074E+04  0.00000000000E+00 0. -1.
          1    1    1    2  502    0 -0.11004491764E+01  0.21225057894E+02  0.62776989362E+03  0.62812956737E+03  0.00000000000E+00 0. -1.
</event>
<event>
 4    1  0.3586324E+003  0.3128717E+02  0.7546771E-02  0.1408731E+00
          2   -1    0    0  502    0  0.00000000000E+00  0.00000000000E+00  0.66221442363E+03  0.66221442363E+03  0.00000000000E+00 0.  1.
          1   -1    0    0  501    0 -0.00000000000E+00 -0.00000000000E+00 -0.69520079727E+01  0.69520079727E+01  0.00000000000E+00 0. -1.
          2    1    1    2  501    0  0.96416874621E+01 -0.29764487234E+02  0.62451993700E+03  0.62530315731E+03  0.00000000000E+00 0.  1.
          1    1    1    2  502    0 -0.96416874621E+01  0.29764487234E+02  0.30742478663E+02  0.43863274294E+02  0.00000000000E+00 0. -1.
</event>
<event>
 4    1  0.3586324E+003  0.2483258E+02  0.7546771E-02  0.1470685E+00
          2   -1    0    0  502    0  0.00000000000E+00  0.00000000000E+00  0.60199548321E+02  0.60199548321E+02  0.00000000000E+00 0.  1.
          1   -1    0    0  501    0 -0.00000000000E+00 -0.00000000000E+00 -0.47295241036E+03  0.47295241036E+03  0.00000000000E+00 0. -1.
          2    1    1    2  501    0  0.20341522631E+01  0.24749128258E+02  0.57296896160E+02  0.62446708756E+02  0.00000000000E+00 0.  1.
          1    1    1    2  502    0 -0.20341522631E+01 -0.24749128258E+02 -0.47004975819E+03  0.47070524992E+03  0.00000000000E+00 0. -1.
</event>
<event>
 4    1  0.3586324E+003  0.6059518E+02  0.7546771E-02  0.1257824E+00
          2   -1    0    0  502    0  0.00000000000E+00  0.00000000000E+00  0.85221785299E+03  0.85221785299E+03  0.00000000000E+00 0.  1.
          1   -1    0    0  501    0 -0.00000000000E+00 -0.00000000000E+00 -0.12512761973E+02  0.12512761973E+02  0.00000000000E+00 0.  1.
          2    1    1    2  501    0 -0.57147730890E+02  0.20147263238E+02  0.76995420620E+03  0.77233493706E+03  0.00000000000E+00 0.  1.
          1    1    1    2  502    0  0.57147730890E+02 -0.20147263238E+02  0.69750884817E+02  0.92395677900E+02  0.00000000000E+00 0.  1.
</event>
<event>
 4    1  0.3586324E+003  0.2491870E+02  0.7546771E-02  0.1469715E+00
          2   -1    0    0  502    0  0.00000000000E+00  0.00000000000E+00  0.13628059014E+02  0.13628059014E+02  0.00000000000E+00 0.  1.
          1   -1    0    0  501    0 -0.00000000000E+00 -0.00000000000E+00 -0.30240615751E+03  0.30240615751E+03  0.00000000000E+00 0. -1.
          2    1    1    2  501    0  0.19517208272E+02  0.15492578450E+02  0.12381219234E+01  0.24949435898E+02  0.00000000000E+00 0.  1.
          1    1    1    2  502    0 -0.19517208272E+02 -0.15492578450E+02 -0.29001622042E+03  0.29108478062E+03  0.00000000000E+00 0. -1.
</event>
<event>
 4    1  0.3586324E+003  0.4958097E+02  0.7546771E-02  0.1299999E+00
          2   -1    0    0  502    0  0.00000000000E+00  0.00000000000E+00  0.14375894773E+02  0.14375894773E+02  0.00000000000E+00 0. -1.
          1   -1    0    0  501    0 -0.00000000000E+00 -0.00000000000E+00 -0.17195631758E+03  0.17195631758E+03  0.00000000000E+00 0. -1.
          2    1    1    2  501    0  0.39714215559E+02  0.29682510383E+02 -0.85739990455E+02  0.99043507123E+02  0.00000000000E+00 0. -1.
          1    1    1    2  502    0 -0.39714215559E+02 -0.29682510383E+02 -0.71840432349E+02  0.87288705227E+02  0.00000000000E+00 0. -1.
</event>
<event>
 4    1  0.3586324E+003  0.4151766E+02  0.7546771E-02  0.1339815E+00
          2   -1    0    0  502    0  0.00000000000E+00  0.00000000000E+00  0.29055663654E+02  0.29055663654E+02  0.00000000000E+00 0. -1.
          1   -1    0    0  501    0 -0.00000000000E+00 -0.00000000000E+00 -0.95780020813E+02  0.95780020813E+02  0.00000000000E+00 0. -1.
          2    1    1    2  501    0 -0.39710006938E+02 -0.12117414516E+02  0.51459301488E+01  0.41835355653E+02  0.00000000000E+00 0. -1.
          1    1    1    2  502    0  0.39710006938E+02  0.12117414516E+02 -0.71870287308E+02  0.83000328814E+02  0.00000000000E+00 0. -1.
</event>
<event>
 4    1  0.3586324E+003  0.2305403E+02  0.7546771E-02  0.1491821E+00
          2   -1    0    0  502    0  0.00000000000E+00  0.00000000000E+00  0.44267628090E+01  0.44267628090E+01  0.00000000000E+00 0.  1.
          1   -1    0    0  501    0 -0.00000000000E+00 -0.00000000000E+00 -0.13825901809E+04  0.13825901809E+04  0.00000000000E+00 0.  1.
          2    1    1    2  501    0 -0.21890437106E+02  0.72316586816E+01 -0.26368702275E+02  0.35025656078E+02  0.00000000000E+00 0.  1.
          1    1    1    2  502    0  0.21890437106E+02 -0.72316586816E+01 -0.13517947158E+04  0.13519912877E+04  0.00000000000E+00 0.  1.
</event>
<event>
 4    1  0.3586324E+003  0.2029034E+02  0.7546771E-02  0.1529643E+00
          2   -1    0    0  502    0  0.00000000000E+00  0.00000000000E+00  0.14855792661E+04  0.14855792661E+04  0.00000000000E+00 0.  1.
          1   -1    0    0  501    0 -0.00000000000E+00 -0.00000000000E+00 -0.13699574190E+02  0.13699574190E+02  0.00000000000E+00 0.  1.
          2    1    1    2  501    0 -0.15221823398E+02  0.13416184497E+02  0.14779582763E+04  0.14780975490E+04  0.00000000000E+00 0.  1.
          1    1    1    2  502    0  0.15221823398E+02 -0.13416184497E+02 -0.60785843525E+01  0.21181291315E+02  0.00000000000E+00 0.  1.
</event>
<event>
 4    1  0.3586324E+003  0.2217218E+02  0.7546771E-02  0.1503163E+00
          2   -1    0    0  502    0  0.00000000000E+00  0.00000000000E+00  0.26016255495E+03  0.26016255495E+03  0.00000000000E+00 0.  1.
          1   -1    0    0  501    0 -0.00000000000E+00 -0.00000000000E+00 -0.20682753613E+01  0.20682753613E+01  0.00000000000E+00 0.  1.
          2    1    1    2  501    0 -0.16516177399E+02 -0.14792602896E+02  0.90510635060E+02  0.93186803118E+02  0.00000000000E+00 0.  1.
          1    1    1    2  502    0  0.16516177399E+02  0.14792602896E+02  0.16758364453E+03  0.16904402719E+03  0.00000000000E+00 0.  1.
</event>
<event>
 4    1  0.3586324E+003  0.3558195E+02  0.7546771E-02  0.1376517E+00
          2   -1    0    0  502    0  0.00000000000E+00  0.00000000000E+00  0.27456621286E+03  0.27456621286E+03  0.00000000000E+00 0.  1.
          1   -1    0    0  501    0 -0.00000000000E+00 -0.00000000000E+00 -0.53954893094E+03  0.53954893094E+03  0.00000000000E+00 0. -1.
          2    1    1    2  501    0 -0.19288358602E+02 -0.29900407606E+02  0.27282304867E+03  0.27513358762E+03  0.00000000000E+00 0.  1.
          1    1    1    2  502    0  0.19288358602E+02  0.29900407606E+02 -0.53780576675E+03  0.53898155618E+03  0.00000000000E+00 0. -1.
</event>
<event>
 4    1  0.3586324E+003  0.3545751E+02  0.7546771E-02  0.1377375E+00
          2   -1    0    0  502    0  0.00000000000E+00  0.00000000000E+00  0.19278672086E+04  0.19278672086E+04  0.00000000000E+00 0.  1.
          1   -1    0    0  501    0 -0.00000000000E+00 -0.00000000000E+00 -0.95958886520E+00  0.95958886520E+00  0.00000000000E+00 0.  1.
          2    1    1    2  501    0 -0.26298712841E+02 -0.23782615709E+02  0.15093481942E+04  0.15097646195E+04  0.00000000000E+00 0.  1.
          1    1    1    2  502    0  0.26298712841E+02  0.23782615709E+02  0.41755942558E+03  0.41906217796E+03  0.00000000000E+00 0.  1.
</event>
<event>
 4    1  0.3586324E+003  0.2226195E+02  0.7546771E-02  0.1501980E+00
          2   -1    0    0  502    0  0.00000000000E+00  0.00000000000E+00  0.71674241262E+03  0.71674241262E+03  0.00000000000E+00 0.  1.
          1   -1    0    0  501    0 -0.00000000000E+00 -0.00000000000E+00 -0.12854654545E+02  0.12854654545E+02  0.00000000000E+00 0. -1.
          2    1    1    2  501    0  0.17829304989E+02  0.13330796312E+02  0.70679551895E+03  0.70714602442E+03  0.00000000000E+00 0.  1.
          1    1    1    2  502    0 -0.17829304989E+02 -0.13330796312E+02 -0.29077608812E+01  0.22451042739E+02  0.00000000000E+00 0. -1.
</event>
<event>
 4    1  0.3586324E+003  0.2188301E+02  0.7546771E-02  0.1507022E+00
          2   -1    0    0  502    0  0.00000000000E+00  0.00000000000E+00  0.14446175133E+01  0.14446175133E+01  0.00000000000E+00 0.  1.
          1   -1    0    0  501    0 -0.00000000000E+00 -0.00000000000E+00 -0.10206452113E+04  0.10206452113E+04  0.00000000000E+00 0.  1.
          2    1    1    2  501    0  0.97614974106E+01  0.19585176423E+02 -0.89664945017E+02  0.92296632291E+02  0.00000000000E+00 0.  1.
          1    1    1    2  502    0 -0.97614974106E+01 -0.19585176423E+02 -0.92953564876E+03  0.92979319651E+03  0.00000000000E+00 0.  1.
</event>
<event>
 4    1  0.3586324E+003  0.2009871E+02  0.7546771E-02  0.1532532E+00
          2   -1    0    0  502    0  0.00000000000E+00  0.00000000000E+00  0.10038968098E+04  0.10038968098E+04  0.00000000000E+00 0.  1.
          1   -1    0    0  501    0 -0.00000000000E+00 -0.00000000000E+00 -0.40977535398E+00  0.40977535398E+00  0.00000000000E+00 0. -1.
          2    1    1    2  501    0  0.19689467239E+02  0.40352157294E+01  0.56915713359E+03  0.56951189698E+03  0.00000000000E+00 0.  1.
          1    1    1    2  502    0 -0.19689467239E+02 -0.40352157294E+01  0.43432990087E+03  0.43479468819E+03  0.00000000000E+00 0. -1.
</event>
<event>
 4    1  0.3586324E+003  0.2270269E+02  0.7546771E-02  0.1496266E+00
          2   -1    0    0  502    0  0.00000000000E+00  0.00000000000E+00  0.46720619915E+03  0.46720619915E+03  0.00000000000E+00 0. -1.
          1   -1    0    0  501    0 -0.00000000000E+00 -0.00000000000E+00 -0.11642206426E+01  0.11642206426E+01  0.00000000000E+00 0.  1.
          2    1    1    2  501    0  0.18765983673E+02  0.12776929397E+02  0.28664445980E+03  0.28754209848E+03  0.00000000000E+00 0. -1.
          1    1    1    2  502    0 -0.18765983673E+02 -0.12776929397E+02  0.17939751871E+03  0.18082832131E+03  0.00000000000E+00 0.  1.
</event>
<event>
 4    1  0.3586324E+003  0.3131775E+02  0.7546771E-02  0.1408481E+00
          2   -1    0    0  502    0  0.00000000000E+00  0.00000000000E+00  0.44936558811E+03  0.44936558811E+03  0.00000000000E+00 0. -1.
          1   -1    0    0  501    0 -0.00000000000E+00 -0.00000000000E+00 -0.36356375270E+01  0.36356375270E+01  0.00000000000E+00 0.  1.
          2    1    1    2  501    0  0.15516803392E+02  0.27203500267E+02  0.36605477882E+03  0.36739202865E+03  0.00000000000E+00 0. -1.
          1    1    1    2  502    0 -0.15516803392E+02 -0.27203500267E+02  0.79675171760E+02  0.85609196990E+02  0.00000000000E+00 0.  1.
</event>
<event>
 4    1  0.3586324E+003  0.4705921E+02  0.7546771E-02  0.1311452E+00
          2   -1    0    0  502    0  0.00000000000E+00  0.00000000000E+00  0.55723495243E+03  0.55723495243E+03  0.00000000000E+00 0. -1.
          1   -1    0    0  501    0 -0.00000000000E+00 -0.00000000000E+00 -0.22458237504E+02  0.22458237504E+02  0.00000000000E+00 0. -1.
          2    1    1    2  501    0  0.37279273319E+02  0.28719762619E+02  0.53034168144E+03  0.53242545775E+03  0.00000000000E+00 0. -1.
          1    1    1    2  502    0 -0.37279273319E+02 -0.28719762619E+02  0.44350334859E+01  0.47267732187E+02  0.00000000000E+00 0. -1.
</event>
<event>
 4    1  0.3586324E+003  0.2379375E+02  0.7546771E-02  0.1482765E+00
          2   -1    0    0  502    0  0.00000000000E+00  0.00000000000E+00  0.76460114636E+02  0.76460114636E+02  0.00000000000E+00 0. -1.
          1   -1    0    0  501    0 -0.00000000000E+00 -0.00000000000E+00 -0.80881353902E+01  0.80881353902E+01  0.00000000000E+00 0. -1.
          2    1    1    2  501    0 -0.61296090382E+01  0.22990655550E+02  0.46477067725E+02  0.52213601426E+02  0.00000000000E+00 0. -1.
          1    1    1    2  502    0  0.61296090382E+01 -0.22990655550E+02  0.21894911522E+02  0.32334648601E+02  0.00000000000E+00 0. -1.
</event>
<event>
 4    1  0.3586324E+003  0.2264168E+02  0.7546771E-02  0.1497047E+00
          2   -1    0    0  502    0  0.00000000000E+00  0.00000000000E+00  0.15509260000E+03  0.15509260000E+03  0.00000000000E+00 0.  1.
          1   -1    0    0  501    0 -0.00000000000E+00 -0.00000000000E+00 -0.17469819482E+02  0.17469819482E+02  0.00000000000E+00 0. -1.
          2    1    1    2  501    0 -0.38984331134E+01  0.22303535861E+02  0.14650247201E+03  0.14824176131E+03  0.00000000000E+00 0.  1.
          1    1    1    2  502    0  0.38984331134E+01 -0.22303535861E+02 -0.88796914928E+01  0.24320658167E+02  0.00000000000E+00 0. -1.
</event>
<event>
 4    1  0.3586324E+003  0.3247582E+02  0.7546771E-02  0.1399234E+00
          2   -1    0    0  502    0  0.00000000000E+00  0.00000000000E+00  0.32976632250E+02  0.32976632250E+02  0.00000000000E+00 0. -1.
          1   -1    0    0  501    0 -0.00000000000E+00 -0.00000000000E+00 -0.27202176924E+03  0.27202176924E+03  0.00000000000E+00 0. -1.
          2    1    1    2  501    0  0.32422098894E+02 -0.18671572130E+01  0.23731440753E+02  0.40222631104E+02  0.00000000000E+00 0. -1.
          1    1    1    2  502    0 -0.32422098894E+02  0.18671572130E+01 -0.26277657774E+03  0.26477577038E+03  0.00000000000E+00 0. -1.
</event>
<event>
 4    1  0.3586324E+003  0.3608943E+02  0.7546771E-02  0.1373062E+00
          2   -1    0    0  502    0  0.00000000000E+00  0.00000000000E+00  0.11747439849E+04  0.11747439849E+04  0.00000000000E+00 0.  1.
          1   -1    0    0  501    0 -0.00000000000E+00 -0.00000000000E+00 -0.15961815269E+02  0.15961815269E+02  0.00000000000E+00 0.  1.
          2    1    1    2  501    0  0.33194520397E+02  0.14162297755E+02  0.11536953041E+04  0.11542596335E+04  0.00000000000E+00 0.  1.
          1    1    1    2  502    0 -0.33194520397E+02 -0.14162297755E+02  0.50868655199E+01  0.36446166642E+02  0.00000000000E+00 0.  1.
</event>
<event>
 4    1  0.3586324E+003  0.2110922E+02  0.7546771E-02  0.1517711E+00
          2   -1    0    0  502    0  0.00000000000E+00  0.00000000000E+00  0.12831552981E+03  0.12831552981E+03  0.00000000000E+00 0. -1.
          1   -1    0    0  501    0 -0.00000000000E+00 -0.00000000000E+00 -0.99149641718E+01  0.99149641718E+01  0.00000000000E+00 0. -1.
          2    1    1    2  501    0  0.20729861947E+02  0.39839588611E+01  0.11491220487E+03  0.11683498592E+03  0.00000000000E+00 0. -1.
          1    1    1    2  502    0 -0.20729861947E+02 -0.39839588611E+01  0.34883607618E+01  0.21395508065E+02  0.00000000000E+00 0. -1.
</event>
<event>
 4    1  0.3586324E+003  0.3657910E+02  0.7546771E-02  0.1369789E+00
          2   -1    0    0  502    0  0.00000000000E+00  0.00000000000E+00  0.52855665459E+03  0.52855665459E+03  0.00000000000E+00 0. -1.
          1   -1    0    0  501    0 -0.00000000000E+00 -0.00000000000E+00 -0.30926789567E+01  0.30926789567E+01  0.00000000000E+00 0. -1.
          2    1    1    2  501    0 -0.35613315099E+02  0.83499796988E+01  0.37596849159E+03  0.37774374521E+03  0.00000000000E+00 0. -1.
          1    1    1    2  502    0  0.35613315099E+02 -0.83499796988E+01  0.14949548403E+03  0.15390558833E+03  0.00000000000E+00 0. -1.
</event>
<event>
 4    1  0.3586324E+003  0.2080552E+02  0.7546771E-02  0.1522060E+00
          2   -1    0    0  502    0  0.00000000000E+00  0.00000000000E+00  0.62468252797E+01  0.62468252797E+01  0.00000000000E+00 0. -1.
          1   -1    0    0  501    0 -0.00000000000E+00 -0.00000000000E+00 -0.26855299812E+03  0.26855299812E+03  0.00000000000E+00 0. -1.
          2    1    1    2  501    0 -0.15207122291E+02 -0.14199047164E+02 -0.12799867638E+02  0.24427568857E+02  0.00000000000E+00 0. -1.
          1    1    1    2  502    0  0.15207122291E+02  0.14199047164E+02 -0.24950630520E+03  0.25037225454E+03  0.00000000000E+00 0. -1.
</event>
<event>
 4    1  0.3586324E+003  0.2653983E+02  0.7546771E-02  0.1452286E+00
          2   -1    0    0  502    0  0.00000000000E+00  0.00000000000E+00  0.20088637998E+03  0.20088637998E+03  0.00000000000E+00 0. -1.
          1   -1    0    0  501    0 -0.00000000000E+00 -0.00000000000E+00 -0.67869876829E+01  0.67869876829E+01  0.00000000000E+00 0.  1.
          2    1    1    2  501    0  0.26371972060E+02 -0.29801962000E+01  0.16924293296E+03  0.17131121632E+03  0.00000000000E+00 0. -1.
          1    1    1    2  502    0 -0.26371972060E+02  0.29801962000E+01  0.24856459342E+02  0.36362151349E+02  0.00000000000E+00 0.  1.
</event>
<event>
 4    1  0.3586324E+003  0.2134757E+02  0.7546771E-02  0.1514360E+00
          2   -1    0    0  502    0  0.00000000000E+00  0.00000000000E+00  0.69600373009E+03  0.69600373009E+03  0.00000000000E+00 0. -1.
          1   -1    0    0  501    0 -0.00000000000E+00 -0.00000000000E+00 -0.21408799326E+01  0.21408799326E+01  0.00000000000E+00 0.  1.
          2    1    1    2  501    0 -0.76481145609E+01 -0.19930506036E+02  0.63776562146E+03  0.63812279903E+03  0.00000000000E+00 0. -1.
          1    1    1    2  502    0  0.76481145609E+01  0.19930506036E+02  0.56097228700E+02  0.60021810994E+02  0.00000000000E+00 0.  1.
</event>
<event>
 4    1  0.3586324E+003  0.2783002E+02  0.7546771E-02  0.1439444E+00
          2   -1    0    0  502    0  0.00000000000E+00  0.00000000000E+00  0.72602487139E+02  0.72602487139E+02  0.00000000000E+00 0. -1.
          1   -1    0    0  501    0 -0.00000000000E+00 -0.00000000000E+00 -0.78977435033E+02  0.78977435033E+02  0.00000000000E+00 0.  1.
          2    1    1    2  501    0 -0.27633292792E+02  0.33032064228E+01  0.67298239537E+02  0.72825566170E+02  0.00000000000E+00 0. -1.
          1    1    1    2  502    0  0.27633292792E+02 -0.33032064228E+01 -0.73673187431E+02  0.78754356002E+02  0.00000000000E+00 0.  1.
</event>
<event>
 4    1  0.3586324E+003  0.3491520E+02  0.7546771E-02  0.1381160E+00
          2   -1    0    0  502    0  0.00000000000E+00  0.00000000000E+00  0.79069688685E+03  0.79069688685E+03  0.00000000000E+00 0. -1.
          1   -1    0    0  501    0 -0.00000000000E+00 -0.00000000000E+00 -0.16854150310E+01  0.16854150310E+01  0.00000000000E+00 0. -1.
          2    1    1    2  501    0  0.20067207241E+02 -0.28572335307E+02  0.51017012795E+03  0.51136350143E+03  0.00000000000E+00 0. -1.
          1    1    1    2  502    0 -0.20067207241E+02  0.28572335307E+02  0.27884134388E+03  0.28101880045E+03  0.00000000000E+00 0. -1.
</event>
<event>
 4    1  0.3586324E+003  0.2920680E+02  0.7546771E-02  0.1426617E+00
          2   -1    0    0  502    0  0.00000000000E+00  0.00000000000E+00  0.52645683156E+03  0.52645683156E+03  0.00000000000E+00 0. -1.
          1   -1    0    0  501    0 -0.00000000000E+00 -0.00000000000E+00 -0.80577095795E+01  0.80577095795E+01  0.00000000000E+00 0.  1.
          2    1    1    2  501    0  0.28372841344E+02  0.69295666888E+01  0.49807861809E+03  0.49893421092E+03  0.00000000000E+00 0. -1.
          1    1    1    2  502    0 -0.28372841344E+02 -0.69295666888E+01  0.20320503882E+02  0.35580330219E+02  0.00000000000E+00 0.  1.
</event>
<event>
 4    1  0.3586324E+003  0.2422086E+02  0.7546771E-02  0.1477712E+00
          2   -1    0    0  502    0  0.00000000000E+00  0.00000000000E+00  0.10420687494E+01  0.10420687494E+01  0.00000000000E+00 0. -1.
          1   -1    0    0  501    0 -0.00000000000E+00 -0.00000000000E+00 -0.17926539550E+04  0.17926539550E+04  0.00000000000E+00 0.  1.
          2    1    1    2  501    0 -0.34838914896E+01  0.23968991535E+02 -0.15301269851E+03  0.15491783616E+03  0.00000000000E+00 0. -1.
          1    1    1    2  502    0  0.34838914896E+01 -0.23968991535E+02 -0.16385991877E+04  0.16387781876E+04  0.00000000000E+00 0.  1.
</event>
<event>
 4    1  0.3586324E+003  0.6772103E+02  0.7546771E-02  0.1235638E+00
          2   -1    0    0  502    0  0.00000000000E+00  0.00000000000E+00  0.36248320450E+03  0.36248320450E+03  0.00000000000E+00 0. -1.
          1   -1    0    0  501    0 -0.00000000000E+00 -0.00000000000E+00 -0.44690432879E+02  0.44690432879E+02  0.00000000000E+00 0.  1.
          2    1    1    2  501    0  0.40844367411E+02  0.54017362385E+02  0.33127286363E+03  0.33812401270E+03  0.00000000000E+00 0. -1.
          1    1    1    2  502    0 -0.40844367411E+02 -0.54017362385E+02 -0.13480092003E+02  0.69049624682E+02  0.00000000000E+00 0.  1.
</event>
<event>
 4    1  0.3586324E+003  0.2633645E+02  0.7546771E-02  0.1454390E+00
          2   -1    0    0  502    0  0.00000000000E+00  0.00000000000E+00  0.58530960402E+03  0.58530960402E+03  0.00000000000E+00 0. -1.
          1   -1    0    0  501    0 -0.00000000000E+00 -0.00000000000E+00 -0.51450424003E+02  0.51450424003E+02  0.00000000000E+00 0. -1.
          2    1    1    2  501    0 -0.22700041916E+02  0.13353536467E+02  0.58162171020E+03  0.58221767632E+03  0.00000000000E+00 0. -1.
          1    1    1    2  502    0  0.22700041916E+02 -0.13353536467E+02 -0.47762530188E+02  0.54542351702E+02  0.00000000000E+00 0. -1.
</event>
<event>
 4    1  0.3586324E+003  0.2718796E+02  0.7546771E-02  0.1445729E+00
          2   -1    0    0  502    0  0.00000000000E+00  0.00000000000E+00  0.74221225135E+02  0.74221225135E+02  0.00000000000E+00 0.  1.
          1   -1    0    0  501    0 -0.00000000000E+00 -0.00000000000E+00 -0.11448229269E+03  0.11448229269E+03  0.00000000000E+00 0. -1.
          2    1    1    2  501    0  0.22905695333E+02 -0.14646313567E+02  0.70023866636E+02  0.75116757641E+02  0.00000000000E+00 0.  1.
          1    1    1    2  502    0 -0.22905695333E+02  0.14646313567E+02 -0.11028493419E+03  0.11358676019E+03  0.00000000000E+00 0. -1.
</event>
<event>
 4    1  0.3586324E+003  0.2396867E+02  0.7546771E-02  0.1480680E+00
          2   -1    0    0  502    0  0.00000000000E+00  0.00000000000E+00  0.10539593647E+01  0.10539593647E+01  0.00000000000E+00 0.  1.
          1   -1    0    0  501    0 -0.00000000000E+00 -0.00000000000E+00 -0.54554206367E+03  0.54554206367E+03  0.00000000000E+00 0.  1.
          2    1    1    2  501    0  0.76876899806E+01  0.22702330681E+02 -0.28016324850E+03  0.28118666790E+03  0.00000000000E+00 0.  1.
          1    1    1    2  502    0 -0.76876899806E+01 -0.22702330681E+02 -0.26432485581E+03  0.26540935514E+03  0.00000000000E+00 0.  1.
</event>
<event>
 4    1  0.3586324E+003  0.2940026E+02  0.7546771E-02  0.1424881E+00
          2   -1    0    0  502    0  0.00000000000E+00  0.00000000000E+00  0.11989510905E+03  0.11989510905E+03  0.00000000000E+00 0. -1.
          1   -1    0    0  501    0 -0.00000000000E+00 -0.00000000000E+00 -0.75121941835E+01  0.75121941835E+01  0.00000000000E+00 0. -1.
          2    1    1    2  501    0  0.96225656461E+01  0.27780944182E+02  0.43402422883E+02  0.52422752134E+02  0.00000000000E+00 0. -1.
          1    1    1    2  502    0 -0.96225656461E+01 -0.27780944182E+02  0.68980491983E+02  0.74984551098E+02  0.00000000000E+00 0. -1.
</event>
<event>
 4    1  0.3586324E+003  0.2443168E+02  0.7546771E-02  0.1475263E+00
          2   -1    0    0  502    0  0.00000000000E+00  0.00000000000E+00  0.15066452492E+04  0.15066452492E+04  0.00000000000E+00 0.  1.
          1   -1    0    0  501    0 -0.00000000000E+00 -0.00000000000E+00 -0.24074361627E+01  0.24074361627E+01  0.00000000000E+00 0.  1.
          2    1    1    2  501    0 -0.23232969359E+02 -0.75588392344E+01  0.14417715572E+04  0.14419785470E+04  0.00000000000E+00 0.  1.
          1    1    1    2  502    0  0.23232969359E+02  0.75588392344E+01  0.62466255813E+02  0.67074138318E+02  0.00000000000E+00 0.  1.
</event>
<event>
 4    1  0.3586324E+003  0.2297600E+02  0.7546771E-02  0.1492800E+00
          2   -1    0    0  502    0  0.00000000000E+00  0.00000000000E+00  0.77418811327E+03  0.77418811327E+03  0.00000000000E+00 0.  1.
          1   -1    0    0  501    0 -0.00000000000E+00 -0.00000000000E+00 -0.12522845493E+02  0.12522845493E+02  0.00000000000E+00 0. -1.
          2    1    1    2  501    0  0.82784643692E+01  0.21432771517E+02  0.76332908504E+03  0.76367479252E+03  0.00000000000E+00 0.  1.
          1    1    1    2  502    0 -0.82784643692E+01 -0.21432771517E+02 -0.16638172626E+01  0.23036166241E+02  0.00000000000E+00 0. -1.
</event>
<event>
 4    1  0.3586324E+003  0.3170962E+02  0.7546771E-02  0.1405300E+00
          2   -1    0    0  502    0  0.00000000000E+00  0.00000000000E+00  0.19034481806E+02  0.19034481806E+02  0.00000000000E+00 0.  1.
          1   -1    0    0  501    0 -0.00000000000E+00 -0.00000000000E+00 -0.18249167586E+03  0.18249167586E+03  0.00000000000E+00 0. -1.
          2    1    1    2  501    0 -0.22229402872E+02 -0.22613135578E+02  0.32077850377E+01  0.31871462746E+02  0.00000000000E+00 0.  1.
          1    1    1    2  502    0  0.22229402872E+02  0.22613135578E+02 -0.16666497909E+03  0.16965469492E+03  0.00000000000E+00 0. -1.
</event>
<event>
 4    1  0.3586324E+003  0.3002159E+02  0.7546771E-02  0.1419409E+00
          2   -1    0    0  502    0  0.00000000000E+00  0.00000000000E+00  0.13920336377E+02  0.13920336377E+02  0.00000000000E+00 0. -1.
          1   -1    0    0  501    0 -0.00000000000E+00 -0.00000000000E+00 -0.26301523626E+03  0.26301523626E+03  0.00000000000E+00 0.  1.
          2    1    1    2  501    0  0.29115193060E+02 -0.73213018914E+01 -0.43251065830E+01  0.30331542580E+02  0.00000000000E+00 0. -1.
          1    1    1    2  502    0 -0.29115193060E+02  0.73213018914E+01 -0.24476979330E+03  0.24660403006E+03  0.00000000000E+00 0.  1.
</event>
<event>
 4    1  0.3586324E+003  0.2960522E+02  0.7546771E-02  0.1423059E+00
          2   -1    0    0  502    0  0.00000000000E+00  0.00000000000E+00  0.20677420175E+01  0.20677420175E+01  0.00000000000E+00 0.  1.
          1   -1    0    0  501    0 -0.00000000000E+00 -0.00000000000E+00 -0.73229356521E+03  0.73229356521E+03  0.00000000000E+00 0.  1.
          2    1    1    2  501    0  0.14152758936E+02  0.26003237506E+02 -0.12682291892E+03  0.13023256778E+03  0.00000000000E+00 0.  1.
          1    1    1    2  502    0 -0.14152758936E+02 -0.26003237506E+02 -0.60340290427E+03  0.60412873945E+03  0.00000000000E+00 0.  1.
</event>
<event>
 4    1  0.3586324E+003  0.2324125E+02  0.7546771E-02  0.1489491E+00
          2   -1    0    0  502    0  0.00000000000E+00  0.00000000000E+00  0.78184531327E+02  0.78184531327E+02  0.00000000000E+00 0. -1.
          1   -1    0    0  501    0 -0.00000000000E+00 -0.00000000000E+00 -0.34391666174E+02  0.34391666174E+02  0.00000000000E+00 0.  1.
          2    1    1    2  501    0 -0.60260926382E+01 -0.22446426783E+02  0.72214219405E+02  0.75862041576E+02  0.00000000000E+00 0. -1.
          1    1    1    2  502    0  0.60260926382E+01  0.22446426783E+02 -0.28421354252E+02  0.36714155925E+02  0.00000000000E+00 0.  1.
</event>
<event>
 4    1  0.3586324E+003  0.2152000E+02  0.7546771E-02  0.1511969E+00
          2   -1    0    0  502    0  0.00000000000E+00  0.00000000000E+00  0.37392453398E+03  0.37392453398E+03  0.00000000000E+00 0. -1.
          1   -1    0    0  501    0 -0.00000000000E+00 -0.00000000000E+00 -0.41239981916E+03  0.41239981916E+03  0.00000000000E+00 0.  1.
          2    1    1    2  501    0 -0.17003232940E+02 -0.13190916582E+02  0.37333372090E+03  0.37395344279E+03  0.00000000000E+00 0. -1.
          1    1    1    2  502    0  0.17003232940E+02  0.13190916582E+02 -0.41180900608E+03  0.41237091035E+03  0.00000000000E+00 0.  1.
</event>
<event>
 4    1  0.3586324E+003  0.2405721E+02  0.7546771E-02  0.1479633E+00
          2   -1    0    0  502    0  0.00000000000E+00  0.00000000000E+00  0.41723043216E+03  0.41723043216E+03  0.00000000000E+00 0.  1.
          1   -1    0    0  501    0 -0.00000000000E+00 -0.00000000000E+00 -0.50071410740E+02  0.50071410740E+02  0.00000000000E+00 0.  1.
          2    1    1    2  501    0 -0.48626618835E+01  0.23560644852E+02  0.41397130100E+03  0.41466973307E+03  0.00000000000E+00 0.  1.
          1    1    1    2  502    0  0.48626618835E+01 -0.23560644852E+02 -0.46812279580E+02  0.52632109837E+02  0.00000000000E+00 0.  1.
</event>
<event>
 4    1  0.3586324E+003  0.2677326E+02  0.7546771E-02  0.1449899E+00
          2   -1    0    0  502    0  0.00000000000E+00  0.00000000000E+00  0.13439562785E+03  0.13439562785E+03  0.00000000000E+00 0. -1.
          1   -1    0    0  501    0 -0.00000000000E+00 -0.00000000000E+00 -0.79940816893E+01  0.79940816893E+01  0.00000000000E+00 0.  1.
          2    1    1    2  501    0 -0.25474602798E+02 -0.82372305979E+01  0.10427293764E+03  0.10765525013E+03  0.00000000000E+00 0. -1.
          1    1    1    2  502    0  0.25474602798E+02  0.82372305979E+01  0.22128608518E+02  0.34734459411E+02  0.00000000000E+00 0.  1.
</event>
<event>
 4    1  0.3586324E+003  0.4319462E+02  0.7546771E-02  0.1330718E+00
          2   -1    0    0  502    0  0.00000000000E+00  0.00000000000E+00  0.32229192650E+04  0.32229192650E+04  0.00000000000E+00 0. -1.
          1   -1    0    0  501    0 -0.00000000000E+00 -0.00000000000E+00 -0.15025115833E+01  0.15025115833E+01  0.00000000000E+00 0.  1.
          2    1    1    2  501    0 -0.71521151928E+01 -0.42598381472E+02  0.28747333639E+04  0.28750578582E+04  0.00000000000E+00 0. -1.
          1    1    1    2  502    0  0.71521151928E+01  0.42598381472E+02  0.34668338959E+03  0.34936391840E+03  0.00000000000E+00 0.  1.
</event>
<event>
 4    1  0.3586324E+003  0.2453504E+02  0.7546771E-02  0.1474073E+00
          2   -1    0    0  502    0  0.00000000000E+00  0.00000000000E+00  0.11263254819E+02  0.11263254819E+02  0.00000000000E+00 0.  1.
          1   -1    0    0  501    0 -0.00000000000E+00 -0.00000000000E+00 -0.11695211979E+03  0.11695211979E+03  0.00000000000E+00 0. -1.
          2    1    1    2  501    0 -0.13340157660E+02  0.20591464875E+02 -0.56037478416E+01  0.25166847676E+02  0.00000000000E+00 0.  1.
          1    1    1    2  502    0  0.13340157660E+02 -0.20591464875E+02 -0.10008511713E+03  0.10304852693E+03  0.00000000000E+00 0. -1.
</event>
<event>
 4    1  0.3586324E+003  0.2576918E+02  0.7546771E-02  0.1460380E+00
          2   -1    0    0  502    0  0.00000000000E+00  0.00000000000E+00  0.85288982515E+02  0.85288982515E+02  0.00000000000E+00 0. -1.
          1   -1    0    0  501    0 -0.00000000000E+00 -0.00000000000E+00 -0.17457060669E+03  0.17457060669E+03  0.00000000000E+00 0. -1.
          2    1    1    2  501    0 -0.22832865288E+02 -0.11946173360E+02  0.82358484240E+02  0.86295832585E+02  0.00000000000E+00 0. -1.
          1    1    1    2  502    0  0.22832865288E+02  0.11946173360E+02 -0.17164010841E+03  0.17356375662E+03  0.00000000000E+00 0. -1.
</event>
<event>
 4    1  0.3586324E+003  0.4390924E+02  0.7546771E-02  0.1326984E+00
          2   -1    0    0  502    0  0.00000000000E+00  0.00000000000E+00  0.15865590528E+04  0.15865590528E+04  0.00000000000E+00 0. -1.
          1   -1    0    0  501    0 -0.00000000000E+00 -0.00000000000E+00 -0.16100873703E+01  0.16100873703E+01  0.00000000000E+00 0. -1.
          2    1    1    2  501    0 -0.40378000309E+02 -0.17252192307E+02  0.11857226470E+04  0.11865353837E+04  0.00000000000E+00 0. -1.
          1    1    1    2  502    0  0.40378000309E+02  0.17252192307E+02  0.39922631841E+03  0.40163375650E+03  0.00000000000E+00 0. -1.
</event>
<event>
 4    1  0.3586324E+003  0.2541227E+02  0.7546771E-02  0.1464244E+00
          2   -1    0    0  502    0  0.00000000000E+00  0.00000000000E+00  0.14063817510E+03  0.14063817510E+03  0.00000000000E+00 0.  1.
          1   -1    0    0  501    0 -0.00000000000E+00 -0.00000000000E+00 -0.84126724258E+01  0.84126724258E+01  0.00000000000E+00 0.  1.
          2    1    1    2  501    0 -0.16276521613E+02 -0.19515589611E+02  0.11633756347E+03  0.11908069561E+03  0.00000000000E+00 0.  1.
          1    1    1    2  502    0  0.16276521613E+02  0.19515589611E+02  0.15887939212E+02  0.29970151920E+02  0.00000000000E+00 0.  1.
</event>
<event>
 4    1  0.3586324E+003  0.6849670E+02  0.7546771E-02  0.1233410E+00
          2   -1    0    0  502    0  0.00000000000E+00  0.00000000000E+00  0.18777662557E+04  0.18777662557E+04  0.00000000000E+00 0.  1.
          1   -1    0    0  501    0 -0.00000000000E+00 -0.00000000000E+00 -0.47144836797E+01  0.47144836797E+01  0.00000000000E+00 0. -1.
          2    1    1    2  501    0  0.30605755812E+02  0.61278753726E+02  0.15818180233E+04  0.15833003684E+04  0.00000000000E+00 0.  1.
          1    1    1    2  502    0 -0.30605755812E+02 -0.61278753726E+02  0.29123374875E+03  0.29918037095E+03  0.00000000000E+00 0. -1.
</event>
<event>
 4    1  0.3586324E+003  0.6851513E+02  0.7546771E-02  0.1233357E+00
          2   -1    0    0  502    0  0.00000000000E+00  0.00000000000E+00  0.53523834349E+02  0.53523834349E+02  0.00000000000E+00 0. -1.
          1   -1    0    0  501    0 -0.00000000000E+00 -0.00000000000E+00 -0.88395454831E+03  0.88395454831E+03  0.00000000000E+00 0.  1.
          2    1    1    2  501    0  0.28125507175E+02  0.62476227756E+02  0.29662531312E+02  0.74660491241E+02  0.00000000000E+00 0. -1.
          1    1    1    2  502    0 -0.28125507175E+02 -0.62476227756E+02 -0.86009324527E+03  0.86281789141E+03  0.00000000000E+00 0.  1.
</event>
<event>
 4    1  0.3586324E+003  0.2240635E+02  0.7546771E-02  0.1500090E+00
          2   -1    0    0  502    0  0.00000000000E+00  0.00000000000E+00  0.92978696247E+03  0.92978696247E+03  0.00000000000E+00 0. -1.
          1   -1    0    0  501    0 -0.00000000000E+00 -0.00000000000E+00 -0.34700516310E+03  0.34700516310E+03  0.00000000000E+00 0.  1.
          2    1    1    2  501    0 -0.22002962447E+02 -0.42325071889E+01  0.92929008186E+03  0.92956016520E+03  0.00000000000E+00 0. -1.
          1    1    1    2  502    0  0.22002962447E+02  0.42325071889E+01 -0.34650828249E+03  0.34723196038E+03  0.00000000000E+00 0.  1.
</event>
<event>
 4    1  0.3586324E+003  0.3370806E+02  0.7546771E-02  0.1389881E+00
          2   -1    0    0  502    0  0.00000000000E+00  0.00000000000E+00  0.17407038123E+04  0.17407038123E+04  0.00000000000E+00 0.  1.
          1   -1    0    0  501    0 -0.00000000000E+00 -0.00000000000E+00 -0.81506849970E+00  0.81506849970E+00  0.00000000000E+00 0.  1.
          2    1    1    2  501    0 -0.23359245518E+02 -0.24301832255E+02  0.12585361517E+04  0.12589874815E+04  0.00000000000E+00 0.  1.
          1    1    1    2  502    0  0.23359245518E+02  0.24301832255E+02  0.48135259209E+03  0.48253139931E+03  0.00000000000E+00 0.  1.
</event>
<event>
 4    1  0.3586324E+003  0.2781077E+02  0.7546771E-02  0.1439629E+00
          2   -1    0    0  502    0  0.00000000000E+00  0.00000000000E+00  0.58590232302E+03  0.58590232302E+03  0.00000000000E+00 0.  1.
          1   -1    0    0  501    0 -0.00000000000E+00 -0.00000000000E+00 -0.25850294520E+03  0.25850294520E+03  0.00000000000E+00 0.  1.
          2    1    1    2  501    0 -0.26665678267E+02  0.78981332810E+01  0.58482292466E+03  0.58548381030E+03  0.00000000000E+00 0.  1.
          1    1    1    2  502    0  0.26665678267E+02 -0.78981332810E+01 -0.25742354684E+03  0.25892145793E+03  0.00000000000E+00 0.  1.
</event>
<event>
 4    1  0.3586324E+003  0.2399281E+02  0.7546771E-02  0.1480394E+00
          2   -1    0    0  502    0  0.00000000000E+00  0.00000000000E+00  0.39840386637E+03  0.39840386637E+03  0.00000000000E+00 0. -1.
          1   -1    0    0  501    0 -0.00000000000E+00 -0.00000000000E+00 -0.22565179970E+02  0.22565179970E+02  0.00000000000E+00 0. -1.
          2    1    1    2  501    0  0.65134738306E+01 -0.23091762364E+02  0.39155347557E+03  0.39228787779E+03  0.00000000000E+00 0. -1.
          1    1    1    2  502    0 -0.65134738306E+01  0.23091762364E+02 -0.15714789173E+02  0.28681168546E+02  0.00000000000E+00 0. -1.
</event>
<event>
 4    1  0.3586324E+003  0.2348326E+02  0.7546771E-02  0.1486517E+00
          2   -1    0    0  502    0  0.00000000000E+00  0.00000000000E+00  0.42953630877E+03  0.42953630877E+03  0.00000000000E+00 0. -1.
          1   -1    0    0  501    0 -0.00000000000E+00 -0.00000000000E+00 -0.31377125325E+01  0.31377125325E+01  0.00000000000E+00 0. -1.
          2    1    1    2  501    0 -0.19157874492E+02 -0.13580831620E+02  0.46910801634E+02  0.52460332181E+02  0.00000000000E+00 0. -1.
          1    1    1    2  502    0  0.19157874492E+02  0.13580831620E+02  0.37948779460E+03  0.38021368912E+03  0.00000000000E+00 0. -1.
</event>
<event>
 4    1  0.3586324E+003  0.2248022E+02  0.7546771E-02  0.1499130E+00
          2   -1    0    0  502    0  0.00000000000E+00  0.00000000000E+00  0.83219851598E+03  0.83219851598E+03  0.00000000000E+00 0.  1.
          1   -1    0    0  501    0 -0.00000000000E+00 -0.00000000000E+00 -0.10407461336E+03  0.10407461336E+03  0.00000000000E+00 0.  1.
          2    1    1    2  501    0  0.21259577400E+02  0.73068904410E+01  0.83083076564E+03  0.83113483949E+03  0.00000000000E+00 0.  1.
          1    1    1    2  502    0 -0.21259577400E+02 -0.73068904410E+01 -0.10270686303E+03  0.10513828985E+03  0.00000000000E+00 0.  1.
</event>
<event>
 4    1  0.3586324E+003  0.3173029E+02  0.7546771E-02  0.1405133E+00
          2   -1    0    0  502    0  0.00000000000E+00  0.00000000000E+00  0.32079297288E+01  0.32079297288E+01  0.00000000000E+00 0.  1.
          1   -1    0    0  501    0 -0.00000000000E+00 -0.00000000000E+00 -0.65868351106E+03  0.65868351106E+03  0.00000000000E+00 0.  1.
          2    1    1    2  501    0  0.31668254100E+02 -0.19832547840E+01 -0.88283544964E+02  0.93812557415E+02  0.00000000000E+00 0.  1.
          1    1    1    2  502    0 -0.31668254100E+02  0.19832547840E+01 -0.56719203636E+03  0.56807888337E+03  0.00000000000E+00 0.  1.
</event>
<event>
 4    1  0.3586324E+003  0.3984425E+02  0.7546771E-02  0.1349401E+00
          2   -1    0    0  502    0  0.00000000000E+00  0.00000000000E+00  0.23457843659E+04  0.23457843659E+04  0.00000000000E+00 0. -1.
          1   -1    0    0  501    0 -0.00000000000E+00 -0.00000000000E+00 -0.11887833667E+02  0.11887833667E+02  0.00000000000E+00 0.  1.
          2    1    1    2  501    0 -0.53864715174E+01 -0.39478481083E+02  0.23117371663E+04  0.23120805113E+04  0.00000000000E+00 0. -1.
          1    1    1    2  502    0  0.53864715174E+01  0.39478481083E+02  0.22159365951E+02  0.45591688314E+02  0.00000000000E+00 0.  1.
</event>
<event>
 4    1  0.3586324E+003  0.3401404E+02  0.7546771E-02  0.1387630E+00
          2   -1    0    0  502    0  0.00000000000E+00  0.00000000000E+00  0.42375864133E+03  0.42375864133E+03  0.00000000000E+00 0.  1.
          1   -1    0    0  501    0 -0.00000000000E+00 -0.00000000000E+00 -0.15651859169E+02  0.15651859169E+02  0.00000000000E+00 0. -1.
          2    1    1    2  501    0 -0.24658388234E+02  0.23429013694E+02  0.40367900068E+03  0.40510947950E+03  0.00000000000E+00 0.  1.
          1    1    1    2  502    0  0.24658388234E+02 -0.23429013694E+02  0.44277814878E+01  0.34301021003E+02  0.00000000000E+00 0. -1.
</event>
<event>
 4    1  0.3586324E+003  0.2064801E+02  0.7546771E-02  0.1524350E+00
          2   -1    0    0  502    0  0.00000000000E+00  0.00000000000E+00  0.11455638390E+01  0.11455638390E+01  0.00000000000E+00 0.  1.
          1   -1    0    0  501    0 -0.00000000000E+00 -0.00000000000E+00 -0.37302657634E+03  0.37302657634E+03  0.00000000000E+00 0. -1.
          2    1    1    2  501    0 -0.95924287263E+01  0.18284557624E+02 -0.19492730220E+03  0.19601783816E+03  0.00000000000E+00 0.  1.
          1    1    1    2  502    0  0.95924287263E+01 -0.18284557624E+02 -0.17695371031E+03  0.17815430202E+03  0.00000000000E+00 0. -1.
</event>
<event>
 4    1  0.3586324E+003  0.2988490E+02  0.7546771E-02  0.1420599E+00
          2   -1    0    0  502    0  0.00000000000E+00  0.00000000000E+00  0.70291013368E+02  0.70291013368E+02  0.00000000000E+00 0. -1.
          1   -1    0    0  501    0 -0.00000000000E+00 -0.00000000000E+00 -0.38734263490E+02  0.38734263490E+02  0.00000000000E+00 0.  1.
          2    1    1    2  501    0 -0.28028017710E+02 -0.10370039832E+02  0.60464567108E+02  0.67446804064E+02  0.00000000000E+00 0. -1.
          1    1    1    2  502    0  0.28028017710E+02  0.10370039832E+02 -0.28907817230E+02  0.41578472794E+02  0.00000000000E+00 0.  1.
</event>
<event>
 4    1  0.3586324E+003  0.2877365E+02  0.7546771E-02  0.1430561E+00
          2   -1    0    0  502    0  0.00000000000E+00  0.00000000000E+00  0.96753860894E+01  0.96753860894E+01  0.00000000000E+00 0.  1.
          1   -1    0    0  501    0 -0.00000000000E+00 -0.00000000000E+00 -0.97279606996E+02  0.97279606996E+02  0.00000000000E+00 0.  1.
          2    1    1    2  501    0  0.16775098026E+02 -0.23377727154E+02 -0.62355905546E+02  0.68674456657E+02  0.00000000000E+00 0.  1.
          1    1    1    2  502    0 -0.16775098026E+02  0.23377727154E+02 -0.25248315361E+02  0.38280536428E+02  0.00000000000E+00 0.  1.
</event>
<event>
 4    1  0.3586324E+003  0.2154656E+02  0.7546771E-02  0.1511603E+00
          2   -1    0    0  502    0  0.00000000000E+00  0.00000000000E+00  0.98266027560E+02  0.98266027560E+02  0.00000000000E+00 0. -1.
          1   -1    0    0  501    0 -0.00000000000E+00 -0.00000000000E+00 -0.98389507281E+01  0.98389507281E+01  0.00000000000E+00 0.  1.
          2    1    1    2  501    0  0.53260309939E+01 -0.20877918898E+02  0.83184616698E+02  0.85929823454E+02  0.00000000000E+00 0. -1.
          1    1    1    2  502    0 -0.53260309939E+01  0.20877918898E+02  0.52424601334E+01  0.22175154834E+02  0.00000000000E+00 0.  1.
</event>
<event>
 4    1  0.3586324E+003  0.2034453E+02  0.7546771E-02  0.1528833E+00
          2   -1    0    0  502    0  0.00000000000E+00  0.00000000000E+00  0.72828750976E+02  0.72828750976E+02  0.00000000000E+00 0.  1.
          1   -1    0    0  501    0 -0.00000000000E+00 -0.00000000000E+00 -0.17977125729E+02  0.17977125729E+02  0.00000000000E+00 0.  1.
          2    1    1    2  501    0  0.59784625268E+01  0.19446278924E+02  0.64972295850E+02  0.68083030237E+02  0.00000000000E+00 0.  1.
          1    1    1    2  502    0 -0.59784625268E+01 -0.19446278924E+02 -0.10120670603E+02  0.22722846469E+02  0.00000000000E+00 0.  1.
</event>
<event>
 4    1  0.3586324E+003  0.2673310E+02  0.7546771E-02  0.1450308E+00
          2   -1    0    0  502    0  0.00000000000E+00  0.00000000000E+00  0.59708749258E+02  0.59708749258E+02  0.00000000000E+00 0. -1.
          1   -1    0    0  501    0 -0.00000000000E+00 -0.00000000000E+00 -0.58598290434E+03  0.58598290434E+03  0.00000000000E+00 0. -1.
          2    1    1    2  501    0 -0.26525861661E+02 -0.33222601534E+01  0.56394571146E+02  0.62409986414E+02  0.00000000000E+00 0. -1.
          1    1    1    2  502    0  0.26525861661E+02  0.33222601534E+01 -0.58266872623E+03  0.58328166719E+03  0.00000000000E+00 0. -1.
</event>
<event>
 4    1  0.3586324E+003  0.7806338E+02  0.7546771E-02  0.1208416E+00
          2   -1    0    0  502    0  0.00000000000E+00  0.00000000000E+00  0.81460878148E+03  0.81460878148E+03  0.00000000000E+00 0.  1.
          1   -1    0    0  501    0 -0.00000000000E+00 -0.00000000000E+00 -0.91679855878E+02  0.91679855878E+02  0.00000000000E+00 0. -1.
          2    1    1    2  501    0 -0.51924014437E+02  0.58290542673E+02  0.79572793378E+03  0.79954789428E+03  0.00000000000E+00 0.  1.
          1    1    1    2  502    0  0.51924014437E+02 -0.58290542673E+02 -0.72799008184E+02  0.10674074308E+03  0.00000000000E+00 0. -1.
</event>
<event>
 4    1  0.3586324E+003  0.2317904E+02  0.7546771E-02  0.1490262E+00
          2   -1    0    0  502    0  0.00000000000E+00  0.00000000000E+00  0.96310195697E+03  0.96310195697E+03  0.00000000000E+00 0.  1.
          1   -1    0    0  501    0 -0.00000000000E+00 -0.00000000000E+00 -0.12617706834E+02  0.12617706834E+02  0.00000000000E+00 0.  1.
          2    1    1    2  501    0 -0.21712027741E+02  0.81151551971E+01  0.95219546486E+03  0.95247754367E+03  0.00000000000E+00 0.  1.
          1    1    1    2  502    0  0.21712027741E+02 -0.81151551971E+01 -0.17112147249E+01  0.23242120134E+02  0.00000000000E+00 0.  1.
</event>
<event>
 4    1  0.3586324E+003  0.2408018E+02  0.7546771E-02  0.1479362E+00
          2   -1    0    0  502    0  0.00000000000E+00  0.00000000000E+00  0.12233700145E+04  0.12233700145E+04  0.00000000000E+00 0. -1.
          1   -1    0    0  501    0 -0.00000000000E+00 -0.00000000000E+00 -0.91682520325E+00  0.91682520325E+00  0.00000000000E+00 0. -1.
          2    1    1    2  501    0 -0.18447730998E+02 -0.15476953876E+02  0.10366634406E+04  0.10369430766E+04  0.00000000000E+00 0. -1.
          1    1    1    2  502    0  0.18447730998E+02  0.15476953876E+02  0.18578974869E+03  0.18734376317E+03  0.00000000000E+00 0. -1.
</event>
<event>
 4    1  0.3586324E+003  0.2077044E+02  0.7546771E-02  0.1522568E+00
          2   -1    0    0  502    0  0.00000000000E+00  0.00000000000E+00  0.10625345224E+04  0.10625345224E+04  0.00000000000E+00 0.  1.
          1   -1    0    0  501    0 -0.00000000000E+00 -0.00000000000E+00 -0.35580478104E+03  0.35580478104E+03  0.00000000000E+00 0.  1.
          2    1    1    2  501    0  0.20026346955E+02 -0.55097001903E+01  0.10621297780E+04  0.10623328465E+04  0.00000000000E+00 0.  1.
          1    1    1    2  502    0 -0.20026346955E+02  0.55097001903E+01 -0.35540003663E+03  0.35600645697E+03  0.00000000000E+00 0.  1.
</event>
<event>
 4    1  0.3586324E+003  0.2985685E+02  0.7546771E-02  0.1420845E+00
          2   -1    0    0  502    0  0.00000000000E+00  0.00000000000E+00  0.10939681881E+04  0.10939681881E+04  0.00000000000E+00 0. -1.
          1   -1    0    0  501    0 -0.00000000000E+00 -0.00000000000E+00 -0.26787486839E+01  0.26787486839E+01  0.00000000000E+00 0.  1.
          2    1    1    2  501    0  0.23186612691E+02  0.18809899386E+02  0.10030285336E+04  0.10034728050E+04  0.00000000000E+00 0. -1.
          1    1    1    2  502    0 -0.23186612691E+02 -0.18809899386E+02  0.88260905823E+02  0.93174131708E+02  0.00000000000E+00 0.  1.
</event>
<event>
 4    1  0.3586324E+003  0.2436476E+02  0.7546771E-02  0.1476037E+00
          2   -1    0    0  502    0  0.00000000000E+00  0.00000000000E+00  0.18268551904E+03  0.18268551904E+03  0.00000000000E+00 0.  1.
          1   -1    0    0  501    0 -0.00000000000E+00 -0.00000000000E+00 -0.31565338001E+02  0.31565338001E+02  0.00000000000E+00 0.  1.
          2    1    1    2  501    0  0.17545638311E+02 -0.16905385879E+02  0.17702172492E+03  0.17869060577E+03  0.00000000000E+00 0.  1.
          1    1    1    2  502    0 -0.17545638311E+02  0.16905385879E+02 -0.25901543880E+02  0.35560251276E+02  0.00000000000E+00 0.  1.
</event>
<event>
 4    1  0.3586324E+003  0.2930533E+02  0.7546771E-02  0.1425731E+00
          2   -1    0    0  502    0  0.00000000000E+00  0.00000000000E+00  0.20978666386E+04  0.20978666386E+04  0.00000000000E+00 0. -1.
          1   -1    0    0  501    0 -0.00000000000E+00 -0.00000000000E+00 -0.32098888288E+01  0.32098888288E+01  0.00000000000E+00 0. -1.
          2    1    1    2  501    0 -0.29270618220E+02  0.14259333487E+01  0.20285930747E+04  0.20288047381E+04  0.00000000000E+00 0. -1.
          1    1    1    2  502    0  0.29270618220E+02 -0.14259333487E+01  0.66063675031E+02  0.72271789348E+02  0.00000000000E+00 0. -1.
</event>
<event>
 4    1  0.3586324E+003  0.7146142E+02  0.7546771E-02  0.1225191E+00
          2   -1    0    0  502    0  0.00000000000E+00  0.00000000000E+00  0.21775038883E+03  0.21775038883E+03  0.00000000000E+00 0. -1.
          1   -1    0    0  501    0 -0.00000000000E+00 -0.00000000000E+00 -0.33998022464E+02  0.33998022464E+02  0.00000000000E+00 0.  1.
          2    1    1    2  501    0 -0.70320376722E+02 -0.12719233927E+02  0.16198123698E+03  0.17704421885E+03  0.00000000000E+00 0. -1.
          1    1    1    2  502    0  0.70320376722E+02  0.12719233927E+02  0.21771129384E+02  0.74704192443E+02  0.00000000000E+00 0.  1.
</event>
<event>
 4    1  0.3586324E+003  0.2037590E+02  0.7546771E-02  0.1528365E+00
          2   -1    0    0  502    0  0.00000000000E+00  0.00000000000E+00  0.14468832292E+04  0.14468832292E+04  0.00000000000E+00 0.  1.
          1   -1    0    0  501    0 -0.00000000000E+00 -0.00000000000E+00 -0.23430887468E+03  0.23430887468E+03  0.00000000000E+00 0.  1.
          2    1    1    2  501    0 -0.10408943727E+02 -0.17516591848E+02  0.14463683545E+04  0.14465118713E+04  0.00000000000E+00 0.  1.
          1    1    1    2  502    0  0.10408943727E+02  0.17516591848E+02 -0.23379399999E+03  0.23468023251E+03  0.00000000000E+00 0.  1.
</event>
<event>
 4    1  0.3586324E+003  0.2579362E+02  0.7546771E-02  0.1460118E+00
          2   -1    0    0  502    0  0.00000000000E+00  0.00000000000E+00  0.10955953459E+02  0.10955953459E+02  0.00000000000E+00 0. -1.
          1   -1    0    0  501    0 -0.00000000000E+00 -0.00000000000E+00 -0.97299072767E+02  0.97299072767E+02  0.00000000000E+00 0.  1.
          2    1    1    2  501    0 -0.89346031940E+01 -0.24196767299E+02 -0.99863363002E+01  0.27659312982E+02  0.00000000000E+00 0. -1.
          1    1    1    2  502    0  0.89346031940E+01  0.24196767299E+02 -0.76356783008E+02  0.80595713244E+02  0.00000000000E+00 0.  1.
</event>
<event>
 4    1  0.3586324E+003  0.2594096E+02  0.7546771E-02  0.1458546E+00
          2   -1    0    0  502    0  0.00000000000E+00  0.00000000000E+00  0.65279098903E+01  0.65279098903E+01  0.00000000000E+00 0. -1.
          1   -1    0    0  501    0 -0.00000000000E+00 -0.00000000000E+00 -0.91133802111E+03  0.91133802111E+03  0.00000000000E+00 0.  1.
          2    1    1    2  501    0 -0.22279029797E+02 -0.13288282177E+02 -0.20206797110E+02  0.32882339657E+02  0.00000000000E+00 0. -1.
          1    1    1    2  502    0  0.22279029797E+02  0.13288282177E+02 -0.88460331411E+03  0.88498359134E+03  0.00000000000E+00 0.  1.
</event>
<event>
 4    1  0.3586324E+003  0.2513397E+02  0.7546771E-02  0.1467310E+00
          2   -1    0    0  502    0  0.00000000000E+00  0.00000000000E+00  0.12519593758E+02  0.12519593758E+02  0.00000000000E+00 0.  1.
          1   -1    0    0  501    0 -0.00000000000E+00 -0.00000000000E+00 -0.65142069643E+02  0.65142069643E+02  0.00000000000E+00 0.  1.
          2    1    1    2  501    0  0.21635800805E+02 -0.12790960215E+02 -0.78752788903E+01  0.26338879196E+02  0.00000000000E+00 0.  1.
          1    1    1    2  502    0 -0.21635800805E+02  0.12790960215E+02 -0.44747196995E+02  0.51322784205E+02  0.00000000000E+00 0.  1.
</event>
<event>
 4    1  0.3586324E+003  0.2158327E+02  0.7546771E-02  0.1511098E+00
          2   -1    0    0  502    0  0.00000000000E+00  0.00000000000E+00  0.23819963391E+03  0.23819963391E+03  0.00000000000E+00 0.  1.
          1   -1    0    0  501    0 -0.00000000000E+00 -0.00000000000E+00 -0.75569784497E+01  0.75569784497E+01  0.00000000000E+00 0.  1.
          2    1    1    2  501    0 -0.17628659929E+02 -0.12452629614E+02  0.22111172152E+03  0.22216262293E+03  0.00000000000E+00 0.  1.
          1    1    1    2  502    0  0.17628659929E+02  0.12452629614E+02  0.95309339377E+01  0.23593989424E+02  0.00000000000E+00 0.  1.
</event>
<event>
 4    1  0.3586324E+003  0.2077851E+02  0.7546771E-02  0.1522451E+00
          2   -1    0    0  502    0  0.00000000000E+00  0.00000000000E+00  0.19572393252E+03  0.19572393252E+03  0.00000000000E+00 0.  1.
          1   -1    0    0  501    0 -0.00000000000E+00 -0.00000000000E+00 -0.21770685723E+03  0.21770685723E+03  0.00000000000E+00 0.  1.
          2    1    1    2  501    0 -0.19488261183E+01  0.20686920793E+02  0.19467400325E+03  0.19577975931E+03  0.00000000000E+00 0.  1.
          1    1    1    2  502    0  0.19488261183E+01 -0.20686920793E+02 -0.21665692797E+03  0.21765103044E+03  0.00000000000E+00 0.  1.
</event>
<event>
 4    1  0.3586324E+003  0.2093456E+02  0.7546771E-02  0.1520201E+00
          2   -1    0    0  502    0  0.00000000000E+00  0.00000000000E+00  0.33472071806E+01  0.33472071806E+01  0.00000000000E+00 0. -1.
          1   -1    0    0  501    0 -0.00000000000E+00 -0.00000000000E+00 -0.31358355174E+03  0.31358355174E+03  0.00000000000E+00 0. -1.
          2    1    1    2  501    0 -0.39123180719E+01 -0.20565742178E+02 -0.34178264039E+02  0.40080041376E+02  0.00000000000E+00 0. -1.
          1    1    1    2  502    0  0.39123180719E+01  0.20565742178E+02 -0.27605808053E+03  0.27685071755E+03  0.00000000000E+00 0. -1.
</event>
<event>
 4    1  0.3586324E+003  0.2217429E+02  0.7546771E-02  0.1503135E+00
          2   -1    0    0  502    0  0.00000000000E+00  0.00000000000E+00  0.70156039941E+03  0.70156039941E+03  0.00000000000E+00 0. -1.
          1   -1    0    0  501    0 -0.00000000000E+00 -0.00000000000E+00 -0.20116217286E+01  0.20116217286E+01  0.00000000000E+00 0. -1.
          2    1    1    2  501    0 -0.12600793747E+02 -0.18246071621E+02  0.63374046018E+03  0.63412827567E+03  0.00000000000E+00 0. -1.
          1    1    1    2  502    0  0.12600793747E+02  0.18246071621E+02  0.65808317506E+02  0.69443745475E+02  0.00000000000E+00 0. -1.
</event>
<event>
 4    1  0.3586324E+003  0.3883264E+02  0.7546771E-02  0.1355466E+00
          2   -1    0    0  502    0  0.00000000000E+00  0.00000000000E+00  0.81711660974E+03  0.81711660974E+03  0.00000000000E+00 0.  1.
          1   -1    0    0  501    0 -0.00000000000E+00 -0.00000000000E+00 -0.58072837650E+02  0.58072837650E+02  0.00000000000E+00 0. -1.
          2    1    1    2  501    0 -0.20625685087E+02 -0.32902203496E+02  0.81010736852E+03  0.81103755918E+03  0.00000000000E+00 0.  1.
          1    1    1    2  502    0  0.20625685087E+02  0.32902203496E+02 -0.51063596428E+02  0.64151888206E+02  0.00000000000E+00 0. -1.
</event>
<event>
 4    1  0.3586324E+003  0.2269448E+02  0.7546771E-02  0.1496371E+00
          2   -1    0    0  502    0  0.00000000000E+00  0.00000000000E+00  0.64902935099E+03  0.64902935099E+03  0.00000000000E+00 0. -1.
          1   -1    0    0  501    0 -0.00000000000E+00 -0.00000000000E+00 -0.22409389349E+01  0.22409389349E+01  0.00000000000E+00 0. -1.
          2    1    1    2  501    0 -0.12630620252E+02  0.18854891012E+02  0.58509700397E+03  0.58553697026E+03  0.00000000000E+00 0. -1.
          1    1    1    2  502    0  0.12630620252E+02 -0.18854891012E+02  0.61691408084E+02  0.65733319667E+02  0.00000000000E+00 0. -1.
</event>
<event>
 4    1  0.3586324E+003  0.2558247E+02  0.7546771E-02  0.1462392E+00
          2   -1    0    0  502    0  0.00000000000E+00  0.00000000000E+00  0.10057062913E+04  0.10057062913E+04  0.00000000000E+00 0. -1.
          1   -1    0    0  501    0 -0.00000000000E+00 -0.00000000000E+00 -0.15001477880E+01  0.15001477880E+01  0.00000000000E+00 0. -1.
          2    1    1    2  501    0  0.15802583394E+02  0.20118185303E+02  0.88104889624E+03  0.88142022928E+03  0.00000000000E+00 0. -1.
          1    1    1    2  502    0 -0.15802583394E+02 -0.20118185303E+02  0.12315724728E+03  0.12578620982E+03  0.00000000000E+00 0. -1.
</event>
<event>
 4    1  0.3586324E+003  0.3512820E+02  0.7546771E-02  0.1379664E+00
          2   -1    0    0  502    0  0.00000000000E+00  0.00000000000E+00  0.90587270454E+03  0.90587270454E+03  0.00000000000E+00 0. -1.
          1   -1    0    0  501    0 -0.00000000000E+00 -0.00000000000E+00 -0.63005816340E+01  0.63005816340E+01  0.00000000000E+00 0.  1.
          2    1    1    2  501    0 -0.21653361186E+02  0.27660842927E+02  0.85356982140E+03  0.85429235645E+03  0.00000000000E+00 0. -1.
          1    1    1    2  502    0  0.21653361186E+02 -0.27660842927E+02  0.46002301508E+02  0.57880929727E+02  0.00000000000E+00 0.  1.
</event>
<event>
 4    1  0.3586324E+003  0.2780984E+02  0.7546771E-02  0.1439638E+00
          2   -1    0    0  502    0  0.00000000000E+00  0.00000000000E+00  0.61032450157E+03  0.61032450157E+03  0.00000000000E+00 0. -1.
          1   -1    0    0  501    0 -0.00000000000E+00 -0.00000000000E+00 -0.29456372573E+01  0.29456372573E+01  0.00000000000E+00 0.  1.
          2    1    1    2  501    0 -0.15560887712E+02 -0.23048778442E+02  0.53515590537E+03  0.53587799961E+03  0.00000000000E+00 0. -1.
          1    1    1    2  502    0  0.15560887712E+02  0.23048778442E+02  0.72222958936E+02  0.77392139210E+02  0.00000000000E+00 0.  1.
</event>
<event>
 4    1  0.3586324E+003  0.2954837E+02  0.7546771E-02  0.1423562E+00
          2   -1    0    0  502    0  0.00000000000E+00  0.00000000000E+00  0.20032642299E+03  0.20032642299E+03  0.00000000000E+00 0.  1.
          1   -1    0    0  501    0 -0.00000000000E+00 -0.00000000000E+00 -0.17735995509E+03  0.17735995509E+03  0.00000000000E+00 0.  1.
          2    1    1    2  501    0  0.24651996343E+02  0.16290648248E+02  0.19799168813E+03  0.20018445172E+03  0.00000000000E+00 0.  1.
          1    1    1    2  502    0 -0.24651996343E+02 -0.16290648248E+02 -0.17502522023E+03  0.17750192636E+03  0.00000000000E+00 0.  1.
</event>
<event>
 4    1  0.3586324E+003  0.2790509E+02  0.7546771E-02  0.1438722E+00
          2   -1    0    0  502    0  0.00000000000E+00  0.00000000000E+00  0.10050287795E+04  0.10050287795E+04  0.00000000000E+00 0.  1.
          1   -1    0    0  501    0 -0.00000000000E+00 -0.00000000000E+00 -0.28367986285E+01  0.28367986285E+01  0.00000000000E+00 0. -1.
          2    1    1    2  501    0  0.20887102247E+02  0.18504672073E+02  0.93073410041E+03  0.93115232889E+03  0.00000000000E+00 0.  1.
          1    1    1    2  502    0 -0.20887102247E+02 -0.18504672073E+02  0.71457880455E+02  0.76713249233E+02  0.00000000000E+00 0. -1.
</event>
<event>
 4    1  0.3586324E+003  0.2598275E+02  0.7546771E-02  0.1458103E+00
          2   -1    0    0  502    0  0.00000000000E+00  0.00000000000E+00  0.63212958613E+02  0.63212958613E+02  0.00000000000E+00 0.  1.
          1   -1    0    0  501    0 -0.00000000000E+00 -0.00000000000E+00 -0.11255008686E+03  0.11255008686E+03  0.00000000000E+00 0. -1.
          2    1    1    2  501    0  0.68542090797E+00  0.25973712187E+02  0.58939537187E+02  0.64412518740E+02  0.00000000000E+00 0.  1.
          1    1    1    2  502    0 -0.68542090797E+00 -0.25973712187E+02 -0.10827666544E+03  0.11135052674E+03  0.00000000000E+00 0. -1.
</event>
<event>
 4    1  0.3586324E+003  0.2162416E+02  0.7546771E-02  0.1510537E+00
          2   -1    0    0  502    0  0.00000000000E+00  0.00000000000E+00  0.13901928410E+04  0.13901928410E+04  0.00000000000E+00 0.  1.
          1   -1    0    0  501    0 -0.00000000000E+00 -0.00000000000E+00 -0.64657106227E+00  0.64657106227E+00  0.00000000000E+00 0.  1.
          2    1    1    2  501    0 -0.17096286007E+02 -0.13240896121E+02  0.11764635165E+04  0.11766622328E+04  0.00000000000E+00 0.  1.
          1    1    1    2  502    0  0.17096286007E+02  0.13240896121E+02  0.21308275338E+03  0.21417717926E+03  0.00000000000E+00 0.  1.
</event>
<event>
 4    1  0.3586324E+003  0.2664469E+02  0.7546771E-02  0.1451210E+00
          2   -1    0    0  502    0  0.00000000000E+00  0.00000000000E+00  0.66379948519E+01  0.66379948519E+01  0.00000000000E+00 0. -1.
          1   -1    0    0  501    0 -0.00000000000E+00 -0.00000000000E+00 -0.36817144616E+03  0.36817144616E+03  0.00000000000E+00 0.  1.
          2    1    1    2  501    0 -0.84845619058E+00 -0.26631172744E+02 -0.22911422545E+02  0.35140753018E+02  0.00000000000E+00 0. -1.
          1    1    1    2  502    0  0.84845619058E+00  0.26631172744E+02 -0.33862202876E+03  0.33966868799E+03  0.00000000000E+00 0.  1.
</event>
<event>
 4    1  0.3586324E+003  0.2223670E+02  0.7546771E-02  0.1502312E+00
          2   -1    0    0  502    0  0.00000000000E+00  0.00000000000E+00  0.76545260235E+01  0.76545260235E+01  0.00000000000E+00 0.  1.
          1   -1    0    0  501    0 -0.00000000000E+00 -0.00000000000E+00 -0.11915211363E+03  0.11915211363E+03  0.00000000000E+00 0.  1.
          2    1    1    2  501    0  0.61468569481E+01  0.21370239067E+02 -0.12847257060E+02  0.25681179530E+02  0.00000000000E+00 0.  1.
          1    1    1    2  502    0 -0.61468569481E+01 -0.21370239067E+02 -0.98650330550E+02  0.10112546013E+03  0.00000000000E+00 0.  1.
</event>
<event>
 4    1  0.3586324E+003  0.2994090E+02  0.7546771E-02  0.1420111E+00
          2   -1    0    0  502    0  0.00000000000E+00  0.00000000000E+00  0.86967664221E+01  0.86967664221E+01  0.00000000000E+00 0.  1.
          1   -1    0    0  501    0 -0.00000000000E+00 -0.00000000000E+00 -0.11743761031E+03  0.11743761031E+03  0.00000000000E+00 0.  1.
          2    1    1    2  501    0  0.70207640522E+00  0.29932670178E+02 -0.32318335254E+02  0.44056014900E+02  0.00000000000E+00 0.  1.
          1    1    1    2  502    0 -0.70207640522E+00 -0.29932670178E+02 -0.76422508637E+02  0.82078361835E+02  0.00000000000E+00 0.  1.
</event>
<event>
 4    1  0.3586324E+003  0.2313136E+02  0.7546771E-02  0.1490855E+00
          2   -1    0    0  502    0  0.00000000000E+00  0.00000000000E+00  0.79785837853E+02  0.79785837853E+02  0.00000000000E+00 0. -1.
          1   -1    0    0  501    0 -0.00000000000E+00 -0.00000000000E+00 -0.51226104820E+03  0.51226104820E+03  0.00000000000E+00 0.  1.
          2    1    1    2  501    0  0.57576818272E+01  0.22403323541E+02  0.77841777692E+02  0.81205924414E+02  0.00000000000E+00 0. -1.
          1    1    1    2  502    0 -0.57576818272E+01 -0.22403323541E+02 -0.51031698804E+03  0.51084096164E+03  0.00000000000E+00 0.  1.
</event>
<event>
 4    1  0.3586324E+003  0.3095474E+02  0.7546771E-02  0.1411477E+00
          2   -1    0    0  502    0  0.00000000000E+00  0.00000000000E+00  0.89809377576E+03  0.89809377576E+03  0.00000000000E+00 0.  1.
          1   -1    0    0  501    0 -0.00000000000E+00 -0.00000000000E+00 -0.20232276005E+03  0.20232276005E+03  0.00000000000E+00 0. -1.
          2    1    1    2  501    0 -0.98054139384E+01  0.29360682814E+02  0.89664113357E+03  0.89717529962E+03  0.00000000000E+00 0.  1.
          1    1    1    2  502    0  0.98054139384E+01 -0.29360682814E+02 -0.20087011786E+03  0.20324123619E+03  0.00000000000E+00 0. -1.
</event>
<event>
 4    1  0.3586324E+003  0.3455037E+02  0.7546771E-02  0.1383752E+00
          2   -1    0    0  502    0  0.00000000000E+00  0.00000000000E+00  0.10728086503E+03  0.10728086503E+03  0.00000000000E+00 0.  1.
          1   -1    0    0  501    0 -0.00000000000E+00 -0.00000000000E+00 -0.21298070314E+02  0.21298070314E+02  0.00000000000E+00 0.  1.
          2    1    1    2  501    0  0.71780746913E+00  0.34542910419E+02  0.87418736079E+02  0.93998741084E+02  0.00000000000E+00 0.  1.
          1    1    1    2  502    0 -0.71780746913E+00 -0.34542910419E+02 -0.14359413588E+01  0.34580194264E+02  0.00000000000E+00 0.  1.
</event>
<event>
 4    1  0.3586324E+003  0.2037653E+02  0.7546771E-02  0.1528355E+00
          2   -1    0    0  502    0  0.00000000000E+00  0.00000000000E+00  0.14571137834E+02  0.14571137834E+02  0.00000000000E+00 0. -1.
          1   -1    0    0  501    0 -0.00000000000E+00 -0.00000000000E+00 -0.19206970690E+03  0.19206970690E+03  0.00000000000E+00 0.  1.
          2    1    1    2  501    0  0.16445380328E+01 -0.20310055730E+02  0.65994572824E+01  0.21418583181E+02  0.00000000000E+00 0. -1.
          1    1    1    2  502    0 -0.16445380328E+01  0.20310055730E+02 -0.18409802634E+03  0.18522226155E+03  0.00000000000E+00 0.  1.
</event>
<event>
 4    1  0.3586324E+003  0.2358614E+02  0.7546771E-02  0.1485266E+00
          2   -1    0    0  502    0  0.00000000000E+00  0.00000000000E+00  0.64531021113E+03  0.64531021113E+03  0.00000000000E+00 0. -1.
          1   -1    0    0  501    0 -0.00000000000E+00 -0.00000000000E+00 -0.93043809269E+01  0.93043809269E+01  0.00000000000E+00 0.  1.
          2    1    1    2  501    0 -0.11721304657E+02  0.20467458720E+02  0.62977877525E+03  0.63022028816E+03  0.00000000000E+00 0. -1.
          1    1    1    2  502    0  0.11721304657E+02 -0.20467458720E+02  0.62270549522E+01  0.24394303899E+02  0.00000000000E+00 0.  1.
</event>
<event>
 4    1  0.3586324E+003  0.2027941E+02  0.7546771E-02  0.1529806E+00
          2   -1    0    0  502    0  0.00000000000E+00  0.00000000000E+00  0.46469374067E+03  0.46469374067E+03  0.00000000000E+00 0.  1.
          1   -1    0    0  501    0 -0.00000000000E+00 -0.00000000000E+00 -0.36525992359E+01  0.36525992359E+01  0.00000000000E+00 0.  1.
          2    1    1    2  501    0 -0.18370709030E+02 -0.85890255259E+01  0.43435975139E+03  0.43483289656E+03  0.00000000000E+00 0.  1.
          1    1    1    2  502    0  0.18370709030E+02  0.85890255259E+01  0.26681390048E+02  0.33513443342E+02  0.00000000000E+00 0.  1.
</event>
<event>
 4    1  0.3586324E+003  0.2205313E+02  0.7546771E-02  0.1504743E+00
          2   -1    0    0  502    0  0.00000000000E+00  0.00000000000E+00  0.13887131520E+03  0.13887131520E+03  0.00000000000E+00 0.  1.
          1   -1    0    0  501    0 -0.00000000000E+00 -0.00000000000E+00 -0.25402218688E+02  0.25402218688E+02  0.00000000000E+00 0. -1.
          2    1    1    2  501    0  0.21949780833E+02  0.21324762110E+01  0.13299951363E+03  0.13481547003E+03  0.00000000000E+00 0.  1.
          1    1    1    2  502    0 -0.21949780833E+02 -0.21324762110E+01 -0.19530417119E+02  0.29458063858E+02  0.00000000000E+00 0. -1.
</event>
<event>
 4    1  0.3586324E+003  0.5495566E+02  0.7546771E-02  0.1278007E+00
          2   -1    0    0  502    0  0.00000000000E+00  0.00000000000E+00  0.11647387985E+04  0.11647387985E+04  0.00000000000E+00 0. -1.
          1   -1    0    0  501    0 -0.00000000000E+00 -0.00000000000E+00 -0.27227400356E+03  0.27227400356E+03  0.00000000000E+00 0.  1.
          2    1    1    2  501    0  0.54544742937E+02 -0.67079022632E+01  0.11613093164E+04  0.11626088996E+04  0.00000000000E+00 0. -1.
          1    1    1    2  502    0 -0.54544742937E+02  0.67079022632E+01 -0.26884452152E+03  0.27440390246E+03  0.00000000000E+00 0.  1.
</event>
<event>
 4    1  0.3586324E+003  0.2177588E+02  0.7546771E-02  0.1508469E+00
          2   -1    0    0  502    0  0.00000000000E+00  0.00000000000E+00  0.70550375195E+03  0.70550375195E+03  0.00000000000E+00 0. -1.
          1   -1    0    0  501    0 -0.00000000000E+00 -0.00000000000E+00 -0.38748900464E+01  0.38748900464E+01  0.00000000000E+00 0. -1.
          2    1    1    2  501    0  0.19273911941E+02 -0.10134369009E+02  0.67327805450E+03  0.67363011200E+03  0.00000000000E+00 0. -1.
          1    1    1    2  502    0 -0.19273911941E+02  0.10134369009E+02  0.28350807403E+02  0.35748530000E+02  0.00000000000E+00 0. -1.
</event>
<event>
 4    1  0.3586324E+003  0.2700670E+02  0.7546771E-02  0.1447541E+00
          2   -1    0    0  502    0  0.00000000000E+00  0.00000000000E+00  0.22893615435E+03  0.22893615435E+03  0.00000000000E+00 0. -1.
          1   -1    0    0  501    0 -0.00000000000E+00 -0.00000000000E+00 -0.55400165864E+02  0.55400165864E+02  0.00000000000E+00 0.  1.
          2    1    1    2  501    0 -0.15322681180E+02  0.22239094057E+02  0.22478782944E+03  0.22640435095E+03  0.00000000000E+00 0. -1.
          1    1    1    2  502    0  0.15322681180E+02 -0.22239094057E+02 -0.51251840949E+02  0.57931969272E+02  0.00000000000E+00 0.  1.
</event>
<event>
 4    1  0.3586324E+003  0.2067997E+02  0.7546771E-02  0.1523884E+00
          2   -1    0    0  502    0  0.00000000000E+00  0.00000000000E+00  0.27952549049E+03  0.27952549049E+03  0.00000000000E+00 0.  1.
          1   -1    0    0  501    0 -0.00000000000E+00 -0.00000000000E+00 -0.95092643316E+03  0.95092643316E+03  0.00000000000E+00 0. -1.
          2    1    1    2  501    0  0.19517842541E+02  0.68348242220E+01  0.27903037016E+03  0.27979565485E+03  0.00000000000E+00 0.  1.
          1    1    1    2  502    0 -0.19517842541E+02 -0.68348242220E+01 -0.95043131284E+03  0.95065626880E+03  0.00000000000E+00 0. -1.
</event>
<event>
 4    1  0.3586324E+003  0.2119704E+02  0.7546771E-02  0.1516470E+00
          2   -1    0    0  502    0  0.00000000000E+00  0.00000000000E+00  0.17728432883E+02  0.17728432883E+02  0.00000000000E+00 0.  1.
          1   -1    0    0  501    0 -0.00000000000E+00 -0.00000000000E+00 -0.84311162472E+02  0.84311162472E+02  0.00000000000E+00 0. -1.
          2    1    1    2  501    0 -0.20803436997E+02 -0.40658892853E+01  0.93764361813E+01  0.23178265725E+02  0.00000000000E+00 0.  1.
          1    1    1    2  502    0  0.20803436997E+02  0.40658892853E+01 -0.75959165770E+02  0.78861329630E+02  0.00000000000E+00 0. -1.
</event>
<event>
 4    1  0.3586324E+003  0.2094389E+02  0.7546771E-02  0.1520067E+00
          2   -1    0    0  502    0  0.00000000000E+00  0.00000000000E+00  0.92615302249E+03  0.92615302249E+03  0.00000000000E+00 0.  1.
          1   -1    0    0  501    0 -0.00000000000E+00 -0.00000000000E+00 -0.11509808708E+01  0.11509808708E+01  0.00000000000E+00 0. -1.
          2    1    1    2  501    0 -0.20925343976E+02 -0.88120446659E+00  0.81818758856E+03  0.81845560455E+03  0.00000000000E+00 0.  1.
          1    1    1    2  502    0  0.20925343976E+02  0.88120446659E+00  0.10681445305E+03  0.10884839881E+03  0.00000000000E+00 0. -1.
</event>
<event>
 4    1  0.3586324E+003  0.2101499E+02  0.7546771E-02  0.1519051E+00
          2   -1    0    0  502    0  0.00000000000E+00  0.00000000000E+00  0.11296487621E+04  0.11296487621E+04  0.00000000000E+00 0.  1.
          1   -1    0    0  501    0 -0.00000000000E+00 -0.00000000000E+00 -0.43596656468E+02  0.43596656468E+02  0.00000000000E+00 0.  1.
          2    1    1    2  501    0  0.18072894735E+02  0.10723817923E+02  0.11270126278E+04  0.11272085402E+04  0.00000000000E+00 0.  1.
          1    1    1    2  502    0 -0.18072894735E+02 -0.10723817923E+02 -0.40960522180E+02  0.46036878393E+02  0.00000000000E+00 0.  1.
</event>
<event>
 4    1  0.3586324E+003  0.3786521E+02  0.7546771E-02  0.1361471E+00
          2   -1    0    0  502    0  0.00000000000E+00  0.00000000000E+00  0.63113628963E+03  0.63113628963E+03  0.00000000000E+00 0. -1.
          1   -1    0    0  501    0 -0.00000000000E+00 -0.00000000000E+00 -0.15780960273E+04  0.15780960273E+04  0.00000000000E+00 0.  1.
          2    1    1    2  501    0 -0.21027379459E+02 -0.31490047221E+02  0.63034093315E+03  0.63147720922E+03  0.00000000000E+00 0. -1.
          1    1    1    2  502    0  0.21027379459E+02  0.31490047221E+02 -0.15773006708E+04  0.15777551077E+04  0.00000000000E+00 0.  1.
</event>
<event>
 4    1  0.3586324E+003  0.3820937E+02  0.7546771E-02  0.1359311E+00
          2   -1    0    0  502    0  0.00000000000E+00  0.00000000000E+00  0.18890511771E+03  0.18890511771E+03  0.00000000000E+00 0.  1.
          1   -1    0    0  501    0 -0.00000000000E+00 -0.00000000000E+00 -0.85841628283E+01  0.85841628283E+01  0.00000000000E+00 0. -1.
          2    1    1    2  501    0 -0.38032700498E+02 -0.36700854155E+01  0.12133590050E+03  0.12720989185E+03  0.00000000000E+00 0.  1.
          1    1    1    2  502    0  0.38032700498E+02  0.36700854155E+01  0.58985054382E+02  0.70279388689E+02  0.00000000000E+00 0. -1.
</event>
<event>
 4    1  0.3586324E+003  0.2355482E+02  0.7546771E-02  0.1485646E+00
          2   -1    0    0  502    0  0.00000000000E+00  0.00000000000E+00  0.16590796846E+02  0.16590796846E+02  0.00000000000E+00 0. -1.
          1   -1    0    0  501    0 -0.00000000000E+00 -0.00000000000E+00 -0.15075415901E+04  0.15075415901E+04  0.00000000000E+00 0. -1.
          2    1    1    2  501    0 -0.21468883175E+02  0.96910695471E+01  0.80908795091E+01  0.24905664115E+02  0.00000000000E+00 0. -1.
          1    1    1    2  502    0  0.21468883175E+02 -0.96910695471E+01 -0.14990416727E+04  0.14992267228E+04  0.00000000000E+00 0. -1.
</event>
<event>
 4    1  0.3586324E+003  0.2078314E+02  0.7546771E-02  0.1522384E+00
          2   -1    0    0  502    0  0.00000000000E+00  0.00000000000E+00  0.48740544318E+02  0.48740544318E+02  0.00000000000E+00 0. -1.
          1   -1    0    0  501    0 -0.00000000000E+00 -0.00000000000E+00 -0.36000947867E+02  0.36000947867E+02  0.00000000000E+00 0.  1.
          2    1    1    2  501    0  0.15954078417E+02  0.13319393510E+02  0.43157751073E+02  0.47901256135E+02  0.00000000000E+00 0. -1.
          1    1    1    2  502    0 -0.15954078417E+02 -0.13319393510E+02 -0.30418154622E+02  0.36840236050E+02  0.00000000000E+00 0.  1.
</event>
<event>
 4    1  0.3586324E+003  0.2761874E+02  0.7546771E-02  0.1441490E+00
          2   -1    0    0  502    0  0.00000000000E+00  0.00000000000E+00  0.86042895935E+02  0.86042895935E+02  0.00000000000E+00 0.  1.
          1   -1    0    0  501    0 -0.00000000000E+00 -0.00000000000E+00 -0.41728028635E+02  0.41728028635E+02  0.00000000000E+00 0. -1.
          2    1    1    2  501    0 -0.51591667935E+01 -0.27132598468E+02  0.78851813496E+02  0.83548808449E+02  0.00000000000E+00 0.  1.
          1    1    1    2  502    0  0.51591667935E+01  0.27132598468E+02 -0.34536946196E+02  0.44222116121E+02  0.00000000000E+00 0. -1.
</event>
<event>
 4    1  0.3586324E+003  0.2164779E+02  0.7546771E-02  0.1510214E+00
          2   -1    0    0  502    0  0.00000000000E+00  0.00000000000E+00  0.10737510264E+04  0.10737510264E+04  0.00000000000E+00 0.  1.
          1   -1    0    0  501    0 -0.00000000000E+00 -0.00000000000E+00 -0.15929623211E+01  0.15929623211E+01  0.00000000000E+00 0.  1.
          2    1    1    2  501    0  0.58903611403E+01 -0.20830999050E+02  0.99421232408E+03  0.99444797361E+03  0.00000000000E+00 0.  1.
          1    1    1    2  502    0 -0.58903611403E+01  0.20830999050E+02  0.77945739965E+02  0.80896015072E+02  0.00000000000E+00 0.  1.
</event>
<event>
 4    1  0.3586324E+003  0.2518954E+02  0.7546771E-02  0.1466694E+00
          2   -1    0    0  502    0  0.00000000000E+00  0.00000000000E+00  0.12778510908E+04  0.12778510908E+04  0.00000000000E+00 0. -1.
          1   -1    0    0  501    0 -0.00000000000E+00 -0.00000000000E+00 -0.93680743045E+00  0.93680743045E+00  0.00000000000E+00 0.  1.
          2    1    1    2  501    0  0.15451430118E+02  0.19893875550E+02  0.10767841617E+04  0.10770787547E+04  0.00000000000E+00 0. -1.
          1    1    1    2  502    0 -0.15451430118E+02 -0.19893875550E+02  0.20013012169E+03  0.20170914354E+03  0.00000000000E+00 0.  1.
</event>
<event>
 4    1  0.3586324E+003  0.2343988E+02  0.7546771E-02  0.1487047E+00
          2   -1    0    0  502    0  0.00000000000E+00  0.00000000000E+00  0.44669076516E+00  0.44669076516E+00  0.00000000000E+00 0. -1.
          1   -1    0    0  501    0 -0.00000000000E+00 -0.00000000000E+00 -0.12308338154E+04  0.12308338154E+04  0.00000000000E+00 0. -1.
          2    1    1    2  501    0 -0.16963987368E+02  0.16175636298E+02 -0.59913627389E+03  0.59959461536E+03  0.00000000000E+00 0. -1.
          1    1    1    2  502    0  0.16963987368E+02 -0.16175636298E+02 -0.63125085070E+03  0.63168589076E+03  0.00000000000E+00 0. -1.
</event>
<event>
 4    1  0.3586324E+003  0.3158089E+02  0.7546771E-02  0.1406339E+00
          2   -1    0    0  502    0  0.00000000000E+00  0.00000000000E+00  0.43881099033E+01  0.43881099033E+01  0.00000000000E+00 0.  1.
          1   -1    0    0  501    0 -0.00000000000E+00 -0.00000000000E+00 -0.14276191653E+04  0.14276191653E+04  0.00000000000E+00 0.  1.
          2    1    1    2  501    0 -0.16811492779E+02  0.26734363155E+02 -0.55077191075E+02  0.63488971007E+02  0.00000000000E+00 0.  1.
          1    1    1    2  502    0  0.16811492779E+02 -0.26734363155E+02 -0.13681538643E+04  0.13685183042E+04  0.00000000000E+00 0.  1.
</event>
<event>
 4    1  0.3586324E+003  0.3064740E+02  0.7546771E-02  0.1414052E+00
          2   -1    0    0  502    0  0.00000000000E+00  0.00000000000E+00  0.48595097206E+03  0.48595097206E+03  0.00000000000E+00 0. -1.
          1   -1    0    0  501    0 -0.00000000000E+00 -0.00000000000E+00 -0.27301158625E+01  0.27301158625E+01  0.00000000000E+00 0. -1.
          2    1    1    2  501    0 -0.30256370329E+02 -0.48800726784E+01  0.37365199299E+03  0.37490675497E+03  0.00000000000E+00 0. -1.
          1    1    1    2  502    0  0.30256370329E+02  0.48800726784E+01  0.10956886321E+03  0.11377433296E+03  0.00000000000E+00 0. -1.
</event>
<event>
 4    1  0.3586324E+003  0.2101342E+02  0.7546771E-02  0.1519073E+00
          2   -1    0    0  502    0  0.00000000000E+00  0.00000000000E+00  0.15059502579E+02  0.15059502579E+02  0.00000000000E+00 0.  1.
          1   -1    0    0  501    0 -0.00000000000E+00 -0.00000000000E+00 -0.61707432703E+03  0.61707432703E+03  0.00000000000E+00 0. -1.
          2    1    1    2  501    0 -0.19552529494E+02  0.76982058638E+01  0.74589028224E+01  0.22297959872E+02  0.00000000000E+00 0.  1.
          1    1    1    2  502    0  0.19552529494E+02 -0.76982058638E+01 -0.60947372728E+03  0.60983586974E+03  0.00000000000E+00 0. -1.
</event>
<event>
 4    1  0.3586324E+003  0.2623934E+02  0.7546771E-02  0.1455402E+00
          2   -1    0    0  502    0  0.00000000000E+00  0.00000000000E+00  0.75537983348E+03  0.75537983348E+03  0.00000000000E+00 0. -1.
          1   -1    0    0  501    0 -0.00000000000E+00 -0.00000000000E+00 -0.32255351220E+03  0.32255351220E+03  0.00000000000E+00 0. -1.
          2    1    1    2  501    0  0.84804614682E+01 -0.24831126854E+02  0.75461779346E+03  0.75507384890E+03  0.00000000000E+00 0. -1.
          1    1    1    2  502    0 -0.84804614682E+01  0.24831126854E+02 -0.32179147218E+03  0.32285949678E+03  0.00000000000E+00 0. -1.
</event>
<event>
 4    1  0.3586324E+003  0.2536210E+02  0.7546771E-02  0.1464793E+00
          2   -1    0    0  502    0  0.00000000000E+00  0.00000000000E+00  0.33821744076E+02  0.33821744076E+02  0.00000000000E+00 0.  1.
          1   -1    0    0  501    0 -0.00000000000E+00 -0.00000000000E+00 -0.11946562214E+04  0.11946562214E+04  0.00000000000E+00 0. -1.
          2    1    1    2  501    0 -0.18298574406E+02 -0.17561271208E+02  0.28912917611E+02  0.38460276605E+02  0.00000000000E+00 0.  1.
          1    1    1    2  502    0  0.18298574406E+02  0.17561271208E+02 -0.11897473950E+04  0.11900176889E+04  0.00000000000E+00 0. -1.
</event>
<event>
 4    1  0.3586324E+003  0.2294733E+02  0.7546771E-02  0.1493161E+00
          2   -1    0    0  502    0  0.00000000000E+00  0.00000000000E+00  0.18094280320E+03  0.18094280320E+03  0.00000000000E+00 0. -1.
          1   -1    0    0  501    0 -0.00000000000E+00 -0.00000000000E+00 -0.13529760831E+02  0.13529760831E+02  0.00000000000E+00 0.  1.
          2    1    1    2  501    0 -0.22550063223E+02 -0.42514437594E+01  0.16985279961E+03  0.17139589744E+03  0.00000000000E+00 0. -1.
          1    1    1    2  502    0  0.22550063223E+02  0.42514437594E+01 -0.24397572408E+01  0.23076666588E+02  0.00000000000E+00 0.  1.
</event>
<event>
 4    1  0.3586324E+003  0.2048892E+02  0.7546771E-02  0.1526688E+00
          2   -1    0    0  502    0  0.00000000000E+00  0.00000000000E+00  0.10371722801E+02  0.10371722801E+02  0.00000000000E+00 0.  1.
          1   -1    0    0  501    0 -0.00000000000E+00 -0.00000000000E+00 -0.91376288027E+03  0.91376288027E+03  0.00000000000E+00 0.  1.
          2    1    1    2  501    0  0.10472912889E+02 -0.17610057544E+02  0.22200004646E-01  0.20488936622E+02  0.00000000000E+00 0.  1.
          1    1    1    2  502    0 -0.10472912889E+02  0.17610057544E+02 -0.90341335748E+03  0.90364566645E+03  0.00000000000E+00 0.  1.
</event>
<event>
 4    1  0.3586324E+003  0.2902143E+02  0.7546771E-02  0.1428295E+00
          2   -1    0    0  502    0  0.00000000000E+00  0.00000000000E+00  0.61818999717E+03  0.61818999717E+03  0.00000000000E+00 0.  1.
          1   -1    0    0  501    0 -0.00000000000E+00 -0.00000000000E+00 -0.45788906773E+02  0.45788906773E+02  0.00000000000E+00 0. -1.
          2    1    1    2  501    0 -0.29009326778E+02  0.83797633791E+00  0.61321357971E+03  0.61389994102E+03  0.00000000000E+00 0.  1.
          1    1    1    2  502    0  0.29009326778E+02 -0.83797633791E+00 -0.40812489308E+02  0.50078962928E+02  0.00000000000E+00 0. -1.
</event>
<event>
 4    1  0.3586324E+003  0.2872731E+02  0.7546771E-02  0.1430988E+00
          2   -1    0    0  502    0  0.00000000000E+00  0.00000000000E+00  0.10485906511E+04  0.10485906511E+04  0.00000000000E+00 0.  1.
          1   -1    0    0  501    0 -0.00000000000E+00 -0.00000000000E+00 -0.36601857773E+03  0.36601857773E+03  0.00000000000E+00 0. -1.
          2    1    1    2  501    0 -0.27686348009E+02 -0.76632014385E+01  0.10478298151E+04  0.10482235353E+04  0.00000000000E+00 0.  1.
          1    1    1    2  502    0  0.27686348009E+02  0.76632014385E+01 -0.36525774174E+03  0.36638569353E+03  0.00000000000E+00 0. -1.
</event>
<event>
 4    1  0.3586324E+003  0.2770702E+02  0.7546771E-02  0.1440632E+00
          2   -1    0    0  502    0  0.00000000000E+00  0.00000000000E+00  0.46951650907E+03  0.46951650907E+03  0.00000000000E+00 0.  1.
          1   -1    0    0  501    0 -0.00000000000E+00 -0.00000000000E+00 -0.24274258725E+01  0.24274258725E+01  0.00000000000E+00 0.  1.
          2    1    1    2  501    0 -0.26018601998E+02 -0.95242578974E+01  0.36836483941E+03  0.36940537902E+03  0.00000000000E+00 0.  1.
          1    1    1    2  502    0  0.26018601998E+02  0.95242578974E+01  0.98724243792E+02  0.10253855592E+03  0.00000000000E+00 0.  1.
</event>
<event>
 4    1  0.3586324E+003  0.7263930E+02  0.7546771E-02  0.1222051E+00
          2   -1    0    0  502    0  0.00000000000E+00  0.00000000000E+00  0.21033454812E+04  0.21033454812E+04  0.00000000000E+00 0.  1.
          1   -1    0    0  501    0 -0.00000000000E+00 -0.00000000000E+00 -0.11365534235E+02  0.11365534235E+02  0.00000000000E+00 0.  1.
          2    1    1    2  501    0 -0.93867712185E+01 -0.72030244990E+02  0.19793896316E+04  0.19807220353E+04  0.00000000000E+00 0.  1.
          1    1    1    2  502    0  0.93867712185E+01  0.72030244990E+02  0.11259031535E+03  0.13398898006E+03  0.00000000000E+00 0.  1.
</event>
<event>
 4    1  0.3586324E+003  0.2011045E+02  0.7546771E-02  0.1532354E+00
          2   -1    0    0  502    0  0.00000000000E+00  0.00000000000E+00  0.11863729920E+01  0.11863729920E+01  0.00000000000E+00 0.  1.
          1   -1    0    0  501    0 -0.00000000000E+00 -0.00000000000E+00 -0.65131035131E+03  0.65131035131E+03  0.00000000000E+00 0.  1.
          2    1    1    2  501    0  0.75374682894E+01 -0.18644482507E+02 -0.99832609810E+02  0.10183800930E+03  0.00000000000E+00 0.  1.
          1    1    1    2  502    0 -0.75374682894E+01  0.18644482507E+02 -0.55029136851E+03  0.55065871501E+03  0.00000000000E+00 0.  1.
</event>
<event>
 4    1  0.3586324E+003  0.2160459E+02  0.7546771E-02  0.1510805E+00
          2   -1    0    0  502    0  0.00000000000E+00  0.00000000000E+00  0.41702021670E+03  0.41702021670E+03  0.00000000000E+00 0.  1.
          1   -1    0    0  501    0 -0.00000000000E+00 -0.00000000000E+00 -0.28516065420E+01  0.28516065420E+01  0.00000000000E+00 0.  1.
          2    1    1    2  501    0 -0.43789186617E+01 -0.21156169445E+02  0.37071244835E+03  0.37134145715E+03  0.00000000000E+00 0.  1.
          1    1    1    2  502    0  0.43789186617E+01  0.21156169445E+02  0.43456161806E+02  0.48530366093E+02  0.00000000000E+00 0.  1.
</event>
<event>
 4    1  0.3586324E+003  0.2504225E+02  0.7546771E-02  0.1468331E+00
          2   -1    0    0  502    0  0.00000000000E+00  0.00000000000E+00  0.14367942091E+04  0.14367942091E+04  0.00000000000E+00 0.  1.
          1   -1    0    0  501    0 -0.00000000000E+00 -0.00000000000E+00 -0.12562863707E+03  0.12562863707E+03  0.00000000000E+00 0.  1.
          2    1    1    2  501    0 -0.87438448393E+01  0.23466133524E+02  0.14354359590E+04  0.14356543827E+04  0.00000000000E+00 0.  1.
          1    1    1    2  502    0  0.87438448393E+01 -0.23466133524E+02 -0.12427038697E+03  0.12676846344E+03  0.00000000000E+00 0.  1.
</event>
<event>
 4    1  0.3586324E+003  0.2273787E+02  0.7546771E-02  0.1495816E+00
          2   -1    0    0  502    0  0.00000000000E+00  0.00000000000E+00  0.41543453085E+02  0.41543453085E+02  0.00000000000E+00 0.  1.
          1   -1    0    0  501    0 -0.00000000000E+00 -0.00000000000E+00 -0.61726226245E+02  0.61726226245E+02  0.00000000000E+00 0.  1.
          2    1    1    2  501    0  0.19898624827E+02 -0.11002514815E+02  0.36045520340E+02  0.42617955592E+02  0.00000000000E+00 0.  1.
          1    1    1    2  502    0 -0.19898624827E+02  0.11002514815E+02 -0.56228293501E+02  0.60651723737E+02  0.00000000000E+00 0.  1.
</event>
<event>
 4    1  0.3586324E+003  0.2654589E+02  0.7546771E-02  0.1452224E+00
          2   -1    0    0  502    0  0.00000000000E+00  0.00000000000E+00  0.20411794218E+02  0.20411794218E+02  0.00000000000E+00 0. -1.
          1   -1    0    0  501    0 -0.00000000000E+00 -0.00000000000E+00 -0.53593860109E+02  0.53593860109E+02  0.00000000000E+00 0.  1.
          2    1    1    2  501    0 -0.22105540433E+02 -0.14697935108E+02  0.54818039124E+01  0.27105984365E+02  0.00000000000E+00 0. -1.
          1    1    1    2  502    0  0.22105540433E+02  0.14697935108E+02 -0.38663869804E+02  0.46899669962E+02  0.00000000000E+00 0.  1.
</event>
<event>
 4    1  0.3586324E+003  0.2464664E+02  0.7546771E-02  0.1472795E+00
          2   -1    0    0  502    0  0.00000000000E+00  0.00000000000E+00  0.88162839478E+02  0.88162839478E+02  0.00000000000E+00 0. -1.
          1   -1    0    0  501    0 -0.00000000000E+00 -0.00000000000E+00 -0.22877901753E+02  0.22877901753E+02  0.00000000000E+00 0.  1.
          2    1    1    2  501    0 -0.73728988260E+01 -0.23518023853E+02  0.79055257964E+02  0.82808157175E+02  0.00000000000E+00 0. -1.
          1    1    1    2  502    0  0.73728988260E+01  0.23518023853E+02 -0.13770320239E+02  0.28232584057E+02  0.00000000000E+00 0.  1.
</event>
<event>
 4    1  0.3586324E+003  0.2925500E+02  0.7546771E-02  0.1426183E+00
          2   -1    0    0  502    0  0.00000000000E+00  0.00000000000E+00  0.45659888624E+03  0.45659888624E+03  0.00000000000E+00 0.  1.
          1   -1    0    0  501    0 -0.00000000000E+00 -0.00000000000E+00 -0.20212598474E+01  0.20212598474E+01  0.00000000000E+00 0.  1.
          2    1    1    2  501    0  0.16692700743E+02 -0.24025163674E+02  0.28909683256E+03  0.29057328395E+03  0.00000000000E+00 0.  1.
          1    1    1    2  502    0 -0.16692700743E+02  0.24025163674E+02  0.16548079383E+03  0.16804686214E+03  0.00000000000E+00 0.  1.
</event>
<event>
 4    1  0.3586324E+003  0.2096709E+02  0.7546771E-02  0.1519735E+00
          2   -1    0    0  502    0  0.00000000000E+00  0.00000000000E+00  0.17245728610E+03  0.17245728610E+03  0.00000000000E+00 0. -1.
          1   -1    0    0  501    0 -0.00000000000E+00 -0.00000000000E+00 -0.84345905282E+01  0.84345905282E+01  0.00000000000E+00 0. -1.
          2    1    1    2  501    0  0.20632359484E+02  0.37315886853E+01  0.15756346809E+03  0.15895240007E+03  0.00000000000E+00 0. -1.
          1    1    1    2  502    0 -0.20632359484E+02 -0.37315886853E+01  0.64592274837E+01  0.21939476558E+02  0.00000000000E+00 0. -1.
</event>
<event>
 4    1  0.3586324E+003  0.4251547E+02  0.7546771E-02  0.1334344E+00
          2   -1    0    0  502    0  0.00000000000E+00  0.00000000000E+00  0.64782617402E+03  0.64782617402E+03  0.00000000000E+00 0. -1.
          1   -1    0    0  501    0 -0.00000000000E+00 -0.00000000000E+00 -0.72228137711E+03  0.72228137711E+03  0.00000000000E+00 0. -1.
          2    1    1    2  501    0  0.28425749849E+02 -0.31615535657E+02  0.64650169891E+03  0.64789814944E+03  0.00000000000E+00 0. -1.
          1    1    1    2  502    0 -0.28425749849E+02  0.31615535657E+02 -0.72095690200E+03  0.72220940169E+03  0.00000000000E+00 0. -1.
</event>
<event>
 4    1  0.3586324E+003  0.2092554E+02  0.7546771E-02  0.1520331E+00
          2   -1    0    0  502    0  0.00000000000E+00  0.00000000000E+00  0.50958088711E+03  0.50958088711E+03  0.00000000000E+00 0. -1.
          1   -1    0    0  501    0 -0.00000000000E+00 -0.00000000000E+00 -0.89501529538E+03  0.89501529538E+03  0.00000000000E+00 0. -1.
          2    1    1    2  501    0  0.69266187922E+01 -0.19745891068E+02  0.50924367314E+03  0.50967342180E+03  0.00000000000E+00 0. -1.
          1    1    1    2  502    0 -0.69266187922E+01  0.19745891068E+02 -0.89467808141E+03  0.89492276070E+03  0.00000000000E+00 0. -1.
</event>
<event>
 4    1  0.3586324E+003  0.2093641E+02  0.7546771E-02  0.1520175E+00
          2   -1    0    0  502    0  0.00000000000E+00  0.00000000000E+00  0.28276543564E+02  0.28276543564E+02  0.00000000000E+00 0. -1.
          1   -1    0    0  501    0 -0.00000000000E+00 -0.00000000000E+00 -0.16815326344E+02  0.16815326344E+02  0.00000000000E+00 0. -1.
          2    1    1    2  501    0 -0.12507861538E+01  0.20899000071E+02 -0.57115626373E+00  0.20944185099E+02  0.00000000000E+00 0. -1.
          1    1    1    2  502    0  0.12507861538E+01 -0.20899000071E+02  0.12032373484E+02  0.24147684809E+02  0.00000000000E+00 0. -1.
</event>
<event>
 4    1  0.3586324E+003  0.2085908E+02  0.7546771E-02  0.1521286E+00
          2   -1    0    0  502    0  0.00000000000E+00  0.00000000000E+00  0.15515161036E+03  0.15515161036E+03  0.00000000000E+00 0.  1.
          1   -1    0    0  501    0 -0.00000000000E+00 -0.00000000000E+00 -0.10523065679E+04  0.10523065679E+04  0.00000000000E+00 0.  1.
          2    1    1    2  501    0  0.68714443200E+01 -0.19694786164E+02  0.15434661459E+03  0.15574973125E+03  0.00000000000E+00 0.  1.
          1    1    1    2  502    0 -0.68714443200E+01  0.19694786164E+02 -0.10515015721E+04  0.10517084470E+04  0.00000000000E+00 0.  1.
</event>
<event>
 4    1  0.3586324E+003  0.3314205E+02  0.7546771E-02  0.1394118E+00
          2   -1    0    0  502    0  0.00000000000E+00  0.00000000000E+00  0.70392257859E+01  0.70392257859E+01  0.00000000000E+00 0.  1.
          1   -1    0    0  501    0 -0.00000000000E+00 -0.00000000000E+00 -0.44658933660E+03  0.44658933660E+03  0.00000000000E+00 0.  1.
          2    1    1    2  501    0  0.27096319720E+02 -0.19083624049E+02 -0.36827439581E+02  0.49544480573E+02  0.00000000000E+00 0.  1.
          1    1    1    2  502    0 -0.27096319720E+02  0.19083624049E+02 -0.40272267124E+03  0.40408408182E+03  0.00000000000E+00 0.  1.
</event>
<event>
 4    1  0.3586324E+003  0.2616733E+02  0.7546771E-02  0.1456157E+00
          2   -1    0    0  502    0  0.00000000000E+00  0.00000000000E+00  0.16794351359E+01  0.16794351359E+01  0.00000000000E+00 0. -1.
          1   -1    0    0  501    0 -0.00000000000E+00 -0.00000000000E+00 -0.60098273600E+03  0.60098273600E+03  0.00000000000E+00 0.  1.
          2    1    1    2  501    0  0.60284786207E+01  0.25463436962E+02 -0.12877065382E+03  0.13140247510E+03  0.00000000000E+00 0. -1.
          1    1    1    2  502    0 -0.60284786207E+01 -0.25463436962E+02 -0.47053264704E+03  0.47125969604E+03  0.00000000000E+00 0.  1.
</event>
<event>
 4    1  0.3586324E+003  0.2295414E+02  0.7546771E-02  0.1493075E+00
          2   -1    0    0  502    0  0.00000000000E+00  0.00000000000E+00  0.10072656088E+04  0.10072656088E+04  0.00000000000E+00 0.  1.
          1   -1    0    0  501    0 -0.00000000000E+00 -0.00000000000E+00 -0.12496113760E+01  0.12496113760E+01  0.00000000000E+00 0. -1.
          2    1    1    2  501    0  0.22243121442E+02  0.56688668278E+01  0.88750114273E+03  0.88779793357E+03  0.00000000000E+00 0.  1.
          1    1    1    2  502    0 -0.22243121442E+02 -0.56688668278E+01  0.11851485470E+03  0.12071728662E+03  0.00000000000E+00 0. -1.
</event>
<event>
 4    1  0.3586324E+003  0.2302536E+02  0.7546771E-02  0.1492180E+00
          2   -1    0    0  502    0  0.00000000000E+00  0.00000000000E+00  0.89331344045E+02  0.89331344045E+02  0.00000000000E+00 0.  1.
          1   -1    0    0  501    0 -0.00000000000E+00 -0.00000000000E+00 -0.72102771347E+01  0.72102771347E+01  0.00000000000E+00 0.  1.
          2    1    1    2  501    0  0.13363439905E+02 -0.18750617779E+02  0.61362505211E+02  0.65540249000E+02  0.00000000000E+00 0.  1.
          1    1    1    2  502    0 -0.13363439905E+02  0.18750617779E+02  0.20758561699E+02  0.31001372179E+02  0.00000000000E+00 0.  1.
</event>
<event>
 4    1  0.3586324E+003  0.3507723E+02  0.7546771E-02  0.1380021E+00
          2   -1    0    0  502    0  0.00000000000E+00  0.00000000000E+00  0.19936235286E+04  0.19936235286E+04  0.00000000000E+00 0.  1.
          1   -1    0    0  501    0 -0.00000000000E+00 -0.00000000000E+00 -0.11402713487E+02  0.11402713487E+02  0.00000000000E+00 0. -1.
          2    1    1    2  501    0  0.34734100276E+02  0.48943014920E+01  0.19661155427E+04  0.19664284221E+04  0.00000000000E+00 0.  1.
          1    1    1    2  502    0 -0.34734100276E+02 -0.48943014920E+01  0.16105272393E+02  0.38597819989E+02  0.00000000000E+00 0. -1.
</event>
<event>
 4    1  0.3586324E+003  0.2108687E+02  0.7546771E-02  0.1518028E+00
          2   -1    0    0  502    0  0.00000000000E+00  0.00000000000E+00  0.21506546106E+02  0.21506546106E+02  0.00000000000E+00 0.  1.
          1   -1    0    0  501    0 -0.00000000000E+00 -0.00000000000E+00 -0.71715282834E+02  0.71715282834E+02  0.00000000000E+00 0.  1.
          2    1    1    2  501    0 -0.16554410484E+02 -0.13061680708E+02  0.14217730068E+02  0.25432260176E+02  0.00000000000E+00 0.  1.
          1    1    1    2  502    0  0.16554410484E+02  0.13061680708E+02 -0.64426466796E+02  0.67789568764E+02  0.00000000000E+00 0.  1.
</event>
<event>
 4    1  0.3586324E+003  0.2303383E+02  0.7546771E-02  0.1492074E+00
          2   -1    0    0  502    0  0.00000000000E+00  0.00000000000E+00  0.15588244307E+03  0.15588244307E+03  0.00000000000E+00 0. -1.
          1   -1    0    0  501    0 -0.00000000000E+00 -0.00000000000E+00 -0.22830299473E+03  0.22830299473E+03  0.00000000000E+00 0. -1.
          2    1    1    2  501    0  0.18997330622E+02  0.13025303438E+02  0.15444519418E+03  0.15615337046E+03  0.00000000000E+00 0. -1.
          1    1    1    2  502    0 -0.18997330622E+02 -0.13025303438E+02 -0.22686574584E+03  0.22803206734E+03  0.00000000000E+00 0. -1.
</event>
<event>
 4    1  0.3586324E+003  0.4236935E+02  0.7546771E-02  0.1335134E+00
          2   -1    0    0  502    0  0.00000000000E+00  0.00000000000E+00  0.50440361217E+03  0.50440361217E+03  0.00000000000E+00 0. -1.
          1   -1    0    0  501    0 -0.00000000000E+00 -0.00000000000E+00 -0.37767451702E+01  0.37767451702E+01  0.00000000000E+00 0.  1.
          2    1    1    2  501    0  0.49921515289E+01 -0.42074226121E+02  0.31132663506E+03  0.31419649231E+03  0.00000000000E+00 0. -1.
          1    1    1    2  502    0 -0.49921515289E+01  0.42074226121E+02  0.18930023194E+03  0.19398386504E+03  0.00000000000E+00 0.  1.
</event>
<event>
 4    1  0.3586324E+003  0.2524095E+02  0.7546771E-02  0.1466126E+00
          2   -1    0    0  502    0  0.00000000000E+00  0.00000000000E+00  0.44308894647E+03  0.44308894647E+03  0.00000000000E+00 0.  1.
          1   -1    0    0  501    0 -0.00000000000E+00 -0.00000000000E+00 -0.29728697635E+01  0.29728697635E+01  0.00000000000E+00 0.  1.
          2    1    1    2  501    0 -0.11223198135E+02  0.22608519291E+02  0.38032018010E+03  0.38115685054E+03  0.00000000000E+00 0.  1.
          1    1    1    2  502    0  0.11223198135E+02 -0.22608519291E+02  0.59795896605E+02  0.64904965694E+02  0.00000000000E+00 0.  1.
</event>
<event>
 4    1  0.3586324E+003  0.2027678E+02  0.7546771E-02  0.1529846E+00
          2   -1    0    0  502    0  0.00000000000E+00  0.00000000000E+00  0.12291033788E+04  0.12291033788E+04  0.00000000000E+00 0. -1.
          1   -1    0    0  501    0 -0.00000000000E+00 -0.00000000000E+00 -0.29012146476E+02  0.29012146476E+02  0.00000000000E+00 0. -1.
          2    1    1    2  501    0  0.31079952508E+01  0.20037167637E+02  0.12254663441E+04  0.12256340841E+04  0.00000000000E+00 0. -1.
          1    1    1    2  502    0 -0.31079952508E+01 -0.20037167637E+02 -0.25375111761E+02  0.32481441136E+02  0.00000000000E+00 0. -1.
</event>
<event>
 4    1  0.3586324E+003  0.2185954E+02  0.7546771E-02  0.1507338E+00
          2   -1    0    0  502    0  0.00000000000E+00  0.00000000000E+00  0.34965793490E+01  0.34965793490E+01  0.00000000000E+00 0.  1.
          1   -1    0    0  501    0 -0.00000000000E+00 -0.00000000000E+00 -0.31567439707E+03  0.31567439707E+03  0.00000000000E+00 0.  1.
          2    1    1    2  501    0 -0.84394884142E+01 -0.20164683419E+02 -0.35912623381E+02  0.42042311309E+02  0.00000000000E+00 0.  1.
          1    1    1    2  502    0  0.84394884142E+01  0.20164683419E+02 -0.27626519434E+03  0.27712866511E+03  0.00000000000E+00 0.  1.
</event>
<event>
 4    1  0.3586324E+003  0.2554287E+02  0.7546771E-02  0.1462821E+00
          2   -1    0    0  502    0  0.00000000000E+00  0.00000000000E+00  0.17919600079E+04  0.17919600079E+04  0.00000000000E+00 0. -1.
          1   -1    0    0  501    0 -0.00000000000E+00 -0.00000000000E+00 -0.39640928108E+00  0.39640928108E+00  0.00000000000E+00 0. -1.
          2    1    1    2  501    0  0.21968071139E+02  0.13032355312E+02  0.11516635938E+04  0.11519468181E+04  0.00000000000E+00 0. -1.
          1    1    1    2  502    0 -0.21968071139E+02 -0.13032355312E+02  0.63990000484E+03  0.64040959911E+03  0.00000000000E+00 0. -1.
</event>
<event>
 4    1  0.3586324E+003  0.2727541E+02  0.7546771E-02  0.1444861E+00
          2   -1    0    0  502    0  0.00000000000E+00  0.00000000000E+00  0.77795332161E+01  0.77795332161E+01  0.00000000000E+00 0.  1.
          1   -1    0    0  501    0 -0.00000000000E+00 -0.00000000000E+00 -0.11539136009E+03  0.11539136009E+03  0.00000000000E+00 0.  1.
          2    1    1    2  501    0  0.10063366452E+02 -0.25351063339E+02 -0.28319273474E+02  0.39318303713E+02  0.00000000000E+00 0.  1.
          1    1    1    2  502    0 -0.10063366452E+02  0.25351063339E+02 -0.79292553396E+02  0.83852589590E+02  0.00000000000E+00 0.  1.
</event>
<event>
 4    1  0.3586324E+003  0.2275925E+02  0.7546771E-02  0.1495544E+00
          2   -1    0    0  502    0  0.00000000000E+00  0.00000000000E+00  0.80783880635E+02  0.80783880635E+02  0.00000000000E+00 0. -1.
          1   -1    0    0  501    0 -0.00000000000E+00 -0.00000000000E+00 -0.23394903362E+02  0.23394903362E+02  0.00000000000E+00 0. -1.
          2    1    1    2  501    0 -0.14646718606E+02 -0.17420020509E+02  0.73075282541E+02  0.76537444424E+02  0.00000000000E+00 0. -1.
          1    1    1    2  502    0  0.14646718606E+02  0.17420020509E+02 -0.15686305268E+02  0.27641339573E+02  0.00000000000E+00 0. -1.
</event>
<event>
 4    1  0.3586324E+003  0.2454155E+02  0.7546771E-02  0.1473998E+00
          2   -1    0    0  502    0  0.00000000000E+00  0.00000000000E+00  0.85993170570E+03  0.85993170570E+03  0.00000000000E+00 0.  1.
          1   -1    0    0  501    0 -0.00000000000E+00 -0.00000000000E+00 -0.35967728333E+03  0.35967728333E+03  0.00000000000E+00 0. -1.
          2    1    1    2  501    0  0.72432807121E+01  0.23448300393E+02  0.85933768801E+03  0.85968805386E+03  0.00000000000E+00 0.  1.
          1    1    1    2  502    0 -0.72432807121E+01 -0.23448300393E+02 -0.35908326564E+03  0.35992093517E+03  0.00000000000E+00 0. -1.
</event>
<event>
 4    1  0.3586324E+003  0.2053646E+02  0.7546771E-02  0.1525987E+00
          2   -1    0    0  502    0  0.00000000000E+00  0.00000000000E+00  0.15291005412E+04  0.15291005412E+04  0.00000000000E+00 0. -1.
          1   -1    0    0  501    0 -0.00000000000E+00 -0.00000000000E+00 -0.94907144698E+00  0.94907144698E+00  0.00000000000E+00 0.  1.
          2    1    1    2  501    0 -0.14902423080E+01  0.20482321824E+02  0.14084183555E+04  0.14085680710E+04  0.00000000000E+00 0. -1.
          1    1    1    2  502    0  0.14902423080E+01 -0.20482321824E+02  0.11973311421E+03  0.12148154167E+03  0.00000000000E+00 0.  1.
</event>
<event>
 4    1  0.3586324E+003  0.9210015E+02  0.7546771E-02  0.1178249E+00
          2   -1    0    0  502    0  0.00000000000E+00  0.00000000000E+00  0.25542990331E+02  0.25542990331E+02  0.00000000000E+00 0. -1.
          1   -1    0    0  501    0 -0.00000000000E+00 -0.00000000000E+00 -0.70332670661E+03  0.70332670661E+03  0.00000000000E+00 0. -1.
          2    1    1    2  501    0 -0.33984623315E+02  0.85600715105E+02 -0.74121183046E+02  0.11822176967E+03  0.00000000000E+00 0. -1.
          1    1    1    2  502    0  0.33984623315E+02 -0.85600715105E+02 -0.60366253324E+03  0.61064792727E+03  0.00000000000E+00 0. -1.
</event>
<event>
 4    1  0.3586324E+003  0.4358529E+02  0.7546771E-02  0.1328667E+00
          2   -1    0    0  502    0  0.00000000000E+00  0.00000000000E+00  0.18398171323E+04  0.18398171323E+04  0.00000000000E+00 0.  1.
          1   -1    0    0  501    0 -0.00000000000E+00 -0.00000000000E+00 -0.15215834708E+01  0.15215834708E+01  0.00000000000E+00 0. -1.
          2    1    1    2  501    0 -0.39841031935E+02 -0.17673993350E+02  0.14411005358E+04  0.14417594918E+04  0.00000000000E+00 0.  1.
          1    1    1    2  502    0  0.39841031935E+02  0.17673993350E+02  0.39719501303E+03  0.39957922399E+03  0.00000000000E+00 0. -1.
</event>
<event>
 4    1  0.3586324E+003  0.5869605E+02  0.7546771E-02  0.1264329E+00
          2   -1    0    0  502    0  0.00000000000E+00  0.00000000000E+00  0.27949780110E+03  0.27949780110E+03  0.00000000000E+00 0.  1.
          1   -1    0    0  501    0 -0.00000000000E+00 -0.00000000000E+00 -0.41286784278E+03  0.41286784278E+03  0.00000000000E+00 0.  1.
          2    1    1    2  501    0 -0.56641039536E+02 -0.15395404958E+02  0.27429086537E+03  0.28050081048E+03  0.00000000000E+00 0.  1.
          1    1    1    2  502    0  0.56641039536E+02  0.15395404958E+02 -0.40766090705E+03  0.41186483340E+03  0.00000000000E+00 0.  1.
</event>
<event>
 4    1  0.3586324E+003  0.2784024E+02  0.7546771E-02  0.1439346E+00
          2   -1    0    0  502    0  0.00000000000E+00  0.00000000000E+00  0.27707099925E+02  0.27707099925E+02  0.00000000000E+00 0.  1.
          1   -1    0    0  501    0 -0.00000000000E+00 -0.00000000000E+00 -0.13288986782E+04  0.13288986782E+04  0.00000000000E+00 0.  1.
          2    1    1    2  501    0 -0.24076921910E+02 -0.13977874772E+02  0.20529808599E+02  0.34591215545E+02  0.00000000000E+00 0.  1.
          1    1    1    2  502    0  0.24076921910E+02  0.13977874772E+02 -0.13217213869E+04  0.13220145626E+04  0.00000000000E+00 0.  1.
</event>
<event>
 4    1  0.3586324E+003  0.5985644E+02  0.7546771E-02  0.1260321E+00
          2   -1    0    0  502    0  0.00000000000E+00  0.00000000000E+00  0.11132884334E+04  0.11132884334E+04  0.00000000000E+00 0.  1.
          1   -1    0    0  501    0 -0.00000000000E+00 -0.00000000000E+00 -0.11635620488E+02  0.11635620488E+02  0.00000000000E+00 0. -1.
          2    1    1    2  501    0  0.49463240720E+02 -0.33707291764E+02  0.10292226267E+04  0.10309616913E+04  0.00000000000E+00 0.  1.
          1    1    1    2  502    0 -0.49463240720E+02  0.33707291764E+02  0.72430186208E+02  0.93962362543E+02  0.00000000000E+00 0. -1.
</event>
<event>
 4    1  0.3586324E+003  0.2370324E+02  0.7546771E-02  0.1483851E+00
          2   -1    0    0  502    0  0.00000000000E+00  0.00000000000E+00  0.24677133533E+03  0.24677133533E+03  0.00000000000E+00 0. -1.
          1   -1    0    0  501    0 -0.00000000000E+00 -0.00000000000E+00 -0.34825462000E+01  0.34825462000E+01  0.00000000000E+00 0.  1.
          2    1    1    2  501    0 -0.23050703793E+02  0.55234499875E+01  0.19527093102E+03  0.19670429570E+03  0.00000000000E+00 0. -1.
          1    1    1    2  502    0  0.23050703793E+02 -0.55234499875E+01  0.48017858107E+02  0.53549585827E+02  0.00000000000E+00 0.  1.
</event>
<event>
 4    1  0.3586324E+003  0.2558520E+02  0.7546771E-02  0.1462362E+00
          2   -1    0    0  502    0  0.00000000000E+00  0.00000000000E+00  0.78143437307E+03  0.78143437307E+03  0.00000000000E+00 0. -1.
          1   -1    0    0  501    0 -0.00000000000E+00 -0.00000000000E+00 -0.16683882549E+02  0.16683882549E+02  0.00000000000E+00 0.  1.
          2    1    1    2  501    0 -0.84103289951E+01  0.24163381266E+02  0.77128702815E+03  0.77171126881E+03  0.00000000000E+00 0. -1.
          1    1    1    2  502    0  0.84103289951E+01 -0.24163381266E+02 -0.65365376238E+01  0.26406986805E+02  0.00000000000E+00 0.  1.
</event>
<event>
 4    1  0.3586324E+003  0.2266525E+02  0.7546771E-02  0.1496745E+00
          2   -1    0    0  502    0  0.00000000000E+00  0.00000000000E+00  0.64395244398E+01  0.64395244398E+01  0.00000000000E+00 0. -1.
          1   -1    0    0  501    0 -0.00000000000E+00 -0.00000000000E+00 -0.12376620587E+03  0.12376620587E+03  0.00000000000E+00 0.  1.
          2    1    1    2  501    0 -0.10587411159E+02 -0.20040465855E+02 -0.19849946314E+02  0.30128622859E+02  0.00000000000E+00 0. -1.
          1    1    1    2  502    0  0.10587411159E+02  0.20040465855E+02 -0.97476735113E+02  0.10007710745E+03  0.00000000000E+00 0.  1.
</event>
<event>
 4    1  0.3586324E+003  0.5915799E+02  0.7546771E-02  0.1262721E+00
          2   -1    0    0  502    0  0.00000000000E+00  0.00000000000E+00  0.79008263090E+03  0.79008263090E+03  0.00000000000E+00 0. -1.
          1   -1    0    0  501    0 -0.00000000000E+00 -0.00000000000E+00 -0.31432741647E+03  0.31432741647E+03  0.00000000000E+00 0. -1.
          2    1    1    2  501    0 -0.39172187184E+02  0.44330661406E+02  0.78617799478E+03  0.78840060075E+03  0.00000000000E+00 0. -1.
          1    1    1    2  502    0  0.39172187184E+02 -0.44330661406E+02 -0.31042278035E+03  0.31600944661E+03  0.00000000000E+00 0. -1.
</event>
<event>
 4    1  0.3586324E+003  0.2310403E+02  0.7546771E-02  0.1491196E+00
          2   -1    0    0  502    0  0.00000000000E+00  0.00000000000E+00  0.11772483899E+04  0.11772483899E+04  0.00000000000E+00 0. -1.
          1   -1    0    0  501    0 -0.00000000000E+00 -0.00000000000E+00 -0.10753311148E+01  0.10753311148E+01  0.00000000000E+00 0.  1.
          2    1    1    2  501    0  0.16066098574E+02 -0.16603519437E+02  0.10361351884E+04  0.10363927465E+04  0.00000000000E+00 0. -1.
          1    1    1    2  502    0 -0.16066098574E+02  0.16603519437E+02  0.14003787031E+03  0.14193097442E+03  0.00000000000E+00 0.  1.
</event>
<event>
 4    1  0.3586324E+003  0.2206623E+02  0.7546771E-02  0.1504569E+00
          2   -1    0    0  502    0  0.00000000000E+00  0.00000000000E+00  0.28635528440E+01  0.28635528440E+01  0.00000000000E+00 0. -1.
          1   -1    0    0  501    0 -0.00000000000E+00 -0.00000000000E+00 -0.17080889837E+03  0.17080889837E+03  0.00000000000E+00 0. -1.
          2    1    1    2  501    0  0.19506036818E+02 -0.10316618621E+02 -0.89799376129E+02  0.92470784820E+02  0.00000000000E+00 0. -1.
          1    1    1    2  502    0 -0.19506036818E+02  0.10316618621E+02 -0.78145969399E+02  0.81201666396E+02  0.00000000000E+00 0. -1.
</event>
<event>
 4    1  0.3586324E+003  0.2911406E+02  0.7546771E-02  0.1427455E+00
          2   -1    0    0  502    0  0.00000000000E+00  0.00000000000E+00  0.10817864446E+01  0.10817864446E+01  0.00000000000E+00 0. -1.
          1   -1    0    0  501    0 -0.00000000000E+00 -0.00000000000E+00 -0.22955897663E+04  0.22955897663E+04  0.00000000000E+00 0. -1.
          2    1    1    2  501    0 -0.27847686579E+02  0.84932174180E+01 -0.21527939029E+03  0.21723914075E+03  0.00000000000E+00 0. -1.
          1    1    1    2  502    0  0.27847686579E+02 -0.84932174180E+01 -0.20792285895E+04  0.20794324119E+04  0.00000000000E+00 0. -1.
</event>
<event>
 4    1  0.3586324E+003  0.3362958E+02  0.7546771E-02  0.1390462E+00
          2   -1    0    0  502    0  0.00000000000E+00  0.00000000000E+00  0.34137139897E+03  0.34137139897E+03  0.00000000000E+00 0.  1.
          1   -1    0    0  501    0 -0.00000000000E+00 -0.00000000000E+00 -0.49757899109E+01  0.49757899109E+01  0.00000000000E+00 0. -1.
          2    1    1    2  501    0 -0.20774302572E+01 -0.33565357344E+02  0.26830721334E+03  0.27040656364E+03  0.00000000000E+00 0.  1.
          1    1    1    2  502    0  0.20774302572E+01  0.33565357344E+02  0.68088395716E+02  0.75940625237E+02  0.00000000000E+00 0. -1.
</event>
<event>
 4    1  0.3586324E+003  0.2852048E+02  0.7546771E-02  0.1432905E+00
          2   -1    0    0  502    0  0.00000000000E+00  0.00000000000E+00  0.37893179626E+02  0.37893179626E+02  0.00000000000E+00 0.  1.
          1   -1    0    0  501    0 -0.00000000000E+00 -0.00000000000E+00 -0.41017893286E+02  0.41017893286E+02  0.00000000000E+00 0.  1.
          2    1    1    2  501    0 -0.26005745864E+02 -0.11709792467E+02  0.25678125202E+02  0.38376870266E+02  0.00000000000E+00 0.  1.
          1    1    1    2  502    0  0.26005745864E+02  0.11709792467E+02 -0.28802838862E+02  0.40534202645E+02  0.00000000000E+00 0.  1.
</event>
<event>
 4    1  0.3586324E+003  0.2350361E+02  0.7546771E-02  0.1486269E+00
          2   -1    0    0  502    0  0.00000000000E+00  0.00000000000E+00  0.14371618165E+04  0.14371618165E+04  0.00000000000E+00 0. -1.
          1   -1    0    0  501    0 -0.00000000000E+00 -0.00000000000E+00 -0.66522357057E+00  0.66522357057E+00  0.00000000000E+00 0. -1.
          2    1    1    2  501    0  0.14154075713E+01 -0.23460954383E+02  0.11853626328E+04  0.11855956271E+04  0.00000000000E+00 0. -1.
          1    1    1    2  502    0 -0.14154075713E+01  0.23460954383E+02  0.25113396018E+03  0.25223141302E+03  0.00000000000E+00 0. -1.
</event>
<event>
 4    1  0.3586324E+003  0.2493882E+02  0.7546771E-02  0.1469489E+00
          2   -1    0    0  502    0  0.00000000000E+00  0.00000000000E+00  0.12109721769E+04  0.12109721769E+04  0.00000000000E+00 0. -1.
          1   -1    0    0  501    0 -0.00000000000E+00 -0.00000000000E+00 -0.11504712747E+03  0.11504712747E+03  0.00000000000E+00 0.  1.
          2    1    1    2  501    0 -0.24544887911E+02  0.44151279729E+01  0.12094906235E+04  0.12097477064E+04  0.00000000000E+00 0. -1.
          1    1    1    2  502    0  0.24544887911E+02 -0.44151279729E+01 -0.11356557406E+03  0.11627159794E+03  0.00000000000E+00 0.  1.
</event>
<event>
 4    1  0.3586324E+003  0.7210651E+02  0.7546771E-02  0.1223463E+00
          2   -1    0    0  502    0  0.00000000000E+00  0.00000000000E+00  0.36628774567E+03  0.36628774567E+03  0.00000000000E+00 0. -1.
          1   -1    0    0  501    0 -0.00000000000E+00 -0.00000000000E+00 -0.15099637369E+02  0.15099637369E+02  0.00000000000E+00 0.  1.
          2    1    1    2  501    0 -0.45805744372E+02 -0.55688259388E+02  0.22227717131E+03  0.23368031440E+03  0.00000000000E+00 0. -1.
          1    1    1    2  502    0  0.45805744372E+02  0.55688259388E+02  0.12891093700E+03  0.14770706865E+03  0.00000000000E+00 0.  1.
</event>
<event>
 4    1  0.3586324E+003  0.2143282E+02  0.7546771E-02  0.1513174E+00
          2   -1    0    0  502    0  0.00000000000E+00  0.00000000000E+00  0.12762298185E+02  0.12762298185E+02  0.00000000000E+00 0.  1.
          1   -1    0    0  501    0 -0.00000000000E+00 -0.00000000000E+00 -0.24431970533E+03  0.24431970533E+03  0.00000000000E+00 0. -1.
          2    1    1    2  501    0 -0.17046902193E+02  0.12991104245E+02  0.29167005007E+01  0.21630367674E+02  0.00000000000E+00 0.  1.
          1    1    1    2  502    0  0.17046902193E+02 -0.12991104245E+02 -0.23447410765E+03  0.23545163584E+03  0.00000000000E+00 0. -1.
</event>
<event>
 4    1  0.3586324E+003  0.2424246E+02  0.7546771E-02  0.1477459E+00
          2   -1    0    0  502    0  0.00000000000E+00  0.00000000000E+00  0.27065168893E+03  0.27065168893E+03  0.00000000000E+00 0. -1.
          1   -1    0    0  501    0 -0.00000000000E+00 -0.00000000000E+00 -0.21731148934E+01  0.21731148934E+01  0.00000000000E+00 0.  1.
          2    1    1    2  501    0 -0.19466628114E+02  0.14448092042E+02  0.13805521716E+03  0.14016754245E+03  0.00000000000E+00 0. -1.
          1    1    1    2  502    0  0.19466628114E+02 -0.14448092042E+02  0.13042335688E+03  0.13265726136E+03  0.00000000000E+00 0.  1.
</event>
<event>
 4    1  0.3586324E+003  0.5020048E+02  0.7546771E-02  0.1297306E+00
          2   -1    0    0  502    0  0.00000000000E+00  0.00000000000E+00  0.28549283325E+03  0.28549283325E+03  0.00000000000E+00 0. -1.
          1   -1    0    0  501    0 -0.00000000000E+00 -0.00000000000E+00 -0.44082038322E+02  0.44082038322E+02  0.00000000000E+00 0.  1.
          2    1    1    2  501    0 -0.19988174732E+02  0.46049551841E+02  0.26807330848E+03  0.27273317927E+03  0.00000000000E+00 0. -1.
          1    1    1    2  502    0  0.19988174732E+02 -0.46049551841E+02 -0.26662513559E+02  0.56841692297E+02  0.00000000000E+00 0.  1.
</event>
<event>
 4    1  0.3586324E+003  0.2043176E+02  0.7546771E-02  0.1527535E+00
          2   -1    0    0  502    0  0.00000000000E+00  0.00000000000E+00  0.91429554106E+03  0.91429554106E+03  0.00000000000E+00 0. -1.
          1   -1    0    0  501    0 -0.00000000000E+00 -0.00000000000E+00 -0.16729693816E+01  0.16729693816E+01  0.00000000000E+00 0.  1.
          2    1    1    2  501    0 -0.17454538556E+02  0.10620542736E+02  0.84682954216E+03  0.84707598851E+03  0.00000000000E+00 0. -1.
          1    1    1    2  502    0  0.17454538556E+02 -0.10620542736E+02  0.65793029525E+02  0.68892521933E+02  0.00000000000E+00 0.  1.
</event>
<event>
 4    1  0.3586324E+003  0.2174898E+02  0.7546771E-02  0.1508834E+00
          2   -1    0    0  502    0  0.00000000000E+00  0.00000000000E+00  0.40488264289E+03  0.40488264289E+03  0.00000000000E+00 0. -1.
          1   -1    0    0  501    0 -0.00000000000E+00 -0.00000000000E+00 -0.14235138778E+01  0.14235138778E+01  0.00000000000E+00 0.  1.
          2    1    1    2  501    0 -0.99440299634E+01 -0.19342558860E+02  0.28775115481E+03  0.28857190683E+03  0.00000000000E+00 0. -1.
          1    1    1    2  502    0  0.99440299634E+01  0.19342558860E+02  0.11570797420E+03  0.11773424994E+03  0.00000000000E+00 0.  1.
</event>
<event>
 4    1  0.3586324E+003  0.2139809E+02  0.7546771E-02  0.1513656E+00
          2   -1    0    0  502    0  0.00000000000E+00  0.00000000000E+00  0.12906226788E+03  0.12906226788E+03  0.00000000000E+00 0. -1.
          1   -1    0    0  501    0 -0.00000000000E+00 -0.00000000000E+00 -0.68412633136E+01  0.68412633136E+01  0.00000000000E+00 0. -1.
          2    1    1    2  501    0 -0.20854733101E+02  0.47915065746E+01  0.10825852073E+03  0.11035300512E+03  0.00000000000E+00 0. -1.
          1    1    1    2  502    0  0.20854733101E+02 -0.47915065746E+01  0.13962483842E+02  0.25550526081E+02  0.00000000000E+00 0. -1.
</event>
<event>
 4    1  0.3586324E+003  0.6546766E+02  0.7546771E-02  0.1242307E+00
          2   -1    0    0  502    0  0.00000000000E+00  0.00000000000E+00  0.23807913436E+03  0.23807913436E+03  0.00000000000E+00 0. -1.
          1   -1    0    0  501    0 -0.00000000000E+00 -0.00000000000E+00 -0.60070871462E+03  0.60070871462E+03  0.00000000000E+00 0.  1.
          2    1    1    2  501    0  0.51536179972E+02  0.40373717960E+02  0.23174697908E+03  0.24081668809E+03  0.00000000000E+00 0. -1.
          1    1    1    2  502    0 -0.51536179972E+02 -0.40373717960E+02 -0.59437655935E+03  0.59797116089E+03  0.00000000000E+00 0.  1.
</event>
<event>
 4    1  0.3586324E+003  0.2369915E+02  0.7546771E-02  0.1483901E+00
          2   -1    0    0  502    0  0.00000000000E+00  0.00000000000E+00  0.56810649408E+03  0.56810649408E+03  0.00000000000E+00 0.  1.
          1   -1    0    0  501    0 -0.00000000000E+00 -0.00000000000E+00 -0.33348554174E+01  0.33348554174E+01  0.00000000000E+00 0. -1.
          2    1    1    2  501    0 -0.13466422481E+02 -0.19501418081E+02  0.52204142232E+03  0.52257908154E+03  0.00000000000E+00 0.  1.
          1    1    1    2  502    0  0.13466422481E+02  0.19501418081E+02  0.42730216343E+02  0.48862267961E+02  0.00000000000E+00 0. -1.
</event>
<event>
 4    1  0.3586324E+003  0.2509454E+02  0.7546771E-02  0.1467749E+00
          2   -1    0    0  502    0  0.00000000000E+00  0.00000000000E+00  0.63049706974E+01  0.63049706974E+01  0.00000000000E+00 0. -1.
          1   -1    0    0  501    0 -0.00000000000E+00 -0.00000000000E+00 -0.28936981945E+03  0.28936981945E+03  0.00000000000E+00 0. -1.
          2    1    1    2  501    0 -0.20440366279E+02 -0.14557724800E+02 -0.21899297926E+02  0.33306383391E+02  0.00000000000E+00 0. -1.
          1    1    1    2  502    0  0.20440366279E+02  0.14557724800E+02 -0.26116555083E+03  0.26236840676E+03  0.00000000000E+00 0. -1.
</event>
<event>
 4    1  0.3586324E+003  0.3838505E+02  0.7546771E-02  0.1358218E+00
          2   -1    0    0  502    0  0.00000000000E+00  0.00000000000E+00  0.24733703865E+04  0.24733703865E+04  0.00000000000E+00 0. -1.
          1   -1    0    0  501    0 -0.00000000000E+00 -0.00000000000E+00 -0.48573381073E+01  0.48573381073E+01  0.00000000000E+00 0.  1.
          2    1    1    2  501    0 -0.29529916404E+02 -0.24523385090E+02  0.23949025900E+04  0.23952101845E+04  0.00000000000E+00 0. -1.
          1    1    1    2  502    0  0.29529916404E+02  0.24523385090E+02  0.73610458374E+02  0.83017540082E+02  0.00000000000E+00 0.  1.
</event>
<event>
 4    1  0.3586324E+003  0.2429590E+02  0.7546771E-02  0.1476836E+00
          2   -1    0    0  502    0  0.00000000000E+00  0.00000000000E+00  0.28610375217E+02  0.28610375217E+02  0.00000000000E+00 0. -1.
          1   -1    0    0  501    0 -0.00000000000E+00 -0.00000000000E+00 -0.26630863157E+02  0.26630863157E+02  0.00000000000E+00 0.  1.
          2    1    1    2  501    0 -0.18111326199E+02  0.16194776484E+02  0.14098864749E+02  0.28090370401E+02  0.00000000000E+00 0. -1.
          1    1    1    2  502    0  0.18111326199E+02 -0.16194776484E+02 -0.12119352689E+02  0.27150867972E+02  0.00000000000E+00 0.  1.
</event>
<event>
 4    1  0.3586324E+003  0.4252866E+02  0.7546771E-02  0.1334273E+00
          2   -1    0    0  502    0  0.00000000000E+00  0.00000000000E+00  0.97241487230E+02  0.97241487230E+02  0.00000000000E+00 0. -1.
          1   -1    0    0  501    0 -0.00000000000E+00 -0.00000000000E+00 -0.90682268895E+02  0.90682268895E+02  0.00000000000E+00 0. -1.
          2    1    1    2  501    0 -0.64581321640E+01  0.42035451816E+02  0.87052765406E+02  0.96885864011E+02  0.00000000000E+00 0. -1.
          1    1    1    2  502    0  0.64581321640E+01 -0.42035451816E+02 -0.80493547071E+02  0.91037892113E+02  0.00000000000E+00 0. -1.
</event>
<event>
 4    1  0.3586324E+003  0.2328075E+02  0.7546771E-02  0.1489002E+00
          2   -1    0    0  502    0  0.00000000000E+00  0.00000000000E+00  0.47019258371E+00  0.47019258371E+00  0.00000000000E+00 0. -1.
          1   -1    0    0  501    0 -0.00000000000E+00 -0.00000000000E+00 -0.11566679294E+04  0.11566679294E+04  0.00000000000E+00 0. -1.
          2    1    1    2  501    0 -0.15584501931E+02 -0.17294994765E+02 -0.54423508579E+03  0.54473279885E+03  0.00000000000E+00 0. -1.
          1    1    1    2  502    0  0.15584501931E+02  0.17294994765E+02 -0.61196265103E+03  0.61240532313E+03  0.00000000000E+00 0. -1.
</event>
<event>
 4    1  0.3586324E+003  0.2320539E+02  0.7546771E-02  0.1489935E+00
          2   -1    0    0  502    0  0.00000000000E+00  0.00000000000E+00  0.83524914265E+03  0.83524914265E+03  0.00000000000E+00 0. -1.
          1   -1    0    0  501    0 -0.00000000000E+00 -0.00000000000E+00 -0.75741336422E+00  0.75741336422E+00  0.00000000000E+00 0.  1.
          2    1    1    2  501    0 -0.23205375813E+02  0.28053352283E-01  0.57849191139E+03  0.57895715022E+03  0.00000000000E+00 0. -1.
          1    1    1    2  502    0  0.23205375813E+02 -0.28053352283E-01  0.25599981790E+03  0.25704940579E+03  0.00000000000E+00 0.  1.
</event>
<event>
 4    1  0.3586324E+003  0.2459473E+02  0.7546771E-02  0.1473388E+00
          2   -1    0    0  502    0  0.00000000000E+00  0.00000000000E+00  0.18771447530E+02  0.18771447530E+02  0.00000000000E+00 0.  1.
          1   -1    0    0  501    0 -0.00000000000E+00 -0.00000000000E+00 -0.14712712776E+04  0.14712712776E+04  0.00000000000E+00 0.  1.
          2    1    1    2  501    0  0.17664648033E+02 -0.17113183367E+02  0.10567361606E+02  0.26768824524E+02  0.00000000000E+00 0.  1.
          1    1    1    2  502    0 -0.17664648033E+02  0.17113183367E+02 -0.14630671917E+04  0.14632739006E+04  0.00000000000E+00 0.  1.
</event>
<event>
 4    1  0.3586324E+003  0.2557328E+02  0.7546771E-02  0.1462491E+00
          2   -1    0    0  502    0  0.00000000000E+00  0.00000000000E+00  0.10748165087E+02  0.10748165087E+02  0.00000000000E+00 0. -1.
          1   -1    0    0  501    0 -0.00000000000E+00 -0.00000000000E+00 -0.38882761535E+03  0.38882761535E+03  0.00000000000E+00 0. -1.
          2    1    1    2  501    0 -0.17520606841E+02  0.18628493915E+02 -0.55487245535E+01  0.26168316602E+02  0.00000000000E+00 0. -1.
          1    1    1    2  502    0  0.17520606841E+02 -0.18628493915E+02 -0.37253072571E+03  0.37340746384E+03  0.00000000000E+00 0. -1.
</event>
<event>
 4    1  0.3586324E+003  0.3641802E+02  0.7546771E-02  0.1370859E+00
          2   -1    0    0  502    0  0.00000000000E+00  0.00000000000E+00  0.27418943960E+01  0.27418943960E+01  0.00000000000E+00 0.  1.
          1   -1    0    0  501    0 -0.00000000000E+00 -0.00000000000E+00 -0.48494430206E+03  0.48494430206E+03  0.00000000000E+00 0.  1.
          2    1    1    2  501    0  0.35951444858E+02 -0.58107228079E+01 -0.25342289738E+03  0.25602624046E+03  0.00000000000E+00 0.  1.
          1    1    1    2  502    0 -0.35951444858E+02  0.58107228079E+01 -0.22877951029E+03  0.23165995600E+03  0.00000000000E+00 0.  1.
</event>
<event>
 4    1  0.3586324E+003  0.2319473E+02  0.7546771E-02  0.1490067E+00
          2   -1    0    0  502    0  0.00000000000E+00  0.00000000000E+00  0.15715097647E+04  0.15715097647E+04  0.00000000000E+00 0.  1.
          1   -1    0    0  501    0 -0.00000000000E+00 -0.00000000000E+00 -0.39913766338E+02  0.39913766338E+02  0.00000000000E+00 0.  1.
          2    1    1    2  501    0 -0.20339976516E+02  0.11148126699E+02  0.15680470022E+04  0.15682185423E+04  0.00000000000E+00 0.  1.
          1    1    1    2  502    0  0.20339976516E+02 -0.11148126699E+02 -0.36451003811E+02  0.43204988744E+02  0.00000000000E+00 0.  1.
</event>
<event>
 4    1  0.3586324E+003  0.3932300E+02  0.7546771E-02  0.1352499E+00
          2   -1    0    0  502    0  0.00000000000E+00  0.00000000000E+00  0.48159410163E+03  0.48159410163E+03  0.00000000000E+00 0.  1.
          1   -1    0    0  501    0 -0.00000000000E+00 -0.00000000000E+00 -0.14799486113E+03  0.14799486113E+03  0.00000000000E+00 0.  1.
          2    1    1    2  501    0  0.89942675907E+01 -0.38280561950E+02  0.47816059788E+03  0.47977479680E+03  0.00000000000E+00 0.  1.
          1    1    1    2  502    0 -0.89942675907E+01  0.38280561950E+02 -0.14456135739E+03  0.14981416596E+03  0.00000000000E+00 0.  1.
</event>
<event>
 4    1  0.3586324E+003  0.3434800E+02  0.7546771E-02  0.1385206E+00
          2   -1    0    0  502    0  0.00000000000E+00  0.00000000000E+00  0.65161409562E+03  0.65161409562E+03  0.00000000000E+00 0. -1.
          1   -1    0    0  501    0 -0.00000000000E+00 -0.00000000000E+00 -0.93362501047E+02  0.93362501047E+02  0.00000000000E+00 0.  1.
          2    1    1    2  501    0  0.25019999704E+02  0.23532628450E+02  0.64798462254E+03  0.64889433349E+03  0.00000000000E+00 0. -1.
          1    1    1    2  502    0 -0.25019999704E+02 -0.23532628450E+02 -0.89733027973E+02  0.96082263171E+02  0.00000000000E+00 0.  1.
</event>
<event>
 4    1  0.3586324E+003  0.2325667E+02  0.7546771E-02  0.1489300E+00
          2   -1    0    0  502    0  0.00000000000E+00  0.00000000000E+00  0.24535726264E+01  0.24535726264E+01  0.00000000000E+00 0. -1.
          1   -1    0    0  501    0 -0.00000000000E+00 -0.00000000000E+00 -0.46942436287E+03  0.46942436287E+03  0.00000000000E+00 0.  1.
          2    1    1    2  501    0  0.17112503706E+02  0.15749120223E+02 -0.61654836137E+02  0.65895306282E+02  0.00000000000E+00 0. -1.
          1    1    1    2  502    0 -0.17112503706E+02 -0.15749120223E+02 -0.40531595411E+03  0.40598262922E+03  0.00000000000E+00 0.  1.
</event>
<event>
 4    1  0.3586324E+003  0.2433051E+02  0.7546771E-02  0.1476434E+00
          2   -1    0    0  502    0  0.00000000000E+00  0.00000000000E+00  0.19301137331E+02  0.19301137331E+02  0.00000000000E+00 0. -1.
          1   -1    0    0  501    0 -0.00000000000E+00 -0.00000000000E+00 -0.67464945242E+02  0.67464945242E+02  0.00000000000E+00 0. -1.
          2    1    1    2  501    0  0.20036126766E+02 -0.13803166632E+02  0.79566253543E+01  0.25598470108E+02  0.00000000000E+00 0. -1.
          1    1    1    2  502    0 -0.20036126766E+02  0.13803166632E+02 -0.56120433266E+02  0.61167612466E+02  0.00000000000E+00 0. -1.
</event>
<event>
 4    1  0.3586324E+003  0.2416038E+02  0.7546771E-02  0.1478420E+00
          2   -1    0    0  502    0  0.00000000000E+00  0.00000000000E+00  0.38846048308E+02  0.38846048308E+02  0.00000000000E+00 0. -1.
          1   -1    0    0  501    0 -0.00000000000E+00 -0.00000000000E+00 -0.22179023374E+02  0.22179023374E+02  0.00000000000E+00 0.  1.
          2    1    1    2  501    0  0.23070203511E+02  0.71756291493E+01  0.25660927073E+02  0.35244958816E+02  0.00000000000E+00 0. -1.
          1    1    1    2  502    0 -0.23070203511E+02 -0.71756291493E+01 -0.89939021388E+01  0.25780112866E+02  0.00000000000E+00 0.  1.
</event>
<event>
 4    1  0.3586324E+003  0.3878272E+02  0.7546771E-02  0.1355770E+00
          2   -1    0    0  502    0  0.00000000000E+00  0.00000000000E+00  0.27376908344E+01  0.27376908344E+01  0.00000000000E+00 0.  1.
          1   -1    0    0  501    0 -0.00000000000E+00 -0.00000000000E+00 -0.88388372255E+03  0.88388372255E+03  0.00000000000E+00 0. -1.
          2    1    1    2  501    0 -0.21827343966E+02 -0.32057235683E+02 -0.16786662848E+03  0.17228843334E+03  0.00000000000E+00 0.  1.
          1    1    1    2  502    0  0.21827343966E+02  0.32057235683E+02 -0.71327940323E+03  0.71433298005E+03  0.00000000000E+00 0. -1.
</event>
<event>
 4    1  0.3586324E+003  0.2603703E+02  0.7546771E-02  0.1457529E+00
          2   -1    0    0  502    0  0.00000000000E+00  0.00000000000E+00  0.42796055917E+01  0.42796055917E+01  0.00000000000E+00 0. -1.
          1   -1    0    0  501    0 -0.00000000000E+00 -0.00000000000E+00 -0.15894472732E+03  0.15894472732E+03  0.00000000000E+00 0.  1.
          2    1    1    2  501    0  0.16887141230E+01  0.25982206966E+02 -0.72593218112E+02  0.77121346916E+02  0.00000000000E+00 0. -1.
          1    1    1    2  502    0 -0.16887141230E+01 -0.25982206966E+02 -0.82071903615E+02  0.86102985995E+02  0.00000000000E+00 0.  1.
</event>
<event>
 4    1  0.3586324E+003  0.5320616E+02  0.7546771E-02  0.1284840E+00
          2   -1    0    0  502    0  0.00000000000E+00  0.00000000000E+00  0.14168460481E+02  0.14168460481E+02  0.00000000000E+00 0. -1.
          1   -1    0    0  501    0 -0.00000000000E+00 -0.00000000000E+00 -0.81334740487E+03  0.81334740487E+03  0.00000000000E+00 0.  1.
          2    1    1    2  501    0  0.53055457430E+02  0.40017961288E+01 -0.40228081836E+02  0.66702282596E+02  0.00000000000E+00 0. -1.
          1    1    1    2  502    0 -0.53055457430E+02 -0.40017961288E+01 -0.75895086255E+03  0.76081358276E+03  0.00000000000E+00 0.  1.
</event>
<event>
 4    1  0.3586324E+003  0.3092609E+02  0.7546771E-02  0.1411716E+00
          2   -1    0    0  502    0  0.00000000000E+00  0.00000000000E+00  0.99155236878E+01  0.99155236878E+01  0.00000000000E+00 0. -1.
          1   -1    0    0  501    0 -0.00000000000E+00 -0.00000000000E+00 -0.53208015205E+03  0.53208015205E+03  0.00000000000E+00 0.  1.
          2    1    1    2  501    0 -0.18534160136E+02 -0.24756977421E+02 -0.15875403983E+02  0.34762788648E+02  0.00000000000E+00 0. -1.
          1    1    1    2  502    0  0.18534160136E+02  0.24756977421E+02 -0.50628922438E+03  0.50723288709E+03  0.00000000000E+00 0.  1.
</event>
<event>
 4    1  0.3586324E+003  0.2003813E+02  0.7546771E-02  0.1533454E+00
          2   -1    0    0  502    0  0.00000000000E+00  0.00000000000E+00  0.50998821326E+00  0.50998821326E+00  0.00000000000E+00 0.  1.
          1   -1    0    0  501    0 -0.00000000000E+00 -0.00000000000E+00 -0.87016394671E+03  0.87016394671E+03  0.00000000000E+00 0. -1.
          2    1    1    2  501    0 -0.41832581135E+01 -0.19596610907E+02 -0.30050701903E+03  0.30117436029E+03  0.00000000000E+00 0.  1.
          1    1    1    2  502    0  0.41832581135E+01  0.19596610907E+02 -0.56914693946E+03  0.56949957463E+03  0.00000000000E+00 0. -1.
</event>
<event>
 4    1  0.3586324E+003  0.3301478E+02  0.7546771E-02  0.1395084E+00
          2   -1    0    0  502    0  0.00000000000E+00  0.00000000000E+00  0.44464323000E+03  0.44464323000E+03  0.00000000000E+00 0.  1.
          1   -1    0    0  501    0 -0.00000000000E+00 -0.00000000000E+00 -0.70032912442E+03  0.70032912442E+03  0.00000000000E+00 0.  1.
          2    1    1    2  501    0 -0.22681322342E+02  0.23990279063E+02  0.44364042022E+03  0.44486716931E+03  0.00000000000E+00 0.  1.
          1    1    1    2  502    0  0.22681322342E+02 -0.23990279063E+02 -0.69932631464E+03  0.70010518511E+03  0.00000000000E+00 0.  1.
</event>
<event>
 4    1  0.3586324E+003  0.2599885E+02  0.7546771E-02  0.1457933E+00
          2   -1    0    0  502    0  0.00000000000E+00  0.00000000000E+00  0.12982318049E+03  0.12982318049E+03  0.00000000000E+00 0. -1.
          1   -1    0    0  501    0 -0.00000000000E+00 -0.00000000000E+00 -0.74801747157E+01  0.74801747157E+01  0.00000000000E+00 0. -1.
          2    1    1    2  501    0  0.36570901551E+01  0.25740354086E+02  0.99019932476E+02  0.10237620409E+03  0.00000000000E+00 0. -1.
          1    1    1    2  502    0 -0.36570901551E+01 -0.25740354086E+02  0.23323073302E+02  0.34927151117E+02  0.00000000000E+00 0. -1.
</event>
<event>
 4    1  0.3586324E+003  0.3155159E+02  0.7546771E-02  0.1406576E+00
          2   -1    0    0  502    0  0.00000000000E+00  0.00000000000E+00  0.14401155217E+02  0.14401155217E+02  0.00000000000E+00 0. -1.
          1   -1    0    0  501    0 -0.00000000000E+00 -0.00000000000E+00 -0.53169670875E+03  0.53169670875E+03  0.00000000000E+00 0.  1.
          2    1    1    2  501    0 -0.16284758381E+02 -0.27024242768E+02 -0.39663502947E+01  0.31799921185E+02  0.00000000000E+00 0. -1.
          1    1    1    2  502    0  0.16284758381E+02  0.27024242768E+02 -0.51332920323E+03  0.51429794278E+03  0.00000000000E+00 0.  1.
</event>
<event>
 4    1  0.3586324E+003  0.2821069E+02  0.7546771E-02  0.1435811E+00
          2   -1    0    0  502    0  0.00000000000E+00  0.00000000000E+00  0.41891120868E+01  0.41891120868E+01  0.00000000000E+00 0. -1.
          1   -1    0    0  501    0 -0.00000000000E+00 -0.00000000000E+00 -0.74356153881E+03  0.74356153881E+03  0.00000000000E+00 0. -1.
          2    1    1    2  501    0  0.25419486651E+02 -0.12234907581E+02 -0.47089794130E+02  0.54893460232E+02  0.00000000000E+00 0. -1.
          1    1    1    2  502    0 -0.25419486651E+02  0.12234907581E+02 -0.69228263260E+03  0.69285719067E+03  0.00000000000E+00 0. -1.
</event>
<event>
 4    1  0.3586324E+003  0.3224945E+02  0.7546771E-02  0.1401005E+00
          2   -1    0    0  502    0  0.00000000000E+00  0.00000000000E+00  0.28472946930E+04  0.28472946930E+04  0.00000000000E+00 0. -1.
          1   -1    0    0  501    0 -0.00000000000E+00 -0.00000000000E+00 -0.45621658566E+00  0.45621658566E+00  0.00000000000E+00 0. -1.
          2    1    1    2  501    0 -0.91774651196E+01  0.30916037305E+02  0.20591644671E+04  0.20594169878E+04  0.00000000000E+00 0. -1.
          1    1    1    2  502    0  0.91774651196E+01 -0.30916037305E+02  0.78767400934E+03  0.78833392177E+03  0.00000000000E+00 0. -1.
</event>
<event>
 4    1  0.3586324E+003  0.2304657E+02  0.7546771E-02  0.1491914E+00
          2   -1    0    0  502    0  0.00000000000E+00  0.00000000000E+00  0.36332111490E+03  0.36332111490E+03  0.00000000000E+00 0.  1.
          1   -1    0    0  501    0 -0.00000000000E+00 -0.00000000000E+00 -0.23528657341E+02  0.23528657341E+02  0.00000000000E+00 0. -1.
          2    1    1    2  501    0 -0.19240812105E+02  0.12686028892E+02  0.35721569021E+03  0.35795836840E+03  0.00000000000E+00 0.  1.
          1    1    1    2  502    0  0.19240812105E+02 -0.12686028892E+02 -0.17423232652E+02  0.28891403835E+02  0.00000000000E+00 0. -1.
</event>
<event>
 4    1  0.3586324E+003  0.2721499E+02  0.7546771E-02  0.1445460E+00
          2   -1    0    0  502    0  0.00000000000E+00  0.00000000000E+00  0.19053579883E+03  0.19053579883E+03  0.00000000000E+00 0.  1.
          1   -1    0    0  501    0 -0.00000000000E+00 -0.00000000000E+00 -0.28761416213E+02  0.28761416213E+02  0.00000000000E+00 0.  1.
          2    1    1    2  501    0 -0.24315799540E+02  0.12222827694E+02  0.18285720246E+03  0.18487133936E+03  0.00000000000E+00 0.  1.
          1    1    1    2  502    0  0.24315799540E+02 -0.12222827694E+02 -0.21082819845E+02  0.34425875685E+02  0.00000000000E+00 0.  1.
</event>
<event>
 4    1  0.3586324E+003  0.2501445E+02  0.7546771E-02  0.1468642E+00
          2   -1    0    0  502    0  0.00000000000E+00  0.00000000000E+00  0.16907033903E+03  0.16907033903E+03  0.00000000000E+00 0.  1.
          1   -1    0    0  501    0 -0.00000000000E+00 -0.00000000000E+00 -0.11018571898E+03  0.11018571898E+03  0.00000000000E+00 0. -1.
          2    1    1    2  501    0 -0.24885818726E+02 -0.25335147392E+01  0.16670537036E+03  0.16857165591E+03  0.00000000000E+00 0.  1.
          1    1    1    2  502    0  0.24885818726E+02  0.25335147392E+01 -0.10782075031E+03  0.11068440210E+03  0.00000000000E+00 0. -1.
</event>
<event>
 4    1  0.3586324E+003  0.3153750E+02  0.7546771E-02  0.1406690E+00
          2   -1    0    0  502    0  0.00000000000E+00  0.00000000000E+00  0.99610200717E+03  0.99610200717E+03  0.00000000000E+00 0. -1.
          1   -1    0    0  501    0 -0.00000000000E+00 -0.00000000000E+00 -0.30534072040E+02  0.30534072040E+02  0.00000000000E+00 0. -1.
          2    1    1    2  501    0 -0.29068219194E+02  0.12233245124E+02  0.98763914514E+03  0.98814254774E+03  0.00000000000E+00 0. -1.
          1    1    1    2  502    0  0.29068219194E+02 -0.12233245124E+02 -0.22071210009E+02  0.38493531465E+02  0.00000000000E+00 0. -1.
</event>
<event>
 4    1  0.3586324E+003  0.2153611E+02  0.7546771E-02  0.1511746E+00
          2   -1    0    0  502    0  0.00000000000E+00  0.00000000000E+00  0.39517508788E+02  0.39517508788E+02  0.00000000000E+00 0.  1.
          1   -1    0    0  501    0 -0.00000000000E+00 -0.00000000000E+00 -0.30283980334E+02  0.30283980334E+02  0.00000000000E+00 0. -1.
          2    1    1    2  501    0  0.14892066631E+02 -0.15557328797E+02  0.31929715755E+02  0.38513775146E+02  0.00000000000E+00 0.  1.
          1    1    1    2  502    0 -0.14892066631E+02  0.15557328797E+02 -0.22696187300E+02  0.31287713976E+02  0.00000000000E+00 0. -1.
</event>
<event>
 4    1  0.3586324E+003  0.2369347E+02  0.7546771E-02  0.1483969E+00
          2   -1    0    0  502    0  0.00000000000E+00  0.00000000000E+00  0.13197104451E+04  0.13197104451E+04  0.00000000000E+00 0.  1.
          1   -1    0    0  501    0 -0.00000000000E+00 -0.00000000000E+00 -0.35629533698E+01  0.35629533698E+01  0.00000000000E+00 0.  1.
          2    1    1    2  501    0  0.90557064891E+00  0.23676155361E+02  0.12789590197E+04  0.12791784686E+04  0.00000000000E+00 0.  1.
          1    1    1    2  502    0 -0.90557064891E+00 -0.23676155361E+02  0.37188472052E+02  0.44094929918E+02  0.00000000000E+00 0.  1.
</event>
<event>
 4    1  0.3586324E+003  0.2681833E+02  0.7546771E-02  0.1449442E+00
          2   -1    0    0  502    0  0.00000000000E+00  0.00000000000E+00  0.62287985830E+01  0.62287985830E+01  0.00000000000E+00 0.  1.
          1   -1    0    0  501    0 -0.00000000000E+00 -0.00000000000E+00 -0.18824237264E+03  0.18824237264E+03  0.00000000000E+00 0.  1.
          2    1    1    2  501    0  0.26661406251E+02  0.28969760848E+01 -0.30548251274E+02  0.40649953377E+02  0.00000000000E+00 0.  1.
          1    1    1    2  502    0 -0.26661406251E+02 -0.28969760848E+01 -0.15146532279E+03  0.15382121785E+03  0.00000000000E+00 0.  1.
</event>
<event>
 4    1  0.3586324E+003  0.2220583E+02  0.7546771E-02  0.1502719E+00
          2   -1    0    0  502    0  0.00000000000E+00  0.00000000000E+00  0.53281252262E+02  0.53281252262E+02  0.00000000000E+00 0. -1.
          1   -1    0    0  501    0 -0.00000000000E+00 -0.00000000000E+00 -0.17956913410E+03  0.17956913410E+03  0.00000000000E+00 0.  1.
          2    1    1    2  501    0  0.19844536371E+02  0.99645974441E+01  0.50241404385E+02  0.54929933011E+02  0.00000000000E+00 0. -1.
          1    1    1    2  502    0 -0.19844536371E+02 -0.99645974441E+01 -0.17652928622E+03  0.17792045335E+03  0.00000000000E+00 0.  1.
</event>
<event>
 4    1  0.3901310E+003  0.3048531E+02  0.7546771E-02  0.1415425E+00
          2   -1    0    0  502    0  0.00000000000E+00  0.00000000000E+00  0.18966154861E+04  0.18966154861E+04  0.00000000000E+00 0.  1.
          1   -1    0    0  501    0 -0.00000000000E+00 -0.00000000000E+00 -0.16210095584E+04  0.16210095584E+04  0.00000000000E+00 0.  1.
          2    1    1    2  501    0 -0.29075623671E+02 -0.91630887192E+01  0.18963496349E+04  0.18965946567E+04  0.00000000000E+00 0.  1.
          1    1    1    2  502    0  0.29075623671E+02  0.91630887192E+01 -0.16207437071E+04  0.16210303878E+04  0.00000000000E+00 0.  1.
</event>
<event>
 4    1  0.3586324E+003  0.4708893E+02  0.7546771E-02  0.1311312E+00
          2   -1    0    0  502    0  0.00000000000E+00  0.00000000000E+00  0.11240540341E+03  0.11240540341E+03  0.00000000000E+00 0. -1.
          1   -1    0    0  501    0 -0.00000000000E+00 -0.00000000000E+00 -0.15240532939E+04  0.15240532939E+04  0.00000000000E+00 0. -1.
          2    1    1    2  501    0  0.15615748073E+02  0.44424265660E+02  0.10709279903E+03  0.11698818133E+03  0.00000000000E+00 0. -1.
          1    1    1    2  502    0 -0.15615748073E+02 -0.44424265660E+02 -0.15187406895E+04  0.15194705159E+04  0.00000000000E+00 0. -1.
</event>
<event>
 4    1  0.3586324E+003  0.4015581E+02  0.7546771E-02  0.1347575E+00
          2   -1    0    0  502    0  0.00000000000E+00  0.00000000000E+00  0.59825643669E+02  0.59825643669E+02  0.00000000000E+00 0. -1.
          1   -1    0    0  501    0 -0.00000000000E+00 -0.00000000000E+00 -0.32311958369E+03  0.32311958369E+03  0.00000000000E+00 0.  1.
          2    1    1    2  501    0 -0.36842675770E+01  0.39986438119E+02  0.51665896725E+02  0.65435876592E+02  0.00000000000E+00 0. -1.
          1    1    1    2  502    0  0.36842675770E+01 -0.39986438119E+02 -0.31495983675E+03  0.31750935077E+03  0.00000000000E+00 0.  1.
</event>
<event>
 4    1  0.3586324E+003  0.2010678E+02  0.7546771E-02  0.1532410E+00
          2   -1    0    0  502    0  0.00000000000E+00  0.00000000000E+00  0.11328299707E+04  0.11328299707E+04  0.00000000000E+00 0. -1.
          1   -1    0    0  501    0 -0.00000000000E+00 -0.00000000000E+00 -0.94666692241E+01  0.94666692241E+01  0.00000000000E+00 0.  1.
          2    1    1    2  501    0  0.11991991129E+02  0.16139227809E+02  0.11219608577E+04  0.11221410110E+04  0.00000000000E+00 0. -1.
          1    1    1    2  502    0 -0.11991991129E+02 -0.16139227809E+02  0.14024437693E+01  0.20155628843E+02  0.00000000000E+00 0.  1.
</event>
<event>
 4    1  0.3586324E+003  0.2347048E+02  0.7546771E-02  0.1486673E+00
          2   -1    0    0  502    0  0.00000000000E+00  0.00000000000E+00  0.54524825097E+02  0.54524825097E+02  0.00000000000E+00 0.  1.
          1   -1    0    0  501    0 -0.00000000000E+00 -0.00000000000E+00 -0.72784299657E+02  0.72784299657E+02  0.00000000000E+00 0. -1.
          2    1    1    2  501    0 -0.13362543133E+02 -0.19295224418E+02  0.49942000464E+02  0.55182122600E+02  0.00000000000E+00 0.  1.
          1    1    1    2  502    0  0.13362543133E+02  0.19295224418E+02 -0.68201475023E+02  0.72127002154E+02  0.00000000000E+00 0. -1.
</event>
<event>
 4    1  0.3586324E+003  0.2058884E+02  0.7546771E-02  0.1525217E+00
          2   -1    0    0  502    0  0.00000000000E+00  0.00000000000E+00  0.28996452702E+01  0.28996452702E+01  0.00000000000E+00 0.  1.
          1   -1    0    0  501    0 -0.00000000000E+00 -0.00000000000E+00 -0.91863517866E+03  0.91863517866E+03  0.00000000000E+00 0. -1.
          2    1    1    2  501    0 -0.34480660758E+01  0.20298058166E+02 -0.35351009184E+02  0.40909585372E+02  0.00000000000E+00 0.  1.
          1    1    1    2  502    0  0.34480660758E+01 -0.20298058166E+02 -0.88038452421E+03  0.88062523856E+03  0.00000000000E+00 0. -1.
</event>
<event>
 4    1  0.3586324E+003  0.2089106E+02  0.7546771E-02  0.1520826E+00
          2   -1    0    0  502    0  0.00000000000E+00  0.00000000000E+00  0.13111743383E+04  0.13111743383E+04  0.00000000000E+00 0. -1.
          1   -1    0    0  501    0 -0.00000000000E+00 -0.00000000000E+00 -0.32944695850E+02  0.32944695850E+02  0.00000000000E+00 0. -1.
          2    1    1    2  501    0  0.19119580219E+02  0.84189168973E+01  0.13077706167E+04  0.13079374688E+04  0.00000000000E+00 0. -1.
          1    1    1    2  502    0 -0.19119580219E+02 -0.84189168973E+01 -0.29540974240E+02  0.36181565314E+02  0.00000000000E+00 0. -1.
</event>
<event>
 4    1  0.3586324E+003  0.4506487E+02  0.7546771E-02  0.1321115E+00
          2   -1    0    0  502    0  0.00000000000E+00  0.00000000000E+00  0.73760119504E+03  0.73760119504E+03  0.00000000000E+00 0.  1.
          1   -1    0    0  501    0 -0.00000000000E+00 -0.00000000000E+00 -0.13143613178E+03  0.13143613178E+03  0.00000000000E+00 0.  1.
          2    1    1    2  501    0 -0.26305157542E+02 -0.36590731436E+02  0.73302598686E+03  0.73440992664E+03  0.00000000000E+00 0.  1.
          1    1    1    2  502    0  0.26305157542E+02  0.36590731436E+02 -0.12686092360E+03  0.13462740017E+03  0.00000000000E+00 0.  1.
</event>
<event>
 4    1  0.3586324E+003  0.2440709E+02  0.7546771E-02  0.1475547E+00
          2   -1    0    0  502    0  0.00000000000E+00  0.00000000000E+00  0.50976257788E+02  0.50976257788E+02  0.00000000000E+00 0.  1.
          1   -1    0    0  501    0 -0.00000000000E+00 -0.00000000000E+00 -0.11686115068E+02  0.11686115068E+02  0.00000000000E+00 0.  1.
          2    1    1    2  501    0 -0.24371516303E+02  0.13172773776E+01  0.19762636128E+02  0.31404901103E+02  0.00000000000E+00 0.  1.
          1    1    1    2  502    0  0.24371516303E+02 -0.13172773776E+01  0.19527506592E+02  0.31257471752E+02  0.00000000000E+00 0.  1.
</event>
<event>
 4    1  0.3586324E+003  0.2046787E+02  0.7546771E-02  0.1527000E+00
          2   -1    0    0  502    0  0.00000000000E+00  0.00000000000E+00  0.10955896120E+03  0.10955896120E+03  0.00000000000E+00 0. -1.
          1   -1    0    0  501    0 -0.00000000000E+00 -0.00000000000E+00 -0.30468326186E+02  0.30468326186E+02  0.00000000000E+00 0. -1.
          2    1    1    2  501    0  0.19484433734E+02  0.62682037776E+01  0.10501831667E+03  0.10699430065E+03  0.00000000000E+00 0. -1.
          1    1    1    2  502    0 -0.19484433734E+02 -0.62682037776E+01 -0.25927681654E+02  0.33032986733E+02  0.00000000000E+00 0. -1.
</event>
<event>
 4    1  0.3586324E+003  0.2934312E+02  0.7546771E-02  0.1425392E+00
          2   -1    0    0  502    0  0.00000000000E+00  0.00000000000E+00  0.15840461498E+01  0.15840461498E+01  0.00000000000E+00 0. -1.
          1   -1    0    0  501    0 -0.00000000000E+00 -0.00000000000E+00 -0.78296892868E+03  0.78296892868E+03  0.00000000000E+00 0. -1.
          2    1    1    2  501    0 -0.29211670858E+02  0.27743449759E+01 -0.17377559112E+03  0.17623556614E+03  0.00000000000E+00 0. -1.
          1    1    1    2  502    0  0.29211670858E+02 -0.27743449759E+01 -0.60760929141E+03  0.60831740868E+03  0.00000000000E+00 0. -1.
</event>
<event>
 4    1  0.3586324E+003  0.2257715E+02  0.7546771E-02  0.1497877E+00
          2   -1    0    0  502    0  0.00000000000E+00  0.00000000000E+00  0.15887872482E+03  0.15887872482E+03  0.00000000000E+00 0. -1.
          1   -1    0    0  501    0 -0.00000000000E+00 -0.00000000000E+00 -0.56854853955E+01  0.56854853955E+01  0.00000000000E+00 0. -1.
          2    1    1    2  501    0  0.18216808562E+02  0.13337006204E+02  0.13090944571E+03  0.13284205217E+03  0.00000000000E+00 0. -1.
          1    1    1    2  502    0 -0.18216808562E+02 -0.13337006204E+02  0.22283793710E+02  0.31722158041E+02  0.00000000000E+00 0. -1.
</event>
<event>
 4    1  0.3586324E+003  0.2708525E+02  0.7546771E-02  0.1446754E+00
          2   -1    0    0  502    0  0.00000000000E+00  0.00000000000E+00  0.77477239213E+01  0.77477239213E+01  0.00000000000E+00 0.  1.
          1   -1    0    0  501    0 -0.00000000000E+00 -0.00000000000E+00 -0.95709330083E+02  0.95709330083E+02  0.00000000000E+00 0.  1.
          2    1    1    2  501    0 -0.14376708829E+02 -0.22954756369E+02 -0.38635190292E+02  0.47183562028E+02  0.00000000000E+00 0.  1.
          1    1    1    2  502    0  0.14376708829E+02  0.22954756369E+02 -0.49326415870E+02  0.56273491977E+02  0.00000000000E+00 0.  1.
</event>
<event>
 4    1  0.3586324E+003  0.2907531E+02  0.7546771E-02  0.1427806E+00
          2   -1    0    0  502    0  0.00000000000E+00  0.00000000000E+00  0.69629657702E+03  0.69629657702E+03  0.00000000000E+00 0. -1.
          1   -1    0    0  501    0 -0.00000000000E+00 -0.00000000000E+00 -0.13764635781E+01  0.13764635781E+01  0.00000000000E+00 0. -1.
          2    1    1    2  501    0 -0.18794721086E+02  0.22184036943E+02  0.22765225034E+03  0.22950145995E+03  0.00000000000E+00 0. -1.
          1    1    1    2  502    0  0.18794721086E+02 -0.22184036943E+02  0.46726786311E+03  0.46817158065E+03  0.00000000000E+00 0. -1.
</event>
<event>
 4    1  0.3586324E+003  0.2237235E+02  0.7546771E-02  0.1500534E+00
          2   -1    0    0  502    0  0.00000000000E+00  0.00000000000E+00  0.11106541376E+03  0.11106541376E+03  0.00000000000E+00 0. -1.
          1   -1    0    0  501    0 -0.00000000000E+00 -0.00000000000E+00 -0.24565445588E+02  0.24565445588E+02  0.00000000000E+00 0.  1.
          2    1    1    2  501    0 -0.22369447168E+02  0.36032919204E+00  0.10453011546E+03  0.10689746041E+03  0.00000000000E+00 0. -1.
          1    1    1    2  502    0  0.22369447168E+02 -0.36032919204E+00 -0.18030147284E+02  0.28733398943E+02  0.00000000000E+00 0.  1.
</event>
<event>
 4    1  0.3586324E+003  0.2171431E+02  0.7546771E-02  0.1509306E+00
          2   -1    0    0  502    0  0.00000000000E+00  0.00000000000E+00  0.15235439808E+04  0.15235439808E+04  0.00000000000E+00 0. -1.
          1   -1    0    0  501    0 -0.00000000000E+00 -0.00000000000E+00 -0.12944863935E+02  0.12944863935E+02  0.00000000000E+00 0. -1.
          2    1    1    2  501    0 -0.11920138597E+02  0.18149970323E+02  0.15143049115E+04  0.15144605892E+04  0.00000000000E+00 0. -1.
          1    1    1    2  502    0  0.11920138597E+02 -0.18149970323E+02 -0.37057946916E+01  0.22028255519E+02  0.00000000000E+00 0. -1.
</event>
<event>
 4    1  0.3586324E+003  0.2165427E+02  0.7546771E-02  0.1510125E+00
          2   -1    0    0  502    0  0.00000000000E+00  0.00000000000E+00  0.22747602657E+01  0.22747602657E+01  0.00000000000E+00 0.  1.
          1   -1    0    0  501    0 -0.00000000000E+00 -0.00000000000E+00 -0.12160174116E+04  0.12160174116E+04  0.00000000000E+00 0. -1.
          2    1    1    2  501    0  0.48555985003E+00 -0.21648824999E+02 -0.51751171236E+02  0.56098940422E+02  0.00000000000E+00 0.  1.
          1    1    1    2  502    0 -0.48555985003E+00  0.21648824999E+02 -0.11619914801E+04  0.11621932314E+04  0.00000000000E+00 0. -1.
</event>
<event>
 4    1  0.3586324E+003  0.2474863E+02  0.7546771E-02  0.1471635E+00
          2   -1    0    0  502    0  0.00000000000E+00  0.00000000000E+00  0.99556995763E+01  0.99556995763E+01  0.00000000000E+00 0. -1.
          1   -1    0    0  501    0 -0.00000000000E+00 -0.00000000000E+00 -0.62274764695E+02  0.62274764695E+02  0.00000000000E+00 0. -1.
          2    1    1    2  501    0 -0.20924101967E+02 -0.13216503221E+02 -0.30130349679E+02  0.38991434601E+02  0.00000000000E+00 0. -1.
          1    1    1    2  502    0  0.20924101967E+02  0.13216503221E+02 -0.22188715440E+02  0.33239029670E+02  0.00000000000E+00 0. -1.
</event>
<event>
 4    1  0.3586324E+003  0.3122346E+02  0.7546771E-02  0.1409254E+00
          2   -1    0    0  502    0  0.00000000000E+00  0.00000000000E+00  0.49976389277E+02  0.49976389277E+02  0.00000000000E+00 0.  1.
          1   -1    0    0  501    0 -0.00000000000E+00 -0.00000000000E+00 -0.29661284752E+03  0.29661284752E+03  0.00000000000E+00 0.  1.
          2    1    1    2  501    0 -0.12856664660E+02  0.28453658550E+02  0.44180958737E+02  0.54100477133E+02  0.00000000000E+00 0.  1.
          1    1    1    2  502    0  0.12856664660E+02 -0.28453658550E+02 -0.29081741698E+03  0.29248875966E+03  0.00000000000E+00 0.  1.
</event>
<event>
 4    1  0.3586324E+003  0.2906387E+02  0.7546771E-02  0.1427909E+00
          2   -1    0    0  502    0  0.00000000000E+00  0.00000000000E+00  0.13354176558E+03  0.13354176558E+03  0.00000000000E+00 0.  1.
          1   -1    0    0  501    0 -0.00000000000E+00 -0.00000000000E+00 -0.10318528102E+02  0.10318528102E+02  0.00000000000E+00 0.  1.
          2    1    1    2  501    0 -0.13052570259E+02  0.25968036203E+02  0.10635793665E+03  0.11025751305E+03  0.00000000000E+00 0.  1.
          1    1    1    2  502    0  0.13052570259E+02 -0.25968036203E+02  0.16865300831E+02  0.33602780640E+02  0.00000000000E+00 0.  1.
</event>
<event>
 4    1  0.3586324E+003  0.2919948E+02  0.7546771E-02  0.1426683E+00
          2   -1    0    0  502    0  0.00000000000E+00  0.00000000000E+00  0.83051903558E+01  0.83051903558E+01  0.00000000000E+00 0. -1.
          1   -1    0    0  501    0 -0.00000000000E+00 -0.00000000000E+00 -0.26092261745E+03  0.26092261745E+03  0.00000000000E+00 0. -1.
          2    1    1    2  501    0  0.13628416132E+02  0.25823944733E+02 -0.21469587410E+02  0.36242972165E+02  0.00000000000E+00 0. -1.
          1    1    1    2  502    0 -0.13628416132E+02 -0.25823944733E+02 -0.23114783968E+03  0.23298483564E+03  0.00000000000E+00 0. -1.
</event>
<event>
 4    1  0.3586324E+003  0.2626258E+02  0.7546771E-02  0.1455160E+00
          2   -1    0    0  502    0  0.00000000000E+00  0.00000000000E+00  0.12426343620E+04  0.12426343620E+04  0.00000000000E+00 0.  1.
          1   -1    0    0  501    0 -0.00000000000E+00 -0.00000000000E+00 -0.13256692471E+01  0.13256692471E+01  0.00000000000E+00 0. -1.
          2    1    1    2  501    0  0.21296086930E+02  0.15368790369E+02  0.10948734340E+04  0.10951883671E+04  0.00000000000E+00 0.  1.
          1    1    1    2  502    0 -0.21296086930E+02 -0.15368790369E+02  0.14643525880E+03  0.14877166415E+03  0.00000000000E+00 0. -1.
</event>
<event>
 4    1  0.3586324E+003  0.3419481E+02  0.7546771E-02  0.1386314E+00
          2   -1    0    0  502    0  0.00000000000E+00  0.00000000000E+00  0.38805251137E+01  0.38805251137E+01  0.00000000000E+00 0. -1.
          1   -1    0    0  501    0 -0.00000000000E+00 -0.00000000000E+00 -0.60136169541E+03  0.60136169541E+03  0.00000000000E+00 0. -1.
          2    1    1    2  501    0 -0.22191721131E+02 -0.26015622390E+02 -0.84983183155E+02  0.91604729759E+02  0.00000000000E+00 0. -1.
          1    1    1    2  502    0  0.22191721131E+02  0.26015622390E+02 -0.51249798714E+03  0.51363749077E+03  0.00000000000E+00 0. -1.
</event>
<event>
 4    1  0.3586324E+003  0.2405768E+02  0.7546771E-02  0.1479627E+00
          2   -1    0    0  502    0  0.00000000000E+00  0.00000000000E+00  0.24934765484E+03  0.24934765484E+03  0.00000000000E+00 0.  1.
          1   -1    0    0  501    0 -0.00000000000E+00 -0.00000000000E+00 -0.23212287620E+01  0.23212287620E+01  0.00000000000E+00 0.  1.
          2    1    1    2  501    0  0.21744982797E+02 -0.10292099057E+02  0.12274863328E+03  0.12508396600E+03  0.00000000000E+00 0.  1.
          1    1    1    2  502    0 -0.21744982797E+02  0.10292099057E+02  0.12427779280E+03  0.12658491760E+03  0.00000000000E+00 0.  1.
</event>
<event>
 4    1  0.3586324E+003  0.3842532E+02  0.7546771E-02  0.1357969E+00
          2   -1    0    0  502    0  0.00000000000E+00  0.00000000000E+00  0.14512408833E+02  0.14512408833E+02  0.00000000000E+00 0. -1.
          1   -1    0    0  501    0 -0.00000000000E+00 -0.00000000000E+00 -0.10681863262E+03  0.10681863262E+03  0.00000000000E+00 0. -1.
          2    1    1    2  501    0 -0.18890514163E+02  0.33461228781E+02 -0.32926339992E+02  0.50602857846E+02  0.00000000000E+00 0. -1.
          1    1    1    2  502    0  0.18890514163E+02 -0.33461228781E+02 -0.59379883798E+02  0.70728183610E+02  0.00000000000E+00 0. -1.
</event>
<event>
 4    1  0.3586324E+003  0.3710323E+02  0.7546771E-02  0.1366351E+00
          2   -1    0    0  502    0  0.00000000000E+00  0.00000000000E+00  0.20421961050E+04  0.20421961050E+04  0.00000000000E+00 0.  1.
          1   -1    0    0  501    0 -0.00000000000E+00 -0.00000000000E+00 -0.72596078758E+01  0.72596078758E+01  0.00000000000E+00 0.  1.
          2    1    1    2  501    0  0.27907557262E+02 -0.24450309674E+02  0.19934608304E+04  0.19938060918E+04  0.00000000000E+00 0.  1.
          1    1    1    2  502    0 -0.27907557262E+02  0.24450309674E+02  0.41475666752E+02  0.55649621095E+02  0.00000000000E+00 0.  1.
</event>
<event>
 4    1  0.3586324E+003  0.2037941E+02  0.7546771E-02  0.1528313E+00
          2   -1    0    0  502    0  0.00000000000E+00  0.00000000000E+00  0.10532525026E+02  0.10532525026E+02  0.00000000000E+00 0. -1.
          1   -1    0    0  501    0 -0.00000000000E+00 -0.00000000000E+00 -0.64737211085E+03  0.64737211085E+03  0.00000000000E+00 0.  1.
          2    1    1    2  501    0  0.12191634897E+02 -0.16330473702E+02  0.35670561033E+00  0.20382531042E+02  0.00000000000E+00 0. -1.
          1    1    1    2  502    0 -0.12191634897E+02  0.16330473702E+02 -0.63719629143E+03  0.63752210483E+03  0.00000000000E+00 0.  1.
</event>
<event>
 4    1  0.3586324E+003  0.2337278E+02  0.7546771E-02  0.1487869E+00
          2   -1    0    0  502    0  0.00000000000E+00  0.00000000000E+00  0.11639969409E+04  0.11639969409E+04  0.00000000000E+00 0.  1.
          1   -1    0    0  501    0 -0.00000000000E+00 -0.00000000000E+00 -0.47645492663E+00  0.47645492663E+00  0.00000000000E+00 0.  1.
          2    1    1    2  501    0  0.13012506513E+02 -0.19415488458E+02  0.51050822236E+03  0.51104298412E+03  0.00000000000E+00 0.  1.
          1    1    1    2  502    0 -0.13012506513E+02  0.19415488458E+02  0.65301226357E+03  0.65343041166E+03  0.00000000000E+00 0.  1.
</event>
<event>
 4    1  0.3586324E+003  0.2068903E+02  0.7546771E-02  0.1523751E+00
          2   -1    0    0  502    0  0.00000000000E+00  0.00000000000E+00  0.21664105344E+03  0.21664105344E+03  0.00000000000E+00 0.  1.
          1   -1    0    0  501    0 -0.00000000000E+00 -0.00000000000E+00 -0.53296868832E+02  0.53296868832E+02  0.00000000000E+00 0. -1.
          2    1    1    2  501    0 -0.94410426343E+01 -0.18409312316E+02  0.21411568981E+03  0.21511291149E+03  0.00000000000E+00 0.  1.
          1    1    1    2  502    0  0.94410426343E+01  0.18409312316E+02 -0.50771505207E+02  0.54825010779E+02  0.00000000000E+00 0. -1.
</event>
<event>
 4    1  0.3586324E+003  0.4829177E+02  0.7546771E-02  0.1305754E+00
          2   -1    0    0  502    0  0.00000000000E+00  0.00000000000E+00  0.26173961336E+02  0.26173961336E+02  0.00000000000E+00 0.  1.
          1   -1    0    0  501    0 -0.00000000000E+00 -0.00000000000E+00 -0.81152709755E+03  0.81152709755E+03  0.00000000000E+00 0. -1.
          2    1    1    2  501    0  0.13529348445E+02 -0.46357869972E+02  0.25122267748E+01  0.48357074571E+02  0.00000000000E+00 0.  1.
          1    1    1    2  502    0 -0.13529348445E+02  0.46357869972E+02 -0.78786536299E+03  0.78934398431E+03  0.00000000000E+00 0. -1.
</event>
<event>
 4    1  0.3586324E+003  0.2731188E+02  0.7546771E-02  0.1444500E+00
          2   -1    0    0  502    0  0.00000000000E+00  0.00000000000E+00  0.15542626369E+04  0.15542626369E+04  0.00000000000E+00 0.  1.
          1   -1    0    0  501    0 -0.00000000000E+00 -0.00000000000E+00 -0.88853558212E+02  0.88853558212E+02  0.00000000000E+00 0.  1.
          2    1    1    2  501    0 -0.26741135851E+02 -0.55542936840E+01  0.15520408637E+04  0.15522811540E+04  0.00000000000E+00 0.  1.
          1    1    1    2  502    0  0.26741135851E+02  0.55542936840E+01 -0.86631784987E+02  0.90835041119E+02  0.00000000000E+00 0.  1.
</event>
<event>
 4    1  0.3586324E+003  0.5091321E+02  0.7546771E-02  0.1294261E+00
          2   -1    0    0  502    0  0.00000000000E+00  0.00000000000E+00  0.46149497784E+03  0.46149497784E+03  0.00000000000E+00 0.  1.
          1   -1    0    0  501    0 -0.00000000000E+00 -0.00000000000E+00 -0.91413696221E+01  0.91413696221E+01  0.00000000000E+00 0. -1.
          2    1    1    2  501    0  0.45962859975E+01  0.50705312764E+02  0.37229319290E+03  0.37575840119E+03  0.00000000000E+00 0.  1.
          1    1    1    2  502    0 -0.45962859975E+01 -0.50705312764E+02  0.80060415321E+02  0.94877946272E+02  0.00000000000E+00 0. -1.
</event>
<event>
 4    1  0.3586324E+003  0.2273226E+02  0.7546771E-02  0.1495888E+00
          2   -1    0    0  502    0  0.00000000000E+00  0.00000000000E+00  0.56412731290E+02  0.56412731290E+02  0.00000000000E+00 0. -1.
          1   -1    0    0  501    0 -0.00000000000E+00 -0.00000000000E+00 -0.29955615154E+03  0.29955615154E+03  0.00000000000E+00 0. -1.
          2    1    1    2  501    0 -0.32819991514E+00 -0.22729888797E+02  0.53670268852E+02  0.58285961590E+02  0.00000000000E+00 0. -1.
          1    1    1    2  502    0  0.32819991514E+00  0.22729888797E+02 -0.29681368910E+03  0.29768292124E+03  0.00000000000E+00 0. -1.
</event>
<event>
 4    1  0.3586324E+003  0.2266899E+02  0.7546771E-02  0.1496697E+00
          2   -1    0    0  502    0  0.00000000000E+00  0.00000000000E+00  0.13648890954E+03  0.13648890954E+03  0.00000000000E+00 0.  1.
          1   -1    0    0  501    0 -0.00000000000E+00 -0.00000000000E+00 -0.10555674837E+02  0.10555674837E+02  0.00000000000E+00 0. -1.
          2    1    1    2  501    0  0.22662303607E+02 -0.55037527027E+00  0.12193673513E+03  0.12402600652E+03  0.00000000000E+00 0.  1.
          1    1    1    2  502    0 -0.22662303607E+02  0.55037527027E+00  0.39964995657E+01  0.23018577856E+02  0.00000000000E+00 0. -1.
</event>
<event>
 4    1  0.3586324E+003  0.3459923E+02  0.7546771E-02  0.1383403E+00
          2   -1    0    0  502    0  0.00000000000E+00  0.00000000000E+00  0.11488667278E+04  0.11488667278E+04  0.00000000000E+00 0. -1.
          1   -1    0    0  501    0 -0.00000000000E+00 -0.00000000000E+00 -0.10071376146E+02  0.10071376146E+02  0.00000000000E+00 0.  1.
          2    1    1    2  501    0 -0.33931622475E+02 -0.67639845237E+01  0.11180724270E+04  0.11186076428E+04  0.00000000000E+00 0. -1.
          1    1    1    2  502    0  0.33931622475E+02  0.67639845237E+01  0.20722924642E+02  0.40330461145E+02  0.00000000000E+00 0.  1.
</event>
<event>
 4    1  0.3586324E+003  0.2608287E+02  0.7546771E-02  0.1457045E+00
          2   -1    0    0  502    0  0.00000000000E+00  0.00000000000E+00  0.13283023865E+02  0.13283023865E+02  0.00000000000E+00 0.  1.
          1   -1    0    0  501    0 -0.00000000000E+00 -0.00000000000E+00 -0.26451060203E+03  0.26451060203E+03  0.00000000000E+00 0. -1.
          2    1    1    2  501    0 -0.16004176279E+02  0.20595684007E+02 -0.88700853828E+00  0.26097943257E+02  0.00000000000E+00 0.  1.
          1    1    1    2  502    0  0.16004176279E+02 -0.20595684007E+02 -0.25034056963E+03  0.25169568264E+03  0.00000000000E+00 0. -1.
</event>
<event>
 4    1  0.3586324E+003  0.5842899E+02  0.7546771E-02  0.1265266E+00
          2   -1    0    0  502    0  0.00000000000E+00  0.00000000000E+00  0.26472239818E+03  0.26472239818E+03  0.00000000000E+00 0.  1.
          1   -1    0    0  501    0 -0.00000000000E+00 -0.00000000000E+00 -0.27522038753E+03  0.27522038753E+03  0.00000000000E+00 0. -1.
          2    1    1    2  501    0 -0.16639162931E+02  0.56009684781E+02  0.25832132876E+03  0.26484685277E+03  0.00000000000E+00 0.  1.
          1    1    1    2  502    0  0.16639162931E+02 -0.56009684781E+02 -0.26881931810E+03  0.27509593294E+03  0.00000000000E+00 0. -1.
</event>
<event>
 4    1  0.3586324E+003  0.2048470E+02  0.7546771E-02  0.1526751E+00
          2   -1    0    0  502    0  0.00000000000E+00  0.00000000000E+00  0.41234842556E+03  0.41234842556E+03  0.00000000000E+00 0. -1.
          1   -1    0    0  501    0 -0.00000000000E+00 -0.00000000000E+00 -0.12787755778E+03  0.12787755778E+03  0.00000000000E+00 0.  1.
          2    1    1    2  501    0  0.17985838955E+02 -0.98047176054E+01  0.41127150769E+03  0.41178134480E+03  0.00000000000E+00 0. -1.
          1    1    1    2  502    0 -0.17985838955E+02  0.98047176054E+01 -0.12680063990E+03  0.12844463854E+03  0.00000000000E+00 0.  1.
</event>
<event>
 4    1  0.3586324E+003  0.3069105E+02  0.7546771E-02  0.1413684E+00
          2   -1    0    0  502    0  0.00000000000E+00  0.00000000000E+00  0.58855876345E+03  0.58855876345E+03  0.00000000000E+00 0.  1.
          1   -1    0    0  501    0 -0.00000000000E+00 -0.00000000000E+00 -0.11693948220E+03  0.11693948220E+03  0.00000000000E+00 0.  1.
          2    1    1    2  501    0 -0.15511661642E+02  0.26482609690E+02  0.58613660851E+03  0.58693957449E+03  0.00000000000E+00 0.  1.
          1    1    1    2  502    0  0.15511661642E+02 -0.26482609690E+02 -0.11451732726E+03  0.11855867116E+03  0.00000000000E+00 0.  1.
</event>
<event>
 4    1  0.3586324E+003  0.2834881E+02  0.7546771E-02  0.1434510E+00
          2   -1    0    0  502    0  0.00000000000E+00  0.00000000000E+00  0.29422488764E+03  0.29422488764E+03  0.00000000000E+00 0.  1.
          1   -1    0    0  501    0 -0.00000000000E+00 -0.00000000000E+00 -0.48317703231E+01  0.48317703231E+01  0.00000000000E+00 0. -1.
          2    1    1    2  501    0 -0.21406732891E+02 -0.18585120898E+02  0.24328252262E+03  0.24492864419E+03  0.00000000000E+00 0.  1.
          1    1    1    2  502    0  0.21406732891E+02  0.18585120898E+02  0.46110594698E+02  0.54128013776E+02  0.00000000000E+00 0. -1.
</event>
<event>
 4    1  0.3586324E+003  0.3440316E+02  0.7546771E-02  0.1384808E+00
          2   -1    0    0  502    0  0.00000000000E+00  0.00000000000E+00  0.70934571330E+01  0.70934571330E+01  0.00000000000E+00 0. -1.
          1   -1    0    0  501    0 -0.00000000000E+00 -0.00000000000E+00 -0.41910972793E+03  0.41910972793E+03  0.00000000000E+00 0. -1.
          2    1    1    2  501    0  0.24958575278E+02  0.23677981470E+02 -0.40681562028E+02  0.53278201691E+02  0.00000000000E+00 0. -1.
          1    1    1    2  502    0 -0.24958575278E+02 -0.23677981470E+02 -0.37133470877E+03  0.37292498337E+03  0.00000000000E+00 0. -1.
</event>
<event>
 4    1  0.3586324E+003  0.2072983E+02  0.7546771E-02  0.1523157E+00
          2   -1    0    0  502    0  0.00000000000E+00  0.00000000000E+00  0.18232254711E+03  0.18232254711E+03  0.00000000000E+00 0. -1.
          1   -1    0    0  501    0 -0.00000000000E+00 -0.00000000000E+00 -0.80072307057E+01  0.80072307057E+01  0.00000000000E+00 0.  1.
          2    1    1    2  501    0 -0.14312209690E+02  0.14996214621E+02  0.16709881796E+03  0.16837975165E+03  0.00000000000E+00 0. -1.
          1    1    1    2  502    0  0.14312209690E+02 -0.14996214621E+02  0.72164984407E+01  0.21950026171E+02  0.00000000000E+00 0.  1.
</event>
<event>
 4    1  0.3586324E+003  0.2288919E+02  0.7546771E-02  0.1493894E+00
          2   -1    0    0  502    0  0.00000000000E+00  0.00000000000E+00  0.52836468006E+03  0.52836468006E+03  0.00000000000E+00 0.  1.
          1   -1    0    0  501    0 -0.00000000000E+00 -0.00000000000E+00 -0.69555113098E+02  0.69555113098E+02  0.00000000000E+00 0. -1.
          2    1    1    2  501    0  0.22497665299E+02 -0.42154808330E+01  0.52622604203E+03  0.52672361114E+03  0.00000000000E+00 0.  1.
          1    1    1    2  502    0 -0.22497665299E+02  0.42154808330E+01 -0.67416475071E+02  0.71196182015E+02  0.00000000000E+00 0. -1.
</event>
<event>
 4    1  0.3586324E+003  0.4042130E+02  0.7546771E-02  0.1346035E+00
          2   -1    0    0  502    0  0.00000000000E+00  0.00000000000E+00  0.45652975375E+02  0.45652975375E+02  0.00000000000E+00 0. -1.
          1   -1    0    0  501    0 -0.00000000000E+00 -0.00000000000E+00 -0.49202052384E+02  0.49202052384E+02  0.00000000000E+00 0. -1.
          2    1    1    2  501    0  0.30658992471E+02 -0.26342132747E+02  0.22988271290E+02  0.46500993472E+02  0.00000000000E+00 0. -1.
          1    1    1    2  502    0 -0.30658992471E+02  0.26342132747E+02 -0.26537348299E+02  0.48354034286E+02  0.00000000000E+00 0. -1.
</event>
<event>
 4    1  0.3586324E+003  0.2018983E+02  0.7546771E-02  0.1531153E+00
          2   -1    0    0  502    0  0.00000000000E+00  0.00000000000E+00  0.37831054714E+01  0.37831054714E+01  0.00000000000E+00 0.  1.
          1   -1    0    0  501    0 -0.00000000000E+00 -0.00000000000E+00 -0.17350252672E+03  0.17350252672E+03  0.00000000000E+00 0.  1.
          2    1    1    2  501    0 -0.58677364068E+01  0.19318352917E+02 -0.30290543667E+02  0.36402556580E+02  0.00000000000E+00 0.  1.
          1    1    1    2  502    0  0.58677364068E+01 -0.19318352917E+02 -0.13942887758E+03  0.14088307561E+03  0.00000000000E+00 0.  1.
</event>
<event>
 4    1  0.3586324E+003  0.2232388E+02  0.7546771E-02  0.1501167E+00
          2   -1    0    0  502    0  0.00000000000E+00  0.00000000000E+00  0.13779123900E+03  0.13779123900E+03  0.00000000000E+00 0.  1.
          1   -1    0    0  501    0 -0.00000000000E+00 -0.00000000000E+00 -0.21676178469E+02  0.21676178469E+02  0.00000000000E+00 0.  1.
          2    1    1    2  501    0  0.11577210760E+02  0.19087273955E+02  0.13083595682E+03  0.13272679998E+03  0.00000000000E+00 0.  1.
          1    1    1    2  502    0 -0.11577210760E+02 -0.19087273955E+02 -0.14720896291E+02  0.26740617487E+02  0.00000000000E+00 0.  1.
</event>
<event>
 4    1  0.3586324E+003  0.2087760E+02  0.7546771E-02  0.1521020E+00
          2   -1    0    0  502    0  0.00000000000E+00  0.00000000000E+00  0.14666825453E+04  0.14666825453E+04  0.00000000000E+00 0. -1.
          1   -1    0    0  501    0 -0.00000000000E+00 -0.00000000000E+00 -0.16252842031E+01  0.16252842031E+01  0.00000000000E+00 0.  1.
          2    1    1    2  501    0  0.20731733350E+02  0.24635870142E+01  0.13961768682E+04  0.13963329550E+04  0.00000000000E+00 0. -1.
          1    1    1    2  502    0 -0.20731733350E+02 -0.24635870142E+01  0.68880392908E+02  0.71974874476E+02  0.00000000000E+00 0.  1.
</event>
<event>
 4    1  0.3586324E+003  0.2811048E+02  0.7546771E-02  0.1436761E+00
          2   -1    0    0  502    0  0.00000000000E+00  0.00000000000E+00  0.73436330297E+01  0.73436330297E+01  0.00000000000E+00 0.  1.
          1   -1    0    0  501    0 -0.00000000000E+00 -0.00000000000E+00 -0.33895176329E+03  0.33895176329E+03  0.00000000000E+00 0.  1.
          2    1    1    2  501    0 -0.19669726647E+02 -0.20082347110E+02 -0.22756283855E+02  0.36166936098E+02  0.00000000000E+00 0.  1.
          1    1    1    2  502    0  0.19669726647E+02  0.20082347110E+02 -0.30885184641E+03  0.31012846023E+03  0.00000000000E+00 0.  1.
</event>
<event>
 4    1  0.3586324E+003  0.2168949E+02  0.7546771E-02  0.1509644E+00
          2   -1    0    0  502    0  0.00000000000E+00  0.00000000000E+00  0.34666057332E+03  0.34666057332E+03  0.00000000000E+00 0. -1.
          1   -1    0    0  501    0 -0.00000000000E+00 -0.00000000000E+00 -0.30461927713E+02  0.30461927713E+02  0.00000000000E+00 0. -1.
          2    1    1    2  501    0  0.14480202561E+02  0.16147995173E+02  0.34241262687E+03  0.34309887942E+03  0.00000000000E+00 0. -1.
          1    1    1    2  502    0 -0.14480202561E+02 -0.16147995173E+02 -0.26213981265E+02  0.34023621619E+02  0.00000000000E+00 0. -1.
</event>
<event>
 4    1  0.3586324E+003  0.2444436E+02  0.7546771E-02  0.1475116E+00
          2   -1    0    0  502    0  0.00000000000E+00  0.00000000000E+00  0.31128217892E+02  0.31128217892E+02  0.00000000000E+00 0. -1.
          1   -1    0    0  501    0 -0.00000000000E+00 -0.00000000000E+00 -0.47850412904E+02  0.47850412904E+02  0.00000000000E+00 0.  1.
          2    1    1    2  501    0 -0.24442697030E+02  0.28475478854E+00  0.22197620695E+02  0.33019098836E+02  0.00000000000E+00 0. -1.
          1    1    1    2  502    0  0.24442697030E+02 -0.28475478854E+00 -0.38919815707E+02  0.45959531961E+02  0.00000000000E+00 0.  1.
</event>
<event>
 4    1  0.3586324E+003  0.2078888E+02  0.7546771E-02  0.1522301E+00
          2   -1    0    0  502    0  0.00000000000E+00  0.00000000000E+00  0.50559214950E+03  0.50559214950E+03  0.00000000000E+00 0. -1.
          1   -1    0    0  501    0 -0.00000000000E+00 -0.00000000000E+00 -0.39387900865E+01  0.39387900865E+01  0.00000000000E+00 0.  1.
          2    1    1    2  501    0 -0.20286969057E+02 -0.45405412938E+01  0.47625889925E+03  0.47671240464E+03  0.00000000000E+00 0. -1.
          1    1    1    2  502    0  0.20286969057E+02  0.45405412938E+01  0.25394460171E+02  0.32818534948E+02  0.00000000000E+00 0.  1.
</event>
<event>
 4    1  0.3586324E+003  0.2396533E+02  0.7546771E-02  0.1480720E+00
          2   -1    0    0  502    0  0.00000000000E+00  0.00000000000E+00  0.46966549820E+03  0.46966549820E+03  0.00000000000E+00 0.  1.
          1   -1    0    0  501    0 -0.00000000000E+00 -0.00000000000E+00 -0.21281102384E+01  0.21281102384E+01  0.00000000000E+00 0. -1.
          2    1    1    2  501    0 -0.13996227242E+02  0.19453603012E+02  0.38762253830E+03  0.38836267746E+03  0.00000000000E+00 0.  1.
          1    1    1    2  502    0  0.13996227242E+02 -0.19453603012E+02  0.79914849655E+02  0.83430930970E+02  0.00000000000E+00 0. -1.
</event>
<event>
 4    1  0.3586324E+003  0.2345965E+02  0.7546771E-02  0.1486806E+00
          2   -1    0    0  502    0  0.00000000000E+00  0.00000000000E+00  0.64751576955E+02  0.64751576955E+02  0.00000000000E+00 0.  1.
          1   -1    0    0  501    0 -0.00000000000E+00 -0.00000000000E+00 -0.68771034071E+02  0.68771034071E+02  0.00000000000E+00 0. -1.
          2    1    1    2  501    0 -0.44405572725E+01  0.23035554926E+02  0.60490010550E+02  0.64879863717E+02  0.00000000000E+00 0.  1.
          1    1    1    2  502    0  0.44405572725E+01 -0.23035554926E+02 -0.64509467666E+02  0.68642747309E+02  0.00000000000E+00 0. -1.
</event>
<event>
 4    1  0.3586324E+003  0.2656863E+02  0.7546771E-02  0.1451990E+00
          2   -1    0    0  502    0  0.00000000000E+00  0.00000000000E+00  0.81474556510E+03  0.81474556510E+03  0.00000000000E+00 0.  1.
          1   -1    0    0  501    0 -0.00000000000E+00 -0.00000000000E+00 -0.22250063558E+01  0.22250063558E+01  0.00000000000E+00 0.  1.
          2    1    1    2  501    0 -0.21510812886E+02  0.15594127960E+02  0.72545693189E+03  0.72594328423E+03  0.00000000000E+00 0.  1.
          1    1    1    2  502    0  0.21510812886E+02 -0.15594127960E+02  0.87063626855E+02  0.91027287222E+02  0.00000000000E+00 0.  1.
</event>
<event>
 4    1  0.3586324E+003  0.3685170E+02  0.7546771E-02  0.1367993E+00
          2   -1    0    0  502    0  0.00000000000E+00  0.00000000000E+00  0.35624227145E+02  0.35624227145E+02  0.00000000000E+00 0. -1.
          1   -1    0    0  501    0 -0.00000000000E+00 -0.00000000000E+00 -0.46556787263E+02  0.46556787263E+02  0.00000000000E+00 0.  1.
          2    1    1    2  501    0  0.16271186487E+02 -0.33065033748E+02  0.12024157233E+02  0.38763750123E+02  0.00000000000E+00 0. -1.
          1    1    1    2  502    0 -0.16271186487E+02  0.33065033748E+02 -0.22956717351E+02  0.43417264285E+02  0.00000000000E+00 0.  1.
</event>
<event>
 4    1  0.3586324E+003  0.2291710E+02  0.7546771E-02  0.1493542E+00
          2   -1    0    0  502    0  0.00000000000E+00  0.00000000000E+00  0.31100537543E+03  0.31100537543E+03  0.00000000000E+00 0. -1.
          1   -1    0    0  501    0 -0.00000000000E+00 -0.00000000000E+00 -0.27832754968E+01  0.27832754968E+01  0.00000000000E+00 0. -1.
          2    1    1    2  501    0  0.22442628801E+02  0.46391749609E+01  0.25250146528E+03  0.25353931352E+03  0.00000000000E+00 0. -1.
          1    1    1    2  502    0 -0.22442628801E+02 -0.46391749609E+01  0.55720634659E+02  0.60249337413E+02  0.00000000000E+00 0. -1.
</event>
<event>
 4    1  0.3586324E+003  0.2167839E+02  0.7546771E-02  0.1509796E+00
          2   -1    0    0  502    0  0.00000000000E+00  0.00000000000E+00  0.94903118704E+01  0.94903118704E+01  0.00000000000E+00 0.  1.
          1   -1    0    0  501    0 -0.00000000000E+00 -0.00000000000E+00 -0.16838406269E+03  0.16838406269E+03  0.00000000000E+00 0.  1.
          2    1    1    2  501    0 -0.20757465243E+02  0.62514010192E+01 -0.47229466615E+01  0.22186901613E+02  0.00000000000E+00 0.  1.
          1    1    1    2  502    0  0.20757465243E+02 -0.62514010192E+01 -0.15417080416E+03  0.15568747295E+03  0.00000000000E+00 0.  1.
</event>
<event>
 4    1  0.3586324E+003  0.2628270E+02  0.7546771E-02  0.1454950E+00
          2   -1    0    0  502    0  0.00000000000E+00  0.00000000000E+00  0.11586229940E+04  0.11586229940E+04  0.00000000000E+00 0. -1.
          1   -1    0    0  501    0 -0.00000000000E+00 -0.00000000000E+00 -0.86915438838E+02  0.86915438838E+02  0.00000000000E+00 0.  1.
          2    1    1    2  501    0 -0.12899455505E+02 -0.22899442551E+02  0.11564833339E+04  0.11567819510E+04  0.00000000000E+00 0. -1.
          1    1    1    2  502    0  0.12899455505E+02  0.22899442551E+02 -0.84775778731E+02  0.88756481909E+02  0.00000000000E+00 0.  1.
</event>
<event>
 4    1  0.3586324E+003  0.4018239E+02  0.7546771E-02  0.1347420E+00
          2   -1    0    0  502    0  0.00000000000E+00  0.00000000000E+00  0.26568439485E+02  0.26568439485E+02  0.00000000000E+00 0. -1.
          1   -1    0    0  501    0 -0.00000000000E+00 -0.00000000000E+00 -0.17424122045E+03  0.17424122045E+03  0.00000000000E+00 0. -1.
          2    1    1    2  501    0  0.33513424387E+01 -0.40042385202E+02  0.71883579150E+01  0.40820296402E+02  0.00000000000E+00 0. -1.
          1    1    1    2  502    0 -0.33513424387E+01  0.40042385202E+02 -0.15486113888E+03  0.15998936353E+03  0.00000000000E+00 0. -1.
</event>
<event>
 4    1  0.3586324E+003  0.2092134E+02  0.7546771E-02  0.1520391E+00
          2   -1    0    0  502    0  0.00000000000E+00  0.00000000000E+00  0.13469513409E+04  0.13469513409E+04  0.00000000000E+00 0. -1.
          1   -1    0    0  501    0 -0.00000000000E+00 -0.00000000000E+00 -0.17145743956E+01  0.17145743956E+01  0.00000000000E+00 0. -1.
          2    1    1    2  501    0  0.10236122351E+02  0.18246215275E+02  0.12796952566E+04  0.12798662635E+04  0.00000000000E+00 0. -1.
          1    1    1    2  502    0 -0.10236122351E+02 -0.18246215275E+02  0.65541509927E+02  0.68799651861E+02  0.00000000000E+00 0. -1.
</event>
<event>
 4    1  0.3586324E+003  0.3210754E+02  0.7546771E-02  0.1402124E+00
          2   -1    0    0  502    0  0.00000000000E+00  0.00000000000E+00  0.86375144806E+03  0.86375144806E+03  0.00000000000E+00 0. -1.
          1   -1    0    0  501    0 -0.00000000000E+00 -0.00000000000E+00 -0.33198078185E+01  0.33198078185E+01  0.00000000000E+00 0. -1.
          2    1    1    2  501    0 -0.31012494698E+02 -0.83137981546E+01  0.77717676841E+03  0.77783971576E+03  0.00000000000E+00 0. -1.
          1    1    1    2  502    0  0.31012494698E+02  0.83137981546E+01  0.83254871836E+02  0.89231540117E+02  0.00000000000E+00 0. -1.
</event>
<event>
 4    1  0.3586324E+003  0.3207211E+02  0.7546771E-02  0.1402405E+00
          2   -1    0    0  502    0  0.00000000000E+00  0.00000000000E+00  0.13402776263E+04  0.13402776263E+04  0.00000000000E+00 0. -1.
          1   -1    0    0  501    0 -0.00000000000E+00 -0.00000000000E+00 -0.12797927811E+03  0.12797927811E+03  0.00000000000E+00 0. -1.
          2    1    1    2  501    0 -0.16945550980E+02 -0.27229914586E+02  0.13380731007E+04  0.13384574116E+04  0.00000000000E+00 0. -1.
          1    1    1    2  502    0  0.16945550980E+02  0.27229914586E+02 -0.12577475252E+03  0.12979949275E+03  0.00000000000E+00 0. -1.
</event>
<event>
 4    1  0.3586324E+003  0.2494953E+02  0.7546771E-02  0.1469369E+00
          2   -1    0    0  502    0  0.00000000000E+00  0.00000000000E+00  0.15241153062E+04  0.15241153062E+04  0.00000000000E+00 0.  1.
          1   -1    0    0  501    0 -0.00000000000E+00 -0.00000000000E+00 -0.95104486675E+01  0.95104486675E+01  0.00000000000E+00 0. -1.
          2    1    1    2  501    0  0.52874828357E+01 -0.24382811361E+02  0.15074695011E+04  0.15076759518E+04  0.00000000000E+00 0.  1.
          1    1    1    2  502    0 -0.52874828357E+01  0.24382811361E+02  0.71353563812E+01  0.25949802991E+02  0.00000000000E+00 0. -1.
</event>
<event>
 4    1  0.3586324E+003  0.4019605E+02  0.7546771E-02  0.1347341E+00
          2   -1    0    0  502    0  0.00000000000E+00  0.00000000000E+00  0.48759840164E+03  0.48759840164E+03  0.00000000000E+00 0. -1.
          1   -1    0    0  501    0 -0.00000000000E+00 -0.00000000000E+00 -0.46433490675E+02  0.46433490675E+02  0.00000000000E+00 0. -1.
          2    1    1    2  501    0 -0.35287330177E+02  0.19249067743E+02  0.47789454383E+03  0.47958202354E+03  0.00000000000E+00 0. -1.
          1    1    1    2  502    0  0.35287330177E+02 -0.19249067743E+02 -0.36729632861E+02  0.54449868779E+02  0.00000000000E+00 0. -1.
</event>
<event>
 4    1  0.3586324E+003  0.3463353E+02  0.7546771E-02  0.1383158E+00
          2   -1    0    0  502    0  0.00000000000E+00  0.00000000000E+00  0.13534650768E+04  0.13534650768E+04  0.00000000000E+00 0. -1.
          1   -1    0    0  501    0 -0.00000000000E+00 -0.00000000000E+00 -0.11562338620E+02  0.11562338620E+02  0.00000000000E+00 0. -1.
          2    1    1    2  501    0  0.62396261586E+01 -0.34066826982E+02  0.13267870242E+04  0.13272389721E+04  0.00000000000E+00 0. -1.
          1    1    1    2  502    0 -0.62396261586E+01  0.34066826982E+02  0.15115713989E+02  0.37788443268E+02  0.00000000000E+00 0. -1.
</event>
<event>
 4    1  0.3586324E+003  0.2402400E+02  0.7546771E-02  0.1480025E+00
          2   -1    0    0  502    0  0.00000000000E+00  0.00000000000E+00  0.15652847377E+04  0.15652847377E+04  0.00000000000E+00 0.  1.
          1   -1    0    0  501    0 -0.00000000000E+00 -0.00000000000E+00 -0.84690464174E+00  0.84690464174E+00  0.00000000000E+00 0.  1.
          2    1    1    2  501    0  0.18151078569E+02  0.15738198948E+02  0.13706269588E+04  0.13708374859E+04  0.00000000000E+00 0.  1.
          1    1    1    2  502    0 -0.18151078569E+02 -0.15738198948E+02  0.19381087420E+03  0.19529415638E+03  0.00000000000E+00 0.  1.
</event>
<event>
 4    1  0.3586324E+003  0.2843095E+02  0.7546771E-02  0.1433740E+00
          2   -1    0    0  502    0  0.00000000000E+00  0.00000000000E+00  0.56823056471E+03  0.56823056471E+03  0.00000000000E+00 0. -1.
          1   -1    0    0  501    0 -0.00000000000E+00 -0.00000000000E+00 -0.54488902275E+01  0.54488902275E+01  0.00000000000E+00 0.  1.
          2    1    1    2  501    0 -0.13696968580E+02 -0.24914089053E+02  0.52796194035E+03  0.52872689476E+03  0.00000000000E+00 0. -1.
          1    1    1    2  502    0  0.13696968580E+02  0.24914089053E+02  0.34819734129E+02  0.44952560177E+02  0.00000000000E+00 0.  1.
</event>
<event>
 4    1  0.3586324E+003  0.2304470E+02  0.7546771E-02  0.1491938E+00
          2   -1    0    0  502    0  0.00000000000E+00  0.00000000000E+00  0.62428470978E+03  0.62428470978E+03  0.00000000000E+00 0.  1.
          1   -1    0    0  501    0 -0.00000000000E+00 -0.00000000000E+00 -0.86451216088E+00  0.86451216088E+00  0.00000000000E+00 0.  1.
          2    1    1    2  501    0  0.17357303900E+02 -0.15158569385E+02  0.35126693864E+03  0.35202204535E+03  0.00000000000E+00 0.  1.
          1    1    1    2  502    0 -0.17357303900E+02  0.15158569385E+02  0.27215325897E+03  0.27312717660E+03  0.00000000000E+00 0.  1.
</event>
<event>
 4    1  0.3586324E+003  0.4878223E+02  0.7546771E-02  0.1303540E+00
          2   -1    0    0  502    0  0.00000000000E+00  0.00000000000E+00  0.22249701689E+04  0.22249701689E+04  0.00000000000E+00 0. -1.
          1   -1    0    0  501    0 -0.00000000000E+00 -0.00000000000E+00 -0.62805531058E+01  0.62805531058E+01  0.00000000000E+00 0. -1.
          2    1    1    2  501    0  0.82373618403E+01 -0.48081719003E+02  0.21255474143E+04  0.21261071272E+04  0.00000000000E+00 0. -1.
          1    1    1    2  502    0 -0.82373618403E+01  0.48081719003E+02  0.93142201487E+02  0.10514359481E+03  0.00000000000E+00 0. -1.
</event>
<event>
 4    1  0.3586324E+003  0.3457363E+02  0.7546771E-02  0.1383586E+00
          2   -1    0    0  502    0  0.00000000000E+00  0.00000000000E+00  0.27735540893E+03  0.27735540893E+03  0.00000000000E+00 0. -1.
          1   -1    0    0  501    0 -0.00000000000E+00 -0.00000000000E+00 -0.57297920561E+01  0.57297920561E+01  0.00000000000E+00 0.  1.
          2    1    1    2  501    0  0.94985344909E+01  0.33243247992E+02  0.20627669072E+03  0.20915403135E+03  0.00000000000E+00 0. -1.
          1    1    1    2  502    0 -0.94985344909E+01 -0.33243247992E+02  0.65348926147E+02  0.73931169632E+02  0.00000000000E+00 0.  1.
</event>
<event>
 4    1  0.3586324E+003  0.4303715E+02  0.7546771E-02  0.1331552E+00
          2   -1    0    0  502    0  0.00000000000E+00  0.00000000000E+00  0.95061309830E+01  0.95061309830E+01  0.00000000000E+00 0.  1.
          1   -1    0    0  501    0 -0.00000000000E+00 -0.00000000000E+00 -0.21639558490E+03  0.21639558490E+03  0.00000000000E+00 0. -1.
          2    1    1    2  501    0  0.32235456322E+01  0.42916255126E+02 -0.67797782554E+02  0.80304019325E+02  0.00000000000E+00 0.  1.
          1    1    1    2  502    0 -0.32235456322E+01 -0.42916255126E+02 -0.13909167136E+03  0.14559769655E+03  0.00000000000E+00 0. -1.
</event>
<event>
 4    1  0.3586324E+003  0.2692836E+02  0.7546771E-02  0.1448329E+00
          2   -1    0    0  502    0  0.00000000000E+00  0.00000000000E+00  0.12081453325E+04  0.12081453325E+04  0.00000000000E+00 0. -1.
          1   -1    0    0  501    0 -0.00000000000E+00 -0.00000000000E+00 -0.65850826933E+00  0.65850826933E+00  0.00000000000E+00 0. -1.
          2    1    1    2  501    0 -0.21997145756E+02 -0.15532624220E+02  0.78358312829E+03  0.78404569750E+03  0.00000000000E+00 0. -1.
          1    1    1    2  502    0  0.21997145756E+02  0.15532624220E+02  0.42390369594E+03  0.42475814327E+03  0.00000000000E+00 0. -1.
</event>
<event>
 4    1  0.3586324E+003  0.5683170E+02  0.7546771E-02  0.1270995E+00
          2   -1    0    0  502    0  0.00000000000E+00  0.00000000000E+00  0.20672844923E+04  0.20672844923E+04  0.00000000000E+00 0.  1.
          1   -1    0    0  501    0 -0.00000000000E+00 -0.00000000000E+00 -0.21250557174E+02  0.21250557174E+02  0.00000000000E+00 0.  1.
          2    1    1    2  501    0  0.32992152538E+02 -0.46274827376E+02  0.20281639912E+04  0.20289600826E+04  0.00000000000E+00 0.  1.
          1    1    1    2  502    0 -0.32992152538E+02  0.46274827376E+02  0.17869943943E+02  0.59574966843E+02  0.00000000000E+00 0.  1.
</event>
<event>
 4    1  0.3586324E+003  0.2351961E+02  0.7546771E-02  0.1486075E+00
          2   -1    0    0  502    0  0.00000000000E+00  0.00000000000E+00  0.54947243317E+01  0.54947243317E+01  0.00000000000E+00 0. -1.
          1   -1    0    0  501    0 -0.00000000000E+00 -0.00000000000E+00 -0.44243020869E+03  0.44243020869E+03  0.00000000000E+00 0. -1.
          2    1    1    2  501    0 -0.30859676653E+01  0.23316273873E+02 -0.21628569586E+02  0.31952571822E+02  0.00000000000E+00 0. -1.
          1    1    1    2  502    0  0.30859676653E+01 -0.23316273873E+02 -0.41530691477E+03  0.41597236120E+03  0.00000000000E+00 0. -1.
</event>
<event>
 4    1  0.3586324E+003  0.3915966E+02  0.7546771E-02  0.1353482E+00
          2   -1    0    0  502    0  0.00000000000E+00  0.00000000000E+00  0.95860440381E+02  0.95860440381E+02  0.00000000000E+00 0.  1.
          1   -1    0    0  501    0 -0.00000000000E+00 -0.00000000000E+00 -0.61357575559E+03  0.61357575559E+03  0.00000000000E+00 0.  1.
          2    1    1    2  501    0 -0.28979315508E+02  0.26337776485E+02  0.91205839816E+02  0.99257163036E+02  0.00000000000E+00 0.  1.
          1    1    1    2  502    0  0.28979315508E+02 -0.26337776485E+02 -0.60892115503E+03  0.61017903294E+03  0.00000000000E+00 0.  1.
</event>
<event>
 4    1  0.3586324E+003  0.2036778E+02  0.7546771E-02  0.1528486E+00
          2   -1    0    0  502    0  0.00000000000E+00  0.00000000000E+00  0.50105535150E+00  0.50105535150E+00  0.00000000000E+00 0.  1.
          1   -1    0    0  501    0 -0.00000000000E+00 -0.00000000000E+00 -0.13851045696E+04  0.13851045696E+04  0.00000000000E+00 0. -1.
          2    1    1    2  501    0 -0.17349810651E+02  0.10669142132E+02 -0.25290387094E+03  0.25372271175E+03  0.00000000000E+00 0.  1.
          1    1    1    2  502    0  0.17349810651E+02 -0.10669142132E+02 -0.11316996433E+04  0.11318829132E+04  0.00000000000E+00 0. -1.
</event>
<event>
 4    1  0.3586324E+003  0.2257241E+02  0.7546771E-02  0.1497938E+00
          2   -1    0    0  502    0  0.00000000000E+00  0.00000000000E+00  0.49226014473E+03  0.49226014473E+03  0.00000000000E+00 0.  1.
          1   -1    0    0  501    0 -0.00000000000E+00 -0.00000000000E+00 -0.25063343711E+02  0.25063343711E+02  0.00000000000E+00 0.  1.
          2    1    1    2  501    0 -0.55334177141E+01 -0.21883666663E+02  0.48686281239E+03  0.48738579346E+03  0.00000000000E+00 0.  1.
          1    1    1    2  502    0  0.55334177141E+01  0.21883666663E+02 -0.19666011364E+02  0.29937694988E+02  0.00000000000E+00 0.  1.
</event>
<event>
 4    1  0.3586324E+003  0.4235015E+02  0.7546771E-02  0.1335238E+00
          2   -1    0    0  502    0  0.00000000000E+00  0.00000000000E+00  0.39891447603E+03  0.39891447603E+03  0.00000000000E+00 0.  1.
          1   -1    0    0  501    0 -0.00000000000E+00 -0.00000000000E+00 -0.12399401359E+02  0.12399401359E+02  0.00000000000E+00 0.  1.
          2    1    1    2  501    0 -0.22654795496E+02  0.35781220957E+02  0.35744837600E+03  0.35994843663E+03  0.00000000000E+00 0.  1.
          1    1    1    2  502    0  0.22654795496E+02 -0.35781220957E+02  0.29066698671E+02  0.51365440753E+02  0.00000000000E+00 0.  1.
</event>
<event>
 4    1  0.3586324E+003  0.2380555E+02  0.7546771E-02  0.1482623E+00
          2   -1    0    0  502    0  0.00000000000E+00  0.00000000000E+00  0.42074391924E+02  0.42074391924E+02  0.00000000000E+00 0. -1.
          1   -1    0    0  501    0 -0.00000000000E+00 -0.00000000000E+00 -0.65627152242E+03  0.65627152242E+03  0.00000000000E+00 0. -1.
          2    1    1    2  501    0  0.18269364431E+02  0.15262197422E+02  0.38472659714E+02  0.45242125196E+02  0.00000000000E+00 0. -1.
          1    1    1    2  502    0 -0.18269364431E+02 -0.15262197422E+02 -0.65266979021E+03  0.65310378915E+03  0.00000000000E+00 0. -1.
</event>
<event>
 4    1  0.3586324E+003  0.2206723E+02  0.7546771E-02  0.1504555E+00
          2   -1    0    0  502    0  0.00000000000E+00  0.00000000000E+00  0.10936040381E+04  0.10936040381E+04  0.00000000000E+00 0. -1.
          1   -1    0    0  501    0 -0.00000000000E+00 -0.00000000000E+00 -0.56384255890E+00  0.56384255890E+00  0.00000000000E+00 0. -1.
          2    1    1    2  501    0  0.17149265297E+02 -0.13887583088E+02  0.29565222938E+03  0.29647462455E+03  0.00000000000E+00 0. -1.
          1    1    1    2  502    0 -0.17149265297E+02  0.13887583088E+02  0.79738796619E+03  0.79769325613E+03  0.00000000000E+00 0. -1.
</event>
<event>
 4    1  0.3586324E+003  0.4298045E+02  0.7546771E-02  0.1331853E+00
          2   -1    0    0  502    0  0.00000000000E+00  0.00000000000E+00  0.38590146582E+02  0.38590146582E+02  0.00000000000E+00 0.  1.
          1   -1    0    0  501    0 -0.00000000000E+00 -0.00000000000E+00 -0.15038558172E+04  0.15038558172E+04  0.00000000000E+00 0.  1.
          2    1    1    2  501    0 -0.26886540187E+02  0.33532563996E+02  0.26216227022E+02  0.50344904913E+02  0.00000000000E+00 0.  1.
          1    1    1    2  502    0  0.26886540187E+02 -0.33532563996E+02 -0.14914818976E+04  0.14921010589E+04  0.00000000000E+00 0.  1.
</event>
<event>
 4    1  0.3586324E+003  0.2448865E+02  0.7546771E-02  0.1474606E+00
          2   -1    0    0  502    0  0.00000000000E+00  0.00000000000E+00  0.17847279608E+03  0.17847279608E+03  0.00000000000E+00 0. -1.
          1   -1    0    0  501    0 -0.00000000000E+00 -0.00000000000E+00 -0.90604261305E+02  0.90604261305E+02  0.00000000000E+00 0. -1.
          2    1    1    2  501    0  0.18373442451E+02 -0.16189829761E+02  0.17595448460E+03  0.17765042816E+03  0.00000000000E+00 0. -1.
          1    1    1    2  502    0 -0.18373442451E+02  0.16189829761E+02 -0.88085949823E+02  0.91426629225E+02  0.00000000000E+00 0. -1.
</event>
<event>
 4    1  0.3586324E+003  0.2594795E+02  0.7546771E-02  0.1458472E+00
          2   -1    0    0  502    0  0.00000000000E+00  0.00000000000E+00  0.10404226798E+02  0.10404226798E+02  0.00000000000E+00 0.  1.
          1   -1    0    0  501    0 -0.00000000000E+00 -0.00000000000E+00 -0.11476461338E+04  0.11476461338E+04  0.00000000000E+00 0.  1.
          2    1    1    2  501    0  0.73253828309E+01  0.24892464640E+02 -0.61577297803E+01  0.26668589493E+02  0.00000000000E+00 0.  1.
          1    1    1    2  502    0 -0.73253828309E+01 -0.24892464640E+02 -0.11310841773E+04  0.11313817711E+04  0.00000000000E+00 0.  1.
</event>
<event>
 4    1  0.3586324E+003  0.2426976E+02  0.7546771E-02  0.1477141E+00
          2   -1    0    0  502    0  0.00000000000E+00  0.00000000000E+00  0.66579060610E+02  0.66579060610E+02  0.00000000000E+00 0. -1.
          1   -1    0    0  501    0 -0.00000000000E+00 -0.00000000000E+00 -0.43988199020E+02  0.43988199020E+02  0.00000000000E+00 0. -1.
          2    1    1    2  501    0  0.17682020331E+02 -0.16624307916E+02  0.60707958574E+02  0.65379489834E+02  0.00000000000E+00 0. -1.
          1    1    1    2  502    0 -0.17682020331E+02  0.16624307916E+02 -0.38117096984E+02  0.45187769796E+02  0.00000000000E+00 0. -1.
</event>
<event>
 4    1  0.3586324E+003  0.3096718E+02  0.7546771E-02  0.1411374E+00
          2   -1    0    0  502    0  0.00000000000E+00  0.00000000000E+00  0.10032234844E+02  0.10032234844E+02  0.00000000000E+00 0.  1.
          1   -1    0    0  501    0 -0.00000000000E+00 -0.00000000000E+00 -0.36280862471E+03  0.36280862471E+03  0.00000000000E+00 0. -1.
          2    1    1    2  501    0 -0.26926082343E+02 -0.15295493139E+02 -0.16399496311E+02  0.35041539635E+02  0.00000000000E+00 0.  1.
          1    1    1    2  502    0  0.26926082343E+02  0.15295493139E+02 -0.33637689355E+03  0.33779931992E+03  0.00000000000E+00 0. -1.
</event>
<event>
 4    1  0.3586324E+003  0.3233865E+02  0.7546771E-02  0.1400305E+00
          2   -1    0    0  502    0  0.00000000000E+00  0.00000000000E+00  0.13612760420E+02  0.13612760420E+02  0.00000000000E+00 0.  1.
          1   -1    0    0  501    0 -0.00000000000E+00 -0.00000000000E+00 -0.48408920199E+03  0.48408920199E+03  0.00000000000E+00 0. -1.
          2    1    1    2  501    0  0.12907641996E+02  0.29650982240E+02 -0.69858682558E+01  0.33084593469E+02  0.00000000000E+00 0.  1.
          1    1    1    2  502    0 -0.12907641996E+02 -0.29650982240E+02 -0.46349057332E+03  0.46461736894E+03  0.00000000000E+00 0. -1.
</event>
<event>
 4    1  0.3586324E+003  0.3971340E+02  0.7546771E-02  0.1350174E+00
          2   -1    0    0  502    0  0.00000000000E+00  0.00000000000E+00  0.55200177182E+03  0.55200177182E+03  0.00000000000E+00 0. -1.
          1   -1    0    0  501    0 -0.00000000000E+00 -0.00000000000E+00 -0.69165637809E+02  0.69165637809E+02  0.00000000000E+00 0.  1.
          2    1    1    2  501    0 -0.39266813586E+02  0.59389709893E+01  0.54551918875E+03  0.54696283176E+03  0.00000000000E+00 0. -1.
          1    1    1    2  502    0  0.39266813586E+02 -0.59389709893E+01 -0.62683054741E+02  0.74204577873E+02  0.00000000000E+00 0.  1.
</event>
<event>
 4    1  0.3586324E+003  0.4670544E+02  0.7546771E-02  0.1313125E+00
          2   -1    0    0  502    0  0.00000000000E+00  0.00000000000E+00  0.35495475840E+03  0.35495475840E+03  0.00000000000E+00 0. -1.
          1   -1    0    0  501    0 -0.00000000000E+00 -0.00000000000E+00 -0.28641322605E+03  0.28641322605E+03  0.00000000000E+00 0.  1.
          2    1    1    2  501    0  0.23716773462E+02 -0.40235719133E+02  0.35149564462E+03  0.35458509081E+03  0.00000000000E+00 0. -1.
          1    1    1    2  502    0 -0.23716773462E+02  0.40235719133E+02 -0.28295411227E+03  0.28678289364E+03  0.00000000000E+00 0.  1.
</event>
<event>
 4    1  0.3586324E+003  0.4950441E+02  0.7546771E-02  0.1300336E+00
          2   -1    0    0  502    0  0.00000000000E+00  0.00000000000E+00  0.18527937579E+04  0.18527937579E+04  0.00000000000E+00 0.  1.
          1   -1    0    0  501    0 -0.00000000000E+00 -0.00000000000E+00 -0.72069885145E+01  0.72069885145E+01  0.00000000000E+00 0.  1.
          2    1    1    2  501    0 -0.35627004967E+02 -0.34371546370E+02  0.17631299461E+04  0.17638247911E+04  0.00000000000E+00 0.  1.
          1    1    1    2  502    0  0.35627004967E+02  0.34371546370E+02  0.82456823233E+02  0.96175955314E+02  0.00000000000E+00 0.  1.
</event>
<event>
 4    1  0.3586324E+003  0.2474107E+02  0.7546771E-02  0.1471721E+00
          2   -1    0    0  502    0  0.00000000000E+00  0.00000000000E+00  0.98214339868E+03  0.98214339868E+03  0.00000000000E+00 0. -1.
          1   -1    0    0  501    0 -0.00000000000E+00 -0.00000000000E+00 -0.17026788732E+01  0.17026788732E+01  0.00000000000E+00 0.  1.
          2    1    1    2  501    0 -0.23886110703E+02 -0.64478199072E+01  0.88189715896E+03  0.88224413834E+03  0.00000000000E+00 0. -1.
          1    1    1    2  502    0  0.23886110703E+02  0.64478199072E+01  0.98543560847E+02  0.10160193921E+03  0.00000000000E+00 0.  1.
</event>
<event>
 4    1  0.3586324E+003  0.4303847E+02  0.7546771E-02  0.1331545E+00
          2   -1    0    0  502    0  0.00000000000E+00  0.00000000000E+00  0.19303042053E+04  0.19303042053E+04  0.00000000000E+00 0.  1.
          1   -1    0    0  501    0 -0.00000000000E+00 -0.00000000000E+00 -0.12134901531E+03  0.12134901531E+03  0.00000000000E+00 0.  1.
          2    1    1    2  501    0  0.19588706592E+01  0.42993865208E+02  0.19262401776E+04  0.19267209272E+04  0.00000000000E+00 0.  1.
          1    1    1    2  502    0 -0.19588706592E+01 -0.42993865208E+02 -0.11728498759E+03  0.12493229340E+03  0.00000000000E+00 0.  1.
</event>
<event>
 4    1  0.3586324E+003  0.3280937E+02  0.7546771E-02  0.1396655E+00
          2   -1    0    0  502    0  0.00000000000E+00  0.00000000000E+00  0.25281388836E+02  0.25281388836E+02  0.00000000000E+00 0. -1.
          1   -1    0    0  501    0 -0.00000000000E+00 -0.00000000000E+00 -0.31793951183E+03  0.31793951183E+03  0.00000000000E+00 0.  1.
          2    1    1    2  501    0  0.25070926425E+02 -0.21163722194E+02  0.13377354846E+02  0.35431738761E+02  0.00000000000E+00 0. -1.
          1    1    1    2  502    0 -0.25070926425E+02  0.21163722194E+02 -0.30603547784E+03  0.30778916191E+03  0.00000000000E+00 0.  1.
</event>
<event>
 4    1  0.3586324E+003  0.2182479E+02  0.7546771E-02  0.1507807E+00
          2   -1    0    0  502    0  0.00000000000E+00  0.00000000000E+00  0.13920689601E+02  0.13920689601E+02  0.00000000000E+00 0.  1.
          1   -1    0    0  501    0 -0.00000000000E+00 -0.00000000000E+00 -0.12252662911E+04  0.12252662911E+04  0.00000000000E+00 0. -1.
          2    1    1    2  501    0 -0.18441990022E+02 -0.11671096488E+02  0.52080435217E+01  0.22437584686E+02  0.00000000000E+00 0.  1.
          1    1    1    2  502    0  0.18441990022E+02  0.11671096488E+02 -0.12165536451E+04  0.12167493961E+04  0.00000000000E+00 0. -1.
</event>
<event>
 4    1  0.3586324E+003  0.2506445E+02  0.7546771E-02  0.1468084E+00
          2   -1    0    0  502    0  0.00000000000E+00  0.00000000000E+00  0.61424851473E+03  0.61424851473E+03  0.00000000000E+00 0. -1.
          1   -1    0    0  501    0 -0.00000000000E+00 -0.00000000000E+00 -0.44511326865E+03  0.44511326865E+03  0.00000000000E+00 0. -1.
          2    1    1    2  501    0  0.75967901015E+01  0.23885467638E+02  0.61363962900E+03  0.61415130144E+03  0.00000000000E+00 0. -1.
          1    1    1    2  502    0 -0.75967901015E+01 -0.23885467638E+02 -0.44450438292E+03  0.44521048193E+03  0.00000000000E+00 0. -1.
</event>
<event>
 4    1  0.3586324E+003  0.2130790E+02  0.7546771E-02  0.1514914E+00
          2   -1    0    0  502    0  0.00000000000E+00  0.00000000000E+00  0.81551689031E+03  0.81551689031E+03  0.00000000000E+00 0.  1.
          1   -1    0    0  501    0 -0.00000000000E+00 -0.00000000000E+00 -0.13571478284E+01  0.13571478284E+01  0.00000000000E+00 0. -1.
          2    1    1    2  501    0  0.96486238435E+01 -0.18998174609E+02  0.72074671346E+03  0.72106161425E+03  0.00000000000E+00 0.  1.
          1    1    1    2  502    0 -0.96486238435E+01  0.18998174609E+02  0.93413029026E+02  0.95812423894E+02  0.00000000000E+00 0. -1.
</event>
<event>
 4    1  0.3586324E+003  0.2370076E+02  0.7546771E-02  0.1483881E+00
          2   -1    0    0  502    0  0.00000000000E+00  0.00000000000E+00  0.22188803633E+01  0.22188803633E+01  0.00000000000E+00 0.  1.
          1   -1    0    0  501    0 -0.00000000000E+00 -0.00000000000E+00 -0.31378603997E+03  0.31378603997E+03  0.00000000000E+00 0. -1.
          2    1    1    2  501    0  0.23565870569E+02 -0.25250739822E+01 -0.86331458317E+02  0.89525677598E+02  0.00000000000E+00 0.  1.
          1    1    1    2  502    0 -0.23565870569E+02  0.25250739822E+01 -0.22523570129E+03  0.22647924273E+03  0.00000000000E+00 0. -1.
</event>
<event>
 4    1  0.3586324E+003  0.2176983E+02  0.7546771E-02  0.1508551E+00
          2   -1    0    0  502    0  0.00000000000E+00  0.00000000000E+00  0.30576134927E+03  0.30576134927E+03  0.00000000000E+00 0. -1.
          1   -1    0    0  501    0 -0.00000000000E+00 -0.00000000000E+00 -0.15504961558E+01  0.15504961558E+01  0.00000000000E+00 0. -1.
          2    1    1    2  501    0  0.19330584272E+01 -0.21683833122E+02  0.15489686670E+03  0.15641919527E+03  0.00000000000E+00 0. -1.
          1    1    1    2  502    0 -0.19330584272E+01  0.21683833122E+02  0.14931398641E+03  0.15089265016E+03  0.00000000000E+00 0. -1.
</event>
<event>
 4    1  0.3586324E+003  0.2147321E+02  0.7546771E-02  0.1512615E+00
          2   -1    0    0  502    0  0.00000000000E+00  0.00000000000E+00  0.14776233794E+04  0.14776233794E+04  0.00000000000E+00 0.  1.
          1   -1    0    0  501    0 -0.00000000000E+00 -0.00000000000E+00 -0.20757769947E+01  0.20757769947E+01  0.00000000000E+00 0. -1.
          2    1    1    2  501    0 -0.76582453165E+01 -0.20061154239E+02  0.14197484693E+04  0.14199108475E+04  0.00000000000E+00 0.  1.
          1    1    1    2  502    0  0.76582453165E+01  0.20061154239E+02  0.55799133076E+02  0.59788308914E+02  0.00000000000E+00 0. -1.
</event>
<event>
 4    1  0.3586324E+003  0.2544208E+02  0.7546771E-02  0.1463918E+00
          2   -1    0    0  502    0  0.00000000000E+00  0.00000000000E+00  0.19518593110E+03  0.19518593110E+03  0.00000000000E+00 0.  1.
          1   -1    0    0  501    0 -0.00000000000E+00 -0.00000000000E+00 -0.10926534106E+02  0.10926534106E+02  0.00000000000E+00 0. -1.
          2    1    1    2  501    0 -0.20496767112E+02  0.15072553364E+02  0.17813623128E+03  0.17994392521E+03  0.00000000000E+00 0.  1.
          1    1    1    2  502    0  0.20496767112E+02 -0.15072553364E+02  0.61231657152E+01  0.26168539992E+02  0.00000000000E+00 0. -1.
</event>
<event>
 4    1  0.3586324E+003  0.6102463E+02  0.7546771E-02  0.1256390E+00
          2   -1    0    0  502    0  0.00000000000E+00  0.00000000000E+00  0.11455036162E+04  0.11455036162E+04  0.00000000000E+00 0.  1.
          1   -1    0    0  501    0 -0.00000000000E+00 -0.00000000000E+00 -0.10163624649E+03  0.10163624649E+03  0.00000000000E+00 0.  1.
          2    1    1    2  501    0 -0.60428434703E+02  0.85094158625E+01  0.11354496890E+04  0.11370883880E+04  0.00000000000E+00 0.  1.
          1    1    1    2  502    0  0.60428434703E+02 -0.85094158625E+01 -0.91582319276E+02  0.11005147470E+03  0.00000000000E+00 0.  1.
</event>
<event>
 4    1  0.3586324E+003  0.2893773E+02  0.7546771E-02  0.1429058E+00
          2   -1    0    0  502    0  0.00000000000E+00  0.00000000000E+00  0.13367225733E+03  0.13367225733E+03  0.00000000000E+00 0. -1.
          1   -1    0    0  501    0 -0.00000000000E+00 -0.00000000000E+00 -0.17446777656E+04  0.17446777656E+04  0.00000000000E+00 0. -1.
          2    1    1    2  501    0 -0.16507757077E+02  0.23767339051E+02  0.13198461877E+03  0.13511969524E+03  0.00000000000E+00 0. -1.
          1    1    1    2  502    0  0.16507757077E+02 -0.23767339051E+02 -0.17429901271E+04  0.17432303277E+04  0.00000000000E+00 0. -1.
</event>
<event>
 4    1  0.3586324E+003  0.2169038E+02  0.7546771E-02  0.1509632E+00
          2   -1    0    0  502    0  0.00000000000E+00  0.00000000000E+00  0.65613067359E+02  0.65613067359E+02  0.00000000000E+00 0.  1.
          1   -1    0    0  501    0 -0.00000000000E+00 -0.00000000000E+00 -0.23967491502E+02  0.23967491502E+02  0.00000000000E+00 0. -1.
          2    1    1    2  501    0  0.19506068750E+01 -0.21602488341E+02  0.58319176391E+02  0.62222172130E+02  0.00000000000E+00 0.  1.
          1    1    1    2  502    0 -0.19506068750E+01  0.21602488341E+02 -0.16673600535E+02  0.27358386730E+02  0.00000000000E+00 0. -1.
</event>
<event>
 4    1  0.3586324E+003  0.3423102E+02  0.7546771E-02  0.1386051E+00
          2   -1    0    0  502    0  0.00000000000E+00  0.00000000000E+00  0.34986269842E+02  0.34986269842E+02  0.00000000000E+00 0.  1.
          1   -1    0    0  501    0 -0.00000000000E+00 -0.00000000000E+00 -0.33453799366E+03  0.33453799366E+03  0.00000000000E+00 0. -1.
          2    1    1    2  501    0 -0.17907065800E+02  0.29173616323E+02  0.25493743860E+02  0.42681305871E+02  0.00000000000E+00 0.  1.
          1    1    1    2  502    0  0.17907065800E+02 -0.29173616323E+02 -0.32504546768E+03  0.32684295763E+03  0.00000000000E+00 0. -1.
</event>
<event>
 4    1  0.3586324E+003  0.2101625E+02  0.7546771E-02  0.1519033E+00
          2   -1    0    0  502    0  0.00000000000E+00  0.00000000000E+00  0.12041727224E+04  0.12041727224E+04  0.00000000000E+00 0. -1.
          1   -1    0    0  501    0 -0.00000000000E+00 -0.00000000000E+00 -0.74856869232E+01  0.74856869232E+01  0.00000000000E+00 0.  1.
          2    1    1    2  501    0 -0.12261214825E+01  0.20980450789E+02  0.11891437018E+04  0.11893294019E+04  0.00000000000E+00 0. -1.
          1    1    1    2  502    0  0.12261214825E+01 -0.20980450789E+02  0.75433336624E+01  0.22329007410E+02  0.00000000000E+00 0.  1.
</event>
<event>
 4    1  0.3586324E+003  0.3786243E+02  0.7546771E-02  0.1361489E+00
          2   -1    0    0  502    0  0.00000000000E+00  0.00000000000E+00  0.32558399894E+01  0.32558399894E+01  0.00000000000E+00 0.  1.
          1   -1    0    0  501    0 -0.00000000000E+00 -0.00000000000E+00 -0.12303325025E+04  0.12303325025E+04  0.00000000000E+00 0.  1.
          2    1    1    2  501    0 -0.36766383694E+02  0.90441698055E+01 -0.11928454672E+03  0.12514937900E+03  0.00000000000E+00 0.  1.
          1    1    1    2  502    0  0.36766383694E+02 -0.90441698055E+01 -0.11077921157E+04  0.11084389634E+04  0.00000000000E+00 0.  1.
</event>
<event>
 4    1  0.3586324E+003  0.2870599E+02  0.7546771E-02  0.1431185E+00
          2   -1    0    0  502    0  0.00000000000E+00  0.00000000000E+00  0.51007555209E+01  0.51007555209E+01  0.00000000000E+00 0.  1.
          1   -1    0    0  501    0 -0.00000000000E+00 -0.00000000000E+00 -0.10157008624E+04  0.10157008624E+04  0.00000000000E+00 0.  1.
          2    1    1    2  501    0 -0.21840001870E+02  0.18629222087E+02 -0.37246648219E+02  0.47024955085E+02  0.00000000000E+00 0.  1.
          1    1    1    2  502    0  0.21840001870E+02 -0.18629222087E+02 -0.97335345865E+03  0.97377666282E+03  0.00000000000E+00 0.  1.
</event>
<event>
 4    1  0.3586324E+003  0.7128151E+02  0.7546771E-02  0.1225677E+00
          2   -1    0    0  502    0  0.00000000000E+00  0.00000000000E+00  0.54823361453E+03  0.54823361453E+03  0.00000000000E+00 0. -1.
          1   -1    0    0  501    0 -0.00000000000E+00 -0.00000000000E+00 -0.16195513923E+02  0.16195513923E+02  0.00000000000E+00 0.  1.
          2    1    1    2  501    0 -0.63866601977E+02 -0.31656133264E+02  0.45059255537E+03  0.45619590592E+03  0.00000000000E+00 0. -1.
          1    1    1    2  502    0  0.63866601977E+02  0.31656133264E+02  0.81445545233E+02  0.10823322253E+03  0.00000000000E+00 0.  1.
</event>
<event>
 4    1  0.3586324E+003  0.3974348E+02  0.7546771E-02  0.1349996E+00
          2   -1    0    0  502    0  0.00000000000E+00  0.00000000000E+00  0.81689811240E+01  0.81689811240E+01  0.00000000000E+00 0. -1.
          1   -1    0    0  501    0 -0.00000000000E+00 -0.00000000000E+00 -0.25618821640E+03  0.25618821640E+03  0.00000000000E+00 0. -1.
          2    1    1    2  501    0  0.30365004644E+02  0.25641941752E+02 -0.18946777896E+03  0.19359127550E+03  0.00000000000E+00 0. -1.
          1    1    1    2  502    0 -0.30365004644E+02 -0.25641941752E+02 -0.58551456314E+02  0.70765922027E+02  0.00000000000E+00 0. -1.
</event>
<event>
 4    1  0.3586324E+003  0.3404312E+02  0.7546771E-02  0.1387418E+00
          2   -1    0    0  502    0  0.00000000000E+00  0.00000000000E+00  0.20336429559E+04  0.20336429559E+04  0.00000000000E+00 0.  1.
          1   -1    0    0  501    0 -0.00000000000E+00 -0.00000000000E+00 -0.80943949463E+01  0.80943949463E+01  0.00000000000E+00 0. -1.
          2    1    1    2  501    0  0.47084726574E+01  0.33715931467E+02  0.19970503327E+04  0.19973404730E+04  0.00000000000E+00 0.  1.
          1    1    1    2  502    0 -0.47084726574E+01 -0.33715931467E+02  0.28498228273E+02  0.44396877864E+02  0.00000000000E+00 0. -1.
</event>
<event>
 4    1  0.3586324E+003  0.3903688E+02  0.7546771E-02  0.1354224E+00
          2   -1    0    0  502    0  0.00000000000E+00  0.00000000000E+00  0.40656891167E+03  0.40656891167E+03  0.00000000000E+00 0.  1.
          1   -1    0    0  501    0 -0.00000000000E+00 -0.00000000000E+00 -0.47214789284E+03  0.47214789284E+03  0.00000000000E+00 0. -1.
          2    1    1    2  501    0 -0.14734935570E+02 -0.36149125939E+02  0.40482151582E+03  0.40669932051E+03  0.00000000000E+00 0.  1.
          1    1    1    2  502    0  0.14734935570E+02  0.36149125939E+02 -0.47040049699E+03  0.47201748400E+03  0.00000000000E+00 0. -1.
</event>
<event>
 4    1  0.3586324E+003  0.3597105E+02  0.7546771E-02  0.1373862E+00
          2   -1    0    0  502    0  0.00000000000E+00  0.00000000000E+00  0.86789752788E+03  0.86789752788E+03  0.00000000000E+00 0. -1.
          1   -1    0    0  501    0 -0.00000000000E+00 -0.00000000000E+00 -0.19748069704E+02  0.19748069704E+02  0.00000000000E+00 0. -1.
          2    1    1    2  501    0  0.21797860497E+02 -0.28614148852E+02  0.85081580653E+03  0.85157586443E+03  0.00000000000E+00 0. -1.
          1    1    1    2  502    0 -0.21797860497E+02  0.28614148852E+02 -0.26663483486E+01  0.36069733161E+02  0.00000000000E+00 0. -1.
</event>
<event>
 4    1  0.3586324E+003  0.2371268E+02  0.7546771E-02  0.1483738E+00
          2   -1    0    0  502    0  0.00000000000E+00  0.00000000000E+00  0.24323217974E+03  0.24323217974E+03  0.00000000000E+00 0.  1.
          1   -1    0    0  501    0 -0.00000000000E+00 -0.00000000000E+00 -0.79640817170E+02  0.79640817170E+02  0.00000000000E+00 0. -1.
          2    1    1    2  501    0 -0.23599331447E+02 -0.23158077188E+01  0.24087190315E+03  0.24203628889E+03  0.00000000000E+00 0.  1.
          1    1    1    2  502    0  0.23599331447E+02  0.23158077188E+01 -0.77280540586E+02  0.80836708019E+02  0.00000000000E+00 0. -1.
</event>
<event>
 4    1  0.3586324E+003  0.2255478E+02  0.7546771E-02  0.1498166E+00
          2   -1    0    0  502    0  0.00000000000E+00  0.00000000000E+00  0.57273261486E+03  0.57273261486E+03  0.00000000000E+00 0.  1.
          1   -1    0    0  501    0 -0.00000000000E+00 -0.00000000000E+00 -0.14447273920E+01  0.14447273920E+01  0.00000000000E+00 0.  1.
          2    1    1    2  501    0 -0.16817910531E+02  0.15029166510E+02  0.46382227735E+03  0.46437035104E+03  0.00000000000E+00 0.  1.
          1    1    1    2  502    0  0.16817910531E+02 -0.15029166510E+02  0.10746561012E+03  0.10980699121E+03  0.00000000000E+00 0.  1.
</event>
<event>
 4    1  0.3586324E+003  0.2366383E+02  0.7546771E-02  0.1484327E+00
          2   -1    0    0  502    0  0.00000000000E+00  0.00000000000E+00  0.52143955460E+01  0.52143955460E+01  0.00000000000E+00 0. -1.
          1   -1    0    0  501    0 -0.00000000000E+00 -0.00000000000E+00 -0.17482528519E+03  0.17482528519E+03  0.00000000000E+00 0.  1.
          2    1    1    2  501    0 -0.23345632797E+02  0.38675749023E+01 -0.28896923605E+02  0.37349817940E+02  0.00000000000E+00 0. -1.
          1    1    1    2  502    0  0.23345632797E+02 -0.38675749023E+01 -0.14071396604E+03  0.14268986279E+03  0.00000000000E+00 0.  1.
</event>
<event>
 4    1  0.3586324E+003  0.2674425E+02  0.7546771E-02  0.1450194E+00
          2   -1    0    0  502    0  0.00000000000E+00  0.00000000000E+00  0.79989434094E+03  0.79989434094E+03  0.00000000000E+00 0.  1.
          1   -1    0    0  501    0 -0.00000000000E+00 -0.00000000000E+00 -0.31985613396E+01  0.31985613396E+01  0.00000000000E+00 0. -1.
          2    1    1    2  501    0  0.22072822938E+02  0.15101172062E+02  0.73917567329E+03  0.73965933435E+03  0.00000000000E+00 0.  1.
          1    1    1    2  502    0 -0.22072822938E+02 -0.15101172062E+02  0.57520106313E+02  0.63433567931E+02  0.00000000000E+00 0. -1.
</event>
<event>
 4    1  0.3586324E+003  0.4287335E+02  0.7546771E-02  0.1332424E+00
          2   -1    0    0  502    0  0.00000000000E+00  0.00000000000E+00  0.45994411614E+01  0.45994411614E+01  0.00000000000E+00 0. -1.
          1   -1    0    0  501    0 -0.00000000000E+00 -0.00000000000E+00 -0.40478755362E+03  0.40478755362E+03  0.00000000000E+00 0. -1.
          2    1    1    2  501    0  0.40733955474E+02 -0.13374206715E+02 -0.17701301318E+03  0.18213108293E+03  0.00000000000E+00 0. -1.
          1    1    1    2  502    0 -0.40733955474E+02  0.13374206715E+02 -0.22317509927E+03  0.22725591185E+03  0.00000000000E+00 0. -1.
</event>
<event>
 4    1  0.3586324E+003  0.2009997E+02  0.7546771E-02  0.1532513E+00
          2   -1    0    0  502    0  0.00000000000E+00  0.00000000000E+00  0.16240032601E+02  0.16240032601E+02  0.00000000000E+00 0.  1.
          1   -1    0    0  501    0 -0.00000000000E+00 -0.00000000000E+00 -0.65891492740E+02  0.65891492740E+02  0.00000000000E+00 0.  1.
          2    1    1    2  501    0  0.14582692159E+02  0.13833069903E+02  0.75733081180E+01  0.21479379167E+02  0.00000000000E+00 0.  1.
          1    1    1    2  502    0 -0.14582692159E+02 -0.13833069903E+02 -0.57224768257E+02  0.60652146175E+02  0.00000000000E+00 0.  1.
</event>
<event>
 4    1  0.3586324E+003  0.2312862E+02  0.7546771E-02  0.1490889E+00
          2   -1    0    0  502    0  0.00000000000E+00  0.00000000000E+00  0.19951832594E+02  0.19951832594E+02  0.00000000000E+00 0.  1.
          1   -1    0    0  501    0 -0.00000000000E+00 -0.00000000000E+00 -0.15158986792E+03  0.15158986792E+03  0.00000000000E+00 0.  1.
          2    1    1    2  501    0 -0.21453177048E+02 -0.86425739685E+01  0.11998034133E+02  0.26055435389E+02  0.00000000000E+00 0.  1.
          1    1    1    2  502    0  0.21453177048E+02  0.86425739685E+01 -0.14363606946E+03  0.14548626512E+03  0.00000000000E+00 0.  1.
</event>
<event>
 4    1  0.3586324E+003  0.2198398E+02  0.7546771E-02  0.1505666E+00
          2   -1    0    0  502    0  0.00000000000E+00  0.00000000000E+00  0.78229820253E+02  0.78229820253E+02  0.00000000000E+00 0. -1.
          1   -1    0    0  501    0 -0.00000000000E+00 -0.00000000000E+00 -0.10630823308E+03  0.10630823308E+03  0.00000000000E+00 0. -1.
          2    1    1    2  501    0  0.15864637422E+02  0.15218691637E+02  0.75508679953E+02  0.78643855729E+02  0.00000000000E+00 0. -1.
          1    1    1    2  502    0 -0.15864637422E+02 -0.15218691637E+02 -0.10358709278E+03  0.10589419761E+03  0.00000000000E+00 0. -1.
</event>
<event>
 4    1  0.3586324E+003  0.4518376E+02  0.7546771E-02  0.1320523E+00
          2   -1    0    0  502    0  0.00000000000E+00  0.00000000000E+00  0.29933662080E+03  0.29933662080E+03  0.00000000000E+00 0. -1.
          1   -1    0    0  501    0 -0.00000000000E+00 -0.00000000000E+00 -0.86604893490E+01  0.86604893490E+01  0.00000000000E+00 0.  1.
          2    1    1    2  501    0  0.17590617382E+02  0.41619016645E+02  0.21632427763E+03  0.22099268191E+03  0.00000000000E+00 0. -1.
          1    1    1    2  502    0 -0.17590617382E+02 -0.41619016645E+02  0.74351853825E+02  0.87004428241E+02  0.00000000000E+00 0.  1.
</event>
<event>
 4    1  0.3586324E+003  0.2161092E+02  0.7546771E-02  0.1510718E+00
          2   -1    0    0  502    0  0.00000000000E+00  0.00000000000E+00  0.42257220755E+01  0.42257220755E+01  0.00000000000E+00 0. -1.
          1   -1    0    0  501    0 -0.00000000000E+00 -0.00000000000E+00 -0.11655160342E+03  0.11655160342E+03  0.00000000000E+00 0. -1.
          2    1    1    2  501    0 -0.99136079420E+01  0.19202923109E+02 -0.42426651087E+02  0.47613575803E+02  0.00000000000E+00 0. -1.
          1    1    1    2  502    0  0.99136079420E+01 -0.19202923109E+02 -0.69899230261E+02  0.73163749695E+02  0.00000000000E+00 0. -1.
</event>
<event>
 4    1  0.3586324E+003  0.2961583E+02  0.7546771E-02  0.1422965E+00
          2   -1    0    0  502    0  0.00000000000E+00  0.00000000000E+00  0.46686723913E+03  0.46686723913E+03  0.00000000000E+00 0.  1.
          1   -1    0    0  501    0 -0.00000000000E+00 -0.00000000000E+00 -0.45037668149E+02  0.45037668149E+02  0.00000000000E+00 0. -1.
          2    1    1    2  501    0 -0.20259076882E+02  0.21602484379E+02  0.46147201573E+03  0.46242136502E+03  0.00000000000E+00 0.  1.
          1    1    1    2  502    0  0.20259076882E+02 -0.21602484379E+02 -0.39642444755E+02  0.49483542250E+02  0.00000000000E+00 0. -1.
</event>
<event>
 4    1  0.3586324E+003  0.3680724E+02  0.7546771E-02  0.1368284E+00
          2   -1    0    0  502    0  0.00000000000E+00  0.00000000000E+00  0.54288930764E+01  0.54288930764E+01  0.00000000000E+00 0. -1.
          1   -1    0    0  501    0 -0.00000000000E+00 -0.00000000000E+00 -0.18373557722E+04  0.18373557722E+04  0.00000000000E+00 0. -1.
          2    1    1    2  501    0 -0.20711785516E+02 -0.30426873258E+02 -0.59425026732E+02  0.69900690108E+02  0.00000000000E+00 0. -1.
          1    1    1    2  502    0  0.20711785516E+02  0.30426873258E+02 -0.17725018524E+04  0.17728839752E+04  0.00000000000E+00 0. -1.
</event>
<event>
 4    1  0.3586324E+003  0.2486744E+02  0.7546771E-02  0.1470292E+00
          2   -1    0    0  502    0  0.00000000000E+00  0.00000000000E+00  0.25458603299E+03  0.25458603299E+03  0.00000000000E+00 0. -1.
          1   -1    0    0  501    0 -0.00000000000E+00 -0.00000000000E+00 -0.25386827202E+01  0.25386827202E+01  0.00000000000E+00 0. -1.
          2    1    1    2  501    0  0.24309051174E+02 -0.52401882149E+01  0.15274624356E+03  0.15475724365E+03  0.00000000000E+00 0. -1.
          1    1    1    2  502    0 -0.24309051174E+02  0.52401882149E+01  0.99301106710E+02  0.10236747206E+03  0.00000000000E+00 0. -1.
</event>
<event>
 4    1  0.3586324E+003  0.2101174E+02  0.7546771E-02  0.1519097E+00
          2   -1    0    0  502    0  0.00000000000E+00  0.00000000000E+00  0.34221824209E+03  0.34221824209E+03  0.00000000000E+00 0.  1.
          1   -1    0    0  501    0 -0.00000000000E+00 -0.00000000000E+00 -0.12905917036E+01  0.12905917036E+01  0.00000000000E+00 0.  1.
          2    1    1    2  501    0  0.45183070665E+00 -0.21006872166E+02  0.16708234143E+03  0.16839834217E+03  0.00000000000E+00 0.  1.
          1    1    1    2  502    0 -0.45183070665E+00  0.21006872166E+02  0.17384530896E+03  0.17511049162E+03  0.00000000000E+00 0.  1.
</event>
<event>
 4    1  0.3586324E+003  0.2772182E+02  0.7546771E-02  0.1440489E+00
          2   -1    0    0  502    0  0.00000000000E+00  0.00000000000E+00  0.17753430914E+03  0.17753430914E+03  0.00000000000E+00 0.  1.
          1   -1    0    0  501    0 -0.00000000000E+00 -0.00000000000E+00 -0.10746901122E+02  0.10746901122E+02  0.00000000000E+00 0.  1.
          2    1    1    2  501    0 -0.26351347383E+02 -0.86084760886E+01  0.15614500453E+03  0.15858676429E+03  0.00000000000E+00 0.  1.
          1    1    1    2  502    0  0.26351347383E+02  0.86084760886E+01  0.10642403490E+02  0.29694445971E+02  0.00000000000E+00 0.  1.
</event>
<event>
 4    1  0.3586324E+003  0.2010279E+02  0.7546771E-02  0.1532470E+00
          2   -1    0    0  502    0  0.00000000000E+00  0.00000000000E+00  0.88822026169E+02  0.88822026169E+02  0.00000000000E+00 0. -1.
          1   -1    0    0  501    0 -0.00000000000E+00 -0.00000000000E+00 -0.47607082532E+03  0.47607082532E+03  0.00000000000E+00 0.  1.
          2    1    1    2  501    0 -0.19220282310E+02 -0.58909144759E+01  0.87469119473E+02  0.89749479033E+02  0.00000000000E+00 0. -1.
          1    1    1    2  502    0  0.19220282310E+02  0.58909144759E+01 -0.47471791862E+03  0.47514337245E+03  0.00000000000E+00 0.  1.
</event>
<event>
 4    1  0.3586324E+003  0.3204340E+02  0.7546771E-02  0.1402633E+00
          2   -1    0    0  502    0  0.00000000000E+00  0.00000000000E+00  0.81959889289E+02  0.81959889289E+02  0.00000000000E+00 0. -1.
          1   -1    0    0  501    0 -0.00000000000E+00 -0.00000000000E+00 -0.53531924604E+03  0.53531924604E+03  0.00000000000E+00 0.  1.
          2    1    1    2  501    0 -0.31374916541E+02  0.65110853930E+01  0.78327033839E+02  0.84628032300E+02  0.00000000000E+00 0. -1.
          1    1    1    2  502    0  0.31374916541E+02 -0.65110853930E+01 -0.53168639059E+03  0.53265110303E+03  0.00000000000E+00 0.  1.
</event>
<event>
 4    1  0.3586324E+003  0.2550580E+02  0.7546771E-02  0.1463224E+00
          2   -1    0    0  502    0  0.00000000000E+00  0.00000000000E+00  0.84999526747E+01  0.84999526747E+01  0.00000000000E+00 0. -1.
          1   -1    0    0  501    0 -0.00000000000E+00 -0.00000000000E+00 -0.10592403018E+03  0.10592403018E+03  0.00000000000E+00 0.  1.
          2    1    1    2  501    0  0.13558165695E+01 -0.25469738050E+02 -0.18576373868E+02  0.31553564949E+02  0.00000000000E+00 0. -1.
          1    1    1    2  502    0 -0.13558165695E+01  0.25469738050E+02 -0.78847703633E+02  0.82870417901E+02  0.00000000000E+00 0.  1.
</event>
<event>
 4    1  0.3586324E+003  0.2546292E+02  0.7546771E-02  0.1463691E+00
          2   -1    0    0  502    0  0.00000000000E+00  0.00000000000E+00  0.17853082902E+04  0.17853082902E+04  0.00000000000E+00 0. -1.
          1   -1    0    0  501    0 -0.00000000000E+00 -0.00000000000E+00 -0.25981095806E+02  0.25981095806E+02  0.00000000000E+00 0. -1.
          2    1    1    2  501    0  0.11812561861E+02  0.22557115566E+02  0.17789564568E+04  0.17791386780E+04  0.00000000000E+00 0. -1.
          1    1    1    2  502    0 -0.11812561861E+02 -0.22557115566E+02 -0.19629262478E+02  0.32150708015E+02  0.00000000000E+00 0. -1.
</event>
<event>
 4    1  0.3586324E+003  0.2478390E+02  0.7546771E-02  0.1471235E+00
          2   -1    0    0  502    0  0.00000000000E+00  0.00000000000E+00  0.17879835255E+04  0.17879835255E+04  0.00000000000E+00 0. -1.
          1   -1    0    0  501    0 -0.00000000000E+00 -0.00000000000E+00 -0.67835694356E+00  0.67835694356E+00  0.00000000000E+00 0. -1.
          2    1    1    2  501    0 -0.51765903641E+01 -0.24237254820E+02  0.15219621177E+04  0.15221638970E+04  0.00000000000E+00 0. -1.
          1    1    1    2  502    0  0.51765903641E+01  0.24237254820E+02  0.26534305087E+03  0.26649798546E+03  0.00000000000E+00 0. -1.
</event>
<event>
 4    1  0.3586324E+003  0.2555889E+02  0.7546771E-02  0.1462647E+00
          2   -1    0    0  502    0  0.00000000000E+00  0.00000000000E+00  0.71531210639E+03  0.71531210639E+03  0.00000000000E+00 0. -1.
          1   -1    0    0  501    0 -0.00000000000E+00 -0.00000000000E+00 -0.34540893963E+01  0.34540893963E+01  0.00000000000E+00 0.  1.
          2    1    1    2  501    0 -0.25460207236E+02 -0.22437808710E+01  0.66416242253E+03  0.66465403046E+03  0.00000000000E+00 0. -1.
          1    1    1    2  502    0  0.25460207236E+02  0.22437808710E+01  0.47695594464E+02  0.54112165327E+02  0.00000000000E+00 0.  1.
</event>
<event>
 4    1  0.3586324E+003  0.2350988E+02  0.7546771E-02  0.1486193E+00
          2   -1    0    0  502    0  0.00000000000E+00  0.00000000000E+00  0.28883374882E+03  0.28883374882E+03  0.00000000000E+00 0.  1.
          1   -1    0    0  501    0 -0.00000000000E+00 -0.00000000000E+00 -0.10888532997E+03  0.10888532997E+03  0.00000000000E+00 0. -1.
          2    1    1    2  501    0  0.15749298390E+02 -0.17454913464E+02  0.28707857256E+03  0.28803961746E+03  0.00000000000E+00 0.  1.
          1    1    1    2  502    0 -0.15749298390E+02  0.17454913464E+02 -0.10713015371E+03  0.10967946133E+03  0.00000000000E+00 0. -1.
</event>
<event>
 4    1  0.3586324E+003  0.2342666E+02  0.7546771E-02  0.1487209E+00
          2   -1    0    0  502    0  0.00000000000E+00  0.00000000000E+00  0.97500808728E+02  0.97500808728E+02  0.00000000000E+00 0.  1.
          1   -1    0    0  501    0 -0.00000000000E+00 -0.00000000000E+00 -0.12467938384E+04  0.12467938384E+04  0.00000000000E+00 0.  1.
          2    1    1    2  501    0 -0.22847111055E+02  0.51785881767E+01  0.95981859534E+02  0.98799421145E+02  0.00000000000E+00 0.  1.
          1    1    1    2  502    0  0.22847111055E+02 -0.51785881767E+01 -0.12452748892E+04  0.12454952260E+04  0.00000000000E+00 0.  1.
</event>
<event>
 4    1  0.3586324E+003  0.2493985E+02  0.7546771E-02  0.1469477E+00
          2   -1    0    0  502    0  0.00000000000E+00  0.00000000000E+00  0.36528797457E+02  0.36528797457E+02  0.00000000000E+00 0. -1.
          1   -1    0    0  501    0 -0.00000000000E+00 -0.00000000000E+00 -0.12162205136E+03  0.12162205136E+03  0.00000000000E+00 0. -1.
          2    1    1    2  501    0 -0.59617568419E+01  0.24216804076E+02  0.30784740540E+02  0.39619394171E+02  0.00000000000E+00 0. -1.
          1    1    1    2  502    0  0.59617568419E+01 -0.24216804076E+02 -0.11587799444E+03  0.11853145464E+03  0.00000000000E+00 0. -1.
</event>
<event>
 4    1  0.3586324E+003  0.2238682E+02  0.7546771E-02  0.1500345E+00
          2   -1    0    0  502    0  0.00000000000E+00  0.00000000000E+00  0.15483815693E+03  0.15483815693E+03  0.00000000000E+00 0. -1.
          1   -1    0    0  501    0 -0.00000000000E+00 -0.00000000000E+00 -0.20069784517E+03  0.20069784517E+03  0.00000000000E+00 0.  1.
          2    1    1    2  501    0  0.14290337977E+01 -0.22341161704E+02  0.15339886351E+03  0.15502380775E+03  0.00000000000E+00 0. -1.
          1    1    1    2  502    0 -0.14290337977E+01  0.22341161704E+02 -0.19925855174E+03  0.20051219436E+03  0.00000000000E+00 0.  1.
</event>
<event>
 4    1  0.3586324E+003  0.2499365E+02  0.7546771E-02  0.1468874E+00
          2   -1    0    0  502    0  0.00000000000E+00  0.00000000000E+00  0.71125534079E+03  0.71125534079E+03  0.00000000000E+00 0. -1.
          1   -1    0    0  501    0 -0.00000000000E+00 -0.00000000000E+00 -0.14639470003E+01  0.14639470003E+01  0.00000000000E+00 0. -1.
          2    1    1    2  501    0  0.53029577273E+01 -0.24424600310E+02  0.58029399489E+03  0.58083199203E+03  0.00000000000E+00 0. -1.
          1    1    1    2  502    0 -0.53029577273E+01  0.24424600310E+02  0.12949739890E+03  0.13188729575E+03  0.00000000000E+00 0. -1.
</event>
<event>
 4    1  0.3586324E+003  0.2038558E+02  0.7546771E-02  0.1528221E+00
          2   -1    0    0  502    0  0.00000000000E+00  0.00000000000E+00  0.52524337599E+02  0.52524337599E+02  0.00000000000E+00 0. -1.
          1   -1    0    0  501    0 -0.00000000000E+00 -0.00000000000E+00 -0.48861942893E+03  0.48861942893E+03  0.00000000000E+00 0. -1.
          2    1    1    2  501    0 -0.19396487158E+02 -0.62728114111E+01  0.50324774843E+02  0.54296913725E+02  0.00000000000E+00 0. -1.
          1    1    1    2  502    0  0.19396487158E+02  0.62728114111E+01 -0.48641986618E+03  0.48684685281E+03  0.00000000000E+00 0. -1.
</event>
<event>
 4    1  0.3586324E+003  0.2451255E+02  0.7546771E-02  0.1474331E+00
          2   -1    0    0  502    0  0.00000000000E+00  0.00000000000E+00  0.54589200542E+03  0.54589200542E+03  0.00000000000E+00 0.  1.
          1   -1    0    0  501    0 -0.00000000000E+00 -0.00000000000E+00 -0.44195336262E+01  0.44195336262E+01  0.00000000000E+00 0. -1.
          2    1    1    2  501    0  0.16961987561E+02 -0.17696222910E+02  0.50917831708E+03  0.50976800990E+03  0.00000000000E+00 0.  1.
          1    1    1    2  502    0 -0.16961987561E+02  0.17696222910E+02  0.32294154709E+02  0.40543529146E+02  0.00000000000E+00 0. -1.
</event>
<event>
 4    1  0.3586324E+003  0.2322987E+02  0.7546771E-02  0.1489632E+00
          2   -1    0    0  502    0  0.00000000000E+00  0.00000000000E+00  0.27889448196E+01  0.27889448196E+01  0.00000000000E+00 0.  1.
          1   -1    0    0  501    0 -0.00000000000E+00 -0.00000000000E+00 -0.25204753831E+03  0.25204753831E+03  0.00000000000E+00 0. -1.
          2    1    1    2  501    0 -0.16081104081E+02  0.16763801551E+02 -0.63212135819E+02  0.67345386373E+02  0.00000000000E+00 0.  1.
          1    1    1    2  502    0  0.16081104081E+02 -0.16763801551E+02 -0.18604645767E+03  0.18749109675E+03  0.00000000000E+00 0. -1.
</event>
<event>
 4    1  0.3586324E+003  0.2378052E+02  0.7546771E-02  0.1482923E+00
          2   -1    0    0  502    0  0.00000000000E+00  0.00000000000E+00  0.14731678352E+03  0.14731678352E+03  0.00000000000E+00 0. -1.
          1   -1    0    0  501    0 -0.00000000000E+00 -0.00000000000E+00 -0.68207826448E+01  0.68207826448E+01  0.00000000000E+00 0.  1.
          2    1    1    2  501    0 -0.62419990013E+01 -0.22946686886E+02  0.12120657287E+03  0.12351739269E+03  0.00000000000E+00 0. -1.
          1    1    1    2  502    0  0.62419990013E+01  0.22946686886E+02  0.19289427998E+02  0.30620173466E+02  0.00000000000E+00 0.  1.
</event>
<event>
 4    1  0.3586324E+003  0.2188265E+02  0.7546771E-02  0.1507026E+00
          2   -1    0    0  502    0  0.00000000000E+00  0.00000000000E+00  0.30821289720E+02  0.30821289720E+02  0.00000000000E+00 0. -1.
          1   -1    0    0  501    0 -0.00000000000E+00 -0.00000000000E+00 -0.16574042368E+02  0.16574042368E+02  0.00000000000E+00 0.  1.
          2    1    1    2  501    0 -0.58773057024E+01  0.21078611363E+02  0.13053205549E+02  0.25480124694E+02  0.00000000000E+00 0. -1.
          1    1    1    2  502    0  0.58773057024E+01 -0.21078611363E+02  0.11940418036E+01  0.21915207394E+02  0.00000000000E+00 0.  1.
</event>
<event>
 4    1  0.3586324E+003  0.2000574E+02  0.7546771E-02  0.1533948E+00
          2   -1    0    0  502    0  0.00000000000E+00  0.00000000000E+00  0.14916568567E+04  0.14916568567E+04  0.00000000000E+00 0.  1.
          1   -1    0    0  501    0 -0.00000000000E+00 -0.00000000000E+00 -0.42043714305E+00  0.42043714305E+00  0.00000000000E+00 0. -1.
          2    1    1    2  501    0  0.17266560638E+02 -0.10104238294E+02  0.11943749531E+04  0.11945424891E+04  0.00000000000E+00 0.  1.
          1    1    1    2  502    0 -0.17266560638E+02  0.10104238294E+02  0.29686146643E+03  0.29753480469E+03  0.00000000000E+00 0. -1.
</event>
<event>
 4    1  0.3586324E+003  0.3092319E+02  0.7546771E-02  0.1411740E+00
          2   -1    0    0  502    0  0.00000000000E+00  0.00000000000E+00  0.40579672433E+03  0.40579672433E+03  0.00000000000E+00 0.  1.
          1   -1    0    0  501    0 -0.00000000000E+00 -0.00000000000E+00 -0.24815021812E+01  0.24815021812E+01  0.00000000000E+00 0. -1.
          2    1    1    2  501    0  0.29604740610E+02  0.89332430536E+01  0.24748216412E+03  0.24940662593E+03  0.00000000000E+00 0.  1.
          1    1    1    2  502    0 -0.29604740610E+02 -0.89332430536E+01  0.15583305802E+03  0.15887160058E+03  0.00000000000E+00 0. -1.
</event>
<event>
 4    1  0.3586324E+003  0.2041645E+02  0.7546771E-02  0.1527762E+00
          2   -1    0    0  502    0  0.00000000000E+00  0.00000000000E+00  0.11027930817E+04  0.11027930817E+04  0.00000000000E+00 0.  1.
          1   -1    0    0  501    0 -0.00000000000E+00 -0.00000000000E+00 -0.40275457583E+00  0.40275457583E+00  0.00000000000E+00 0.  1.
          2    1    1    2  501    0  0.19851910977E+02  0.47679292299E+01  0.68800680648E+03  0.68830966671E+03  0.00000000000E+00 0.  1.
          1    1    1    2  502    0 -0.19851910977E+02 -0.47679292299E+01  0.41438352063E+03  0.41488616955E+03  0.00000000000E+00 0.  1.
</event>
<event>
 4    1  0.3586324E+003  0.2512330E+02  0.7546771E-02  0.1467429E+00
          2   -1    0    0  502    0  0.00000000000E+00  0.00000000000E+00  0.40375498810E+03  0.40375498810E+03  0.00000000000E+00 0. -1.
          1   -1    0    0  501    0 -0.00000000000E+00 -0.00000000000E+00 -0.53901600295E+01  0.53901600295E+01  0.00000000000E+00 0. -1.
          2    1    1    2  501    0 -0.17817786493E+02 -0.17711768980E+02  0.37155542188E+03  0.37240382894E+03  0.00000000000E+00 0. -1.
          1    1    1    2  502    0  0.17817786493E+02  0.17711768980E+02  0.26809406189E+02  0.36741319194E+02  0.00000000000E+00 0. -1.
</event>
<event>
 4    1  0.3586324E+003  0.2517132E+02  0.7546771E-02  0.1466896E+00
          2   -1    0    0  502    0  0.00000000000E+00  0.00000000000E+00  0.12148453254E+04  0.12148453254E+04  0.00000000000E+00 0. -1.
          1   -1    0    0  501    0 -0.00000000000E+00 -0.00000000000E+00 -0.54095195676E+01  0.54095195676E+01  0.00000000000E+00 0.  1.
          2    1    1    2  501    0 -0.12748235525E+02 -0.21704328061E+02  0.11846881406E+04  0.11849555206E+04  0.00000000000E+00 0. -1.
          1    1    1    2  502    0  0.12748235525E+02  0.21704328061E+02  0.24747665256E+02  0.35299324373E+02  0.00000000000E+00 0.  1.
</event>
<event>
 4    1  0.4109934E+003  0.2276003E+02  0.7546771E-02  0.1495534E+00
          2   -1    0    0  502    0  0.00000000000E+00  0.00000000000E+00  0.79779733832E+03  0.79779733832E+03  0.00000000000E+00 0. -1.
          1   -1    0    0  501    0 -0.00000000000E+00 -0.00000000000E+00 -0.95352686554E+03  0.95352686554E+03  0.00000000000E+00 0. -1.
          2    1    1    2  501    0  0.20614039894E+02 -0.96478224268E+01  0.79749914303E+03  0.79782385415E+03  0.00000000000E+00 0. -1.
          1    1    1    2  502    0 -0.20614039894E+02  0.96478224268E+01 -0.95322867024E+03  0.95350034971E+03  0.00000000000E+00 0. -1.
</event>
<event>
 4    1  0.3586324E+003  0.2309661E+02  0.7546771E-02  0.1491289E+00
          2   -1    0    0  502    0  0.00000000000E+00  0.00000000000E+00  0.42601005923E+03  0.42601005923E+03  0.00000000000E+00 0.  1.
          1   -1    0    0  501    0 -0.00000000000E+00 -0.00000000000E+00 -0.14711307083E+04  0.14711307083E+04  0.00000000000E+00 0. -1.
          2    1    1    2  501    0  0.80077575695E+01  0.21664004316E+02  0.42560626764E+03  0.42623250500E+03  0.00000000000E+00 0.  1.
          1    1    1    2  502    0 -0.80077575695E+01 -0.21664004316E+02 -0.14707269167E+04  0.14709082625E+04  0.00000000000E+00 0. -1.
</event>
<event>
 4    1  0.3586324E+003  0.2967690E+02  0.7546771E-02  0.1422425E+00
          2   -1    0    0  502    0  0.00000000000E+00  0.00000000000E+00  0.47979448771E+01  0.47979448771E+01  0.00000000000E+00 0.  1.
          1   -1    0    0  501    0 -0.00000000000E+00 -0.00000000000E+00 -0.25883581013E+03  0.25883581013E+03  0.00000000000E+00 0.  1.
          2    1    1    2  501    0  0.28126763785E+02  0.94659119235E+01 -0.55933271290E+02  0.63318632066E+02  0.00000000000E+00 0.  1.
          1    1    1    2  502    0 -0.28126763785E+02 -0.94659119235E+01 -0.19810459397E+03  0.20031512295E+03  0.00000000000E+00 0.  1.
</event>
<event>
 4    1  0.3586324E+003  0.3345478E+02  0.7546771E-02  0.1391764E+00
          2   -1    0    0  502    0  0.00000000000E+00  0.00000000000E+00  0.90650194014E+03  0.90650194014E+03  0.00000000000E+00 0. -1.
          1   -1    0    0  501    0 -0.00000000000E+00 -0.00000000000E+00 -0.46578726481E+02  0.46578726481E+02  0.00000000000E+00 0.  1.
          2    1    1    2  501    0 -0.31714211304E+02 -0.10650404331E+02  0.90014370372E+03  0.90076518009E+03  0.00000000000E+00 0. -1.
          1    1    1    2  502    0  0.31714211304E+02  0.10650404331E+02 -0.40220490058E+02  0.52315486537E+02  0.00000000000E+00 0.  1.
</event>
<event>
 4    1  0.3586324E+003  0.2864984E+02  0.7546771E-02  0.1431704E+00
          2   -1    0    0  502    0  0.00000000000E+00  0.00000000000E+00  0.80576204592E+00  0.80576204592E+00  0.00000000000E+00 0.  1.
          1   -1    0    0  501    0 -0.00000000000E+00 -0.00000000000E+00 -0.11407107233E+04  0.11407107233E+04  0.00000000000E+00 0.  1.
          2    1    1    2  501    0  0.23915021336E+02 -0.15776098350E+02 -0.38327180334E+03  0.38434110991E+03  0.00000000000E+00 0.  1.
          1    1    1    2  502    0 -0.23915021336E+02  0.15776098350E+02 -0.75663315787E+03  0.75717537540E+03  0.00000000000E+00 0.  1.
</event>
<event>
 4    1  0.3586324E+003  0.4228553E+02  0.7546771E-02  0.1335589E+00
          2   -1    0    0  502    0  0.00000000000E+00  0.00000000000E+00  0.34512079071E+04  0.34512079071E+04  0.00000000000E+00 0.  1.
          1   -1    0    0  501    0 -0.00000000000E+00 -0.00000000000E+00 -0.14125675387E+01  0.14125675387E+01  0.00000000000E+00 0.  1.
          2    1    1    2  501    0 -0.78614818910E+01  0.41548327509E+02  0.30986132905E+04  0.30989018039E+04  0.00000000000E+00 0.  1.
          1    1    1    2  502    0  0.78614818910E+01 -0.41548327509E+02  0.35118204912E+03  0.35371867076E+03  0.00000000000E+00 0.  1.
</event>
<event>
 4    1  0.3586324E+003  0.7295013E+02  0.7546771E-02  0.1221233E+00
          2   -1    0    0  502    0  0.00000000000E+00  0.00000000000E+00  0.27322989549E+01  0.27322989549E+01  0.00000000000E+00 0.  1.
          1   -1    0    0  501    0 -0.00000000000E+00 -0.00000000000E+00 -0.26796398684E+04  0.26796398684E+04  0.00000000000E+00 0. -1.
          2    1    1    2  501    0  0.24014199596E+02  0.68884244885E+02 -0.63750529643E+03  0.64166558577E+03  0.00000000000E+00 0.  1.
          1    1    1    2  502    0 -0.24014199596E+02 -0.68884244885E+02 -0.20394022730E+04  0.20407065815E+04  0.00000000000E+00 0. -1.
</event>
<event>
 4    1  0.3586324E+003  0.2599250E+02  0.7546771E-02  0.1458000E+00
          2   -1    0    0  502    0  0.00000000000E+00  0.00000000000E+00  0.33150113426E+03  0.33150113426E+03  0.00000000000E+00 0.  1.
          1   -1    0    0  501    0 -0.00000000000E+00 -0.00000000000E+00 -0.17225515633E+02  0.17225515633E+02  0.00000000000E+00 0. -1.
          2    1    1    2  501    0  0.15851709465E+02  0.20599352786E+02  0.32086165352E+03  0.32191273776E+03  0.00000000000E+00 0.  1.
          1    1    1    2  502    0 -0.15851709465E+02 -0.20599352786E+02 -0.65860349007E+01  0.26813912133E+02  0.00000000000E+00 0. -1.
</event>
<event>
 4    1  0.3586324E+003  0.2581240E+02  0.7546771E-02  0.1459917E+00
          2   -1    0    0  502    0  0.00000000000E+00  0.00000000000E+00  0.45050885545E+03  0.45050885545E+03  0.00000000000E+00 0. -1.
          1   -1    0    0  501    0 -0.00000000000E+00 -0.00000000000E+00 -0.64100953492E+01  0.64100953492E+01  0.00000000000E+00 0. -1.
          2    1    1    2  501    0 -0.23514448370E+02 -0.10646619556E+02  0.42242775946E+03  0.42321565632E+03  0.00000000000E+00 0. -1.
          1    1    1    2  502    0  0.23514448370E+02  0.10646619556E+02  0.21671000641E+02  0.33703294482E+02  0.00000000000E+00 0. -1.
</event>
<event>
 4    1  0.3586324E+003  0.4939815E+02  0.7546771E-02  0.1300803E+00
          2   -1    0    0  502    0  0.00000000000E+00  0.00000000000E+00  0.14863881709E+04  0.14863881709E+04  0.00000000000E+00 0. -1.
          1   -1    0    0  501    0 -0.00000000000E+00 -0.00000000000E+00 -0.47503768573E+01  0.47503768573E+01  0.00000000000E+00 0. -1.
          2    1    1    2  501    0 -0.26028948610E+02  0.41984179040E+02  0.13439517448E+04  0.13448592751E+04  0.00000000000E+00 0. -1.
          1    1    1    2  502    0  0.26028948610E+02 -0.41984179040E+02  0.13768604927E+03  0.14627927269E+03  0.00000000000E+00 0. -1.
</event>
<event>
 4    1  0.3586324E+003  0.2213100E+02  0.7546771E-02  0.1503708E+00
          2   -1    0    0  502    0  0.00000000000E+00  0.00000000000E+00  0.38455476787E+02  0.38455476787E+02  0.00000000000E+00 0. -1.
          1   -1    0    0  501    0 -0.00000000000E+00 -0.00000000000E+00 -0.69354603379E+02  0.69354603379E+02  0.00000000000E+00 0.  1.
          2    1    1    2  501    0  0.16820534653E+02  0.14382300400E+02  0.33255050798E+02  0.39945955420E+02  0.00000000000E+00 0. -1.
          1    1    1    2  502    0 -0.16820534653E+02 -0.14382300400E+02 -0.64154177391E+02  0.67864124746E+02  0.00000000000E+00 0.  1.
</event>
<event>
 4    1  0.3586324E+003  0.2807607E+02  0.7546771E-02  0.1437088E+00
          2   -1    0    0  502    0  0.00000000000E+00  0.00000000000E+00  0.44567355236E+03  0.44567355236E+03  0.00000000000E+00 0. -1.
          1   -1    0    0  501    0 -0.00000000000E+00 -0.00000000000E+00 -0.74284124576E+01  0.74284124576E+01  0.00000000000E+00 0. -1.
          2    1    1    2  501    0  0.10023692910E+02  0.26225776286E+02  0.41687183348E+03  0.41781621715E+03  0.00000000000E+00 0. -1.
          1    1    1    2  502    0 -0.10023692910E+02 -0.26225776286E+02  0.21373306424E+02  0.35285747673E+02  0.00000000000E+00 0. -1.
</event>
<event>
 4    1  0.3586324E+003  0.3217057E+02  0.7546771E-02  0.1401627E+00
          2   -1    0    0  502    0  0.00000000000E+00  0.00000000000E+00  0.13667859790E+04  0.13667859790E+04  0.00000000000E+00 0.  1.
          1   -1    0    0  501    0 -0.00000000000E+00 -0.00000000000E+00 -0.83695753326E+00  0.83695753326E+00  0.00000000000E+00 0.  1.
          2    1    1    2  501    0 -0.66844384427E+01 -0.31468441325E+02  0.47189684113E+03  0.47299214918E+03  0.00000000000E+00 0.  1.
          1    1    1    2  502    0  0.66844384427E+01  0.31468441325E+02  0.89405218032E+03  0.89463078733E+03  0.00000000000E+00 0.  1.
</event>
<event>
 4    1  0.3586324E+003  0.2332159E+02  0.7546771E-02  0.1488499E+00
          2   -1    0    0  502    0  0.00000000000E+00  0.00000000000E+00  0.10851421501E+04  0.10851421501E+04  0.00000000000E+00 0.  1.
          1   -1    0    0  501    0 -0.00000000000E+00 -0.00000000000E+00 -0.10937408132E+03  0.10937408132E+03  0.00000000000E+00 0. -1.
          2    1    1    2  501    0  0.13578981746E+02  0.18960693151E+02  0.10837720706E+04  0.10840229691E+04  0.00000000000E+00 0.  1.
          1    1    1    2  502    0 -0.13578981746E+02 -0.18960693151E+02 -0.10800400175E+03  0.11049326234E+03  0.00000000000E+00 0. -1.
</event>
<event>
 4    1  0.3586324E+003  0.3234761E+02  0.7546771E-02  0.1400235E+00
          2   -1    0    0  502    0  0.00000000000E+00  0.00000000000E+00  0.11895168182E+02  0.11895168182E+02  0.00000000000E+00 0. -1.
          1   -1    0    0  501    0 -0.00000000000E+00 -0.00000000000E+00 -0.28519922336E+03  0.28519922336E+03  0.00000000000E+00 0. -1.
          2    1    1    2  501    0  0.13746040913E+02  0.29281637355E+02 -0.13119721103E+02  0.34906947859E+02  0.00000000000E+00 0. -1.
          1    1    1    2  502    0 -0.13746040913E+02 -0.29281637355E+02 -0.26018433408E+03  0.26218744369E+03  0.00000000000E+00 0. -1.
</event>
<event>
 4    1  0.3586324E+003  0.2128168E+02  0.7546771E-02  0.1515281E+00
          2   -1    0    0  502    0  0.00000000000E+00  0.00000000000E+00  0.20864111396E+03  0.20864111396E+03  0.00000000000E+00 0. -1.
          1   -1    0    0  501    0 -0.00000000000E+00 -0.00000000000E+00 -0.21764383134E+01  0.21764383134E+01  0.00000000000E+00 0.  1.
          2    1    1    2  501    0 -0.95918665885E+01  0.18997513901E+02  0.97847450992E+02  0.10013507430E+03  0.00000000000E+00 0. -1.
          1    1    1    2  502    0  0.95918665885E+01 -0.18997513901E+02  0.10861722466E+03  0.11068247798E+03  0.00000000000E+00 0.  1.
</event>
<event>
 4    1  0.3586324E+003  0.3267765E+02  0.7546771E-02  0.1397669E+00
          2   -1    0    0  502    0  0.00000000000E+00  0.00000000000E+00  0.11195784381E+04  0.11195784381E+04  0.00000000000E+00 0.  1.
          1   -1    0    0  501    0 -0.00000000000E+00 -0.00000000000E+00 -0.88283663676E+01  0.88283663676E+01  0.00000000000E+00 0. -1.
          2    1    1    2  501    0  0.23269057905E+02 -0.22942972813E+02  0.10882305483E+04  0.10887210640E+04  0.00000000000E+00 0.  1.
          1    1    1    2  502    0 -0.23269057905E+02  0.22942972813E+02  0.22519523448E+02  0.39685740432E+02  0.00000000000E+00 0. -1.
</event>
<event>
 4    1  0.3586324E+003  0.2453848E+02  0.7546771E-02  0.1474033E+00
          2   -1    0    0  502    0  0.00000000000E+00  0.00000000000E+00  0.39101732616E+02  0.39101732616E+02  0.00000000000E+00 0.  1.
          1   -1    0    0  501    0 -0.00000000000E+00 -0.00000000000E+00 -0.17521588853E+02  0.17521588853E+02  0.00000000000E+00 0.  1.
          2    1    1    2  501    0 -0.23277058247E+02 -0.77663074581E+01  0.20643491301E+02  0.32066972188E+02  0.00000000000E+00 0.  1.
          1    1    1    2  502    0  0.23277058247E+02  0.77663074581E+01  0.93665246181E+00  0.24556349281E+02  0.00000000000E+00 0.  1.
</event>
<event>
 4    1  0.3586324E+003  0.2108845E+02  0.7546771E-02  0.1518006E+00
          2   -1    0    0  502    0  0.00000000000E+00  0.00000000000E+00  0.59363508244E+01  0.59363508244E+01  0.00000000000E+00 0.  1.
          1   -1    0    0  501    0 -0.00000000000E+00 -0.00000000000E+00 -0.33526213680E+03  0.33526213680E+03  0.00000000000E+00 0. -1.
          2    1    1    2  501    0  0.13448723911E+02  0.16243606588E+02 -0.14327554181E+02  0.25495131665E+02  0.00000000000E+00 0.  1.
          1    1    1    2  502    0 -0.13448723911E+02 -0.16243606588E+02 -0.31499823179E+03  0.31570335596E+03  0.00000000000E+00 0. -1.
</event>
<event>
 4    1  0.3586324E+003  0.3608672E+02  0.7546771E-02  0.1373080E+00
          2   -1    0    0  502    0  0.00000000000E+00  0.00000000000E+00  0.53255415881E+02  0.53255415881E+02  0.00000000000E+00 0.  1.
          1   -1    0    0  501    0 -0.00000000000E+00 -0.00000000000E+00 -0.34219262289E+03  0.34219262289E+03  0.00000000000E+00 0.  1.
          2    1    1    2  501    0  0.21116424497E+01 -0.36024884154E+02  0.46059849041E+02  0.58512913154E+02  0.00000000000E+00 0.  1.
          1    1    1    2  502    0 -0.21116424497E+01  0.36024884154E+02 -0.33499705605E+03  0.33693512562E+03  0.00000000000E+00 0.  1.
</event>
<event>
 4    1  0.3586324E+003  0.3007959E+02  0.7546771E-02  0.1418906E+00
          2   -1    0    0  502    0  0.00000000000E+00  0.00000000000E+00  0.13295355294E+01  0.13295355294E+01  0.00000000000E+00 0. -1.
          1   -1    0    0  501    0 -0.00000000000E+00 -0.00000000000E+00 -0.95855160431E+03  0.95855160431E+03  0.00000000000E+00 0. -1.
          2    1    1    2  501    0 -0.27904352712E+02  0.11230719909E+02 -0.22013337838E+03  0.22217895095E+03  0.00000000000E+00 0. -1.
          1    1    1    2  502    0  0.27904352712E+02 -0.11230719909E+02 -0.73708869040E+03  0.73770218889E+03  0.00000000000E+00 0. -1.
</event>
<event>
 4    1  0.3586324E+003  0.2281296E+02  0.7546771E-02  0.1494860E+00
          2   -1    0    0  502    0  0.00000000000E+00  0.00000000000E+00  0.75004339447E+03  0.75004339447E+03  0.00000000000E+00 0. -1.
          1   -1    0    0  501    0 -0.00000000000E+00 -0.00000000000E+00 -0.60982906383E+01  0.60982906383E+01  0.00000000000E+00 0.  1.
          2    1    1    2  501    0  0.19454964312E+02  0.11913660335E+02  0.72788549951E+03  0.72824290682E+03  0.00000000000E+00 0. -1.
          1    1    1    2  502    0 -0.19454964312E+02 -0.11913660335E+02  0.16059604324E+02  0.27898778289E+02  0.00000000000E+00 0.  1.
</event>
<event>
 4    1  0.3586324E+003  0.2191391E+02  0.7546771E-02  0.1506606E+00
          2   -1    0    0  502    0  0.00000000000E+00  0.00000000000E+00  0.91043466762E+01  0.91043466762E+01  0.00000000000E+00 0. -1.
          1   -1    0    0  501    0 -0.00000000000E+00 -0.00000000000E+00 -0.21249687743E+03  0.21249687743E+03  0.00000000000E+00 0.  1.
          2    1    1    2  501    0 -0.11411407911E+02 -0.18708263927E+02 -0.56263771863E+01  0.22624665521E+02  0.00000000000E+00 0. -1.
          1    1    1    2  502    0  0.11411407911E+02  0.18708263927E+02 -0.19776615356E+03  0.19897655858E+03  0.00000000000E+00 0.  1.
</event>
<event>
 4    1  0.3586324E+003  0.3052878E+02  0.7546771E-02  0.1415056E+00
          2   -1    0    0  502    0  0.00000000000E+00  0.00000000000E+00  0.16452151530E+04  0.16452151530E+04  0.00000000000E+00 0.  1.
          1   -1    0    0  501    0 -0.00000000000E+00 -0.00000000000E+00 -0.15326376133E+02  0.15326376133E+02  0.00000000000E+00 0. -1.
          2    1    1    2  501    0  0.27785599821E+02 -0.12647790190E+02  0.16297264071E+04  0.16300123215E+04  0.00000000000E+00 0.  1.
          1    1    1    2  502    0 -0.27785599821E+02  0.12647790190E+02  0.16236972967E+00  0.30529207622E+02  0.00000000000E+00 0. -1.
</event>
<event>
 4    1  0.3586324E+003  0.2119650E+02  0.7546771E-02  0.1516478E+00
          2   -1    0    0  502    0  0.00000000000E+00  0.00000000000E+00  0.20397584918E+02  0.20397584918E+02  0.00000000000E+00 0. -1.
          1   -1    0    0  501    0 -0.00000000000E+00 -0.00000000000E+00 -0.12221861562E+03  0.12221861562E+03  0.00000000000E+00 0. -1.
          2    1    1    2  501    0  0.77741868953E+01  0.19719366986E+02  0.13652905583E+02  0.25212957920E+02  0.00000000000E+00 0. -1.
          1    1    1    2  502    0 -0.77741868953E+01 -0.19719366986E+02 -0.11547393629E+03  0.11740324262E+03  0.00000000000E+00 0. -1.
</event>
<event>
 4    1  0.3586324E+003  0.3110662E+02  0.7546771E-02  0.1410218E+00
          2   -1    0    0  502    0  0.00000000000E+00  0.00000000000E+00  0.70171335977E+03  0.70171335977E+03  0.00000000000E+00 0.  1.
          1   -1    0    0  501    0 -0.00000000000E+00 -0.00000000000E+00 -0.61754538496E+03  0.61754538496E+03  0.00000000000E+00 0.  1.
          2    1    1    2  501    0 -0.14688943513E+02 -0.27420002711E+02  0.70097649199E+03  0.70166634801E+03  0.00000000000E+00 0.  1.
          1    1    1    2  502    0  0.14688943513E+02  0.27420002711E+02 -0.61680851719E+03  0.61759239672E+03  0.00000000000E+00 0.  1.
</event>
<event>
 4    1  0.3586324E+003  0.4036966E+02  0.7546771E-02  0.1346333E+00
          2   -1    0    0  502    0  0.00000000000E+00  0.00000000000E+00  0.62843127740E+02  0.62843127740E+02  0.00000000000E+00 0.  1.
          1   -1    0    0  501    0 -0.00000000000E+00 -0.00000000000E+00 -0.11493416671E+03  0.11493416671E+03  0.00000000000E+00 0.  1.
          2    1    1    2  501    0 -0.36347200380E+02  0.17566740748E+02  0.52174807714E+02  0.65969083031E+02  0.00000000000E+00 0.  1.
          1    1    1    2  502    0  0.36347200380E+02 -0.17566740748E+02 -0.10426584668E+03  0.11180821142E+03  0.00000000000E+00 0.  1.
</event>
<event>
 4    1  0.3586324E+003  0.2097305E+02  0.7546771E-02  0.1519650E+00
          2   -1    0    0  502    0  0.00000000000E+00  0.00000000000E+00  0.67278863642E+01  0.67278863642E+01  0.00000000000E+00 0.  1.
          1   -1    0    0  501    0 -0.00000000000E+00 -0.00000000000E+00 -0.22473161401E+03  0.22473161401E+03  0.00000000000E+00 0. -1.
          2    1    1    2  501    0  0.13475102434E+01  0.20929718726E+02 -0.11549758830E+02  0.23942970551E+02  0.00000000000E+00 0.  1.
          1    1    1    2  502    0 -0.13475102434E+01 -0.20929718726E+02 -0.20645396882E+03  0.20751652982E+03  0.00000000000E+00 0. -1.
</event>
<event>
 4    1  0.3586324E+003  0.2143474E+02  0.7546771E-02  0.1513147E+00
          2   -1    0    0  502    0  0.00000000000E+00  0.00000000000E+00  0.17236599177E+02  0.17236599177E+02  0.00000000000E+00 0.  1.
          1   -1    0    0  501    0 -0.00000000000E+00 -0.00000000000E+00 -0.20494817829E+03  0.20494817829E+03  0.00000000000E+00 0.  1.
          2    1    1    2  501    0 -0.88112953452E+01 -0.19539942081E+02  0.97607688452E+01  0.23552513043E+02  0.00000000000E+00 0.  1.
          1    1    1    2  502    0  0.88112953452E+01  0.19539942081E+02 -0.19747234796E+03  0.19863226443E+03  0.00000000000E+00 0.  1.
</event>
<event>
 4    1  0.3586324E+003  0.2775045E+02  0.7546771E-02  0.1440212E+00
          2   -1    0    0  502    0  0.00000000000E+00  0.00000000000E+00  0.14845463150E+03  0.14845463150E+03  0.00000000000E+00 0. -1.
          1   -1    0    0  501    0 -0.00000000000E+00 -0.00000000000E+00 -0.34204174433E+02  0.34204174433E+02  0.00000000000E+00 0. -1.
          2    1    1    2  501    0  0.11613089028E+02  0.25203639428E+02  0.14124458579E+03  0.14394485156E+03  0.00000000000E+00 0. -1.
          1    1    1    2  502    0 -0.11613089028E+02 -0.25203639428E+02 -0.26994128724E+02  0.38713954367E+02  0.00000000000E+00 0. -1.
</event>
<event>
 4    1  0.3586324E+003  0.2783315E+02  0.7546771E-02  0.1439414E+00
          2   -1    0    0  502    0  0.00000000000E+00  0.00000000000E+00  0.22243495909E+02  0.22243495909E+02  0.00000000000E+00 0. -1.
          1   -1    0    0  501    0 -0.00000000000E+00 -0.00000000000E+00 -0.97729538106E+02  0.97729538106E+02  0.00000000000E+00 0. -1.
          2    1    1    2  501    0 -0.36224892170E+01 -0.27596406468E+02  0.10382260067E+02  0.29706487544E+02  0.00000000000E+00 0. -1.
          1    1    1    2  502    0  0.36224892170E+01  0.27596406468E+02 -0.85868302265E+02  0.90266546472E+02  0.00000000000E+00 0. -1.
</event>
<event>
 4    1  0.3586324E+003  0.2042841E+02  0.7546771E-02  0.1527584E+00
          2   -1    0    0  502    0  0.00000000000E+00  0.00000000000E+00  0.10100819287E+03  0.10100819287E+03  0.00000000000E+00 0.  1.
          1   -1    0    0  501    0 -0.00000000000E+00 -0.00000000000E+00 -0.63473295826E+02  0.63473295826E+02  0.00000000000E+00 0.  1.
          2    1    1    2  501    0  0.17990217443E+02 -0.96784242174E+01  0.98286591026E+02  0.10038711966E+03  0.00000000000E+00 0.  1.
          1    1    1    2  502    0 -0.17990217443E+02  0.96784242174E+01 -0.60751693986E+02  0.64094369028E+02  0.00000000000E+00 0.  1.
</event>
<event>
 4    1  0.3586324E+003  0.2707472E+02  0.7546771E-02  0.1446859E+00
          2   -1    0    0  502    0  0.00000000000E+00  0.00000000000E+00  0.62051912530E+03  0.62051912530E+03  0.00000000000E+00 0. -1.
          1   -1    0    0  501    0 -0.00000000000E+00 -0.00000000000E+00 -0.85012320893E+02  0.85012320893E+02  0.00000000000E+00 0.  1.
          2    1    1    2  501    0  0.15202524928E+02 -0.22403651156E+02  0.61805952869E+03  0.61865226206E+03  0.00000000000E+00 0. -1.
          1    1    1    2  502    0 -0.15202524928E+02  0.22403651156E+02 -0.82552724282E+02  0.86879184133E+02  0.00000000000E+00 0.  1.
</event>
<event>
 4    1  0.3586324E+003  0.2798663E+02  0.7546771E-02  0.1437941E+00
          2   -1    0    0  502    0  0.00000000000E+00  0.00000000000E+00  0.41510292011E+01  0.41510292011E+01  0.00000000000E+00 0.  1.
          1   -1    0    0  501    0 -0.00000000000E+00 -0.00000000000E+00 -0.20028182835E+03  0.20028182835E+03  0.00000000000E+00 0. -1.
          2    1    1    2  501    0  0.59063903657E+00 -0.27980394830E+02 -0.73472793237E+02  0.78622533000E+02  0.00000000000E+00 0.  1.
          1    1    1    2  502    0 -0.59063903657E+00  0.27980394830E+02 -0.12265800591E+03  0.12581032455E+03  0.00000000000E+00 0. -1.
</event>
<event>
 4    1  0.3586324E+003  0.2931127E+02  0.7546771E-02  0.1425677E+00
          2   -1    0    0  502    0  0.00000000000E+00  0.00000000000E+00  0.18383944508E+03  0.18383944508E+03  0.00000000000E+00 0. -1.
          1   -1    0    0  501    0 -0.00000000000E+00 -0.00000000000E+00 -0.49658484885E+01  0.49658484885E+01  0.00000000000E+00 0.  1.
          2    1    1    2  501    0  0.17452685738E+02  0.23548972155E+02  0.11234716574E+03  0.11610786356E+03  0.00000000000E+00 0. -1.
          1    1    1    2  502    0 -0.17452685738E+02 -0.23548972155E+02  0.66526430851E+02  0.72697430015E+02  0.00000000000E+00 0.  1.
</event>
<event>
 4    1  0.3586324E+003  0.2262897E+02  0.7546771E-02  0.1497210E+00
          2   -1    0    0  502    0  0.00000000000E+00  0.00000000000E+00  0.14428116115E+03  0.14428116115E+03  0.00000000000E+00 0.  1.
          1   -1    0    0  501    0 -0.00000000000E+00 -0.00000000000E+00 -0.23613853550E+02  0.23613853550E+02  0.00000000000E+00 0. -1.
          2    1    1    2  501    0  0.61946830434E+01 -0.21764567334E+02  0.13771586238E+03  0.13956263554E+03  0.00000000000E+00 0.  1.
          1    1    1    2  502    0 -0.61946830434E+01  0.21764567334E+02 -0.17048554772E+02  0.28332379163E+02  0.00000000000E+00 0. -1.
</event>
<event>
 4    1  0.3586324E+003  0.2415231E+02  0.7546771E-02  0.1478514E+00
          2   -1    0    0  502    0  0.00000000000E+00  0.00000000000E+00  0.65824710040E+03  0.65824710040E+03  0.00000000000E+00 0. -1.
          1   -1    0    0  501    0 -0.00000000000E+00 -0.00000000000E+00 -0.40981032410E+02  0.40981032410E+02  0.00000000000E+00 0.  1.
          2    1    1    2  501    0  0.42297119686E+01 -0.23779059126E+02  0.65444633077E+03  0.65489184906E+03  0.00000000000E+00 0. -1.
          1    1    1    2  502    0 -0.42297119686E+01  0.23779059126E+02 -0.37180262777E+02  0.44336283746E+02  0.00000000000E+00 0.  1.
</event>
<event>
 4    1  0.3586324E+003  0.4632728E+02  0.7546771E-02  0.1314933E+00
          2   -1    0    0  502    0  0.00000000000E+00  0.00000000000E+00  0.62955514424E+02  0.62955514424E+02  0.00000000000E+00 0.  1.
          1   -1    0    0  501    0 -0.00000000000E+00 -0.00000000000E+00 -0.16741013286E+03  0.16741013286E+03  0.00000000000E+00 0.  1.
          2    1    1    2  501    0 -0.18758895854E+02  0.42359419755E+02  0.50560849372E+02  0.68575623255E+02  0.00000000000E+00 0.  1.
          1    1    1    2  502    0  0.18758895854E+02 -0.42359419755E+02 -0.15501546781E+03  0.16179002403E+03  0.00000000000E+00 0.  1.
</event>
<event>
 4    1  0.3586324E+003  0.2269643E+02  0.7546771E-02  0.1496346E+00
          2   -1    0    0  502    0  0.00000000000E+00  0.00000000000E+00  0.10748620777E+01  0.10748620777E+01  0.00000000000E+00 0.  1.
          1   -1    0    0  501    0 -0.00000000000E+00 -0.00000000000E+00 -0.71877554689E+03  0.71877554689E+03  0.00000000000E+00 0.  1.
          2    1    1    2  501    0 -0.17006125935E+02  0.15030620772E+02 -0.15107627584E+03  0.15277162368E+03  0.00000000000E+00 0.  1.
          1    1    1    2  502    0  0.17006125935E+02 -0.15030620772E+02 -0.56662440897E+03  0.56707878529E+03  0.00000000000E+00 0.  1.
</event>
<event>
 4    1  0.3586324E+003  0.5247149E+02  0.7546771E-02  0.1287798E+00
          2   -1    0    0  502    0  0.00000000000E+00  0.00000000000E+00  0.24112379281E+03  0.24112379281E+03  0.00000000000E+00 0. -1.
          1   -1    0    0  501    0 -0.00000000000E+00 -0.00000000000E+00 -0.18479050190E+02  0.18479050190E+02  0.00000000000E+00 0. -1.
          2    1    1    2  501    0  0.33426371784E+02 -0.40446688400E+02  0.19155681093E+03  0.19861336497E+03  0.00000000000E+00 0. -1.
          1    1    1    2  502    0 -0.33426371784E+02  0.40446688400E+02  0.31087931693E+02  0.60989478028E+02  0.00000000000E+00 0. -1.
</event>
<event>
 4    1  0.3586324E+003  0.2382857E+02  0.7546771E-02  0.1482348E+00
          2   -1    0    0  502    0  0.00000000000E+00  0.00000000000E+00  0.97055862076E+01  0.97055862076E+01  0.00000000000E+00 0. -1.
          1   -1    0    0  501    0 -0.00000000000E+00 -0.00000000000E+00 -0.87204886535E+02  0.87204886535E+02  0.00000000000E+00 0. -1.
          2    1    1    2  501    0 -0.44699786421E+01  0.23405555179E+02 -0.10950624711E+02  0.26224357072E+02  0.00000000000E+00 0. -1.
          1    1    1    2  502    0  0.44699786421E+01 -0.23405555179E+02 -0.66548675617E+02  0.70686115671E+02  0.00000000000E+00 0. -1.
</event>
<event>
 4    1  0.3586324E+003  0.2981804E+02  0.7546771E-02  0.1421184E+00
          2   -1    0    0  502    0  0.00000000000E+00  0.00000000000E+00  0.89682052205E+01  0.89682052205E+01  0.00000000000E+00 0.  1.
          1   -1    0    0  501    0 -0.00000000000E+00 -0.00000000000E+00 -0.11599839136E+03  0.11599839136E+03  0.00000000000E+00 0.  1.
          2    1    1    2  501    0 -0.13732879219E+02 -0.26467386202E+02 -0.77334804415E+02  0.82884175076E+02  0.00000000000E+00 0.  1.
          1    1    1    2  502    0  0.13732879219E+02  0.26467386202E+02 -0.29695381725E+02  0.42082421506E+02  0.00000000000E+00 0.  1.
</event>
<event>
 4    1  0.3586324E+003  0.4454236E+02  0.7546771E-02  0.1323744E+00
          2   -1    0    0  502    0  0.00000000000E+00  0.00000000000E+00  0.30101964485E+01  0.30101964485E+01  0.00000000000E+00 0. -1.
          1   -1    0    0  501    0 -0.00000000000E+00 -0.00000000000E+00 -0.11518774889E+04  0.11518774889E+04  0.00000000000E+00 0. -1.
          2    1    1    2  501    0 -0.44182527397E+02  0.56503538493E+01 -0.19674686621E+03  0.20172593187E+03  0.00000000000E+00 0. -1.
          1    1    1    2  502    0  0.44182527397E+02 -0.56503538493E+01 -0.95212042621E+03  0.95316175345E+03  0.00000000000E+00 0. -1.
</event>
<event>
 4    1  0.3586324E+003  0.3930808E+02  0.7546771E-02  0.1352589E+00
          2   -1    0    0  502    0  0.00000000000E+00  0.00000000000E+00  0.18444473138E+04  0.18444473138E+04  0.00000000000E+00 0. -1.
          1   -1    0    0  501    0 -0.00000000000E+00 -0.00000000000E+00 -0.36116715994E+01  0.36116715994E+01  0.00000000000E+00 0. -1.
          2    1    1    2  501    0 -0.28398563127E+02 -0.27178062057E+02  0.17302245032E+04  0.17306709557E+04  0.00000000000E+00 0. -1.
          1    1    1    2  502    0  0.28398563127E+02  0.27178062057E+02  0.11061113901E+03  0.11738802971E+03  0.00000000000E+00 0. -1.
</event>
<event>
 4    1  0.3586324E+003  0.2321309E+02  0.7546771E-02  0.1489840E+00
          2   -1    0    0  502    0  0.00000000000E+00  0.00000000000E+00  0.16359078726E+04  0.16359078726E+04  0.00000000000E+00 0.  1.
          1   -1    0    0  501    0 -0.00000000000E+00 -0.00000000000E+00 -0.14257719189E+01  0.14257719189E+01  0.00000000000E+00 0.  1.
          2    1    1    2  501    0 -0.43272429837E+01 -0.22806197524E+02  0.15351404341E+04  0.15353159284E+04  0.00000000000E+00 0.  1.
          1    1    1    2  502    0  0.43272429837E+01  0.22806197524E+02  0.99341666611E+02  0.10201771612E+03  0.00000000000E+00 0.  1.
</event>
<event>
 4    1  0.3586324E+003  0.3569727E+02  0.7546771E-02  0.1375726E+00
          2   -1    0    0  502    0  0.00000000000E+00  0.00000000000E+00  0.17660428730E+03  0.17660428730E+03  0.00000000000E+00 0.  1.
          1   -1    0    0  501    0 -0.00000000000E+00 -0.00000000000E+00 -0.73458627544E+01  0.73458627544E+01  0.00000000000E+00 0.  1.
          2    1    1    2  501    0 -0.34896149453E+02 -0.75201664750E+01  0.72378263935E+02  0.80702585093E+02  0.00000000000E+00 0.  1.
          1    1    1    2  502    0  0.34896149453E+02  0.75201664750E+01  0.96880160612E+02  0.10324756496E+03  0.00000000000E+00 0.  1.
</event>
<event>
 4    1  0.3586324E+003  0.2846914E+02  0.7546771E-02  0.1433383E+00
          2   -1    0    0  502    0  0.00000000000E+00  0.00000000000E+00  0.18688912430E+03  0.18688912430E+03  0.00000000000E+00 0. -1.
          1   -1    0    0  501    0 -0.00000000000E+00 -0.00000000000E+00 -0.19496247588E+02  0.19496247588E+02  0.00000000000E+00 0.  1.
          2    1    1    2  501    0  0.28274786935E+02  0.33209274156E+01  0.17469106543E+03  0.17699565101E+03  0.00000000000E+00 0. -1.
          1    1    1    2  502    0 -0.28274786935E+02 -0.33209274156E+01 -0.72981887140E+01  0.29389720883E+02  0.00000000000E+00 0.  1.
</event>
<event>
 4    1  0.3586324E+003  0.3208603E+02  0.7546771E-02  0.1402295E+00
          2   -1    0    0  502    0  0.00000000000E+00  0.00000000000E+00  0.14080271566E+02  0.14080271566E+02  0.00000000000E+00 0.  1.
          1   -1    0    0  501    0 -0.00000000000E+00 -0.00000000000E+00 -0.18337440466E+03  0.18337440466E+03  0.00000000000E+00 0. -1.
          2    1    1    2  501    0 -0.18537476892E+02 -0.26189223646E+02 -0.80925047012E+01  0.33090816204E+02  0.00000000000E+00 0.  1.
          1    1    1    2  502    0  0.18537476892E+02  0.26189223646E+02 -0.16120162840E+03  0.16436386003E+03  0.00000000000E+00 0. -1.
</event>
<event>
 4    1  0.3586324E+003  0.6771743E+02  0.7546771E-02  0.1235649E+00
          2   -1    0    0  502    0  0.00000000000E+00  0.00000000000E+00  0.19844591452E+03  0.19844591452E+03  0.00000000000E+00 0. -1.
          1   -1    0    0  501    0 -0.00000000000E+00 -0.00000000000E+00 -0.53555536703E+02  0.53555536703E+02  0.00000000000E+00 0.  1.
          2    1    1    2  501    0 -0.51491964559E+02 -0.43979859086E+02  0.16745059027E+03  0.18062488921E+03  0.00000000000E+00 0. -1.
          1    1    1    2  502    0  0.51491964559E+02  0.43979859086E+02 -0.22560212453E+02  0.71376562016E+02  0.00000000000E+00 0.  1.
</event>
<event>
 4    1  0.3586324E+003  0.3356479E+02  0.7546771E-02  0.1390944E+00
          2   -1    0    0  502    0  0.00000000000E+00  0.00000000000E+00  0.89293111043E+01  0.89293111043E+01  0.00000000000E+00 0.  1.
          1   -1    0    0  501    0 -0.00000000000E+00 -0.00000000000E+00 -0.10200648883E+04  0.10200648883E+04  0.00000000000E+00 0.  1.
          2    1    1    2  501    0 -0.32639042393E+02 -0.78286875426E+01 -0.23938724531E+02  0.41226908314E+02  0.00000000000E+00 0.  1.
          1    1    1    2  502    0  0.32639042393E+02  0.78286875426E+01 -0.98719685268E+03  0.98776729111E+03  0.00000000000E+00 0.  1.
</event>
<event>
 4    1  0.3586324E+003  0.2752602E+02  0.7546771E-02  0.1442395E+00
          2   -1    0    0  502    0  0.00000000000E+00  0.00000000000E+00  0.14182959768E+04  0.14182959768E+04  0.00000000000E+00 0. -1.
          1   -1    0    0  501    0 -0.00000000000E+00 -0.00000000000E+00 -0.20047900856E+01  0.20047900856E+01  0.00000000000E+00 0. -1.
          2    1    1    2  501    0 -0.19377567883E+02 -0.19549721798E+02  0.13163628943E+04  0.13166506564E+04  0.00000000000E+00 0. -1.
          1    1    1    2  502    0  0.19377567883E+02  0.19549721798E+02  0.99928292461E+02  0.10365011044E+03  0.00000000000E+00 0. -1.
</event>
<event>
 4    1  0.3586324E+003  0.2763165E+02  0.7546771E-02  0.1441364E+00
          2   -1    0    0  502    0  0.00000000000E+00  0.00000000000E+00  0.17748890761E+04  0.17748890761E+04  0.00000000000E+00 0.  1.
          1   -1    0    0  501    0 -0.00000000000E+00 -0.00000000000E+00 -0.82813419233E+00  0.82813419233E+00  0.00000000000E+00 0. -1.
          2    1    1    2  501    0  0.27539019852E+02 -0.22606141451E+01  0.15025108779E+04  0.15027649338E+04  0.00000000000E+00 0.  1.
          1    1    1    2  502    0 -0.27539019852E+02  0.22606141451E+01  0.27155006400E+03  0.27295227651E+03  0.00000000000E+00 0. -1.
</event>
<event>
 4    1  0.3586324E+003  0.2318417E+02  0.7546771E-02  0.1490198E+00
          2   -1    0    0  502    0  0.00000000000E+00  0.00000000000E+00  0.39947083830E+03  0.39947083830E+03  0.00000000000E+00 0.  1.
          1   -1    0    0  501    0 -0.00000000000E+00 -0.00000000000E+00 -0.20301783408E+02  0.20301783408E+02  0.00000000000E+00 0. -1.
          2    1    1    2  501    0 -0.14347051711E+02  0.18211755224E+02  0.39239627256E+03  0.39308057779E+03  0.00000000000E+00 0.  1.
          1    1    1    2  502    0  0.14347051711E+02 -0.18211755224E+02 -0.13227217666E+02  0.26692043914E+02  0.00000000000E+00 0. -1.
</event>
<event>
 4    1  0.3586324E+003  0.2300294E+02  0.7546771E-02  0.1492461E+00
          2   -1    0    0  502    0  0.00000000000E+00  0.00000000000E+00  0.11544287759E+04  0.11544287759E+04  0.00000000000E+00 0. -1.
          1   -1    0    0  501    0 -0.00000000000E+00 -0.00000000000E+00 -0.36511930481E+01  0.36511930481E+01  0.00000000000E+00 0. -1.
          2    1    1    2  501    0 -0.80978678809E+01  0.21530442673E+02  0.11168654806E+04  0.11171023396E+04  0.00000000000E+00 0. -1.
          1    1    1    2  502    0  0.80978678809E+01 -0.21530442673E+02  0.33912102224E+02  0.40977629301E+02  0.00000000000E+00 0. -1.
</event>
<event>
 4    1  0.3586324E+003  0.2230427E+02  0.7546771E-02  0.1501424E+00
          2   -1    0    0  502    0  0.00000000000E+00  0.00000000000E+00  0.12071164186E+03  0.12071164186E+03  0.00000000000E+00 0. -1.
          1   -1    0    0  501    0 -0.00000000000E+00 -0.00000000000E+00 -0.31846492931E+03  0.31846492931E+03  0.00000000000E+00 0.  1.
          2    1    1    2  501    0  0.19224904100E+02 -0.11308569054E+02  0.11928617697E+03  0.12135350299E+03  0.00000000000E+00 0. -1.
          1    1    1    2  502    0 -0.19224904100E+02  0.11308569054E+02 -0.31703946441E+03  0.31782306818E+03  0.00000000000E+00 0.  1.
</event>
<event>
 4    1  0.3586324E+003  0.3048657E+02  0.7546771E-02  0.1415414E+00
          2   -1    0    0  502    0  0.00000000000E+00  0.00000000000E+00  0.15314148864E+04  0.15314148864E+04  0.00000000000E+00 0.  1.
          1   -1    0    0  501    0 -0.00000000000E+00 -0.00000000000E+00 -0.91880700768E+00  0.91880700768E+00  0.00000000000E+00 0. -1.
          2    1    1    2  501    0  0.22100959962E+02  0.20999490538E+02  0.12116404464E+04  0.12120239282E+04  0.00000000000E+00 0.  1.
          1    1    1    2  502    0 -0.22100959962E+02 -0.20999490538E+02  0.31885563295E+03  0.32030976523E+03  0.00000000000E+00 0. -1.
</event>
<event>
 4    1  0.3586324E+003  0.2091052E+02  0.7546771E-02  0.1520546E+00
          2   -1    0    0  502    0  0.00000000000E+00  0.00000000000E+00  0.11657373909E+04  0.11657373909E+04  0.00000000000E+00 0.  1.
          1   -1    0    0  501    0 -0.00000000000E+00 -0.00000000000E+00 -0.46514436472E+01  0.46514436472E+01  0.00000000000E+00 0.  1.
          2    1    1    2  501    0  0.17647163783E+02  0.11217281726E+02  0.11416470041E+04  0.11418384876E+04  0.00000000000E+00 0.  1.
          1    1    1    2  502    0 -0.17647163783E+02 -0.11217281726E+02  0.19438943104E+02  0.28550346896E+02  0.00000000000E+00 0.  1.
</event>
<event>
 4    1  0.3586324E+003  0.2004121E+02  0.7546771E-02  0.1533407E+00
          2   -1    0    0  502    0  0.00000000000E+00  0.00000000000E+00  0.24286294395E+01  0.24286294395E+01  0.00000000000E+00 0.  1.
          1   -1    0    0  501    0 -0.00000000000E+00 -0.00000000000E+00 -0.49598185665E+03  0.49598185665E+03  0.00000000000E+00 0. -1.
          2    1    1    2  501    0 -0.18008384578E+02  0.87947806229E+01 -0.43318028595E+02  0.47729463466E+02  0.00000000000E+00 0.  1.
          1    1    1    2  502    0  0.18008384578E+02 -0.87947806229E+01 -0.45023519861E+03  0.45068102262E+03  0.00000000000E+00 0. -1.
</event>
<event>
 4    1  0.3586324E+003  0.2986276E+02  0.7546771E-02  0.1420793E+00
          2   -1    0    0  502    0  0.00000000000E+00  0.00000000000E+00  0.46226257528E+02  0.46226257528E+02  0.00000000000E+00 0.  1.
          1   -1    0    0  501    0 -0.00000000000E+00 -0.00000000000E+00 -0.20364636354E+02  0.20364636354E+02  0.00000000000E+00 0.  1.
          2    1    1    2  501    0  0.29812706851E+02 -0.17282691221E+01  0.20573175260E+02  0.36263479483E+02  0.00000000000E+00 0.  1.
          1    1    1    2  502    0 -0.29812706851E+02  0.17282691221E+01  0.52884459145E+01  0.30327414399E+02  0.00000000000E+00 0.  1.
</event>
<event>
 4    1  0.3586324E+003  0.2396857E+02  0.7546771E-02  0.1480681E+00
          2   -1    0    0  502    0  0.00000000000E+00  0.00000000000E+00  0.13692088532E+02  0.13692088532E+02  0.00000000000E+00 0.  1.
          1   -1    0    0  501    0 -0.00000000000E+00 -0.00000000000E+00 -0.66733342962E+02  0.66733342962E+02  0.00000000000E+00 0.  1.
          2    1    1    2  501    0  0.23912830929E+02  0.16336375688E+01 -0.20185979419E+01  0.24053419557E+02  0.00000000000E+00 0.  1.
          1    1    1    2  502    0 -0.23912830929E+02 -0.16336375688E+01 -0.51022656488E+02  0.56372011937E+02  0.00000000000E+00 0.  1.
</event>
<event>
 4    1  0.3586324E+003  0.3772161E+02  0.7546771E-02  0.1362380E+00
          2   -1    0    0  502    0  0.00000000000E+00  0.00000000000E+00  0.40743411288E+03  0.40743411288E+03  0.00000000000E+00 0.  1.
          1   -1    0    0  501    0 -0.00000000000E+00 -0.00000000000E+00 -0.21671205675E+02  0.21671205675E+02  0.00000000000E+00 0.  1.
          2    1    1    2  501    0  0.12953487579E+02  0.35427773558E+02  0.38938714073E+03  0.39121000159E+03  0.00000000000E+00 0.  1.
          1    1    1    2  502    0 -0.12953487579E+02 -0.35427773558E+02 -0.36242335168E+01  0.37895316971E+02  0.00000000000E+00 0.  1.
</event>
<event>
 4    1  0.3586324E+003  0.3443026E+02  0.7546771E-02  0.1384613E+00
          2   -1    0    0  502    0  0.00000000000E+00  0.00000000000E+00  0.26919000730E+03  0.26919000730E+03  0.00000000000E+00 0. -1.
          1   -1    0    0  501    0 -0.00000000000E+00 -0.00000000000E+00 -0.11263384452E+02  0.11263384452E+02  0.00000000000E+00 0. -1.
          2    1    1    2  501    0 -0.13261264027E+02  0.31773914822E+02  0.23839599562E+03  0.24086945326E+03  0.00000000000E+00 0. -1.
          1    1    1    2  502    0  0.13261264027E+02 -0.31773914822E+02  0.19530627233E+02  0.39583938495E+02  0.00000000000E+00 0. -1.
</event>
<event>
 4    1  0.3586324E+003  0.3535294E+02  0.7546771E-02  0.1378099E+00
          2   -1    0    0  502    0  0.00000000000E+00  0.00000000000E+00  0.15949389875E+04  0.15949389875E+04  0.00000000000E+00 0.  1.
          1   -1    0    0  501    0 -0.00000000000E+00 -0.00000000000E+00 -0.56181495561E+01  0.56181495561E+01  0.00000000000E+00 0. -1.
          2    1    1    2  501    0 -0.22134189556E+02 -0.27566435212E+02  0.15370323086E+04  0.15374388275E+04  0.00000000000E+00 0.  1.
          1    1    1    2  502    0  0.22134189556E+02  0.27566435212E+02  0.52288529359E+02  0.63118309547E+02  0.00000000000E+00 0. -1.
</event>
<event>
 4    1  0.3586324E+003  0.2439674E+02  0.7546771E-02  0.1475666E+00
          2   -1    0    0  502    0  0.00000000000E+00  0.00000000000E+00  0.39074924591E+03  0.39074924591E+03  0.00000000000E+00 0. -1.
          1   -1    0    0  501    0 -0.00000000000E+00 -0.00000000000E+00 -0.16626144993E+01  0.16626144993E+01  0.00000000000E+00 0. -1.
          2    1    1    2  501    0 -0.15717739368E+02  0.18658871633E+02  0.25135323797E+03  0.25253445520E+03  0.00000000000E+00 0. -1.
          1    1    1    2  502    0  0.15717739368E+02 -0.18658871633E+02  0.13773339344E+03  0.13987740521E+03  0.00000000000E+00 0. -1.
</event>
<event>
 4    1  0.3586324E+003  0.3594593E+02  0.7546771E-02  0.1374032E+00
          2   -1    0    0  502    0  0.00000000000E+00  0.00000000000E+00  0.51501495532E+03  0.51501495532E+03  0.00000000000E+00 0.  1.
          1   -1    0    0  501    0 -0.00000000000E+00 -0.00000000000E+00 -0.27910484815E+01  0.27910484815E+01  0.00000000000E+00 0. -1.
          2    1    1    2  501    0 -0.20943452238E+02 -0.29214403680E+02  0.33843271133E+03  0.34033631848E+03  0.00000000000E+00 0.  1.
          1    1    1    2  502    0  0.20943452238E+02  0.29214403680E+02  0.17379119550E+03  0.17746968532E+03  0.00000000000E+00 0. -1.
</event>
<event>
 4    1  0.3586324E+003  0.2346422E+02  0.7546771E-02  0.1486750E+00
          2   -1    0    0  502    0  0.00000000000E+00  0.00000000000E+00  0.20105484043E+01  0.20105484043E+01  0.00000000000E+00 0.  1.
          1   -1    0    0  501    0 -0.00000000000E+00 -0.00000000000E+00 -0.18010275734E+04  0.18010275734E+04  0.00000000000E+00 0. -1.
          2    1    1    2  501    0  0.22267764713E+02  0.73970298692E+01 -0.69350306340E+02  0.73212255707E+02  0.00000000000E+00 0.  1.
          1    1    1    2  502    0 -0.22267764713E+02 -0.73970298692E+01 -0.17296667187E+04  0.17298258661E+04  0.00000000000E+00 0. -1.
</event>
<event>
 4    1  0.3586324E+003  0.1477555E+03  0.7546771E-02  0.1099940E+00
          2   -1    0    0  502    0  0.00000000000E+00  0.00000000000E+00  0.25497663114E+03  0.25497663114E+03  0.00000000000E+00 0. -1.
          1   -1    0    0  501    0 -0.00000000000E+00 -0.00000000000E+00 -0.13907551238E+03  0.13907551238E+03  0.00000000000E+00 0.  1.
          2    1    1    2  501    0  0.19485926598E+02 -0.14646494104E+03  0.18009827632E+03  0.23295293393E+03  0.00000000000E+00 0. -1.
          1    1    1    2  502    0 -0.19485926598E+02  0.14646494104E+03 -0.64197157568E+02  0.16109920959E+03  0.00000000000E+00 0.  1.
</event>
<event>
 4    1  0.3586324E+003  0.2053614E+02  0.7546771E-02  0.1525992E+00
          2   -1    0    0  502    0  0.00000000000E+00  0.00000000000E+00  0.95894799891E+03  0.95894799891E+03  0.00000000000E+00 0.  1.
          1   -1    0    0  501    0 -0.00000000000E+00 -0.00000000000E+00 -0.18423329886E+02  0.18423329886E+02  0.00000000000E+00 0.  1.
          2    1    1    2  501    0  0.70554735068E+01  0.19286096220E+02  0.95308000680E+03  0.95330122866E+03  0.00000000000E+00 0.  1.
          1    1    1    2  502    0 -0.70554735068E+01 -0.19286096220E+02 -0.12555337774E+02  0.24070100133E+02  0.00000000000E+00 0.  1.
</event>
<event>
 4    1  0.3586324E+003  0.2356365E+02  0.7546771E-02  0.1485539E+00
          2   -1    0    0  502    0  0.00000000000E+00  0.00000000000E+00  0.32886190625E+03  0.32886190625E+03  0.00000000000E+00 0. -1.
          1   -1    0    0  501    0 -0.00000000000E+00 -0.00000000000E+00 -0.39375519752E+03  0.39375519752E+03  0.00000000000E+00 0. -1.
          2    1    1    2  501    0  0.98185695521E+01  0.21420583055E+02  0.32808644540E+03  0.32893154507E+03  0.00000000000E+00 0. -1.
          1    1    1    2  502    0 -0.98185695521E+01 -0.21420583055E+02 -0.39297973667E+03  0.39368555869E+03  0.00000000000E+00 0. -1.
</event>
<event>
 4    1  0.3586324E+003  0.2308716E+02  0.7546771E-02  0.1491407E+00
          2   -1    0    0  502    0  0.00000000000E+00  0.00000000000E+00  0.15727830243E+03  0.15727830243E+03  0.00000000000E+00 0.  1.
          1   -1    0    0  501    0 -0.00000000000E+00 -0.00000000000E+00 -0.64086365688E+01  0.64086365688E+01  0.00000000000E+00 0.  1.
          2    1    1    2  501    0 -0.66335030903E+00 -0.23077631901E+02  0.13161436384E+03  0.13362394208E+03  0.00000000000E+00 0.  1.
          1    1    1    2  502    0  0.66335030903E+00  0.23077631901E+02  0.19255302018E+02  0.30062996916E+02  0.00000000000E+00 0.  1.
</event>
<event>
 4    1  0.3586324E+003  0.2027325E+02  0.7546771E-02  0.1529899E+00
          2   -1    0    0  502    0  0.00000000000E+00  0.00000000000E+00  0.28448105827E+04  0.28448105827E+04  0.00000000000E+00 0.  1.
          1   -1    0    0  501    0 -0.00000000000E+00 -0.00000000000E+00 -0.14481815282E+00  0.14481815282E+00  0.00000000000E+00 0.  1.
          2    1    1    2  501    0 -0.15503515021E+02 -0.13063143950E+02  0.14915513892E+04  0.14916891604E+04  0.00000000000E+00 0.  1.
          1    1    1    2  502    0  0.15503515021E+02  0.13063143950E+02  0.13531143754E+04  0.13532662404E+04  0.00000000000E+00 0.  1.
</event>
<event>
 4    1  0.3586324E+003  0.2242122E+02  0.7546771E-02  0.1499897E+00
          2   -1    0    0  502    0  0.00000000000E+00  0.00000000000E+00  0.92795644790E+01  0.92795644790E+01  0.00000000000E+00 0. -1.
          1   -1    0    0  501    0 -0.00000000000E+00 -0.00000000000E+00 -0.12257490117E+03  0.12257490117E+03  0.00000000000E+00 0. -1.
          2    1    1    2  501    0 -0.17327145824E+02 -0.14229592075E+02 -0.73989499809E+01  0.23610500500E+02  0.00000000000E+00 0. -1.
          1    1    1    2  502    0  0.17327145824E+02  0.14229592075E+02 -0.10589638671E+03  0.10824396515E+03  0.00000000000E+00 0. -1.
</event>
<event>
 4    1  0.3586324E+003  0.2210921E+02  0.7546771E-02  0.1503997E+00
          2   -1    0    0  502    0  0.00000000000E+00  0.00000000000E+00  0.22485414584E+03  0.22485414584E+03  0.00000000000E+00 0. -1.
          1   -1    0    0  501    0 -0.00000000000E+00 -0.00000000000E+00 -0.32790654149E+02  0.32790654149E+02  0.00000000000E+00 0.  1.
          2    1    1    2  501    0  0.18663830519E+02 -0.11852369288E+02  0.22051063515E+03  0.22161623912E+03  0.00000000000E+00 0. -1.
          1    1    1    2  502    0 -0.18663830519E+02  0.11852369288E+02 -0.28447143458E+02  0.36028560869E+02  0.00000000000E+00 0.  1.
</event>
<event>
 4    1  0.3586324E+003  0.2021599E+02  0.7546771E-02  0.1530759E+00
          2   -1    0    0  502    0  0.00000000000E+00  0.00000000000E+00  0.62606898464E+01  0.62606898464E+01  0.00000000000E+00 0.  1.
          1   -1    0    0  501    0 -0.00000000000E+00 -0.00000000000E+00 -0.66897048678E+02  0.66897048678E+02  0.00000000000E+00 0. -1.
          2    1    1    2  501    0 -0.19327005902E+02 -0.59290024472E+01 -0.24627853515E+02  0.31862476299E+02  0.00000000000E+00 0.  1.
          1    1    1    2  502    0  0.19327005902E+02  0.59290024472E+01 -0.36008505317E+02  0.41295262226E+02  0.00000000000E+00 0. -1.
</event>
<event>
 4    1  0.3586324E+003  0.2053072E+02  0.7546771E-02  0.1526072E+00
          2   -1    0    0  502    0  0.00000000000E+00  0.00000000000E+00  0.11070221169E+02  0.11070221169E+02  0.00000000000E+00 0. -1.
          1   -1    0    0  501    0 -0.00000000000E+00 -0.00000000000E+00 -0.38081392797E+02  0.38081392797E+02  0.00000000000E+00 0. -1.
          2    1    1    2  501    0 -0.15011953724E+02 -0.14005405941E+02 -0.13797037028E+02  0.24735973418E+02  0.00000000000E+00 0. -1.
          1    1    1    2  502    0  0.15011953724E+02  0.14005405941E+02 -0.13214134600E+02  0.24415640549E+02  0.00000000000E+00 0. -1.
</event>
<event>
 4    1  0.3586324E+003  0.2248026E+02  0.7546771E-02  0.1499130E+00
          2   -1    0    0  502    0  0.00000000000E+00  0.00000000000E+00  0.81676506374E+01  0.81676506374E+01  0.00000000000E+00 0.  1.
          1   -1    0    0  501    0 -0.00000000000E+00 -0.00000000000E+00 -0.18325552203E+03  0.18325552203E+03  0.00000000000E+00 0.  1.
          2    1    1    2  501    0  0.22469024111E+02 -0.71057882508E+00 -0.96483261094E+01  0.24463281944E+02  0.00000000000E+00 0.  1.
          1    1    1    2  502    0 -0.22469024111E+02  0.71057882508E+00 -0.16543954529E+03  0.16695989073E+03  0.00000000000E+00 0.  1.
</event>
<event>
 4    1  0.3586324E+003  0.2198648E+02  0.7546771E-02  0.1505633E+00
          2   -1    0    0  502    0  0.00000000000E+00  0.00000000000E+00  0.81640532113E+03  0.81640532113E+03  0.00000000000E+00 0.  1.
          1   -1    0    0  501    0 -0.00000000000E+00 -0.00000000000E+00 -0.24092083274E+03  0.24092083274E+03  0.00000000000E+00 0. -1.
          2    1    1    2  501    0 -0.21978862393E+02 -0.57860177730E+00  0.81575527050E+03  0.81605150972E+03  0.00000000000E+00 0.  1.
          1    1    1    2  502    0  0.21978862393E+02  0.57860177730E+00 -0.24027078211E+03  0.24127464415E+03  0.00000000000E+00 0. -1.
</event>
<event>
 4    1  0.3586324E+003  0.6789141E+02  0.7546771E-02  0.1235146E+00
          2   -1    0    0  502    0  0.00000000000E+00  0.00000000000E+00  0.39186863572E+03  0.39186863572E+03  0.00000000000E+00 0.  1.
          1   -1    0    0  501    0 -0.00000000000E+00 -0.00000000000E+00 -0.21255544435E+03  0.21255544435E+03  0.00000000000E+00 0.  1.
          2    1    1    2  501    0 -0.64037188902E+02 -0.22549554109E+02  0.38338786082E+03  0.38935266248E+03  0.00000000000E+00 0.  1.
          1    1    1    2  502    0  0.64037188902E+02  0.22549554109E+02 -0.20407466945E+03  0.21507141759E+03  0.00000000000E+00 0.  1.
</event>
<event>
 4    1  0.3586324E+003  0.2172085E+02  0.7546771E-02  0.1509217E+00
          2   -1    0    0  502    0  0.00000000000E+00  0.00000000000E+00  0.62070424804E+03  0.62070424804E+03  0.00000000000E+00 0. -1.
          1   -1    0    0  501    0 -0.00000000000E+00 -0.00000000000E+00 -0.49725369983E+02  0.49725369983E+02  0.00000000000E+00 0.  1.
          2    1    1    2  501    0  0.37828044862E+01  0.21388916198E+02  0.61813235234E+03  0.61851386432E+03  0.00000000000E+00 0. -1.
          1    1    1    2  502    0 -0.37828044862E+01 -0.21388916198E+02 -0.47153474281E+02  0.51915753705E+02  0.00000000000E+00 0.  1.
</event>
<event>
 4    1  0.3586324E+003  0.2163878E+02  0.7546771E-02  0.1510337E+00
          2   -1    0    0  502    0  0.00000000000E+00  0.00000000000E+00  0.12183897896E+02  0.12183897896E+02  0.00000000000E+00 0. -1.
          1   -1    0    0  501    0 -0.00000000000E+00 -0.00000000000E+00 -0.42785444481E+02  0.42785444481E+02  0.00000000000E+00 0. -1.
          2    1    1    2  501    0 -0.17139359933E+02 -0.13209061313E+02 -0.65324045187E+01  0.22603302158E+02  0.00000000000E+00 0. -1.
          1    1    1    2  502    0  0.17139359933E+02  0.13209061313E+02 -0.24069142066E+02  0.32366040219E+02  0.00000000000E+00 0. -1.
</event>
<event>
 4    1  0.3586324E+003  0.2278022E+02  0.7546771E-02  0.1495276E+00
          2   -1    0    0  502    0  0.00000000000E+00  0.00000000000E+00  0.19049631597E+03  0.19049631597E+03  0.00000000000E+00 0. -1.
          1   -1    0    0  501    0 -0.00000000000E+00 -0.00000000000E+00 -0.56110265571E+02  0.56110265571E+02  0.00000000000E+00 0.  1.
          2    1    1    2  501    0 -0.88678915987E+01  0.20983305030E+02  0.18746590450E+03  0.18884492035E+03  0.00000000000E+00 0. -1.
          1    1    1    2  502    0  0.88678915987E+01 -0.20983305030E+02 -0.53079854105E+02  0.57761661188E+02  0.00000000000E+00 0.  1.
</event>
<event>
 4    1  0.3586324E+003  0.2180081E+02  0.7546771E-02  0.1508132E+00
          2   -1    0    0  502    0  0.00000000000E+00  0.00000000000E+00  0.73088618323E+01  0.73088618323E+01  0.00000000000E+00 0. -1.
          1   -1    0    0  501    0 -0.00000000000E+00 -0.00000000000E+00 -0.37088349205E+03  0.37088349205E+03  0.00000000000E+00 0. -1.
          2    1    1    2  501    0  0.19464418900E+02 -0.98189376908E+01 -0.10066605149E+02  0.24012739946E+02  0.00000000000E+00 0. -1.
          1    1    1    2  502    0 -0.19464418900E+02  0.98189376908E+01 -0.35350802507E+03  0.35417961394E+03  0.00000000000E+00 0. -1.
</event>
<event>
 4    1  0.3586324E+003  0.6194238E+02  0.7546771E-02  0.1253372E+00
          2   -1    0    0  502    0  0.00000000000E+00  0.00000000000E+00  0.12997843602E+03  0.12997843602E+03  0.00000000000E+00 0.  1.
          1   -1    0    0  501    0 -0.00000000000E+00 -0.00000000000E+00 -0.27249268679E+03  0.27249268679E+03  0.00000000000E+00 0. -1.
          2    1    1    2  501    0 -0.17074525856E+02 -0.59542576962E+02  0.11876613167E+03  0.13394869144E+03  0.00000000000E+00 0.  1.
          1    1    1    2  502    0  0.17074525856E+02  0.59542576962E+02 -0.26128038244E+03  0.26852243138E+03  0.00000000000E+00 0. -1.
</event>
<event>
 4    1  0.3586324E+003  0.2268455E+02  0.7546771E-02  0.1496498E+00
          2   -1    0    0  502    0  0.00000000000E+00  0.00000000000E+00  0.36836874663E+02  0.36836874663E+02  0.00000000000E+00 0. -1.
          1   -1    0    0  501    0 -0.00000000000E+00 -0.00000000000E+00 -0.51572909269E+02  0.51572909269E+02  0.00000000000E+00 0.  1.
          2    1    1    2  501    0 -0.10738328255E+02 -0.19981918201E+02  0.30378227432E+02  0.37913394080E+02  0.00000000000E+00 0. -1.
          1    1    1    2  502    0  0.10738328255E+02  0.19981918201E+02 -0.45114262039E+02  0.50496389851E+02  0.00000000000E+00 0.  1.
</event>
<event>
 4    1  0.3586324E+003  0.2303591E+02  0.7546771E-02  0.1492048E+00
          2   -1    0    0  502    0  0.00000000000E+00  0.00000000000E+00  0.94408038077E+00  0.94408038077E+00  0.00000000000E+00 0.  1.
          1   -1    0    0  501    0 -0.00000000000E+00 -0.00000000000E+00 -0.89189576844E+03  0.89189576844E+03  0.00000000000E+00 0. -1.
          2    1    1    2  501    0 -0.81894292328E+01  0.21531057947E+02 -0.17400756960E+03  0.17552574593E+03  0.00000000000E+00 0.  1.
          1    1    1    2  502    0  0.81894292328E+01 -0.21531057947E+02 -0.71694411845E+03  0.71731410288E+03  0.00000000000E+00 0. -1.
</event>
<event>
 4    1  0.3586324E+003  0.2315499E+02  0.7546771E-02  0.1490561E+00
          2   -1    0    0  502    0  0.00000000000E+00  0.00000000000E+00  0.65469509436E+01  0.65469509436E+01  0.00000000000E+00 0. -1.
          1   -1    0    0  501    0 -0.00000000000E+00 -0.00000000000E+00 -0.92535349733E+02  0.92535349733E+02  0.00000000000E+00 0.  1.
          2    1    1    2  501    0  0.98238870285E+01 -0.20967712416E+02 -0.26193873093E+02  0.34961016974E+02  0.00000000000E+00 0. -1.
          1    1    1    2  502    0 -0.98238870285E+01  0.20967712416E+02 -0.59794525697E+02  0.64121283702E+02  0.00000000000E+00 0.  1.
</event>
<event>
 4    1  0.3586324E+003  0.2137751E+02  0.7546771E-02  0.1513943E+00
          2   -1    0    0  502    0  0.00000000000E+00  0.00000000000E+00  0.12959662373E+04  0.12959662373E+04  0.00000000000E+00 0. -1.
          1   -1    0    0  501    0 -0.00000000000E+00 -0.00000000000E+00 -0.49657551994E+02  0.49657551994E+02  0.00000000000E+00 0. -1.
          2    1    1    2  501    0  0.99417073863E+01 -0.18925128981E+02  0.12935730754E+04  0.12937497051E+04  0.00000000000E+00 0. -1.
          1    1    1    2  502    0 -0.99417073863E+01  0.18925128981E+02 -0.47264390028E+02  0.51874084256E+02  0.00000000000E+00 0. -1.
</event>
<event>
 4    1  0.3586324E+003  0.2750791E+02  0.7546771E-02  0.1442572E+00
          2   -1    0    0  502    0  0.00000000000E+00  0.00000000000E+00  0.49425418624E+01  0.49425418624E+01  0.00000000000E+00 0. -1.
          1   -1    0    0  501    0 -0.00000000000E+00 -0.00000000000E+00 -0.11527043310E+04  0.11527043310E+04  0.00000000000E+00 0. -1.
          2    1    1    2  501    0 -0.24167763898E+02 -0.13137905647E+02 -0.34864479891E+02  0.44409653621E+02  0.00000000000E+00 0. -1.
          1    1    1    2  502    0  0.24167763898E+02  0.13137905647E+02 -0.11128973092E+04  0.11132372192E+04  0.00000000000E+00 0. -1.
</event>
<event>
 4    1  0.3586324E+003  0.3958164E+02  0.7546771E-02  0.1350955E+00
          2   -1    0    0  502    0  0.00000000000E+00  0.00000000000E+00  0.25767282663E+02  0.25767282663E+02  0.00000000000E+00 0.  1.
          1   -1    0    0  501    0 -0.00000000000E+00 -0.00000000000E+00 -0.11680927905E+03  0.11680927905E+03  0.00000000000E+00 0.  1.
          2    1    1    2  501    0  0.31485539435E+02  0.23986805157E+02  0.38419569522E+01  0.39767658322E+02  0.00000000000E+00 0.  1.
          1    1    1    2  502    0 -0.31485539435E+02 -0.23986805157E+02 -0.94883953338E+02  0.10280890339E+03  0.00000000000E+00 0.  1.
</event>
<event>
 4    1  0.3586324E+003  0.2493641E+02  0.7546771E-02  0.1469516E+00
          2   -1    0    0  502    0  0.00000000000E+00  0.00000000000E+00  0.23788530627E+01  0.23788530627E+01  0.00000000000E+00 0. -1.
          1   -1    0    0  501    0 -0.00000000000E+00 -0.00000000000E+00 -0.40779965171E+03  0.40779965171E+03  0.00000000000E+00 0. -1.
          2    1    1    2  501    0  0.24030448412E+02 -0.66604771820E+01 -0.79826678929E+02  0.83630873940E+02  0.00000000000E+00 0. -1.
          1    1    1    2  502    0 -0.24030448412E+02  0.66604771820E+01 -0.32559411972E+03  0.32654763083E+03  0.00000000000E+00 0. -1.
</event>
<event>
 4    1  0.3586324E+003  0.3184784E+02  0.7546771E-02  0.1404190E+00
          2   -1    0    0  502    0  0.00000000000E+00  0.00000000000E+00  0.11987429396E+02  0.11987429396E+02  0.00000000000E+00 0.  1.
          1   -1    0    0  501    0 -0.00000000000E+00 -0.00000000000E+00 -0.45030721033E+03  0.45030721033E+03  0.00000000000E+00 0.  1.
          2    1    1    2  501    0  0.11502744359E+02  0.29698006901E+02 -0.10857702566E+02  0.33647800027E+02  0.00000000000E+00 0.  1.
          1    1    1    2  502    0 -0.11502744359E+02 -0.29698006901E+02 -0.42746207837E+03  0.42864683970E+03  0.00000000000E+00 0.  1.
</event>
<event>
 4    1  0.3586324E+003  0.2193785E+02  0.7546771E-02  0.1506284E+00
          2   -1    0    0  502    0  0.00000000000E+00  0.00000000000E+00  0.32528442815E+03  0.32528442815E+03  0.00000000000E+00 0.  1.
          1   -1    0    0  501    0 -0.00000000000E+00 -0.00000000000E+00 -0.43899559058E+01  0.43899559058E+01  0.00000000000E+00 0.  1.
          2    1    1    2  501    0 -0.80391792214E-02  0.21937848131E+02  0.29466287805E+03  0.29547839337E+03  0.00000000000E+00 0.  1.
          1    1    1    2  502    0  0.80391792214E-02 -0.21937848131E+02  0.26231594188E+02  0.34195990684E+02  0.00000000000E+00 0.  1.
</event>
<event>
 4    1  0.3586324E+003  0.2369337E+02  0.7546771E-02  0.1483970E+00
          2   -1    0    0  502    0  0.00000000000E+00  0.00000000000E+00  0.94567462083E+00  0.94567462083E+00  0.00000000000E+00 0. -1.
          1   -1    0    0  501    0 -0.00000000000E+00 -0.00000000000E+00 -0.12514510574E+04  0.12514510574E+04  0.00000000000E+00 0. -1.
          2    1    1    2  501    0 -0.98054658846E+01  0.21569157065E+02 -0.17124765481E+03  0.17287896048E+03  0.00000000000E+00 0. -1.
          1    1    1    2  502    0  0.98054658846E+01 -0.21569157065E+02 -0.10792577279E+04  0.10795177715E+04  0.00000000000E+00 0. -1.
</event>
<event>
 4    1  0.3586324E+003  0.2123018E+02  0.7546771E-02  0.1516004E+00
          2   -1    0    0  502    0  0.00000000000E+00  0.00000000000E+00  0.12642746872E+01  0.12642746872E+01  0.00000000000E+00 0.  1.
          1   -1    0    0  501    0 -0.00000000000E+00 -0.00000000000E+00 -0.49681527890E+03  0.49681527890E+03  0.00000000000E+00 0.  1.
          2    1    1    2  501    0  0.12425137816E+02 -0.17214424656E+02 -0.11542800792E+03  0.11736415755E+03  0.00000000000E+00 0.  1.
          1    1    1    2  502    0 -0.12425137816E+02  0.17214424656E+02 -0.38012299630E+03  0.38071539604E+03  0.00000000000E+00 0.  1.
</event>
<event>
 4    1  0.3586324E+003  0.3341041E+02  0.7546771E-02  0.1392097E+00
          2   -1    0    0  502    0  0.00000000000E+00  0.00000000000E+00  0.41145677520E+03  0.41145677520E+03  0.00000000000E+00 0.  1.
          1   -1    0    0  501    0 -0.00000000000E+00 -0.00000000000E+00 -0.85044630430E+02  0.85044630430E+02  0.00000000000E+00 0.  1.
          2    1    1    2  501    0  0.80584961107E+01 -0.32424002892E+02  0.40746506859E+03  0.40883252983E+03  0.00000000000E+00 0.  1.
          1    1    1    2  502    0 -0.80584961107E+01  0.32424002892E+02 -0.81052923826E+02  0.87668875798E+02  0.00000000000E+00 0.  1.
</event>
<event>
 4    1  0.3586324E+003  0.4692658E+02  0.7546771E-02  0.1312077E+00
          2   -1    0    0  502    0  0.00000000000E+00  0.00000000000E+00  0.47376391009E+02  0.47376391009E+02  0.00000000000E+00 0.  1.
          1   -1    0    0  501    0 -0.00000000000E+00 -0.00000000000E+00 -0.75142971025E+03  0.75142971025E+03  0.00000000000E+00 0. -1.
          2    1    1    2  501    0  0.31963295203E+02  0.34357698275E+02  0.34826319791E+02  0.58437797881E+02  0.00000000000E+00 0.  1.
          1    1    1    2  502    0 -0.31963295203E+02 -0.34357698275E+02 -0.73887963904E+03  0.74036830338E+03  0.00000000000E+00 0. -1.
</event>
<event>
 4    1  0.3586324E+003  0.2797761E+02  0.7546771E-02  0.1438027E+00
          2   -1    0    0  502    0  0.00000000000E+00  0.00000000000E+00  0.14157174829E+02  0.14157174829E+02  0.00000000000E+00 0. -1.
          1   -1    0    0  501    0 -0.00000000000E+00 -0.00000000000E+00 -0.14503554050E+03  0.14503554050E+03  0.00000000000E+00 0. -1.
          2    1    1    2  501    0 -0.72708631153E+01 -0.27016313612E+02 -0.28263979788E+01  0.28120013818E+02  0.00000000000E+00 0. -1.
          1    1    1    2  502    0  0.72708631153E+01  0.27016313612E+02 -0.12805196769E+03  0.13107270151E+03  0.00000000000E+00 0. -1.
</event>
<event>
 4    1  0.3586324E+003  0.2238370E+02  0.7546771E-02  0.1500385E+00
          2   -1    0    0  502    0  0.00000000000E+00  0.00000000000E+00  0.16214328582E+03  0.16214328582E+03  0.00000000000E+00 0.  1.
          1   -1    0    0  501    0 -0.00000000000E+00 -0.00000000000E+00 -0.81829010758E+01  0.81829010758E+01  0.00000000000E+00 0. -1.
          2    1    1    2  501    0 -0.70118447679E+01 -0.21257098012E+02  0.14416613958E+03  0.14589347478E+03  0.00000000000E+00 0.  1.
          1    1    1    2  502    0  0.70118447679E+01  0.21257098012E+02  0.97942451683E+01  0.24432712117E+02  0.00000000000E+00 0. -1.
</event>
<event>
 4    1  0.3586324E+003  0.2110004E+02  0.7546771E-02  0.1517841E+00
          2   -1    0    0  502    0  0.00000000000E+00  0.00000000000E+00  0.96981657430E+03  0.96981657430E+03  0.00000000000E+00 0. -1.
          1   -1    0    0  501    0 -0.00000000000E+00 -0.00000000000E+00 -0.57519908431E+02  0.57519908431E+02  0.00000000000E+00 0.  1.
          2    1    1    2  501    0  0.93162878262E+01 -0.18931942880E+02  0.96776266806E+03  0.96799266184E+03  0.00000000000E+00 0. -1.
          1    1    1    2  502    0 -0.93162878262E+01  0.18931942880E+02 -0.55466002187E+02  0.59343820898E+02  0.00000000000E+00 0.  1.
</event>
<event>
 4    1  0.3586324E+003  0.2276958E+02  0.7546771E-02  0.1495412E+00
          2   -1    0    0  502    0  0.00000000000E+00  0.00000000000E+00  0.20432988516E+01  0.20432988516E+01  0.00000000000E+00 0.  1.
          1   -1    0    0  501    0 -0.00000000000E+00 -0.00000000000E+00 -0.25395999613E+03  0.25395999613E+03  0.00000000000E+00 0. -1.
          2    1    1    2  501    0  0.11162103390E+02  0.19845920943E+02 -0.12978197456E+03  0.13176423662E+03  0.00000000000E+00 0.  1.
          1    1    1    2  502    0 -0.11162103390E+02 -0.19845920943E+02 -0.12213472271E+03  0.12423905836E+03  0.00000000000E+00 0. -1.
</event>
<event>
 4    1  0.3586324E+003  0.2096466E+02  0.7546771E-02  0.1519770E+00
          2   -1    0    0  502    0  0.00000000000E+00  0.00000000000E+00  0.25360706599E+03  0.25360706599E+03  0.00000000000E+00 0. -1.
          1   -1    0    0  501    0 -0.00000000000E+00 -0.00000000000E+00 -0.11448264081E+02  0.11448264081E+02  0.00000000000E+00 0. -1.
          2    1    1    2  501    0 -0.86830909720E+01 -0.19081953012E+02  0.24316449044E+03  0.24406656143E+03  0.00000000000E+00 0. -1.
          1    1    1    2  502    0  0.86830909720E+01  0.19081953012E+02 -0.10056885289E+01  0.20988768639E+02  0.00000000000E+00 0. -1.
</event>
<event>
 4    1  0.3586324E+003  0.2484553E+02  0.7546771E-02  0.1470539E+00
          2   -1    0    0  502    0  0.00000000000E+00  0.00000000000E+00  0.12363028222E+03  0.12363028222E+03  0.00000000000E+00 0.  1.
          1   -1    0    0  501    0 -0.00000000000E+00 -0.00000000000E+00 -0.15247469980E+02  0.15247469980E+02  0.00000000000E+00 0.  1.
          2    1    1    2  501    0 -0.13298580118E+02  0.20986851021E+02  0.11113671787E+03  0.11388006940E+03  0.00000000000E+00 0.  1.
          1    1    1    2  502    0  0.13298580118E+02 -0.20986851021E+02 -0.27539056290E+01  0.24997682795E+02  0.00000000000E+00 0.  1.
</event>
<event>
 4    1  0.3586324E+003  0.2025949E+02  0.7546771E-02  0.1530105E+00
          2   -1    0    0  502    0  0.00000000000E+00  0.00000000000E+00  0.50653281882E+00  0.50653281882E+00  0.00000000000E+00 0. -1.
          1   -1    0    0  501    0 -0.00000000000E+00 -0.00000000000E+00 -0.13383116489E+04  0.13383116489E+04  0.00000000000E+00 0.  1.
          2    1    1    2  501    0  0.12928971449E+02  0.15597715497E+02 -0.24843557701E+03  0.24926027151E+03  0.00000000000E+00 0. -1.
          1    1    1    2  502    0 -0.12928971449E+02 -0.15597715497E+02 -0.10893695391E+04  0.10895579102E+04  0.00000000000E+00 0.  1.
</event>
<event>
 4    1  0.3586324E+003  0.2648630E+02  0.7546771E-02  0.1452838E+00
          2   -1    0    0  502    0  0.00000000000E+00  0.00000000000E+00  0.49223208500E+03  0.49223208500E+03  0.00000000000E+00 0. -1.
          1   -1    0    0  501    0 -0.00000000000E+00 -0.00000000000E+00 -0.20927578732E+03  0.20927578732E+03  0.00000000000E+00 0.  1.
          2    1    1    2  501    0  0.26164160130E+02 -0.41183656105E+01  0.49103570923E+03  0.49174952155E+03  0.00000000000E+00 0. -1.
          1    1    1    2  502    0 -0.26164160130E+02  0.41183656105E+01 -0.20807941154E+03  0.20975835077E+03  0.00000000000E+00 0.  1.
</event>
<event>
 4    1  0.3586324E+003  0.2566647E+02  0.7546771E-02  0.1461484E+00
          2   -1    0    0  502    0  0.00000000000E+00  0.00000000000E+00  0.14372079577E+03  0.14372079577E+03  0.00000000000E+00 0. -1.
          1   -1    0    0  501    0 -0.00000000000E+00 -0.00000000000E+00 -0.20975368990E+02  0.20975368990E+02  0.00000000000E+00 0.  1.
          2    1    1    2  501    0  0.18365526316E+02 -0.17929732401E+02  0.13416925509E+03  0.13660218472E+03  0.00000000000E+00 0. -1.
          1    1    1    2  502    0 -0.18365526316E+02  0.17929732401E+02 -0.11423828310E+02  0.28093980033E+02  0.00000000000E+00 0.  1.
</event>
<event>
 4    1  0.3586324E+003  0.4698765E+02  0.7546771E-02  0.1311789E+00
          2   -1    0    0  502    0  0.00000000000E+00  0.00000000000E+00  0.43383468665E+02  0.43383468665E+02  0.00000000000E+00 0.  1.
          1   -1    0    0  501    0 -0.00000000000E+00 -0.00000000000E+00 -0.27454889796E+03  0.27454889796E+03  0.00000000000E+00 0.  1.
          2    1    1    2  501    0  0.24206768603E+02 -0.40272463099E+02  0.27895766941E+02  0.54644420973E+02  0.00000000000E+00 0.  1.
          1    1    1    2  502    0 -0.24206768603E+02  0.40272463099E+02 -0.25906119624E+03  0.26328794565E+03  0.00000000000E+00 0.  1.
</event>
<event>
 4    1  0.3586324E+003  0.2217952E+02  0.7546771E-02  0.1503066E+00
          2   -1    0    0  502    0  0.00000000000E+00  0.00000000000E+00  0.62632373557E+03  0.62632373557E+03  0.00000000000E+00 0.  1.
          1   -1    0    0  501    0 -0.00000000000E+00 -0.00000000000E+00 -0.12361204000E+02  0.12361204000E+02  0.00000000000E+00 0. -1.
          2    1    1    2  501    0  0.20907720121E+02  0.74025890587E+01  0.61601179341E+03  0.61641095116E+03  0.00000000000E+00 0.  1.
          1    1    1    2  502    0 -0.20907720121E+02 -0.74025890587E+01 -0.20492618469E+01  0.22273988407E+02  0.00000000000E+00 0. -1.
</event>
<event>
 4    1  0.3586324E+003  0.3232851E+02  0.7546771E-02  0.1400385E+00
          2   -1    0    0  502    0  0.00000000000E+00  0.00000000000E+00  0.21566100596E+02  0.21566100596E+02  0.00000000000E+00 0. -1.
          1   -1    0    0  501    0 -0.00000000000E+00 -0.00000000000E+00 -0.34292232756E+03  0.34292232756E+03  0.00000000000E+00 0. -1.
          2    1    1    2  501    0  0.15642528266E+02 -0.28292115738E+02  0.81984548557E+01  0.33351868995E+02  0.00000000000E+00 0. -1.
          1    1    1    2  502    0 -0.15642528266E+02  0.28292115738E+02 -0.32955468182E+03  0.33113655917E+03  0.00000000000E+00 0. -1.
</event>
<event>
 4    1  0.3586324E+003  0.2802218E+02  0.7546771E-02  0.1437602E+00
          2   -1    0    0  502    0  0.00000000000E+00  0.00000000000E+00  0.43921909008E+02  0.43921909008E+02  0.00000000000E+00 0.  1.
          1   -1    0    0  501    0 -0.00000000000E+00 -0.00000000000E+00 -0.10193293940E+03  0.10193293940E+03  0.00000000000E+00 0. -1.
          2    1    1    2  501    0  0.23793637041E+02  0.14802207278E+02  0.37218396689E+02  0.46588105306E+02  0.00000000000E+00 0.  1.
          1    1    1    2  502    0 -0.23793637041E+02 -0.14802207278E+02 -0.95229427076E+02  0.99266743097E+02  0.00000000000E+00 0. -1.
</event>
<event>
 4    1  0.3586324E+003  0.2018309E+02  0.7546771E-02  0.1531255E+00
          2   -1    0    0  502    0  0.00000000000E+00  0.00000000000E+00  0.43109561936E+03  0.43109561936E+03  0.00000000000E+00 0.  1.
          1   -1    0    0  501    0 -0.00000000000E+00 -0.00000000000E+00 -0.12738479065E+02  0.12738479065E+02  0.00000000000E+00 0. -1.
          2    1    1    2  501    0  0.13176560464E+02 -0.15288404808E+02  0.42270618988E+03  0.42318775978E+03  0.00000000000E+00 0.  1.
          1    1    1    2  502    0 -0.13176560464E+02  0.15288404808E+02 -0.43490495806E+01  0.20646338647E+02  0.00000000000E+00 0. -1.
</event>
<event>
 4    1  0.3586324E+003  0.2615076E+02  0.7546771E-02  0.1456331E+00
          2   -1    0    0  502    0  0.00000000000E+00  0.00000000000E+00  0.23237388751E+03  0.23237388751E+03  0.00000000000E+00 0.  1.
          1   -1    0    0  501    0 -0.00000000000E+00 -0.00000000000E+00 -0.11936607454E+02  0.11936607454E+02  0.00000000000E+00 0.  1.
          2    1    1    2  501    0  0.46497667766E+01 -0.25734058177E+02  0.21625141283E+03  0.21782684782E+03  0.00000000000E+00 0.  1.
          1    1    1    2  502    0 -0.46497667766E+01  0.25734058177E+02  0.41858672237E+01  0.26483647139E+02  0.00000000000E+00 0.  1.
</event>
<event>
 4    1  0.3586324E+003  0.2769866E+02  0.7546771E-02  0.1440713E+00
          2   -1    0    0  502    0  0.00000000000E+00  0.00000000000E+00  0.30941963059E+03  0.30941963059E+03  0.00000000000E+00 0.  1.
          1   -1    0    0  501    0 -0.00000000000E+00 -0.00000000000E+00 -0.17445575460E+02  0.17445575460E+02  0.00000000000E+00 0. -1.
          2    1    1    2  501    0 -0.47803379675E+01 -0.27283038332E+02  0.29736042280E+03  0.29864768015E+03  0.00000000000E+00 0.  1.
          1    1    1    2  502    0  0.47803379675E+01  0.27283038332E+02 -0.53863676629E+01  0.28217525907E+02  0.00000000000E+00 0. -1.
</event>
<event>
 4    1  0.3586324E+003  0.2598115E+02  0.7546771E-02  0.1458120E+00
          2   -1    0    0  502    0  0.00000000000E+00  0.00000000000E+00  0.42137328125E+03  0.42137328125E+03  0.00000000000E+00 0. -1.
          1   -1    0    0  501    0 -0.00000000000E+00 -0.00000000000E+00 -0.16019735458E+01  0.16019735458E+01  0.00000000000E+00 0. -1.
          2    1    1    2  501    0 -0.10597328737E+01 -0.25959513371E+02  0.20909304921E+03  0.21070102657E+03  0.00000000000E+00 0. -1.
          1    1    1    2  502    0  0.10597328737E+01  0.25959513371E+02  0.21067825849E+03  0.21227422823E+03  0.00000000000E+00 0. -1.
</event>
<event>
 4    1  0.3586324E+003  0.4497544E+02  0.7546771E-02  0.1321562E+00
          2   -1    0    0  502    0  0.00000000000E+00  0.00000000000E+00  0.67404671246E+03  0.67404671246E+03  0.00000000000E+00 0.  1.
          1   -1    0    0  501    0 -0.00000000000E+00 -0.00000000000E+00 -0.40512262656E+02  0.40512262656E+02  0.00000000000E+00 0. -1.
          2    1    1    2  501    0  0.14465495203E+02  0.42585670525E+02  0.66055931729E+03  0.66208866592E+03  0.00000000000E+00 0.  1.
          1    1    1    2  502    0 -0.14465495203E+02 -0.42585670525E+02 -0.27024867477E+02  0.52470309202E+02  0.00000000000E+00 0. -1.
</event>
<event>
 4    1  0.3586324E+003  0.2793147E+02  0.7546771E-02  0.1438469E+00
          2   -1    0    0  502    0  0.00000000000E+00  0.00000000000E+00  0.22551135828E+02  0.22551135828E+02  0.00000000000E+00 0.  1.
          1   -1    0    0  501    0 -0.00000000000E+00 -0.00000000000E+00 -0.58089003907E+02  0.58089003907E+02  0.00000000000E+00 0.  1.
          2    1    1    2  501    0  0.10262959233E+02  0.25977655378E+02  0.78728702160E+01  0.29019803524E+02  0.00000000000E+00 0.  1.
          1    1    1    2  502    0 -0.10262959233E+02 -0.25977655378E+02 -0.43410738295E+02  0.51620336211E+02  0.00000000000E+00 0.  1.
</event>
<event>
 4    1  0.3586324E+003  0.2485287E+02  0.7546771E-02  0.1470456E+00
          2   -1    0    0  502    0  0.00000000000E+00  0.00000000000E+00  0.28700343983E+03  0.28700343983E+03  0.00000000000E+00 0.  1.
          1   -1    0    0  501    0 -0.00000000000E+00 -0.00000000000E+00 -0.10700093884E+02  0.10700093884E+02  0.00000000000E+00 0. -1.
          2    1    1    2  501    0 -0.19564982079E+02  0.15325685473E+02  0.27119461921E+03  0.27233102402E+03  0.00000000000E+00 0.  1.
          1    1    1    2  502    0  0.19564982079E+02 -0.15325685473E+02  0.51087267366E+01  0.25372509688E+02  0.00000000000E+00 0. -1.
</event>
<event>
 4    1  0.3586324E+003  0.3335421E+02  0.7546771E-02  0.1392518E+00
          2   -1    0    0  502    0  0.00000000000E+00  0.00000000000E+00  0.10737407375E+04  0.10737407375E+04  0.00000000000E+00 0.  1.
          1   -1    0    0  501    0 -0.00000000000E+00 -0.00000000000E+00 -0.56292563916E+02  0.56292563916E+02  0.00000000000E+00 0. -1.
          2    1    1    2  501    0  0.23050712857E+01  0.33274461545E+02  0.10685168437E+04  0.10690372998E+04  0.00000000000E+00 0.  1.
          1    1    1    2  502    0 -0.23050712857E+01 -0.33274461545E+02 -0.51068670107E+02  0.60996001600E+02  0.00000000000E+00 0. -1.
</event>
<event>
 4    1  0.3586324E+003  0.2807755E+02  0.7546771E-02  0.1437074E+00
          2   -1    0    0  502    0  0.00000000000E+00  0.00000000000E+00  0.14530716942E+03  0.14530716942E+03  0.00000000000E+00 0.  1.
          1   -1    0    0  501    0 -0.00000000000E+00 -0.00000000000E+00 -0.68730903585E+02  0.68730903585E+02  0.00000000000E+00 0.  1.
          2    1    1    2  501    0 -0.28076373917E+02 -0.25749086813E+00  0.14099648338E+03  0.14376493800E+03  0.00000000000E+00 0.  1.
          1    1    1    2  502    0  0.28076373917E+02  0.25749086813E+00 -0.64420217547E+02  0.70273134999E+02  0.00000000000E+00 0.  1.
</event>
<event>
 4    1  0.3586324E+003  0.2090161E+02  0.7546771E-02  0.1520674E+00
          2   -1    0    0  502    0  0.00000000000E+00  0.00000000000E+00  0.85134730897E+03  0.85134730897E+03  0.00000000000E+00 0. -1.
          1   -1    0    0  501    0 -0.00000000000E+00 -0.00000000000E+00 -0.15437125280E+01  0.15437125280E+01  0.00000000000E+00 0.  1.
          2    1    1    2  501    0  0.64961005040E+01  0.19866501156E+02  0.77333172314E+03  0.77361413586E+03  0.00000000000E+00 0. -1.
          1    1    1    2  502    0 -0.64961005040E+01 -0.19866501156E+02  0.76471873305E+02  0.79276885640E+02  0.00000000000E+00 0.  1.
</event>
<event>
 4    1  0.3586324E+003  0.2881572E+02  0.7546771E-02  0.1430175E+00
          2   -1    0    0  502    0  0.00000000000E+00  0.00000000000E+00  0.31114878225E+03  0.31114878225E+03  0.00000000000E+00 0.  1.
          1   -1    0    0  501    0 -0.00000000000E+00 -0.00000000000E+00 -0.61371840079E+02  0.61371840079E+02  0.00000000000E+00 0. -1.
          2    1    1    2  501    0  0.48822588968E+01 -0.28399105758E+02  0.30705417712E+03  0.30840332901E+03  0.00000000000E+00 0.  1.
          1    1    1    2  502    0 -0.48822588968E+01  0.28399105758E+02 -0.57277234944E+02  0.64117293320E+02  0.00000000000E+00 0. -1.
</event>
<event>
 4    1  0.3586324E+003  0.2003029E+02  0.7546771E-02  0.1533573E+00
          2   -1    0    0  502    0  0.00000000000E+00  0.00000000000E+00  0.21426336131E+03  0.21426336131E+03  0.00000000000E+00 0.  1.
          1   -1    0    0  501    0 -0.00000000000E+00 -0.00000000000E+00 -0.14118088958E+04  0.14118088958E+04  0.00000000000E+00 0. -1.
          2    1    1    2  501    0 -0.18453702433E+02  0.77893090914E+01  0.21372400655E+03  0.21466057729E+03  0.00000000000E+00 0.  1.
          1    1    1    2  502    0  0.18453702433E+02 -0.77893090914E+01 -0.14112695410E+04  0.14114116798E+04  0.00000000000E+00 0. -1.
</event>
<event>
 4    1  0.3586324E+003  0.4432149E+02  0.7546771E-02  0.1324867E+00
          2   -1    0    0  502    0  0.00000000000E+00  0.00000000000E+00  0.40112607893E+01  0.40112607893E+01  0.00000000000E+00 0.  1.
          1   -1    0    0  501    0 -0.00000000000E+00 -0.00000000000E+00 -0.49964638750E+03  0.49964638750E+03  0.00000000000E+00 0.  1.
          2    1    1    2  501    0  0.23841005244E+02  0.37363098063E+02 -0.21232235697E+03  0.21689900391E+03  0.00000000000E+00 0.  1.
          1    1    1    2  502    0 -0.23841005244E+02 -0.37363098063E+02 -0.28331276974E+03  0.28675864438E+03  0.00000000000E+00 0.  1.
</event>
<event>
 4    1  0.3586324E+003  0.2189975E+02  0.7546771E-02  0.1506796E+00
          2   -1    0    0  502    0  0.00000000000E+00  0.00000000000E+00  0.76518362827E+01  0.76518362827E+01  0.00000000000E+00 0. -1.
          1   -1    0    0  501    0 -0.00000000000E+00 -0.00000000000E+00 -0.11533208203E+03  0.11533208203E+03  0.00000000000E+00 0. -1.
          2    1    1    2  501    0  0.47340834983E+01 -0.21381947703E+02 -0.12291114161E+02  0.25113158334E+02  0.00000000000E+00 0. -1.
          1    1    1    2  502    0 -0.47340834983E+01  0.21381947703E+02 -0.95389131590E+02  0.97870759983E+02  0.00000000000E+00 0. -1.
</event>
<event>
 4    1  0.3586324E+003  0.2357453E+02  0.7546771E-02  0.1485407E+00
          2   -1    0    0  502    0  0.00000000000E+00  0.00000000000E+00  0.81352749743E+01  0.81352749743E+01  0.00000000000E+00 0. -1.
          1   -1    0    0  501    0 -0.00000000000E+00 -0.00000000000E+00 -0.90100288523E+02  0.90100288523E+02  0.00000000000E+00 0. -1.
          2    1    1    2  501    0  0.12831519423E+01  0.23539582377E+02 -0.16830075435E+02  0.28965666858E+02  0.00000000000E+00 0. -1.
          1    1    1    2  502    0 -0.12831519423E+01 -0.23539582377E+02 -0.65134938113E+02  0.69269896639E+02  0.00000000000E+00 0. -1.
</event>
<event>
 4    1  0.3586324E+003  0.2427100E+02  0.7546771E-02  0.1477126E+00
          2   -1    0    0  502    0  0.00000000000E+00  0.00000000000E+00  0.62128856647E+03  0.62128856647E+03  0.00000000000E+00 0. -1.
          1   -1    0    0  501    0 -0.00000000000E+00 -0.00000000000E+00 -0.23184454589E+01  0.23184454589E+01  0.00000000000E+00 0.  1.
          2    1    1    2  501    0  0.24002798691E+02  0.35981914456E+01  0.54919607240E+03  0.54973212319E+03  0.00000000000E+00 0. -1.
          1    1    1    2  502    0 -0.24002798691E+02 -0.35981914456E+01  0.69774048611E+02  0.73874888740E+02  0.00000000000E+00 0.  1.
</event>
<event>
 4    1  0.3586324E+003  0.2107742E+02  0.7546771E-02  0.1518162E+00
          2   -1    0    0  502    0  0.00000000000E+00  0.00000000000E+00  0.38953753481E+03  0.38953753481E+03  0.00000000000E+00 0.  1.
          1   -1    0    0  501    0 -0.00000000000E+00 -0.00000000000E+00 -0.20738262307E+02  0.20738262307E+02  0.00000000000E+00 0.  1.
          2    1    1    2  501    0 -0.15023871687E+02 -0.14783132233E+02  0.38381712526E+03  0.38439542578E+03  0.00000000000E+00 0.  1.
          1    1    1    2  502    0  0.15023871687E+02  0.14783132233E+02 -0.15017852756E+02  0.25880371336E+02  0.00000000000E+00 0.  1.
</event>
<event>
 4    1  0.3586324E+003  0.3165476E+02  0.7546771E-02  0.1405742E+00
          2   -1    0    0  502    0  0.00000000000E+00  0.00000000000E+00  0.11531456976E+03  0.11531456976E+03  0.00000000000E+00 0. -1.
          1   -1    0    0  501    0 -0.00000000000E+00 -0.00000000000E+00 -0.12627666932E+02  0.12627666932E+02  0.00000000000E+00 0. -1.
          2    1    1    2  501    0 -0.29809683197E+02 -0.10649250732E+02  0.87068308226E+02  0.92644017890E+02  0.00000000000E+00 0. -1.
          1    1    1    2  502    0  0.29809683197E+02  0.10649250732E+02  0.15618594606E+02  0.35298218807E+02  0.00000000000E+00 0. -1.
</event>
<event>
 4    1  0.3586324E+003  0.4707687E+02  0.7546771E-02  0.1311369E+00
          2   -1    0    0  502    0  0.00000000000E+00  0.00000000000E+00  0.79175184641E+03  0.79175184641E+03  0.00000000000E+00 0.  1.
          1   -1    0    0  501    0 -0.00000000000E+00 -0.00000000000E+00 -0.24991827144E+02  0.24991827144E+02  0.00000000000E+00 0. -1.
          2    1    1    2  501    0  0.32338356177E+02 -0.34212026966E+02  0.76820354774E+03  0.76964467310E+03  0.00000000000E+00 0.  1.
          1    1    1    2  502    0 -0.32338356177E+02  0.34212026966E+02 -0.14435284747E+01  0.47099000454E+02  0.00000000000E+00 0. -1.
</event>
<event>
 4    1  0.3586324E+003  0.2915958E+02  0.7546771E-02  0.1427043E+00
          2   -1    0    0  502    0  0.00000000000E+00  0.00000000000E+00  0.80282436851E+03  0.80282436851E+03  0.00000000000E+00 0. -1.
          1   -1    0    0  501    0 -0.00000000000E+00 -0.00000000000E+00 -0.42744350323E+01  0.42744350323E+01  0.00000000000E+00 0. -1.
          2    1    1    2  501    0  0.17863162094E+02 -0.23047526007E+02  0.74927625714E+03  0.74984344401E+03  0.00000000000E+00 0. -1.
          1    1    1    2  502    0 -0.17863162094E+02  0.23047526007E+02  0.49273676339E+02  0.57255359531E+02  0.00000000000E+00 0. -1.
</event>
<event>
 4    1  0.3586324E+003  0.1054166E+03  0.7546771E-02  0.1154739E+00
          2   -1    0    0  502    0  0.00000000000E+00  0.00000000000E+00  0.20751528235E+04  0.20751528235E+04  0.00000000000E+00 0.  1.
          1   -1    0    0  501    0 -0.00000000000E+00 -0.00000000000E+00 -0.12215566744E+02  0.12215566744E+02  0.00000000000E+00 0. -1.
          2    1    1    2  501    0  0.42525690167E+02  0.96458358537E+02  0.18136170134E+04  0.18166781005E+04  0.00000000000E+00 0.  1.
          1    1    1    2  502    0 -0.42525690167E+02 -0.96458358537E+02  0.24932024332E+03  0.27069028978E+03  0.00000000000E+00 0. -1.
</event>
<event>
 4    1  0.3586324E+003  0.6254884E+02  0.7546771E-02  0.1251410E+00
          2   -1    0    0  502    0  0.00000000000E+00  0.00000000000E+00  0.15633236087E+03  0.15633236087E+03  0.00000000000E+00 0.  1.
          1   -1    0    0  501    0 -0.00000000000E+00 -0.00000000000E+00 -0.34434723276E+03  0.34434723276E+03  0.00000000000E+00 0.  1.
          2    1    1    2  501    0  0.70132020932E+01  0.62154421227E+02  0.14706389605E+03  0.15981284868E+03  0.00000000000E+00 0.  1.
          1    1    1    2  502    0 -0.70132020932E+01 -0.62154421227E+02 -0.33507876795E+03  0.34086674495E+03  0.00000000000E+00 0.  1.
</event>
<event>
 4    1  0.3586324E+003  0.2068684E+02  0.7546771E-02  0.1523783E+00
          2   -1    0    0  502    0  0.00000000000E+00  0.00000000000E+00  0.26183446781E+03  0.26183446781E+03  0.00000000000E+00 0. -1.
          1   -1    0    0  501    0 -0.00000000000E+00 -0.00000000000E+00 -0.54668267642E+03  0.54668267642E+03  0.00000000000E+00 0.  1.
          2    1    1    2  501    0  0.11003560609E+02 -0.17517614479E+02  0.26122971179E+03  0.26204752906E+03  0.00000000000E+00 0. -1.
          1    1    1    2  502    0 -0.11003560609E+02  0.17517614479E+02 -0.54607792039E+03  0.54646961517E+03  0.00000000000E+00 0.  1.
</event>
<event>
 4    1  0.3586324E+003  0.3029911E+02  0.7546771E-02  0.1417015E+00
          2   -1    0    0  502    0  0.00000000000E+00  0.00000000000E+00  0.40215504647E+03  0.40215504647E+03  0.00000000000E+00 0.  1.
          1   -1    0    0  501    0 -0.00000000000E+00 -0.00000000000E+00 -0.33141113040E+02  0.33141113040E+02  0.00000000000E+00 0.  1.
          2    1    1    2  501    0 -0.19823828462E+02  0.22914005027E+02  0.39452541745E+03  0.39568717545E+03  0.00000000000E+00 0.  1.
          1    1    1    2  502    0  0.19823828462E+02 -0.22914005027E+02 -0.25511484020E+02  0.39608984059E+02  0.00000000000E+00 0.  1.
</event>
<event>
 4    1  0.3586324E+003  0.2099421E+02  0.7546771E-02  0.1519347E+00
          2   -1    0    0  502    0  0.00000000000E+00  0.00000000000E+00  0.28486194800E+03  0.28486194800E+03  0.00000000000E+00 0.  1.
          1   -1    0    0  501    0 -0.00000000000E+00 -0.00000000000E+00 -0.14715051591E+02  0.14715051591E+02  0.00000000000E+00 0.  1.
          2    1    1    2  501    0  0.10990457689E+02  0.17887617446E+02  0.27676826392E+03  0.27756337822E+03  0.00000000000E+00 0.  1.
          1    1    1    2  502    0 -0.10990457689E+02 -0.17887617446E+02 -0.66213675088E+01  0.22013621369E+02  0.00000000000E+00 0.  1.
</event>
<event>
 4    1  0.3586324E+003  0.2625154E+02  0.7546771E-02  0.1455275E+00
          2   -1    0    0  502    0  0.00000000000E+00  0.00000000000E+00  0.55975337188E+03  0.55975337188E+03  0.00000000000E+00 0. -1.
          1   -1    0    0  501    0 -0.00000000000E+00 -0.00000000000E+00 -0.42794130995E+01  0.42794130995E+01  0.00000000000E+00 0.  1.
          2    1    1    2  501    0  0.24773839919E+02 -0.86833268862E+01  0.51575404485E+03  0.51642170568E+03  0.00000000000E+00 0. -1.
          1    1    1    2  502    0 -0.24773839919E+02  0.86833268862E+01  0.39719913930E+02  0.47611079307E+02  0.00000000000E+00 0.  1.
</event>
<event>
 4    1  0.3586324E+003  0.2576212E+02  0.7546771E-02  0.1460455E+00
          2   -1    0    0  502    0  0.00000000000E+00  0.00000000000E+00  0.65283694671E+03  0.65283694671E+03  0.00000000000E+00 0. -1.
          1   -1    0    0  501    0 -0.00000000000E+00 -0.00000000000E+00 -0.12942922407E+02  0.12942922407E+02  0.00000000000E+00 0.  1.
          2    1    1    2  501    0 -0.24384893594E+02  0.83104720727E+01  0.63949596730E+03  0.64001467106E+03  0.00000000000E+00 0. -1.
          1    1    1    2  502    0  0.24384893594E+02 -0.83104720727E+01  0.39805700657E+00  0.25765198059E+02  0.00000000000E+00 0.  1.
</event>
<event>
 4    1  0.3586324E+003  0.2371010E+02  0.7546771E-02  0.1483769E+00
          2   -1    0    0  502    0  0.00000000000E+00  0.00000000000E+00  0.77268713567E+03  0.77268713567E+03  0.00000000000E+00 0.  1.
          1   -1    0    0  501    0 -0.00000000000E+00 -0.00000000000E+00 -0.15550612589E+02  0.15550612589E+02  0.00000000000E+00 0.  1.
          2    1    1    2  501    0  0.20003817600E+02  0.12728551502E+02  0.76335708545E+03  0.76372521803E+03  0.00000000000E+00 0.  1.
          1    1    1    2  502    0 -0.20003817600E+02 -0.12728551502E+02 -0.62205623742E+01  0.24512530228E+02  0.00000000000E+00 0.  1.
</event>
<event>
 4    1  0.3586324E+003  0.2585272E+02  0.7546771E-02  0.1459486E+00
          2   -1    0    0  502    0  0.00000000000E+00  0.00000000000E+00  0.10388103247E+03  0.10388103247E+03  0.00000000000E+00 0.  1.
          1   -1    0    0  501    0 -0.00000000000E+00 -0.00000000000E+00 -0.77037297606E+01  0.77037297606E+01  0.00000000000E+00 0.  1.
          2    1    1    2  501    0 -0.22398769421E+01 -0.25755506938E+02  0.70739901173E+02  0.75315979741E+02  0.00000000000E+00 0.  1.
          1    1    1    2  502    0  0.22398769421E+01  0.25755506938E+02  0.25437401535E+02  0.36268782489E+02  0.00000000000E+00 0.  1.
</event>
<event>
 4    1  0.3586324E+003  0.2085894E+02  0.7546771E-02  0.1521288E+00
          2   -1    0    0  502    0  0.00000000000E+00  0.00000000000E+00  0.12126315836E+04  0.12126315836E+04  0.00000000000E+00 0.  1.
          1   -1    0    0  501    0 -0.00000000000E+00 -0.00000000000E+00 -0.73896918701E+00  0.73896918701E+00  0.00000000000E+00 0.  1.
          2    1    1    2  501    0  0.18907320260E+02  0.88095680633E+01  0.10410946330E+04  0.10413035725E+04  0.00000000000E+00 0.  1.
          1    1    1    2  502    0 -0.18907320260E+02 -0.88095680633E+01  0.17079798142E+03  0.17206698029E+03  0.00000000000E+00 0.  1.
</event>
<event>
 4    1  0.3586324E+003  0.2888490E+02  0.7546771E-02  0.1429540E+00
          2   -1    0    0  502    0  0.00000000000E+00  0.00000000000E+00  0.10575784247E+04  0.10575784247E+04  0.00000000000E+00 0. -1.
          1   -1    0    0  501    0 -0.00000000000E+00 -0.00000000000E+00 -0.91701253728E+01  0.91701253728E+01  0.00000000000E+00 0.  1.
          2    1    1    2  501    0 -0.18886099009E+02 -0.21855266353E+02  0.10341192238E+04  0.10345225499E+04  0.00000000000E+00 0. -1.
          1    1    1    2  502    0  0.18886099009E+02  0.21855266353E+02  0.14289075559E+02  0.32226000115E+02  0.00000000000E+00 0.  1.
</event>
<event>
 4    1  0.3586324E+003  0.2507441E+02  0.7546771E-02  0.1467973E+00
          2   -1    0    0  502    0  0.00000000000E+00  0.00000000000E+00  0.68112889327E+00  0.68112889327E+00  0.00000000000E+00 0.  1.
          1   -1    0    0  501    0 -0.00000000000E+00 -0.00000000000E+00 -0.14704126077E+04  0.14704126077E+04  0.00000000000E+00 0. -1.
          2    1    1    2  501    0 -0.21688268963E+02  0.12583513105E+02 -0.28609699280E+03  0.28719368917E+03  0.00000000000E+00 0.  1.
          1    1    1    2  502    0  0.21688268963E+02 -0.12583513105E+02 -0.11836344860E+04  0.11839000474E+04  0.00000000000E+00 0. -1.
</event>
<event>
 4    1  0.3586324E+003  0.2133304E+02  0.7546771E-02  0.1514563E+00
          2   -1    0    0  502    0  0.00000000000E+00  0.00000000000E+00  0.10403310688E+04  0.10403310688E+04  0.00000000000E+00 0. -1.
          1   -1    0    0  501    0 -0.00000000000E+00 -0.00000000000E+00 -0.13241656771E+02  0.13241656771E+02  0.00000000000E+00 0.  1.
          2    1    1    2  501    0 -0.21313956450E+02 -0.90218579320E+00  0.10315564482E+04  0.10317770129E+04  0.00000000000E+00 0. -1.
          1    1    1    2  502    0  0.21313956450E+02  0.90218579320E+00 -0.44670361082E+01  0.21795712660E+02  0.00000000000E+00 0.  1.
</event>
<event>
 4    1  0.3586324E+003  0.2418723E+02  0.7546771E-02  0.1478105E+00
          2   -1    0    0  502    0  0.00000000000E+00  0.00000000000E+00  0.93845459330E+03  0.93845459330E+03  0.00000000000E+00 0. -1.
          1   -1    0    0  501    0 -0.00000000000E+00 -0.00000000000E+00 -0.14871664500E+03  0.14871664500E+03  0.00000000000E+00 0. -1.
          2    1    1    2  501    0 -0.97681730543E+01  0.22127021899E+02  0.93731409832E+03  0.93762612017E+03  0.00000000000E+00 0. -1.
          1    1    1    2  502    0  0.97681730543E+01 -0.22127021899E+02 -0.14757615002E+03  0.14954511813E+03  0.00000000000E+00 0. -1.
</event>
<event>
 4    1  0.3586324E+003  0.4111250E+02  0.7546771E-02  0.1342087E+00
          2   -1    0    0  502    0  0.00000000000E+00  0.00000000000E+00  0.24388319747E+02  0.24388319747E+02  0.00000000000E+00 0. -1.
          1   -1    0    0  501    0 -0.00000000000E+00 -0.00000000000E+00 -0.69607348168E+02  0.69607348168E+02  0.00000000000E+00 0. -1.
          2    1    1    2  501    0 -0.19504776921E+02 -0.36191158967E+02 -0.25706161481E+02  0.48487555602E+02  0.00000000000E+00 0. -1.
          1    1    1    2  502    0  0.19504776921E+02  0.36191158967E+02 -0.19512866940E+02  0.45508112314E+02  0.00000000000E+00 0. -1.
</event>
<event>
 4    1  0.3586324E+003  0.2798700E+02  0.7546771E-02  0.1437938E+00
          2   -1    0    0  502    0  0.00000000000E+00  0.00000000000E+00  0.32256918141E+02  0.32256918141E+02  0.00000000000E+00 0.  1.
          1   -1    0    0  501    0 -0.00000000000E+00 -0.00000000000E+00 -0.71791289613E+02  0.71791289613E+02  0.00000000000E+00 0. -1.
          2    1    1    2  501    0 -0.36676799146E-01 -0.27986976995E+02  0.22553882271E+02  0.35943703649E+02  0.00000000000E+00 0.  1.
          1    1    1    2  502    0  0.36676799146E-01  0.27986976995E+02 -0.62088253744E+02  0.68104504105E+02  0.00000000000E+00 0. -1.
</event>
<event>
 4    1  0.3586324E+003  0.3585409E+02  0.7546771E-02  0.1374656E+00
          2   -1    0    0  502    0  0.00000000000E+00  0.00000000000E+00  0.63856703239E+03  0.63856703239E+03  0.00000000000E+00 0.  1.
          1   -1    0    0  501    0 -0.00000000000E+00 -0.00000000000E+00 -0.59214460026E+03  0.59214460026E+03  0.00000000000E+00 0. -1.
          2    1    1    2  501    0  0.19761168998E+02  0.29916745234E+02  0.63752012338E+03  0.63852754299E+03  0.00000000000E+00 0.  1.
          1    1    1    2  502    0 -0.19761168998E+02 -0.29916745234E+02 -0.59109769125E+03  0.59218408966E+03  0.00000000000E+00 0. -1.
</event>
<event>
 4    1  0.3586324E+003  0.2031725E+02  0.7546771E-02  0.1529240E+00
          2   -1    0    0  502    0  0.00000000000E+00  0.00000000000E+00  0.12620483194E+03  0.12620483194E+03  0.00000000000E+00 0. -1.
          1   -1    0    0  501    0 -0.00000000000E+00 -0.00000000000E+00 -0.73171314739E+02  0.73171314739E+02  0.00000000000E+00 0.  1.
          2    1    1    2  501    0  0.20190110515E+02 -0.22693475319E+01  0.12395130478E+03  0.12560539980E+03  0.00000000000E+00 0. -1.
          1    1    1    2  502    0 -0.20190110515E+02  0.22693475319E+01 -0.70917787579E+02  0.73770746885E+02  0.00000000000E+00 0.  1.
</event>
<event>
 4    1  0.3586324E+003  0.2115578E+02  0.7546771E-02  0.1517052E+00
          2   -1    0    0  502    0  0.00000000000E+00  0.00000000000E+00  0.16484277545E+04  0.16484277545E+04  0.00000000000E+00 0.  1.
          1   -1    0    0  501    0 -0.00000000000E+00 -0.00000000000E+00 -0.56084253372E+00  0.56084253372E+00  0.00000000000E+00 0. -1.
          2    1    1    2  501    0  0.20555799368E+02 -0.50025957232E+01  0.14161285489E+04  0.14162865649E+04  0.00000000000E+00 0.  1.
          1    1    1    2  502    0 -0.20555799368E+02  0.50025957232E+01  0.23173836309E+03  0.23270203218E+03  0.00000000000E+00 0. -1.
</event>
<event>
 4    1  0.3586324E+003  0.4291536E+02  0.7546771E-02  0.1332200E+00
          2   -1    0    0  502    0  0.00000000000E+00  0.00000000000E+00  0.28815274717E+04  0.28815274717E+04  0.00000000000E+00 0. -1.
          1   -1    0    0  501    0 -0.00000000000E+00 -0.00000000000E+00 -0.68848995222E+02  0.68848995222E+02  0.00000000000E+00 0. -1.
          2    1    1    2  501    0 -0.10543850809E+02 -0.41599947995E+02  0.28746641536E+04  0.28749844738E+04  0.00000000000E+00 0. -1.
          1    1    1    2  502    0  0.10543850809E+02  0.41599947995E+02 -0.61985677119E+02  0.75391993149E+02  0.00000000000E+00 0. -1.
</event>
<event>
 4    1  0.3586324E+003  0.2328139E+02  0.7546771E-02  0.1488995E+00
          2   -1    0    0  502    0  0.00000000000E+00  0.00000000000E+00  0.69202936531E+03  0.69202936531E+03  0.00000000000E+00 0. -1.
          1   -1    0    0  501    0 -0.00000000000E+00 -0.00000000000E+00 -0.16502381710E+02  0.16502381710E+02  0.00000000000E+00 0. -1.
          2    1    1    2  501    0  0.23249509921E+02  0.12180231840E+01  0.68352007258E+03  0.68391645170E+03  0.00000000000E+00 0. -1.
          1    1    1    2  502    0 -0.23249509921E+02 -0.12180231840E+01 -0.79930889809E+01  0.24615295316E+02  0.00000000000E+00 0. -1.
</event>
<event>
 4    1  0.3586324E+003  0.2042408E+02  0.7546771E-02  0.1527649E+00
          2   -1    0    0  502    0  0.00000000000E+00  0.00000000000E+00  0.10854135215E+03  0.10854135215E+03  0.00000000000E+00 0. -1.
          1   -1    0    0  501    0 -0.00000000000E+00 -0.00000000000E+00 -0.17897873699E+02  0.17897873699E+02  0.00000000000E+00 0.  1.
          2    1    1    2  501    0  0.19353140247E+02 -0.65267762385E+01  0.10134417189E+03  0.10338173931E+03  0.00000000000E+00 0. -1.
          1    1    1    2  502    0 -0.19353140247E+02  0.65267762385E+01 -0.10700693442E+02  0.23057486541E+02  0.00000000000E+00 0.  1.
</event>
<event>
 4    1  0.3586324E+003  0.2242476E+02  0.7546771E-02  0.1499851E+00
          2   -1    0    0  502    0  0.00000000000E+00  0.00000000000E+00  0.16132045734E+04  0.16132045734E+04  0.00000000000E+00 0. -1.
          1   -1    0    0  501    0 -0.00000000000E+00 -0.00000000000E+00 -0.20097282296E+02  0.20097282296E+02  0.00000000000E+00 0.  1.
          2    1    1    2  501    0  0.22354410841E+02 -0.17748732439E+01  0.16068464462E+04  0.16070029158E+04  0.00000000000E+00 0. -1.
          1    1    1    2  502    0 -0.22354410841E+02  0.17748732439E+01 -0.13739155041E+02  0.26298939909E+02  0.00000000000E+00 0.  1.
</event>
<event>
 4    1  0.3586324E+003  0.2405852E+02  0.7546771E-02  0.1479617E+00
          2   -1    0    0  502    0  0.00000000000E+00  0.00000000000E+00  0.70360938664E+01  0.70360938664E+01  0.00000000000E+00 0.  1.
          1   -1    0    0  501    0 -0.00000000000E+00 -0.00000000000E+00 -0.18379899547E+03  0.18379899547E+03  0.00000000000E+00 0.  1.
          2    1    1    2  501    0 -0.24058515580E+02  0.54013762292E-02 -0.17461883971E+02  0.29727589760E+02  0.00000000000E+00 0.  1.
          1    1    1    2  502    0  0.24058515580E+02 -0.54013762292E-02 -0.15930101764E+03  0.16110749958E+03  0.00000000000E+00 0.  1.
</event>
<event>
 4    1  0.3586324E+003  0.3252046E+02  0.7546771E-02  0.1398887E+00
          2   -1    0    0  502    0  0.00000000000E+00  0.00000000000E+00  0.63504741398E+01  0.63504741398E+01  0.00000000000E+00 0.  1.
          1   -1    0    0  501    0 -0.00000000000E+00 -0.00000000000E+00 -0.23167174462E+03  0.23167174462E+03  0.00000000000E+00 0.  1.
          2    1    1    2  501    0  0.19182497291E+02 -0.26260466767E+02 -0.49555916092E+02  0.59273679967E+02  0.00000000000E+00 0.  1.
          1    1    1    2  502    0 -0.19182497291E+02  0.26260466767E+02 -0.17576535439E+03  0.17874853879E+03  0.00000000000E+00 0.  1.
</event>
<event>
 4    1  0.3586324E+003  0.2261589E+02  0.7546771E-02  0.1497379E+00
          2   -1    0    0  502    0  0.00000000000E+00  0.00000000000E+00  0.17570988168E+04  0.17570988168E+04  0.00000000000E+00 0.  1.
          1   -1    0    0  501    0 -0.00000000000E+00 -0.00000000000E+00 -0.33772713131E+00  0.33772713131E+00  0.00000000000E+00 0. -1.
          2    1    1    2  501    0 -0.25321643955E+01 -0.22473685640E+02  0.12049087112E+04  0.12051209403E+04  0.00000000000E+00 0.  1.
          1    1    1    2  502    0  0.25321643955E+01  0.22473685640E+02  0.55185237852E+03  0.55231560369E+03  0.00000000000E+00 0. -1.
</event>
<event>
 4    1  0.3586324E+003  0.2091580E+02  0.7546771E-02  0.1520470E+00
          2   -1    0    0  502    0  0.00000000000E+00  0.00000000000E+00  0.66716579883E+01  0.66716579883E+01  0.00000000000E+00 0.  1.
          1   -1    0    0  501    0 -0.00000000000E+00 -0.00000000000E+00 -0.14135347014E+04  0.14135347014E+04  0.00000000000E+00 0. -1.
          2    1    1    2  501    0 -0.91697433244E+00 -0.20895688123E+02 -0.99941586276E+01  0.23180893657E+02  0.00000000000E+00 0.  1.
          1    1    1    2  502    0  0.91697433244E+00  0.20895688123E+02 -0.13968688848E+04  0.13970254657E+04  0.00000000000E+00 0. -1.
</event>
<event>
 4    1  0.3586324E+003  0.2252587E+02  0.7546771E-02  0.1498539E+00
          2   -1    0    0  502    0  0.00000000000E+00  0.00000000000E+00  0.57619769141E+02  0.57619769141E+02  0.00000000000E+00 0.  1.
          1   -1    0    0  501    0 -0.00000000000E+00 -0.00000000000E+00 -0.88548459155E+01  0.88548459155E+01  0.00000000000E+00 0.  1.
          2    1    1    2  501    0 -0.10680351457E+02  0.19832921370E+02  0.26844471659E+02  0.35043406454E+02  0.00000000000E+00 0.  1.
          1    1    1    2  502    0  0.10680351457E+02 -0.19832921370E+02  0.21920451567E+02  0.31431208602E+02  0.00000000000E+00 0.  1.
</event>
<event>
 4    1  0.3586324E+003  0.2550692E+02  0.7546771E-02  0.1463212E+00
          2   -1    0    0  502    0  0.00000000000E+00  0.00000000000E+00  0.10383441619E+02  0.10383441619E+02  0.00000000000E+00 0. -1.
          1   -1    0    0  501    0 -0.00000000000E+00 -0.00000000000E+00 -0.64667947063E+02  0.64667947063E+02  0.00000000000E+00 0.  1.
          2    1    1    2  501    0 -0.74057898822E+01 -0.24408141287E+02 -0.20526129877E+02  0.32740267143E+02  0.00000000000E+00 0. -1.
          1    1    1    2  502    0  0.74057898822E+01  0.24408141287E+02 -0.33758375568E+02  0.42311121538E+02  0.00000000000E+00 0.  1.
</event>
<event>
 4    1  0.3586324E+003  0.2161256E+02  0.7546771E-02  0.1510696E+00
          2   -1    0    0  502    0  0.00000000000E+00  0.00000000000E+00  0.27716233393E+03  0.27716233393E+03  0.00000000000E+00 0. -1.
          1   -1    0    0  501    0 -0.00000000000E+00 -0.00000000000E+00 -0.55968418541E+03  0.55968418541E+03  0.00000000000E+00 0.  1.
          2    1    1    2  501    0 -0.17569849050E+02  0.12585823215E+02  0.27653188761E+03  0.27737517446E+03  0.00000000000E+00 0. -1.
          1    1    1    2  502    0  0.17569849050E+02 -0.12585823215E+02 -0.55905373909E+03  0.55947134487E+03  0.00000000000E+00 0.  1.
</event>
<event>
 4    1  0.3586324E+003  0.1077622E+03  0.7546771E-02  0.1150997E+00
          2   -1    0    0  502    0  0.00000000000E+00  0.00000000000E+00  0.77611625009E+02  0.77611625009E+02  0.00000000000E+00 0. -1.
          1   -1    0    0  501    0 -0.00000000000E+00 -0.00000000000E+00 -0.39244182260E+03  0.39244182260E+03  0.00000000000E+00 0. -1.
          2    1    1    2  501    0  0.49084871977E+02 -0.95934164039E+02  0.27455745617E+02  0.11120479510E+03  0.00000000000E+00 0. -1.
          1    1    1    2  502    0 -0.49084871977E+02  0.95934164039E+02 -0.34228594321E+03  0.35884865251E+03  0.00000000000E+00 0. -1.
</event>
<event>
 4    1  0.3586324E+003  0.3096480E+02  0.7546771E-02  0.1411393E+00
          2   -1    0    0  502    0  0.00000000000E+00  0.00000000000E+00  0.70218545931E+03  0.70218545931E+03  0.00000000000E+00 0.  1.
          1   -1    0    0  501    0 -0.00000000000E+00 -0.00000000000E+00 -0.74510981013E+01  0.74510981013E+01  0.00000000000E+00 0.  1.
          2    1    1    2  501    0  0.57583771024E+01 -0.30424657994E+02  0.66802974897E+03  0.66874701063E+03  0.00000000000E+00 0.  1.
          1    1    1    2  502    0 -0.57583771024E+01  0.30424657994E+02  0.26704612237E+02  0.40889546777E+02  0.00000000000E+00 0.  1.
</event>
<event>
 4    1  0.3586324E+003  0.2007245E+02  0.7546771E-02  0.1532931E+00
          2   -1    0    0  502    0  0.00000000000E+00  0.00000000000E+00  0.27347433265E+01  0.27347433265E+01  0.00000000000E+00 0. -1.
          1   -1    0    0  501    0 -0.00000000000E+00 -0.00000000000E+00 -0.33732764831E+03  0.33732764831E+03  0.00000000000E+00 0. -1.
          2    1    1    2  501    0 -0.13311048549E+02  0.15023952255E+02 -0.39687982290E+02  0.44475151412E+02  0.00000000000E+00 0. -1.
          1    1    1    2  502    0  0.13311048549E+02 -0.15023952255E+02 -0.29490492269E+03  0.29558724023E+03  0.00000000000E+00 0. -1.
</event>
<event>
 4    1  0.3586324E+003  0.2926437E+02  0.7546771E-02  0.1426099E+00
          2   -1    0    0  502    0  0.00000000000E+00  0.00000000000E+00  0.93245904312E+03  0.93245904312E+03  0.00000000000E+00 0.  1.
          1   -1    0    0  501    0 -0.00000000000E+00 -0.00000000000E+00 -0.72630936326E+01  0.72630936326E+01  0.00000000000E+00 0.  1.
          2    1    1    2  501    0  0.98750857381E+01  0.27547882497E+02  0.90174785219E+03  0.90222258455E+03  0.00000000000E+00 0.  1.
          1    1    1    2  502    0 -0.98750857381E+01 -0.27547882497E+02  0.23448097302E+02  0.37499552204E+02  0.00000000000E+00 0.  1.
</event>
<event>
 4    1  0.3586324E+003  0.3083932E+02  0.7546771E-02  0.1412440E+00
          2   -1    0    0  502    0  0.00000000000E+00  0.00000000000E+00  0.23777065039E+01  0.23777065039E+01  0.00000000000E+00 0. -1.
          1   -1    0    0  501    0 -0.00000000000E+00 -0.00000000000E+00 -0.21593491202E+04  0.21593491202E+04  0.00000000000E+00 0. -1.
          2    1    1    2  501    0  0.16122552705E+02  0.26289288587E+02 -0.10285290076E+03  0.10737682523E+03  0.00000000000E+00 0. -1.
          1    1    1    2  502    0 -0.16122552705E+02 -0.26289288587E+02 -0.20541185129E+04  0.20543500015E+04  0.00000000000E+00 0. -1.
</event>
<event>
 4    1  0.3586324E+003  0.2298449E+02  0.7546771E-02  0.1492693E+00
          2   -1    0    0  502    0  0.00000000000E+00  0.00000000000E+00  0.35393549201E+03  0.35393549201E+03  0.00000000000E+00 0. -1.
          1   -1    0    0  501    0 -0.00000000000E+00 -0.00000000000E+00 -0.16341843624E+01  0.16341843624E+01  0.00000000000E+00 0.  1.
          2    1    1    2  501    0 -0.85804434701E+01  0.21322824095E+02  0.22847936569E+03  0.22963254861E+03  0.00000000000E+00 0. -1.
          1    1    1    2  502    0  0.85804434701E+01 -0.21322824095E+02  0.12382194196E+03  0.12593712776E+03  0.00000000000E+00 0.  1.
</event>
<event>
 4    1  0.3586324E+003  0.4472566E+02  0.7546771E-02  0.1322817E+00
          2   -1    0    0  502    0  0.00000000000E+00  0.00000000000E+00  0.65035793845E+02  0.65035793845E+02  0.00000000000E+00 0. -1.
          1   -1    0    0  501    0 -0.00000000000E+00 -0.00000000000E+00 -0.23434435384E+03  0.23434435384E+03  0.00000000000E+00 0.  1.
          2    1    1    2  501    0  0.43041813368E+02  0.12156769446E+02  0.54866810296E+02  0.70786662681E+02  0.00000000000E+00 0. -1.
          1    1    1    2  502    0 -0.43041813368E+02 -0.12156769446E+02 -0.22417537030E+03  0.22859348501E+03  0.00000000000E+00 0.  1.
</event>
<event>
 4    1  0.3586324E+003  0.2476806E+02  0.7546771E-02  0.1471415E+00
          2   -1    0    0  502    0  0.00000000000E+00  0.00000000000E+00  0.96668989480E+03  0.96668989480E+03  0.00000000000E+00 0. -1.
          1   -1    0    0  501    0 -0.00000000000E+00 -0.00000000000E+00 -0.21259271708E+01  0.21259271708E+01  0.00000000000E+00 0.  1.
          2    1    1    2  501    0 -0.23455376772E+02 -0.79562581979E+01  0.88799991607E+03  0.88834526379E+03  0.00000000000E+00 0. -1.
          1    1    1    2  502    0  0.23455376772E+02  0.79562581979E+01  0.76564051556E+02  0.80470558185E+02  0.00000000000E+00 0.  1.
</event>
<event>
 4    1  0.3586324E+003  0.2253581E+02  0.7546771E-02  0.1498411E+00
          2   -1    0    0  502    0  0.00000000000E+00  0.00000000000E+00  0.51009875147E+03  0.51009875147E+03  0.00000000000E+00 0. -1.
          1   -1    0    0  501    0 -0.00000000000E+00 -0.00000000000E+00 -0.10021964041E+01  0.10021964041E+01  0.00000000000E+00 0. -1.
          2    1    1    2  501    0 -0.89239295605E+01  0.20693627180E+02  0.27525496505E+03  0.27617595570E+03  0.00000000000E+00 0. -1.
          1    1    1    2  502    0  0.89239295605E+01 -0.20693627180E+02  0.23384159002E+03  0.23492499217E+03  0.00000000000E+00 0. -1.
</event>
<event>
 4    1  0.3586324E+003  0.2207541E+02  0.7546771E-02  0.1504446E+00
          2   -1    0    0  502    0  0.00000000000E+00  0.00000000000E+00  0.44646879664E+02  0.44646879664E+02  0.00000000000E+00 0. -1.
          1   -1    0    0  501    0 -0.00000000000E+00 -0.00000000000E+00 -0.89387237405E+03  0.89387237405E+03  0.00000000000E+00 0.  1.
          2    1    1    2  501    0 -0.39099098049E+01 -0.21726396320E+02  0.41773017082E+02  0.47247313658E+02  0.00000000000E+00 0. -1.
          1    1    1    2  502    0  0.39099098049E+01  0.21726396320E+02 -0.89099851147E+03  0.89127194006E+03  0.00000000000E+00 0.  1.
</event>
<event>
 4    1  0.3586324E+003  0.2781529E+02  0.7546771E-02  0.1439586E+00
          2   -1    0    0  502    0  0.00000000000E+00  0.00000000000E+00  0.59014563702E+03  0.59014563702E+03  0.00000000000E+00 0. -1.
          1   -1    0    0  501    0 -0.00000000000E+00 -0.00000000000E+00 -0.23354228719E+03  0.23354228719E+03  0.00000000000E+00 0. -1.
          2    1    1    2  501    0  0.23805551917E+02  0.14387011233E+02  0.58898804384E+03  0.58964447439E+03  0.00000000000E+00 0. -1.
          1    1    1    2  502    0 -0.23805551917E+02 -0.14387011233E+02 -0.23238469400E+03  0.23404344982E+03  0.00000000000E+00 0. -1.
</event>
<event>
 4    1  0.3586324E+003  0.4628439E+02  0.7546771E-02  0.1315139E+00
          2   -1    0    0  502    0  0.00000000000E+00  0.00000000000E+00  0.23650159957E+04  0.23650159957E+04  0.00000000000E+00 0.  1.
          1   -1    0    0  501    0 -0.00000000000E+00 -0.00000000000E+00 -0.62619606064E+03  0.62619606064E+03  0.00000000000E+00 0. -1.
          2    1    1    2  501    0 -0.42347990068E+02 -0.18678664988E+02  0.23639338916E+04  0.23643869583E+04  0.00000000000E+00 0.  1.
          1    1    1    2  502    0  0.42347990068E+02  0.18678664988E+02 -0.62511395657E+03  0.62682509800E+03  0.00000000000E+00 0. -1.
</event>
<event>
 4    1  0.3586324E+003  0.2806292E+02  0.7546771E-02  0.1437213E+00
          2   -1    0    0  502    0  0.00000000000E+00  0.00000000000E+00  0.95274010367E+01  0.95274010367E+01  0.00000000000E+00 0.  1.
          1   -1    0    0  501    0 -0.00000000000E+00 -0.00000000000E+00 -0.11885371060E+03  0.11885371060E+03  0.00000000000E+00 0. -1.
          2    1    1    2  501    0  0.27705759819E+02  0.44630098858E+01 -0.19240103396E+02  0.34025125467E+02  0.00000000000E+00 0.  1.
          1    1    1    2  502    0 -0.27705759819E+02 -0.44630098858E+01 -0.90086206171E+02  0.94355986173E+02  0.00000000000E+00 0. -1.
</event>
<event>
 4    1  0.3586324E+003  0.2100678E+02  0.7546771E-02  0.1519168E+00
          2   -1    0    0  502    0  0.00000000000E+00  0.00000000000E+00  0.16125516044E+01  0.16125516044E+01  0.00000000000E+00 0. -1.
          1   -1    0    0  501    0 -0.00000000000E+00 -0.00000000000E+00 -0.27514137705E+03  0.27514137705E+03  0.00000000000E+00 0. -1.
          2    1    1    2  501    0 -0.20803084888E+02  0.29183189852E+01 -0.12659821759E+03  0.12832923916E+03  0.00000000000E+00 0. -1.
          1    1    1    2  502    0  0.20803084888E+02 -0.29183189852E+01 -0.14693060786E+03  0.14842468950E+03  0.00000000000E+00 0. -1.
</event>
<event>
 4    1  0.3586324E+003  0.2026342E+02  0.7546771E-02  0.1530046E+00
          2   -1    0    0  502    0  0.00000000000E+00  0.00000000000E+00  0.22508845354E+02  0.22508845354E+02  0.00000000000E+00 0.  1.
          1   -1    0    0  501    0 -0.00000000000E+00 -0.00000000000E+00 -0.41881092744E+02  0.41881092744E+02  0.00000000000E+00 0.  1.
          2    1    1    2  501    0 -0.20098342556E+02 -0.25812062328E+01  0.14501575443E+02  0.24917898977E+02  0.00000000000E+00 0.  1.
          1    1    1    2  502    0  0.20098342556E+02  0.25812062328E+01 -0.33873822832E+02  0.39472039121E+02  0.00000000000E+00 0.  1.
</event>
<event>
 4    1  0.3586324E+003  0.6713114E+02  0.7546771E-02  0.1237356E+00
          2   -1    0    0  502    0  0.00000000000E+00  0.00000000000E+00  0.16263636056E+04  0.16263636056E+04  0.00000000000E+00 0. -1.
          1   -1    0    0  501    0 -0.00000000000E+00 -0.00000000000E+00 -0.36822576195E+02  0.36822576195E+02  0.00000000000E+00 0.  1.
          2    1    1    2  501    0 -0.20098183661E+02 -0.64051956690E+02  0.15944623208E+04  0.15958748956E+04  0.00000000000E+00 0. -1.
          1    1    1    2  502    0  0.20098183661E+02  0.64051956690E+02 -0.49212913271E+01  0.67311286205E+02  0.00000000000E+00 0.  1.
</event>
<event>
 4    1  0.3586324E+003  0.2670219E+02  0.7546771E-02  0.1450623E+00
          2   -1    0    0  502    0  0.00000000000E+00  0.00000000000E+00  0.11025430312E+03  0.11025430312E+03  0.00000000000E+00 0.  1.
          1   -1    0    0  501    0 -0.00000000000E+00 -0.00000000000E+00 -0.44235236393E+03  0.44235236393E+03  0.00000000000E+00 0. -1.
          2    1    1    2  501    0  0.33471292147E+01  0.26491581023E+02  0.10822717050E+03  0.11147254179E+03  0.00000000000E+00 0.  1.
          1    1    1    2  502    0 -0.33471292147E+01 -0.26491581023E+02 -0.44032523131E+03  0.44113412526E+03  0.00000000000E+00 0. -1.
</event>
<event>
 4    1  0.3586324E+003  0.2839649E+02  0.7546771E-02  0.1434063E+00
          2   -1    0    0  502    0  0.00000000000E+00  0.00000000000E+00  0.17314515505E+02  0.17314515505E+02  0.00000000000E+00 0.  1.
          1   -1    0    0  501    0 -0.00000000000E+00 -0.00000000000E+00 -0.36489409426E+03  0.36489409426E+03  0.00000000000E+00 0. -1.
          2    1    1    2  501    0  0.22168608297E+02  0.17745793537E+02  0.47030866465E+01  0.28783318191E+02  0.00000000000E+00 0.  1.
          1    1    1    2  502    0 -0.22168608297E+02 -0.17745793537E+02 -0.35228266541E+03  0.35342529158E+03  0.00000000000E+00 0. -1.
</event>
<event>
 4    1  0.3586324E+003  0.2179384E+02  0.7546771E-02  0.1508226E+00
          2   -1    0    0  502    0  0.00000000000E+00  0.00000000000E+00  0.13286362694E+04  0.13286362694E+04  0.00000000000E+00 0.  1.
          1   -1    0    0  501    0 -0.00000000000E+00 -0.00000000000E+00 -0.63224848467E+00  0.63224848467E+00  0.00000000000E+00 0. -1.
          2    1    1    2  501    0  0.21157953753E+02  0.52261205715E+01  0.11021452031E+04  0.11023606579E+04  0.00000000000E+00 0.  1.
          1    1    1    2  502    0 -0.21157953753E+02 -0.52261205715E+01  0.22585881781E+03  0.22690785999E+03  0.00000000000E+00 0. -1.
</event>
<event>
 4    1  0.3586324E+003  0.3116939E+02  0.7546771E-02  0.1409699E+00
          2   -1    0    0  502    0  0.00000000000E+00  0.00000000000E+00  0.77519921305E+02  0.77519921305E+02  0.00000000000E+00 0. -1.
          1   -1    0    0  501    0 -0.00000000000E+00 -0.00000000000E+00 -0.67342237453E+02  0.67342237453E+02  0.00000000000E+00 0. -1.
          2    1    1    2  501    0  0.30551457648E+02  0.61756834135E+01  0.70433399645E+02  0.77022038506E+02  0.00000000000E+00 0. -1.
          1    1    1    2  502    0 -0.30551457648E+02 -0.61756834135E+01 -0.60255715793E+02  0.67840120252E+02  0.00000000000E+00 0. -1.
</event>
<event>
 4    1  0.3586324E+003  0.6958960E+02  0.7546771E-02  0.1230326E+00
          2   -1    0    0  502    0  0.00000000000E+00  0.00000000000E+00  0.16436801196E+02  0.16436801196E+02  0.00000000000E+00 0.  1.
          1   -1    0    0  501    0 -0.00000000000E+00 -0.00000000000E+00 -0.48492278273E+03  0.48492278273E+03  0.00000000000E+00 0.  1.
          2    1    1    2  501    0 -0.29555247637E+02  0.63001588372E+02 -0.77207256466E+02  0.10394071989E+03  0.00000000000E+00 0.  1.
          1    1    1    2  502    0  0.29555247637E+02 -0.63001588372E+02 -0.39127872507E+03  0.39741886404E+03  0.00000000000E+00 0.  1.
</event>
<event>
 4    1  0.3586324E+003  0.3158096E+02  0.7546771E-02  0.1406338E+00
          2   -1    0    0  502    0  0.00000000000E+00  0.00000000000E+00  0.31503687684E+02  0.31503687684E+02  0.00000000000E+00 0. -1.
          1   -1    0    0  501    0 -0.00000000000E+00 -0.00000000000E+00 -0.32983472270E+02  0.32983472270E+02  0.00000000000E+00 0. -1.
          2    1    1    2  501    0  0.25892475955E+02  0.18081384438E+02  0.57227872908E+01  0.32095281096E+02  0.00000000000E+00 0. -1.
          1    1    1    2  502    0 -0.25892475955E+02 -0.18081384438E+02 -0.72025718768E+01  0.32391878858E+02  0.00000000000E+00 0. -1.
</event>
<event>
 4    1  0.3586324E+003  0.3221858E+02  0.7546771E-02  0.1401248E+00
          2   -1    0    0  502    0  0.00000000000E+00  0.00000000000E+00  0.79216643332E+02  0.79216643332E+02  0.00000000000E+00 0. -1.
          1   -1    0    0  501    0 -0.00000000000E+00 -0.00000000000E+00 -0.29014897753E+03  0.29014897753E+03  0.00000000000E+00 0.  1.
          2    1    1    2  501    0  0.20620173416E+02  0.24755712613E+02  0.74998120633E+02  0.81625700347E+02  0.00000000000E+00 0. -1.
          1    1    1    2  502    0 -0.20620173416E+02 -0.24755712613E+02 -0.28593045483E+03  0.28773992052E+03  0.00000000000E+00 0.  1.
</event>
<event>
 4    1  0.3586324E+003  0.2090120E+02  0.7546771E-02  0.1520680E+00
          2   -1    0    0  502    0  0.00000000000E+00  0.00000000000E+00  0.35248633998E+01  0.35248633998E+01  0.00000000000E+00 0.  1.
          1   -1    0    0  501    0 -0.00000000000E+00 -0.00000000000E+00 -0.13197041311E+03  0.13197041311E+03  0.00000000000E+00 0.  1.
          2    1    1    2  501    0  0.61138045599E+01  0.19987031740E+02 -0.47507511770E+02  0.51902058905E+02  0.00000000000E+00 0.  1.
          1    1    1    2  502    0 -0.61138045599E+01 -0.19987031740E+02 -0.80938037938E+02  0.83593217603E+02  0.00000000000E+00 0.  1.
</event>
<event>
 4    1  0.3586324E+003  0.5395784E+02  0.7546771E-02  0.1281868E+00
          2   -1    0    0  502    0  0.00000000000E+00  0.00000000000E+00  0.81025870879E+03  0.81025870879E+03  0.00000000000E+00 0. -1.
          1   -1    0    0  501    0 -0.00000000000E+00 -0.00000000000E+00 -0.48408827716E+01  0.48408827716E+01  0.00000000000E+00 0. -1.
          2    1    1    2  501    0 -0.47122333446E+02  0.26285626337E+02  0.60961092537E+03  0.61199422284E+03  0.00000000000E+00 0. -1.
          1    1    1    2  502    0  0.47122333446E+02 -0.26285626337E+02  0.19580690065E+03  0.20310536872E+03  0.00000000000E+00 0. -1.
</event>
<event>
 4    1  0.3586324E+003  0.3539798E+02  0.7546771E-02  0.1377787E+00
          2   -1    0    0  502    0  0.00000000000E+00  0.00000000000E+00  0.26344539810E+03  0.26344539810E+03  0.00000000000E+00 0. -1.
          1   -1    0    0  501    0 -0.00000000000E+00 -0.00000000000E+00 -0.16683699563E+03  0.16683699563E+03  0.00000000000E+00 0.  1.
          2    1    1    2  501    0  0.14552483904E+02  0.32268281807E+02  0.26035655113E+03  0.26275188014E+03  0.00000000000E+00 0. -1.
          1    1    1    2  502    0 -0.14552483904E+02 -0.32268281807E+02 -0.16374814865E+03  0.16753051360E+03  0.00000000000E+00 0.  1.
</event>
<event>
 4    1  0.3586324E+003  0.2976161E+02  0.7546771E-02  0.1421680E+00
          2   -1    0    0  502    0  0.00000000000E+00  0.00000000000E+00  0.20218289623E+03  0.20218289623E+03  0.00000000000E+00 0. -1.
          1   -1    0    0  501    0 -0.00000000000E+00 -0.00000000000E+00 -0.27368721191E+03  0.27368721191E+03  0.00000000000E+00 0.  1.
          2    1    1    2  501    0 -0.27329181793E+02 -0.11784289466E+02  0.20027088276E+03  0.20247019567E+03  0.00000000000E+00 0. -1.
          1    1    1    2  502    0  0.27329181793E+02  0.11784289466E+02 -0.27177519844E+03  0.27339991248E+03  0.00000000000E+00 0.  1.
</event>
<event>
 4    1  0.3586324E+003  0.7244607E+02  0.7546771E-02  0.1222561E+00
          2   -1    0    0  502    0  0.00000000000E+00  0.00000000000E+00  0.15952106182E+03  0.15952106182E+03  0.00000000000E+00 0. -1.
          1   -1    0    0  501    0 -0.00000000000E+00 -0.00000000000E+00 -0.43222422416E+02  0.43222422416E+02  0.00000000000E+00 0.  1.
          2    1    1    2  501    0  0.61509631735E+02  0.38275296998E+02  0.10768613533E+03  0.12978727557E+03  0.00000000000E+00 0. -1.
          1    1    1    2  502    0 -0.61509631735E+02 -0.38275296998E+02  0.86125040687E+01  0.72956208665E+02  0.00000000000E+00 0.  1.
</event>
<event>
 4    1  0.3586324E+003  0.2195107E+02  0.7546771E-02  0.1506107E+00
          2   -1    0    0  502    0  0.00000000000E+00  0.00000000000E+00  0.16812371058E+03  0.16812371058E+03  0.00000000000E+00 0.  1.
          1   -1    0    0  501    0 -0.00000000000E+00 -0.00000000000E+00 -0.48469413024E+03  0.48469413024E+03  0.00000000000E+00 0.  1.
          2    1    1    2  501    0  0.71503913789E+01  0.20753830082E+02  0.16715723653E+03  0.16859238205E+03  0.00000000000E+00 0.  1.
          1    1    1    2  502    0 -0.71503913789E+01 -0.20753830082E+02 -0.48372765619E+03  0.48422545878E+03  0.00000000000E+00 0.  1.
</event>
<event>
 4    1  0.3586324E+003  0.2438320E+02  0.7546771E-02  0.1475823E+00
          2   -1    0    0  502    0  0.00000000000E+00  0.00000000000E+00  0.21596038241E+03  0.21596038241E+03  0.00000000000E+00 0.  1.
          1   -1    0    0  501    0 -0.00000000000E+00 -0.00000000000E+00 -0.56945096694E+02  0.56945096694E+02  0.00000000000E+00 0.  1.
          2    1    1    2  501    0 -0.12493769302E+02  0.20939108523E+02  0.21262112346E+03  0.21401467865E+03  0.00000000000E+00 0.  1.
          1    1    1    2  502    0  0.12493769302E+02 -0.20939108523E+02 -0.53605837746E+02  0.58890800449E+02  0.00000000000E+00 0.  1.
</event>
<event>
 4    1  0.3586324E+003  0.2256789E+02  0.7546771E-02  0.1497997E+00
          2   -1    0    0  502    0  0.00000000000E+00  0.00000000000E+00  0.40314490470E+03  0.40314490470E+03  0.00000000000E+00 0.  1.
          1   -1    0    0  501    0 -0.00000000000E+00 -0.00000000000E+00 -0.18443529280E+01  0.18443529280E+01  0.00000000000E+00 0.  1.
          2    1    1    2  501    0 -0.29837616345E+01 -0.22369762009E+02  0.86996363741E+02  0.89875894377E+02  0.00000000000E+00 0.  1.
          1    1    1    2  502    0  0.29837616345E+01  0.22369762009E+02  0.31430418803E+03  0.31511336325E+03  0.00000000000E+00 0.  1.
</event>
<event>
 4    1  0.3586324E+003  0.3338141E+02  0.7546771E-02  0.1392314E+00
          2   -1    0    0  502    0  0.00000000000E+00  0.00000000000E+00  0.17215414894E+02  0.17215414894E+02  0.00000000000E+00 0.  1.
          1   -1    0    0  501    0 -0.00000000000E+00 -0.00000000000E+00 -0.23208851061E+03  0.23208851061E+03  0.00000000000E+00 0. -1.
          2    1    1    2  501    0  0.90831896195E+01  0.32121862934E+02 -0.15845963501E+01  0.33418996957E+02  0.00000000000E+00 0.  1.
          1    1    1    2  502    0 -0.90831896195E+01 -0.32121862934E+02 -0.21328849936E+03  0.21588492854E+03  0.00000000000E+00 0. -1.
</event>
<event>
 4    1  0.3586324E+003  0.2454321E+02  0.7546771E-02  0.1473979E+00
          2   -1    0    0  502    0  0.00000000000E+00  0.00000000000E+00  0.15349108264E+03  0.15349108264E+03  0.00000000000E+00 0.  1.
          1   -1    0    0  501    0 -0.00000000000E+00 -0.00000000000E+00 -0.76514465558E+01  0.76514465558E+01  0.00000000000E+00 0.  1.
          2    1    1    2  501    0 -0.23633244104E+02 -0.66210373599E+01  0.16687266018E+02  0.29678834374E+02  0.00000000000E+00 0.  1.
          1    1    1    2  502    0  0.23633244104E+02  0.66210373599E+01  0.12915237007E+03  0.13146369482E+03  0.00000000000E+00 0.  1.
</event>
<event>
 4    1  0.3586324E+003  0.4211546E+02  0.7546771E-02  0.1336516E+00
          2   -1    0    0  502    0  0.00000000000E+00  0.00000000000E+00  0.12808181721E+04  0.12808181721E+04  0.00000000000E+00 0. -1.
          1   -1    0    0  501    0 -0.00000000000E+00 -0.00000000000E+00 -0.71207960592E+02  0.71207960592E+02  0.00000000000E+00 0.  1.
          2    1    1    2  501    0 -0.71878991557E+01  0.41497544567E+02  0.12742124658E+04  0.12749082790E+04  0.00000000000E+00 0. -1.
          1    1    1    2  502    0  0.71878991557E+01 -0.41497544567E+02 -0.64602254239E+02  0.77117853653E+02  0.00000000000E+00 0.  1.
</event>
<event>
 4    1  0.3586324E+003  0.2372199E+02  0.7546771E-02  0.1483626E+00
          2   -1    0    0  502    0  0.00000000000E+00  0.00000000000E+00  0.18370147624E+03  0.18370147624E+03  0.00000000000E+00 0.  1.
          1   -1    0    0  501    0 -0.00000000000E+00 -0.00000000000E+00 -0.79891557745E+01  0.79891557745E+01  0.00000000000E+00 0. -1.
          2    1    1    2  501    0 -0.95684833902E+01  0.21706607912E+02  0.16311565566E+03  0.16483158018E+03  0.00000000000E+00 0.  1.
          1    1    1    2  502    0  0.95684833902E+01 -0.21706607912E+02  0.12596664803E+02  0.26859051838E+02  0.00000000000E+00 0. -1.
</event>
<event>
 4    1  0.3586324E+003  0.4001654E+02  0.7546771E-02  0.1348389E+00
          2   -1    0    0  502    0  0.00000000000E+00  0.00000000000E+00  0.83627447520E+03  0.83627447520E+03  0.00000000000E+00 0. -1.
          1   -1    0    0  501    0 -0.00000000000E+00 -0.00000000000E+00 -0.24668682964E+02  0.24668682964E+02  0.00000000000E+00 0.  1.
          2    1    1    2  501    0 -0.16479404137E+02  0.36465769974E+02  0.81923003210E+03  0.82020678407E+03  0.00000000000E+00 0. -1.
          1    1    1    2  502    0  0.16479404137E+02 -0.36465769974E+02 -0.76242398670E+01  0.40736374091E+02  0.00000000000E+00 0.  1.
</event>
<event>
 4    1  0.3586324E+003  0.2274301E+02  0.7546771E-02  0.1495751E+00
          2   -1    0    0  502    0  0.00000000000E+00  0.00000000000E+00  0.34736372361E+03  0.34736372361E+03  0.00000000000E+00 0.  1.
          1   -1    0    0  501    0 -0.00000000000E+00 -0.00000000000E+00 -0.19191275107E+01  0.19191275107E+01  0.00000000000E+00 0. -1.
          2    1    1    2  501    0  0.22575188804E+02 -0.27578154919E+01  0.25539549491E+03  0.25640613003E+03  0.00000000000E+00 0.  1.
          1    1    1    2  502    0 -0.22575188804E+02  0.27578154919E+01  0.90049101186E+02  0.92876721089E+02  0.00000000000E+00 0. -1.
</event>
<event>
 4    1  0.3586324E+003  0.2049911E+02  0.7546771E-02  0.1526538E+00
          2   -1    0    0  502    0  0.00000000000E+00  0.00000000000E+00  0.82745287084E+02  0.82745287084E+02  0.00000000000E+00 0. -1.
          1   -1    0    0  501    0 -0.00000000000E+00 -0.00000000000E+00 -0.37908805994E+02  0.37908805994E+02  0.00000000000E+00 0. -1.
          2    1    1    2  501    0  0.18148489453E+02 -0.95312984614E+01  0.78559243288E+02  0.81189703940E+02  0.00000000000E+00 0. -1.
          1    1    1    2  502    0 -0.18148489453E+02  0.95312984614E+01 -0.33722762198E+02  0.39464389138E+02  0.00000000000E+00 0. -1.
</event>
<event>
 4    1  0.3586324E+003  0.2913220E+02  0.7546771E-02  0.1427290E+00
          2   -1    0    0  502    0  0.00000000000E+00  0.00000000000E+00  0.24992242992E+01  0.24992242992E+01  0.00000000000E+00 0.  1.
          1   -1    0    0  501    0 -0.00000000000E+00 -0.00000000000E+00 -0.11314753665E+04  0.11314753665E+04  0.00000000000E+00 0.  1.
          2    1    1    2  501    0 -0.28333579574E+02 -0.67744641733E+01 -0.90153432385E+02  0.94743477174E+02  0.00000000000E+00 0.  1.
          1    1    1    2  502    0  0.28333579574E+02  0.67744641733E+01 -0.10388227098E+04  0.10392311136E+04  0.00000000000E+00 0.  1.
</event>
<event>
 4    1  0.3586324E+003  0.2060845E+02  0.7546771E-02  0.1524929E+00
          2   -1    0    0  502    0  0.00000000000E+00  0.00000000000E+00  0.74961148858E+02  0.74961148858E+02  0.00000000000E+00 0.  1.
          1   -1    0    0  501    0 -0.00000000000E+00 -0.00000000000E+00 -0.13143446753E+02  0.13143446753E+02  0.00000000000E+00 0. -1.
          2    1    1    2  501    0  0.89864806923E+01 -0.18545925152E+02  0.64136453095E+02  0.67366110104E+02  0.00000000000E+00 0.  1.
          1    1    1    2  502    0 -0.89864806923E+01  0.18545925152E+02 -0.23187509902E+01  0.20738485507E+02  0.00000000000E+00 0. -1.
</event>
<event>
 4    1  0.3586324E+003  0.4453442E+02  0.7546771E-02  0.1323784E+00
          2   -1    0    0  502    0  0.00000000000E+00  0.00000000000E+00  0.71527389080E+02  0.71527389080E+02  0.00000000000E+00 0.  1.
          1   -1    0    0  501    0 -0.00000000000E+00 -0.00000000000E+00 -0.56358613133E+02  0.56358613133E+02  0.00000000000E+00 0.  1.
          2    1    1    2  501    0  0.39257419601E+02 -0.21027825852E+02  0.53159513355E+02  0.69348744141E+02  0.00000000000E+00 0.  1.
          1    1    1    2  502    0 -0.39257419601E+02  0.21027825852E+02 -0.37990737408E+02  0.58537258072E+02  0.00000000000E+00 0.  1.
</event>
<event>
 4    1  0.3586324E+003  0.2198220E+02  0.7546771E-02  0.1505690E+00
          2   -1    0    0  502    0  0.00000000000E+00  0.00000000000E+00  0.28744760533E+03  0.28744760533E+03  0.00000000000E+00 0. -1.
          1   -1    0    0  501    0 -0.00000000000E+00 -0.00000000000E+00 -0.17975125031E+03  0.17975125031E+03  0.00000000000E+00 0. -1.
          2    1    1    2  501    0  0.26730894693E+01  0.21819067284E+02  0.28635271042E+03  0.28719521561E+03  0.00000000000E+00 0. -1.
          1    1    1    2  502    0 -0.26730894693E+01 -0.21819067284E+02 -0.17865635539E+03  0.18000364004E+03  0.00000000000E+00 0. -1.
</event>
<event>
 4    1  0.3586324E+003  0.4019686E+02  0.7546771E-02  0.1347336E+00
          2   -1    0    0  502    0  0.00000000000E+00  0.00000000000E+00  0.24977500746E+02  0.24977500746E+02  0.00000000000E+00 0.  1.
          1   -1    0    0  501    0 -0.00000000000E+00 -0.00000000000E+00 -0.27900273008E+03  0.27900273008E+03  0.00000000000E+00 0.  1.
          2    1    1    2  501    0 -0.39665756532E+02  0.65126844683E+01  0.61969459085E+01  0.40671727758E+02  0.00000000000E+00 0.  1.
          1    1    1    2  502    0  0.39665756532E+02 -0.65126844683E+01 -0.26022217524E+03  0.26330850306E+03  0.00000000000E+00 0.  1.
</event>
<event>
 4    1  0.3586324E+003  0.2938229E+02  0.7546771E-02  0.1425041E+00
          2   -1    0    0  502    0  0.00000000000E+00  0.00000000000E+00  0.19165684883E+02  0.19165684883E+02  0.00000000000E+00 0. -1.
          1   -1    0    0  501    0 -0.00000000000E+00 -0.00000000000E+00 -0.14210755851E+03  0.14210755851E+03  0.00000000000E+00 0. -1.
          2    1    1    2  501    0 -0.26356641629E+02 -0.12986402970E+02  0.51712888233E+01  0.29833897636E+02  0.00000000000E+00 0. -1.
          1    1    1    2  502    0  0.26356641629E+02  0.12986402970E+02 -0.12811316245E+03  0.13143934576E+03  0.00000000000E+00 0. -1.
</event>
<event>
 4    1  0.3586324E+003  0.2100014E+02  0.7546771E-02  0.1519263E+00
          2   -1    0    0  502    0  0.00000000000E+00  0.00000000000E+00  0.65631986623E+02  0.65631986623E+02  0.00000000000E+00 0. -1.
          1   -1    0    0  501    0 -0.00000000000E+00 -0.00000000000E+00 -0.67979908518E+01  0.67979908518E+01  0.00000000000E+00 0. -1.
          2    1    1    2  501    0 -0.18145965733E+02  0.10570236273E+02  0.33311496601E+02  0.39378443000E+02  0.00000000000E+00 0. -1.
          1    1    1    2  502    0  0.18145965733E+02 -0.10570236273E+02  0.25522499170E+02  0.33051534475E+02  0.00000000000E+00 0. -1.
</event>
<event>
 4    1  0.3586324E+003  0.2304151E+02  0.7546771E-02  0.1491978E+00
          2   -1    0    0  502    0  0.00000000000E+00  0.00000000000E+00  0.97866534057E+03  0.97866534057E+03  0.00000000000E+00 0.  1.
          1   -1    0    0  501    0 -0.00000000000E+00 -0.00000000000E+00 -0.15413262208E+01  0.15413262208E+01  0.00000000000E+00 0.  1.
          2    1    1    2  501    0 -0.21046541056E+02 -0.93783882913E+01  0.88309983396E+03  0.88340037797E+03  0.00000000000E+00 0.  1.
          1    1    1    2  502    0  0.21046541056E+02  0.93783882913E+01  0.94024180390E+02  0.96806288821E+02  0.00000000000E+00 0.  1.
</event>
<event>
 4    1  0.3586324E+003  0.3564829E+02  0.7546771E-02  0.1376062E+00
          2   -1    0    0  502    0  0.00000000000E+00  0.00000000000E+00  0.45370517221E+03  0.45370517221E+03  0.00000000000E+00 0. -1.
          1   -1    0    0  501    0 -0.00000000000E+00 -0.00000000000E+00 -0.30547797722E+02  0.30547797722E+02  0.00000000000E+00 0.  1.
          2    1    1    2  501    0  0.26995404693E+02  0.23281932323E+02  0.44233801238E+03  0.44377214586E+03  0.00000000000E+00 0. -1.
          1    1    1    2  502    0 -0.26995404693E+02 -0.23281932323E+02 -0.19180637893E+02  0.40480824068E+02  0.00000000000E+00 0.  1.
</event>
<event>
 4    1  0.3586324E+003  0.4951595E+02  0.7546771E-02  0.1300285E+00
          2   -1    0    0  502    0  0.00000000000E+00  0.00000000000E+00  0.12547813625E+04  0.12547813625E+04  0.00000000000E+00 0. -1.
          1   -1    0    0  501    0 -0.00000000000E+00 -0.00000000000E+00 -0.54170013056E+01  0.54170013056E+01  0.00000000000E+00 0.  1.
          2    1    1    2  501    0 -0.48301815712E+02 -0.10897898808E+02  0.11284801724E+04  0.11295659915E+04  0.00000000000E+00 0. -1.
          1    1    1    2  502    0  0.48301815712E+02  0.10897898808E+02  0.12088418877E+03  0.13063237231E+03  0.00000000000E+00 0.  1.
</event>
<event>
 4    1  0.3586324E+003  0.2044997E+02  0.7546771E-02  0.1527265E+00
          2   -1    0    0  502    0  0.00000000000E+00  0.00000000000E+00  0.89167770597E+01  0.89167770597E+01  0.00000000000E+00 0. -1.
          1   -1    0    0  501    0 -0.00000000000E+00 -0.00000000000E+00 -0.49743219860E+03  0.49743219860E+03  0.00000000000E+00 0.  1.
          2    1    1    2  501    0  0.40693867800E+01  0.20040991880E+02 -0.33139572666E+01  0.20716746295E+02  0.00000000000E+00 0. -1.
          1    1    1    2  502    0 -0.40693867800E+01 -0.20040991880E+02 -0.48520146427E+03  0.48563222936E+03  0.00000000000E+00 0.  1.
</event>
<event>
 4    1  0.3586324E+003  0.3170697E+02  0.7546771E-02  0.1405321E+00
          2   -1    0    0  502    0  0.00000000000E+00  0.00000000000E+00  0.32544689900E+03  0.32544689900E+03  0.00000000000E+00 0. -1.
          1   -1    0    0  501    0 -0.00000000000E+00 -0.00000000000E+00 -0.39252045052E+02  0.39252045052E+02  0.00000000000E+00 0.  1.
          2    1    1    2  501    0  0.23309068633E+02  0.21494630117E+02  0.31812455887E+03  0.31970074563E+03  0.00000000000E+00 0. -1.
          1    1    1    2  502    0 -0.23309068633E+02 -0.21494630117E+02 -0.31929704920E+02  0.44998198416E+02  0.00000000000E+00 0.  1.
</event>
<event>
 4    1  0.3586324E+003  0.2424367E+02  0.7546771E-02  0.1477445E+00
          2   -1    0    0  502    0  0.00000000000E+00  0.00000000000E+00  0.32010365850E+02  0.32010365850E+02  0.00000000000E+00 0. -1.
          1   -1    0    0  501    0 -0.00000000000E+00 -0.00000000000E+00 -0.20064689907E+02  0.20064689907E+02  0.00000000000E+00 0.  1.
          2    1    1    2  501    0  0.23945810100E+02 -0.37886419141E+01  0.13559064862E+02  0.27777758527E+02  0.00000000000E+00 0. -1.
          1    1    1    2  502    0 -0.23945810100E+02  0.37886419141E+01 -0.16133889178E+01  0.24297297230E+02  0.00000000000E+00 0.  1.
</event>
<event>
 4    1  0.3586324E+003  0.2055476E+02  0.7546771E-02  0.1525718E+00
          2   -1    0    0  502    0  0.00000000000E+00  0.00000000000E+00  0.44751974890E+02  0.44751974890E+02  0.00000000000E+00 0. -1.
          1   -1    0    0  501    0 -0.00000000000E+00 -0.00000000000E+00 -0.94687043230E+01  0.94687043230E+01  0.00000000000E+00 0. -1.
          2    1    1    2  501    0  0.15709328093E+02  0.13255748347E+02  0.16171924583E+02  0.26153948041E+02  0.00000000000E+00 0. -1.
          1    1    1    2  502    0 -0.15709328093E+02 -0.13255748347E+02  0.19111345984E+02  0.28066731173E+02  0.00000000000E+00 0. -1.
</event>
<event>
 4    1  0.3586324E+003  0.2067806E+02  0.7546771E-02  0.1523911E+00
          2   -1    0    0  502    0  0.00000000000E+00  0.00000000000E+00  0.36326198000E+02  0.36326198000E+02  0.00000000000E+00 0. -1.
          1   -1    0    0  501    0 -0.00000000000E+00 -0.00000000000E+00 -0.32676543205E+02  0.32676543205E+02  0.00000000000E+00 0.  1.
          2    1    1    2  501    0  0.18146298263E+02 -0.99143307086E+01  0.29421257613E+02  0.35960985714E+02  0.00000000000E+00 0. -1.
          1    1    1    2  502    0 -0.18146298263E+02  0.99143307086E+01 -0.25771602818E+02  0.33041755490E+02  0.00000000000E+00 0.  1.
</event>
<event>
 4    1  0.3586324E+003  0.2926957E+02  0.7546771E-02  0.1426052E+00
          2   -1    0    0  502    0  0.00000000000E+00  0.00000000000E+00  0.28177513057E+03  0.28177513057E+03  0.00000000000E+00 0. -1.
          1   -1    0    0  501    0 -0.00000000000E+00 -0.00000000000E+00 -0.41765368530E+01  0.41765368530E+01  0.00000000000E+00 0. -1.
          2    1    1    2  501    0 -0.32322258325E+01 -0.29090556284E+02  0.21337042678E+03  0.21536862996E+03  0.00000000000E+00 0. -1.
          1    1    1    2  502    0  0.32322258325E+01  0.29090556284E+02  0.64228166941E+02  0.70583037462E+02  0.00000000000E+00 0. -1.
</event>
<event>
 4    1  0.3586324E+003  0.2082385E+02  0.7546771E-02  0.1521795E+00
          2   -1    0    0  502    0  0.00000000000E+00  0.00000000000E+00  0.18670001042E+03  0.18670001042E+03  0.00000000000E+00 0.  1.
          1   -1    0    0  501    0 -0.00000000000E+00 -0.00000000000E+00 -0.17468555487E+02  0.17468555487E+02  0.00000000000E+00 0.  1.
          2    1    1    2  501    0 -0.14235839832E+02 -0.15197817717E+02  0.17967149352E+03  0.18087420597E+03  0.00000000000E+00 0.  1.
          1    1    1    2  502    0  0.14235839832E+02  0.15197817717E+02 -0.10440038593E+02  0.23294359937E+02  0.00000000000E+00 0.  1.
</event>
<event>
 4    1  0.3586324E+003  0.2049813E+02  0.7546771E-02  0.1526552E+00
          2   -1    0    0  502    0  0.00000000000E+00  0.00000000000E+00  0.13637957746E+02  0.13637957746E+02  0.00000000000E+00 0. -1.
          1   -1    0    0  501    0 -0.00000000000E+00 -0.00000000000E+00 -0.14476123222E+03  0.14476123222E+03  0.00000000000E+00 0.  1.
          2    1    1    2  501    0 -0.20224025646E+02 -0.33410016285E+01  0.47064304437E+01  0.21031500012E+02  0.00000000000E+00 0. -1.
          1    1    1    2  502    0  0.20224025646E+02  0.33410016285E+01 -0.13582970491E+03  0.13736768995E+03  0.00000000000E+00 0.  1.
</event>
<event>
 4    1  0.3586324E+003  0.4252871E+02  0.7546771E-02  0.1334272E+00
          2   -1    0    0  502    0  0.00000000000E+00  0.00000000000E+00  0.14337389356E+01  0.14337389356E+01  0.00000000000E+00 0. -1.
          1   -1    0    0  501    0 -0.00000000000E+00 -0.00000000000E+00 -0.13208043245E+04  0.13208043245E+04  0.00000000000E+00 0. -1.
          2    1    1    2  501    0  0.26558789625E+02  0.33216294106E+02 -0.51962101161E+03  0.52135850162E+03  0.00000000000E+00 0. -1.
          1    1    1    2  502    0 -0.26558789625E+02 -0.33216294106E+02 -0.79974957400E+03  0.80087956187E+03  0.00000000000E+00 0. -1.
</event>
<event>
 4    1  0.3586324E+003  0.2230177E+02  0.7546771E-02  0.1501457E+00
          2   -1    0    0  502    0  0.00000000000E+00  0.00000000000E+00  0.46284206614E+02  0.46284206614E+02  0.00000000000E+00 0. -1.
          1   -1    0    0  501    0 -0.00000000000E+00 -0.00000000000E+00 -0.59032796566E+02  0.59032796566E+02  0.00000000000E+00 0. -1.
          2    1    1    2  501    0 -0.15455778511E+02 -0.16077558745E+02  0.41250829336E+02  0.46893495343E+02  0.00000000000E+00 0. -1.
          1    1    1    2  502    0  0.15455778511E+02  0.16077558745E+02 -0.53999419288E+02  0.58423507837E+02  0.00000000000E+00 0. -1.
</event>
<event>
 4    1  0.3586324E+003  0.2284783E+02  0.7546771E-02  0.1494418E+00
          2   -1    0    0  502    0  0.00000000000E+00  0.00000000000E+00  0.12639592716E+02  0.12639592716E+02  0.00000000000E+00 0. -1.
          1   -1    0    0  501    0 -0.00000000000E+00 -0.00000000000E+00 -0.32080879152E+03  0.32080879152E+03  0.00000000000E+00 0.  1.
          2    1    1    2  501    0  0.22626049401E+02 -0.31757302814E+01  0.15380209284E+01  0.22899538918E+02  0.00000000000E+00 0. -1.
          1    1    1    2  502    0 -0.22626049401E+02  0.31757302814E+01 -0.30970721974E+03  0.31054884532E+03  0.00000000000E+00 0.  1.
</event>
<event>
 4    1  0.3586324E+003  0.2769974E+02  0.7546771E-02  0.1440703E+00
          2   -1    0    0  502    0  0.00000000000E+00  0.00000000000E+00  0.21651073899E+03  0.21651073899E+03  0.00000000000E+00 0.  1.
          1   -1    0    0  501    0 -0.00000000000E+00 -0.00000000000E+00 -0.33129720451E+02  0.33129720451E+02  0.00000000000E+00 0.  1.
          2    1    1    2  501    0  0.11913542096E+02 -0.25006863013E+02  0.20964608304E+03  0.21146809645E+03  0.00000000000E+00 0.  1.
          1    1    1    2  502    0 -0.11913542096E+02  0.25006863013E+02 -0.26265064500E+02  0.38172362990E+02  0.00000000000E+00 0.  1.
</event>
<event>
 4    1  0.3586324E+003  0.2268946E+02  0.7546771E-02  0.1496435E+00
          2   -1    0    0  502    0  0.00000000000E+00  0.00000000000E+00  0.21411744216E+02  0.21411744216E+02  0.00000000000E+00 0.  1.
          1   -1    0    0  501    0 -0.00000000000E+00 -0.00000000000E+00 -0.24043453786E+02  0.24043453786E+02  0.00000000000E+00 0.  1.
          2    1    1    2  501    0 -0.17005571615E+02  0.15020715786E+02 -0.12855736363E+01  0.22725845820E+02  0.00000000000E+00 0.  1.
          1    1    1    2  502    0  0.17005571615E+02 -0.15020715786E+02 -0.13461359343E+01  0.22729352182E+02  0.00000000000E+00 0.  1.
</event>
<event>
 4    1  0.3586324E+003  0.2190456E+02  0.7546771E-02  0.1506732E+00
          2   -1    0    0  502    0  0.00000000000E+00  0.00000000000E+00  0.14554460585E+02  0.14554460585E+02  0.00000000000E+00 0. -1.
          1   -1    0    0  501    0 -0.00000000000E+00 -0.00000000000E+00 -0.33651155362E+02  0.33651155362E+02  0.00000000000E+00 0. -1.
          2    1    1    2  501    0  0.26083933314E+01  0.21748686965E+02 -0.12986420324E+02  0.25464803421E+02  0.00000000000E+00 0. -1.
          1    1    1    2  502    0 -0.26083933314E+01 -0.21748686965E+02 -0.61102744539E+01  0.22740812526E+02  0.00000000000E+00 0. -1.
</event>
<event>
 4    1  0.3586324E+003  0.3697202E+02  0.7546771E-02  0.1367206E+00
          2   -1    0    0  502    0  0.00000000000E+00  0.00000000000E+00  0.79803576162E+02  0.79803576162E+02  0.00000000000E+00 0. -1.
          1   -1    0    0  501    0 -0.00000000000E+00 -0.00000000000E+00 -0.25576992321E+03  0.25576992321E+03  0.00000000000E+00 0. -1.
          2    1    1    2  501    0 -0.24777345265E+01  0.36888903760E+02  0.74087960387E+02  0.82800702070E+02  0.00000000000E+00 0. -1.
          1    1    1    2  502    0  0.24777345265E+01 -0.36888903760E+02 -0.25005430743E+03  0.25277279730E+03  0.00000000000E+00 0. -1.
</event>
<event>
 4    1  0.3586324E+003  0.2226673E+02  0.7546771E-02  0.1501917E+00
          2   -1    0    0  502    0  0.00000000000E+00  0.00000000000E+00  0.14635892990E+04  0.14635892990E+04  0.00000000000E+00 0.  1.
          1   -1    0    0  501    0 -0.00000000000E+00 -0.00000000000E+00 -0.34119585218E+01  0.34119585218E+01  0.00000000000E+00 0. -1.
          2    1    1    2  501    0  0.20686719089E+02 -0.82381343734E+01  0.14262242721E+04  0.14263980796E+04  0.00000000000E+00 0.  1.
          1    1    1    2  502    0 -0.20686719089E+02  0.82381343734E+01  0.33953068442E+02  0.40603177970E+02  0.00000000000E+00 0. -1.
</event>
<event>
 4    1  0.3586324E+003  0.3402588E+02  0.7546771E-02  0.1387544E+00
          2   -1    0    0  502    0  0.00000000000E+00  0.00000000000E+00  0.28595642569E+01  0.28595642569E+01  0.00000000000E+00 0. -1.
          1   -1    0    0  501    0 -0.00000000000E+00 -0.00000000000E+00 -0.40925514576E+03  0.40925514576E+03  0.00000000000E+00 0. -1.
          2    1    1    2  501    0 -0.16060244941E+02  0.29997136342E+02 -0.22452070889E+03  0.22708436401E+03  0.00000000000E+00 0. -1.
          1    1    1    2  502    0  0.16060244941E+02 -0.29997136342E+02 -0.18187487262E+03  0.18503034601E+03  0.00000000000E+00 0. -1.
</event>
<event>
 4    1  0.3586324E+003  0.2013686E+02  0.7546771E-02  0.1531954E+00
          2   -1    0    0  502    0  0.00000000000E+00  0.00000000000E+00  0.11100754535E+03  0.11100754535E+03  0.00000000000E+00 0. -1.
          1   -1    0    0  501    0 -0.00000000000E+00 -0.00000000000E+00 -0.48162879407E+01  0.48162879407E+01  0.00000000000E+00 0.  1.
          2    1    1    2  501    0  0.95921050035E+00 -0.20114002273E+02  0.81558884254E+02  0.84008004220E+02  0.00000000000E+00 0. -1.
          1    1    1    2  502    0 -0.95921050035E+00  0.20114002273E+02  0.24632373156E+02  0.31815829072E+02  0.00000000000E+00 0.  1.
</event>
<event>
 4    1  0.3586324E+003  0.2851352E+02  0.7546771E-02  0.1432970E+00
          2   -1    0    0  502    0  0.00000000000E+00  0.00000000000E+00  0.19209140106E+02  0.19209140106E+02  0.00000000000E+00 0. -1.
          1   -1    0    0  501    0 -0.00000000000E+00 -0.00000000000E+00 -0.16212977236E+03  0.16212977236E+03  0.00000000000E+00 0.  1.
          2    1    1    2  501    0 -0.28507794093E+02 -0.57117349611E+00  0.64809178852E+01  0.29240773927E+02  0.00000000000E+00 0. -1.
          1    1    1    2  502    0  0.28507794093E+02  0.57117349611E+00 -0.14940155014E+03  0.15209813854E+03  0.00000000000E+00 0.  1.
</event>
<event>
 4    1  0.3586324E+003  0.2920052E+02  0.7546771E-02  0.1426673E+00
          2   -1    0    0  502    0  0.00000000000E+00  0.00000000000E+00  0.11760580397E+04  0.11760580397E+04  0.00000000000E+00 0. -1.
          1   -1    0    0  501    0 -0.00000000000E+00 -0.00000000000E+00 -0.23226469563E+03  0.23226469563E+03  0.00000000000E+00 0. -1.
          2    1    1    2  501    0 -0.27566837880E+02  0.96301398026E+01  0.11749581463E+04  0.11753209415E+04  0.00000000000E+00 0. -1.
          1    1    1    2  502    0  0.27566837880E+02 -0.96301398026E+01 -0.23116480218E+03  0.23300179379E+03  0.00000000000E+00 0. -1.
</event>
<event>
 4    1  0.3586324E+003  0.2186164E+02  0.7546771E-02  0.1507310E+00
          2   -1    0    0  502    0  0.00000000000E+00  0.00000000000E+00  0.21692234458E+02  0.21692234458E+02  0.00000000000E+00 0.  1.
          1   -1    0    0  501    0 -0.00000000000E+00 -0.00000000000E+00 -0.48016538381E+03  0.48016538381E+03  0.00000000000E+00 0.  1.
          2    1    1    2  501    0  0.18863676036E+02  0.11049565712E+02  0.15867707976E+02  0.27013243648E+02  0.00000000000E+00 0.  1.
          1    1    1    2  502    0 -0.18863676036E+02 -0.11049565712E+02 -0.47434085733E+03  0.47484437462E+03  0.00000000000E+00 0.  1.
</event>
<event>
 4    1  0.3586324E+003  0.2855875E+02  0.7546771E-02  0.1432549E+00
          2   -1    0    0  502    0  0.00000000000E+00  0.00000000000E+00  0.12217682849E+03  0.12217682849E+03  0.00000000000E+00 0. -1.
          1   -1    0    0  501    0 -0.00000000000E+00 -0.00000000000E+00 -0.35524041405E+03  0.35524041405E+03  0.00000000000E+00 0.  1.
          2    1    1    2  501    0 -0.19288447801E+02 -0.21060809842E+02  0.11992331607E+03  0.12327693891E+03  0.00000000000E+00 0. -1.
          1    1    1    2  502    0  0.19288447801E+02  0.21060809842E+02 -0.35298690163E+03  0.35414030363E+03  0.00000000000E+00 0.  1.
</event>
<event>
 4    1  0.3586324E+003  0.2040104E+02  0.7546771E-02  0.1527991E+00
          2   -1    0    0  502    0  0.00000000000E+00  0.00000000000E+00  0.22517153888E+03  0.22517153888E+03  0.00000000000E+00 0. -1.
          1   -1    0    0  501    0 -0.00000000000E+00 -0.00000000000E+00 -0.28771028945E+01  0.28771028945E+01  0.00000000000E+00 0. -1.
          2    1    1    2  501    0 -0.20392557936E+02 -0.58834857967E+00  0.17932910177E+03  0.18048581472E+03  0.00000000000E+00 0. -1.
          1    1    1    2  502    0  0.20392557936E+02  0.58834857967E+00  0.42965334216E+02  0.47562827056E+02  0.00000000000E+00 0. -1.
</event>
<event>
 4    1  0.3586324E+003  0.3899596E+02  0.7546771E-02  0.1354472E+00
          2   -1    0    0  502    0  0.00000000000E+00  0.00000000000E+00  0.44335664165E+03  0.44335664165E+03  0.00000000000E+00 0. -1.
          1   -1    0    0  501    0 -0.00000000000E+00 -0.00000000000E+00 -0.68588318919E+01  0.68588318919E+01  0.00000000000E+00 0. -1.
          2    1    1    2  501    0 -0.95457076562E+01  0.37809584712E+02  0.37741202553E+03  0.37942129914E+03  0.00000000000E+00 0. -1.
          1    1    1    2  502    0  0.95457076562E+01 -0.37809584712E+02  0.59085784237E+02  0.70794174405E+02  0.00000000000E+00 0. -1.
</event>
<event>
 4    1  0.3586324E+003  0.3807433E+02  0.7546771E-02  0.1360155E+00
          2   -1    0    0  502    0  0.00000000000E+00  0.00000000000E+00  0.87085738313E+02  0.87085738313E+02  0.00000000000E+00 0. -1.
          1   -1    0    0  501    0 -0.00000000000E+00 -0.00000000000E+00 -0.36179731741E+02  0.36179731741E+02  0.00000000000E+00 0. -1.
          2    1    1    2  501    0 -0.15215507517E+02 -0.34901904535E+02  0.70739438444E+02  0.80335065573E+02  0.00000000000E+00 0. -1.
          1    1    1    2  502    0  0.15215507517E+02  0.34901904535E+02 -0.19833431872E+02  0.42930404482E+02  0.00000000000E+00 0. -1.
</event>
<event>
 4    1  0.3586324E+003  0.2255480E+02  0.7546771E-02  0.1498166E+00
          2   -1    0    0  502    0  0.00000000000E+00  0.00000000000E+00  0.10900986652E+02  0.10900986652E+02  0.00000000000E+00 0.  1.
          1   -1    0    0  501    0 -0.00000000000E+00 -0.00000000000E+00 -0.65886537658E+02  0.65886537658E+02  0.00000000000E+00 0.  1.
          2    1    1    2  501    0  0.22402393699E+02  0.26175517231E+01 -0.67564773526E+01  0.23545037836E+02  0.00000000000E+00 0.  1.
          1    1    1    2  502    0 -0.22402393699E+02 -0.26175517231E+01 -0.48229073654E+02  0.53242486474E+02  0.00000000000E+00 0.  1.
</event>
<event>
 4    1  0.3586324E+003  0.2260217E+02  0.7546771E-02  0.1497555E+00
          2   -1    0    0  502    0  0.00000000000E+00  0.00000000000E+00  0.10350838584E+04  0.10350838584E+04  0.00000000000E+00 0. -1.
          1   -1    0    0  501    0 -0.00000000000E+00 -0.00000000000E+00 -0.91458476384E+02  0.91458476384E+02  0.00000000000E+00 0. -1.
          2    1    1    2  501    0 -0.78513934742E+01  0.21194661700E+02  0.10335619961E+04  0.10338091012E+04  0.00000000000E+00 0. -1.
          1    1    1    2  502    0  0.78513934742E+01 -0.21194661700E+02 -0.89936614037E+02  0.92733233571E+02  0.00000000000E+00 0. -1.
</event>
<event>
 4    1  0.3586324E+003  0.2377436E+02  0.7546771E-02  0.1482997E+00
          2   -1    0    0  502    0  0.00000000000E+00  0.00000000000E+00  0.85541230332E+02  0.85541230332E+02  0.00000000000E+00 0.  1.
          1   -1    0    0  501    0 -0.00000000000E+00 -0.00000000000E+00 -0.80655894778E+01  0.80655894778E+01  0.00000000000E+00 0.  1.
          2    1    1    2  501    0  0.15777542753E+02  0.17784522530E+02  0.58637237442E+02  0.63273578307E+02  0.00000000000E+00 0.  1.
          1    1    1    2  502    0 -0.15777542753E+02 -0.17784522530E+02  0.18838403413E+02  0.30333241503E+02  0.00000000000E+00 0.  1.
</event>
<event>
 4    1  0.3586324E+003  0.2210332E+02  0.7546771E-02  0.1504076E+00
          2   -1    0    0  502    0  0.00000000000E+00  0.00000000000E+00  0.12916313640E+02  0.12916313640E+02  0.00000000000E+00 0.  1.
          1   -1    0    0  501    0 -0.00000000000E+00 -0.00000000000E+00 -0.14899484792E+03  0.14899484792E+03  0.00000000000E+00 0. -1.
          2    1    1    2  501    0 -0.14408642864E+02 -0.16761493031E+02  0.18893782343E+01  0.22183921833E+02  0.00000000000E+00 0.  1.
          1    1    1    2  502    0  0.14408642864E+02  0.16761493031E+02 -0.13796791251E+03  0.13972723972E+03  0.00000000000E+00 0. -1.
</event>
<event>
 4    1  0.3586324E+003  0.2151559E+02  0.7546771E-02  0.1512029E+00
          2   -1    0    0  502    0  0.00000000000E+00  0.00000000000E+00  0.16036683381E+04  0.16036683381E+04  0.00000000000E+00 0. -1.
          1   -1    0    0  501    0 -0.00000000000E+00 -0.00000000000E+00 -0.11955559125E+01  0.11955559125E+01  0.00000000000E+00 0. -1.
          2    1    1    2  501    0 -0.81684994559E+01 -0.19904674592E+02  0.15001140514E+04  0.15002683385E+04  0.00000000000E+00 0. -1.
          1    1    1    2  502    0  0.81684994559E+01  0.19904674592E+02  0.10235873086E+03  0.10459555553E+03  0.00000000000E+00 0. -1.
</event>
<event>
 4    1  0.3586324E+003  0.2005301E+02  0.7546771E-02  0.1533227E+00
          2   -1    0    0  502    0  0.00000000000E+00  0.00000000000E+00  0.89045426843E+02  0.89045426843E+02  0.00000000000E+00 0.  1.
          1   -1    0    0  501    0 -0.00000000000E+00 -0.00000000000E+00 -0.49302136106E+03  0.49302136106E+03  0.00000000000E+00 0.  1.
          2    1    1    2  501    0  0.37023429691E+01  0.19708271577E+02  0.87709469291E+02  0.89972630923E+02  0.00000000000E+00 0.  1.
          1    1    1    2  502    0 -0.37023429691E+01 -0.19708271577E+02 -0.49168540351E+03  0.49209415698E+03  0.00000000000E+00 0.  1.
</event>
<event>
 4    1  0.3586324E+003  0.2250511E+02  0.7546771E-02  0.1498808E+00
          2   -1    0    0  502    0  0.00000000000E+00  0.00000000000E+00  0.11282096474E+02  0.11282096474E+02  0.00000000000E+00 0. -1.
          1   -1    0    0  501    0 -0.00000000000E+00 -0.00000000000E+00 -0.10089455436E+03  0.10089455436E+03  0.00000000000E+00 0.  1.
          2    1    1    2  501    0 -0.11149778191E+01  0.22477477746E+02 -0.30192428387E+01  0.22706739279E+02  0.00000000000E+00 0. -1.
          1    1    1    2  502    0  0.11149778191E+01 -0.22477477746E+02 -0.86593215047E+02  0.89469911555E+02  0.00000000000E+00 0.  1.
</event>
<event>
 4    1  0.3586324E+003  0.3744162E+02  0.7546771E-02  0.1364167E+00
          2   -1    0    0  502    0  0.00000000000E+00  0.00000000000E+00  0.10616110730E+04  0.10616110730E+04  0.00000000000E+00 0.  1.
          1   -1    0    0  501    0 -0.00000000000E+00 -0.00000000000E+00 -0.20318273359E+01  0.20318273359E+01  0.00000000000E+00 0. -1.
          2    1    1    2  501    0 -0.34096888330E+02  0.15468590280E+02  0.84445729143E+03  0.84528692887E+03  0.00000000000E+00 0.  1.
          1    1    1    2  502    0  0.34096888330E+02 -0.15468590280E+02  0.21512195427E+03  0.21835597150E+03  0.00000000000E+00 0. -1.
</event>
<event>
 4    1  0.3586324E+003  0.2045669E+02  0.7546771E-02  0.1527165E+00
          2   -1    0    0  502    0  0.00000000000E+00  0.00000000000E+00  0.69954170114E+03  0.69954170114E+03  0.00000000000E+00 0. -1.
          1   -1    0    0  501    0 -0.00000000000E+00 -0.00000000000E+00 -0.27745942011E+01  0.27745942011E+01  0.00000000000E+00 0.  1.
          2    1    1    2  501    0  0.20232556436E+02 -0.30198913971E+01  0.65939067384E+03  0.65970791782E+03  0.00000000000E+00 0. -1.
          1    1    1    2  502    0 -0.20232556436E+02  0.30198913971E+01  0.37376433096E+02  0.42608377520E+02  0.00000000000E+00 0.  1.
</event>
<event>
 4    1  0.3586324E+003  0.2977442E+02  0.7546771E-02  0.1421567E+00
          2   -1    0    0  502    0  0.00000000000E+00  0.00000000000E+00  0.28448352916E+02  0.28448352916E+02  0.00000000000E+00 0. -1.
          1   -1    0    0  501    0 -0.00000000000E+00 -0.00000000000E+00 -0.91200421801E+02  0.91200421801E+02  0.00000000000E+00 0.  1.
          2    1    1    2  501    0 -0.18282200618E+02  0.23500574418E+02  0.17163255283E+02  0.34367036377E+02  0.00000000000E+00 0. -1.
          1    1    1    2  502    0  0.18282200618E+02 -0.23500574418E+02 -0.79915324168E+02  0.85281738340E+02  0.00000000000E+00 0.  1.
</event>
<event>
 4    1  0.3586324E+003  0.2192242E+02  0.7546771E-02  0.1506492E+00
          2   -1    0    0  502    0  0.00000000000E+00  0.00000000000E+00  0.13027225434E+04  0.13027225434E+04  0.00000000000E+00 0. -1.
          1   -1    0    0  501    0 -0.00000000000E+00 -0.00000000000E+00 -0.13554168674E+02  0.13554168674E+02  0.00000000000E+00 0.  1.
          2    1    1    2  501    0 -0.18919933169E+02 -0.11073775847E+02  0.12937042361E+04  0.12938899655E+04  0.00000000000E+00 0. -1.
          1    1    1    2  502    0  0.18919933169E+02  0.11073775847E+02 -0.45358613740E+01  0.22386746548E+02  0.00000000000E+00 0.  1.
</event>
<event>
 4    1  0.3586324E+003  0.2236294E+02  0.7546771E-02  0.1500656E+00
          2   -1    0    0  502    0  0.00000000000E+00  0.00000000000E+00  0.89925744979E+00  0.89925744979E+00  0.00000000000E+00 0. -1.
          1   -1    0    0  501    0 -0.00000000000E+00 -0.00000000000E+00 -0.70142080403E+03  0.70142080403E+03  0.00000000000E+00 0. -1.
          2    1    1    2  501    0 -0.20709469302E+02 -0.84391329489E+01 -0.19043760232E+03  0.19174613806E+03  0.00000000000E+00 0. -1.
          1    1    1    2  502    0  0.20709469302E+02  0.84391329489E+01 -0.51008394426E+03  0.51057392342E+03  0.00000000000E+00 0. -1.
</event>
<event>
 4    1  0.3586324E+003  0.2250088E+02  0.7546771E-02  0.1498863E+00
          2   -1    0    0  502    0  0.00000000000E+00  0.00000000000E+00  0.36890024146E+02  0.36890024146E+02  0.00000000000E+00 0.  1.
          1   -1    0    0  501    0 -0.00000000000E+00 -0.00000000000E+00 -0.41930006886E+02  0.41930006886E+02  0.00000000000E+00 0. -1.
          2    1    1    2  501    0 -0.19678604530E+01 -0.22414666598E+02  0.29803080973E+02  0.37343183969E+02  0.00000000000E+00 0.  1.
          1    1    1    2  502    0  0.19678604530E+01  0.22414666598E+02 -0.34843063713E+02  0.41476847064E+02  0.00000000000E+00 0. -1.
</event>
<event>
 4    1  0.3586324E+003  0.3438951E+02  0.7546771E-02  0.1384907E+00
          2   -1    0    0  502    0  0.00000000000E+00  0.00000000000E+00  0.64264385215E+03  0.64264385215E+03  0.00000000000E+00 0.  1.
          1   -1    0    0  501    0 -0.00000000000E+00 -0.00000000000E+00 -0.16967582717E+02  0.16967582717E+02  0.00000000000E+00 0. -1.
          2    1    1    2  501    0 -0.19972734119E+02  0.27995150034E+02  0.62424564168E+03  0.62519217820E+03  0.00000000000E+00 0.  1.
          1    1    1    2  502    0  0.19972734119E+02 -0.27995150034E+02  0.14306277569E+01  0.34419256666E+02  0.00000000000E+00 0. -1.
</event>
<event>
 4    1  0.3586324E+003  0.3196560E+02  0.7546771E-02  0.1403251E+00
          2   -1    0    0  502    0  0.00000000000E+00  0.00000000000E+00  0.71527631510E+02  0.71527631510E+02  0.00000000000E+00 0.  1.
          1   -1    0    0  501    0 -0.00000000000E+00 -0.00000000000E+00 -0.34045658426E+02  0.34045658426E+02  0.00000000000E+00 0. -1.
          2    1    1    2  501    0  0.31670372810E+02  0.43344097811E+01  0.58956135916E+02  0.67064339140E+02  0.00000000000E+00 0.  1.
          1    1    1    2  502    0 -0.31670372810E+02 -0.43344097811E+01 -0.21474162833E+02  0.38508950796E+02  0.00000000000E+00 0. -1.
</event>
<event>
 4    1  0.3586324E+003  0.2894682E+02  0.7546771E-02  0.1428975E+00
          2   -1    0    0  502    0  0.00000000000E+00  0.00000000000E+00  0.90493588701E+03  0.90493588701E+03  0.00000000000E+00 0. -1.
          1   -1    0    0  501    0 -0.00000000000E+00 -0.00000000000E+00 -0.70110792423E+01  0.70110792423E+01  0.00000000000E+00 0. -1.
          2    1    1    2  501    0 -0.27742017336E+02 -0.82643296004E+01  0.87376026122E+03  0.87423961976E+03  0.00000000000E+00 0. -1.
          1    1    1    2  502    0  0.27742017336E+02  0.82643296004E+01  0.24164546546E+02  0.37707346491E+02  0.00000000000E+00 0. -1.
</event>
<event>
 4    1  0.3586324E+003  0.2229896E+02  0.7546771E-02  0.1501494E+00
          2   -1    0    0  502    0  0.00000000000E+00  0.00000000000E+00  0.27396821195E+03  0.27396821195E+03  0.00000000000E+00 0. -1.
          1   -1    0    0  501    0 -0.00000000000E+00 -0.00000000000E+00 -0.16146566855E+03  0.16146566855E+03  0.00000000000E+00 0.  1.
          2    1    1    2  501    0 -0.21307723434E+02 -0.65745319271E+01  0.27274112138E+03  0.27365116999E+03  0.00000000000E+00 0. -1.
          1    1    1    2  502    0  0.21307723434E+02  0.65745319271E+01 -0.16023857798E+03  0.16178271051E+03  0.00000000000E+00 0.  1.
</event>
<event>
 4    1  0.3586324E+003  0.2203191E+02  0.7546771E-02  0.1505026E+00
          2   -1    0    0  502    0  0.00000000000E+00  0.00000000000E+00  0.25105298565E+01  0.25105298565E+01  0.00000000000E+00 0. -1.
          1   -1    0    0  501    0 -0.00000000000E+00 -0.00000000000E+00 -0.39982166156E+03  0.39982166156E+03  0.00000000000E+00 0.  1.
          2    1    1    2  501    0  0.12208959489E+00 -0.22031568316E+02 -0.54093487421E+02  0.58408135475E+02  0.00000000000E+00 0. -1.
          1    1    1    2  502    0 -0.12208959489E+00  0.22031568316E+02 -0.34321764428E+03  0.34392405594E+03  0.00000000000E+00 0.  1.
</event>
<event>
 4    1  0.3586324E+003  0.4239142E+02  0.7546771E-02  0.1335015E+00
          2   -1    0    0  502    0  0.00000000000E+00  0.00000000000E+00  0.10225112676E+04  0.10225112676E+04  0.00000000000E+00 0.  1.
          1   -1    0    0  501    0 -0.00000000000E+00 -0.00000000000E+00 -0.37172208655E+03  0.37172208655E+03  0.00000000000E+00 0. -1.
          2    1    1    2  501    0  0.41842128026E+02  0.68021469871E+01  0.10208613613E+04  0.10217411374E+04  0.00000000000E+00 0.  1.
          1    1    1    2  502    0 -0.41842128026E+02 -0.68021469871E+01 -0.37007218028E+03  0.37249221670E+03  0.00000000000E+00 0. -1.
</event>
<event>
 4    1  0.3586324E+003  0.2461806E+02  0.7546771E-02  0.1473122E+00
          2   -1    0    0  502    0  0.00000000000E+00  0.00000000000E+00  0.69921458179E+01  0.69921458179E+01  0.00000000000E+00 0.  1.
          1   -1    0    0  501    0 -0.00000000000E+00 -0.00000000000E+00 -0.62572535752E+03  0.62572535752E+03  0.00000000000E+00 0. -1.
          2    1    1    2  501    0 -0.43644441606E+01  0.24228090166E+02 -0.15735279868E+02  0.29217251042E+02  0.00000000000E+00 0.  1.
          1    1    1    2  502    0  0.43644441606E+01 -0.24228090166E+02 -0.60299793183E+03  0.60350025229E+03  0.00000000000E+00 0. -1.
</event>
<event>
 4    1  0.3586324E+003  0.5429960E+02  0.7546771E-02  0.1280535E+00
          2   -1    0    0  502    0  0.00000000000E+00  0.00000000000E+00  0.25253463816E+03  0.25253463816E+03  0.00000000000E+00 0.  1.
          1   -1    0    0  501    0 -0.00000000000E+00 -0.00000000000E+00 -0.13979836572E+02  0.13979836572E+02  0.00000000000E+00 0.  1.
          2    1    1    2  501    0  0.52658146782E+02 -0.13250136662E+02  0.17338033053E+03  0.18168430191E+03  0.00000000000E+00 0.  1.
          1    1    1    2  502    0 -0.52658146782E+02  0.13250136662E+02  0.65174471058E+02  0.84830172827E+02  0.00000000000E+00 0.  1.
</event>
<event>
 4    1  0.3586324E+003  0.2548000E+02  0.7546771E-02  0.1463505E+00
          2   -1    0    0  502    0  0.00000000000E+00  0.00000000000E+00  0.47229617156E+01  0.47229617156E+01  0.00000000000E+00 0. -1.
          1   -1    0    0  501    0 -0.00000000000E+00 -0.00000000000E+00 -0.75772699005E+03  0.75772699005E+03  0.00000000000E+00 0.  1.
          2    1    1    2  501    0  0.13434742825E+02 -0.21650364369E+02 -0.31585973755E+02  0.40582069072E+02  0.00000000000E+00 0. -1.
          1    1    1    2  502    0 -0.13434742825E+02  0.21650364369E+02 -0.72141805458E+03  0.72186788269E+03  0.00000000000E+00 0.  1.
</event>
<event>
 4    1  0.3586324E+003  0.2733203E+02  0.7546771E-02  0.1444301E+00
          2   -1    0    0  502    0  0.00000000000E+00  0.00000000000E+00  0.77903671345E+02  0.77903671345E+02  0.00000000000E+00 0.  1.
          1   -1    0    0  501    0 -0.00000000000E+00 -0.00000000000E+00 -0.29387394629E+03  0.29387394629E+03  0.00000000000E+00 0. -1.
          2    1    1    2  501    0  0.10839217631E+02 -0.25090856491E+02  0.74845689480E+02  0.79680091315E+02  0.00000000000E+00 0.  1.
          1    1    1    2  502    0 -0.10839217631E+02  0.25090856491E+02 -0.29081596442E+03  0.29209752632E+03  0.00000000000E+00 0. -1.
</event>
<event>
 4    1  0.3586324E+003  0.2473893E+02  0.7546771E-02  0.1471745E+00
          2   -1    0    0  502    0  0.00000000000E+00  0.00000000000E+00  0.14105641273E+04  0.14105641273E+04  0.00000000000E+00 0. -1.
          1   -1    0    0  501    0 -0.00000000000E+00 -0.00000000000E+00 -0.97850822328E+01  0.97850822328E+01  0.00000000000E+00 0. -1.
          2    1    1    2  501    0  0.16389619820E+02 -0.18530922513E+02  0.13946407188E+04  0.13948601182E+04  0.00000000000E+00 0. -1.
          1    1    1    2  502    0 -0.16389619820E+02  0.18530922513E+02  0.61383262135E+01  0.25489091309E+02  0.00000000000E+00 0. -1.
</event>
<event>
 4    1  0.3586324E+003  0.2406941E+02  0.7546771E-02  0.1479489E+00
          2   -1    0    0  502    0  0.00000000000E+00  0.00000000000E+00  0.60854668550E+02  0.60854668550E+02  0.00000000000E+00 0.  1.
          1   -1    0    0  501    0 -0.00000000000E+00 -0.00000000000E+00 -0.10089475153E+03  0.10089475153E+03  0.00000000000E+00 0.  1.
          2    1    1    2  501    0 -0.22165196157E+02  0.93829827272E+01  0.56944654765E+02  0.61822568628E+02  0.00000000000E+00 0.  1.
          1    1    1    2  502    0  0.22165196157E+02 -0.93829827272E+01 -0.96984737749E+02  0.99926851455E+02  0.00000000000E+00 0.  1.
</event>
<event>
 4    1  0.3586324E+003  0.2164498E+02  0.7546771E-02  0.1510252E+00
          2   -1    0    0  502    0  0.00000000000E+00  0.00000000000E+00  0.12950081013E+04  0.12950081013E+04  0.00000000000E+00 0. -1.
          1   -1    0    0  501    0 -0.00000000000E+00 -0.00000000000E+00 -0.32966802646E+01  0.32966802646E+01  0.00000000000E+00 0.  1.
          2    1    1    2  501    0 -0.12715219099E+02  0.17516516705E+02  0.12583542886E+04  0.12585404327E+04  0.00000000000E+00 0. -1.
          1    1    1    2  502    0  0.12715219099E+02 -0.17516516705E+02  0.33357132398E+02  0.39764348806E+02  0.00000000000E+00 0.  1.
</event>
<event>
 4    1  0.3586324E+003  0.2196600E+02  0.7546771E-02  0.1505907E+00
          2   -1    0    0  502    0  0.00000000000E+00  0.00000000000E+00  0.61954835263E+02  0.61954835263E+02  0.00000000000E+00 0. -1.
          1   -1    0    0  501    0 -0.00000000000E+00 -0.00000000000E+00 -0.38302327804E+03  0.38302327804E+03  0.00000000000E+00 0. -1.
          2    1    1    2  501    0  0.19948200097E+02  0.91964389574E+01  0.59681283144E+02  0.63595288617E+02  0.00000000000E+00 0. -1.
          1    1    1    2  502    0 -0.19948200097E+02 -0.91964389574E+01 -0.38074972593E+03  0.38138282469E+03  0.00000000000E+00 0. -1.
</event>
<event>
 4    1  0.3586324E+003  0.2318233E+02  0.7546771E-02  0.1490221E+00
          2   -1    0    0  502    0  0.00000000000E+00  0.00000000000E+00  0.63231125471E+00  0.63231125471E+00  0.00000000000E+00 0.  1.
          1   -1    0    0  501    0 -0.00000000000E+00 -0.00000000000E+00 -0.99700366984E+03  0.99700366984E+03  0.00000000000E+00 0.  1.
          2    1    1    2  501    0 -0.23167222164E+00  0.23181175367E+02 -0.30660108194E+03  0.30747624951E+03  0.00000000000E+00 0.  1.
          1    1    1    2  502    0  0.23167222164E+00 -0.23181175367E+02 -0.68977027665E+03  0.69015973159E+03  0.00000000000E+00 0.  1.
</event>
<event>
 4    1  0.3586324E+003  0.2189112E+02  0.7546771E-02  0.1506912E+00
          2   -1    0    0  502    0  0.00000000000E+00  0.00000000000E+00  0.12927865427E+03  0.12927865427E+03  0.00000000000E+00 0.  1.
          1   -1    0    0  501    0 -0.00000000000E+00 -0.00000000000E+00 -0.13052025135E+02  0.13052025135E+02  0.00000000000E+00 0. -1.
          2    1    1    2  501    0  0.11250373199E+02  0.18778980199E+02  0.11833078456E+03  0.12033867030E+03  0.00000000000E+00 0.  1.
          1    1    1    2  502    0 -0.11250373199E+02 -0.18778980199E+02 -0.21041554269E+01  0.21992009106E+02  0.00000000000E+00 0. -1.
</event>
<event>
 4    1  0.3586324E+003  0.3138921E+02  0.7546771E-02  0.1407896E+00
          2   -1    0    0  502    0  0.00000000000E+00  0.00000000000E+00  0.10095967412E+04  0.10095967412E+04  0.00000000000E+00 0.  1.
          1   -1    0    0  501    0 -0.00000000000E+00 -0.00000000000E+00 -0.30303239358E+01  0.30303239358E+01  0.00000000000E+00 0. -1.
          2    1    1    2  501    0  0.11408502954E+02  0.29242585690E+02  0.92017009032E+03  0.92070531544E+03  0.00000000000E+00 0.  1.
          1    1    1    2  502    0 -0.11408502954E+02 -0.29242585690E+02  0.86396326905E+02  0.91921749658E+02  0.00000000000E+00 0. -1.
</event>
<event>
 4    1  0.3586324E+003  0.2408060E+02  0.7546771E-02  0.1479357E+00
          2   -1    0    0  502    0  0.00000000000E+00  0.00000000000E+00  0.78788198776E+03  0.78788198776E+03  0.00000000000E+00 0. -1.
          1   -1    0    0  501    0 -0.00000000000E+00 -0.00000000000E+00 -0.13085533213E+02  0.13085533213E+02  0.00000000000E+00 0. -1.
          2    1    1    2  501    0  0.20843346305E+02 -0.12059453941E+02  0.77645644687E+03  0.77682976861E+03  0.00000000000E+00 0. -1.
          1    1    1    2  502    0 -0.20843346305E+02  0.12059453941E+02 -0.16599923228E+01  0.24137752361E+02  0.00000000000E+00 0. -1.
</event>
<event>
 4    1  0.3586324E+003  0.2933760E+02  0.7546771E-02  0.1425441E+00
          2   -1    0    0  502    0  0.00000000000E+00  0.00000000000E+00  0.15377445186E+04  0.15377445186E+04  0.00000000000E+00 0. -1.
          1   -1    0    0  501    0 -0.00000000000E+00 -0.00000000000E+00 -0.15783795188E+02  0.15783795188E+02  0.00000000000E+00 0.  1.
          2    1    1    2  501    0 -0.65990422203E+01  0.28585791407E+02  0.15238477081E+04  0.15241300904E+04  0.00000000000E+00 0. -1.
          1    1    1    2  502    0  0.65990422203E+01 -0.28585791407E+02 -0.18869847129E+01  0.29398223414E+02  0.00000000000E+00 0.  1.
</event>
<event>
 4    1  0.3586324E+003  0.2490999E+02  0.7546771E-02  0.1469813E+00
          2   -1    0    0  502    0  0.00000000000E+00  0.00000000000E+00  0.98804355182E+01  0.98804355182E+01  0.00000000000E+00 0. -1.
          1   -1    0    0  501    0 -0.00000000000E+00 -0.00000000000E+00 -0.47059290113E+03  0.47059290113E+03  0.00000000000E+00 0.  1.
          2    1    1    2  501    0 -0.15479627006E+01 -0.24861848177E+02 -0.67234021668E+01  0.25801391823E+02  0.00000000000E+00 0. -1.
          1    1    1    2  502    0  0.15479627006E+01  0.24861848177E+02 -0.45398906345E+03  0.45467194483E+03  0.00000000000E+00 0.  1.
</event>
<event>
 4    1  0.3586324E+003  0.2513893E+02  0.7546771E-02  0.1467255E+00
          2   -1    0    0  502    0  0.00000000000E+00  0.00000000000E+00  0.86879743023E+02  0.86879743023E+02  0.00000000000E+00 0.  1.
          1   -1    0    0  501    0 -0.00000000000E+00 -0.00000000000E+00 -0.16849096269E+04  0.16849096269E+04  0.00000000000E+00 0. -1.
          2    1    1    2  501    0 -0.25019074504E+02 -0.24518284169E+01  0.84965399571E+02  0.88606346702E+02  0.00000000000E+00 0.  1.
          1    1    1    2  502    0  0.25019074504E+02  0.24518284169E+01 -0.16829952834E+04  0.16831830232E+04  0.00000000000E+00 0. -1.
</event>
<event>
 4    1  0.3586324E+003  0.3445220E+02  0.7546771E-02  0.1384456E+00
          2   -1    0    0  502    0  0.00000000000E+00  0.00000000000E+00  0.73849509282E+03  0.73849509282E+03  0.00000000000E+00 0. -1.
          1   -1    0    0  501    0 -0.00000000000E+00 -0.00000000000E+00 -0.12244794035E+02  0.12244794035E+02  0.00000000000E+00 0.  1.
          2    1    1    2  501    0 -0.23914659801E+02  0.24800062550E+02  0.71299314911E+03  0.71382503790E+03  0.00000000000E+00 0. -1.
          1    1    1    2  502    0  0.23914659801E+02 -0.24800062550E+02  0.13257149678E+02  0.36914848956E+02  0.00000000000E+00 0.  1.
</event>
<event>
 4    1  0.3586324E+003  0.2029107E+02  0.7546771E-02  0.1529632E+00
          2   -1    0    0  502    0  0.00000000000E+00  0.00000000000E+00  0.12395593322E+02  0.12395593322E+02  0.00000000000E+00 0. -1.
          1   -1    0    0  501    0 -0.00000000000E+00 -0.00000000000E+00 -0.11040508051E+03  0.11040508051E+03  0.00000000000E+00 0. -1.
          2    1    1    2  501    0  0.17975532882E+02  0.94131682814E+01  0.23351757153E+01  0.20424998534E+02  0.00000000000E+00 0. -1.
          1    1    1    2  502    0 -0.17975532882E+02 -0.94131682814E+01 -0.10034466290E+03  0.10237567530E+03  0.00000000000E+00 0. -1.
</event>
<event>
 4    1  0.3586324E+003  0.3147795E+02  0.7546771E-02  0.1407174E+00
          2   -1    0    0  502    0  0.00000000000E+00  0.00000000000E+00  0.17944844851E+03  0.17944844851E+03  0.00000000000E+00 0.  1.
          1   -1    0    0  501    0 -0.00000000000E+00 -0.00000000000E+00 -0.33175565336E+02  0.33175565336E+02  0.00000000000E+00 0. -1.
          2    1    1    2  501    0  0.22423637993E+02  0.22091674762E+02  0.17019884092E+03  0.17308525958E+03  0.00000000000E+00 0.  1.
          1    1    1    2  502    0 -0.22423637993E+02 -0.22091674762E+02 -0.23925957746E+02  0.39538754263E+02  0.00000000000E+00 0. -1.
</event>
<event>
 4    1  0.3586324E+003  0.2288718E+02  0.7546771E-02  0.1493920E+00
          2   -1    0    0  502    0  0.00000000000E+00  0.00000000000E+00  0.77952883776E+03  0.77952883776E+03  0.00000000000E+00 0.  1.
          1   -1    0    0  501    0 -0.00000000000E+00 -0.00000000000E+00 -0.10487410572E+01  0.10487410572E+01  0.00000000000E+00 0.  1.
          2    1    1    2  501    0  0.22050851560E+02 -0.61305024338E+01  0.62317138407E+03  0.62359153060E+03  0.00000000000E+00 0.  1.
          1    1    1    2  502    0 -0.22050851560E+02  0.61305024338E+01  0.15530871263E+03  0.15698604821E+03  0.00000000000E+00 0.  1.
</event>
<event>
 4    1  0.3586324E+003  0.2563823E+02  0.7546771E-02  0.1461789E+00
          2   -1    0    0  502    0  0.00000000000E+00  0.00000000000E+00  0.12983742697E+02  0.12983742697E+02  0.00000000000E+00 0. -1.
          1   -1    0    0  501    0 -0.00000000000E+00 -0.00000000000E+00 -0.85962136865E+02  0.85962136865E+02  0.00000000000E+00 0. -1.
          2    1    1    2  501    0  0.25592930032E+02 -0.15232587976E+01 -0.68208382711E+02  0.72867701055E+02  0.00000000000E+00 0. -1.
          1    1    1    2  502    0 -0.25592930032E+02  0.15232587976E+01 -0.47700114568E+01  0.26078178507E+02  0.00000000000E+00 0. -1.
</event>
<event>
 4    1  0.3586324E+003  0.3156813E+02  0.7546771E-02  0.1406442E+00
          2   -1    0    0  502    0  0.00000000000E+00  0.00000000000E+00  0.86491091017E+03  0.86491091017E+03  0.00000000000E+00 0.  1.
          1   -1    0    0  501    0 -0.00000000000E+00 -0.00000000000E+00 -0.10286382666E+02  0.10286382666E+02  0.00000000000E+00 0.  1.
          2    1    1    2  501    0 -0.31541364680E+02 -0.12996160002E+01  0.83967515746E+03  0.84026835995E+03  0.00000000000E+00 0.  1.
          1    1    1    2  502    0  0.31541364680E+02  0.12996160002E+01  0.14949370048E+02  0.34928932885E+02  0.00000000000E+00 0.  1.
</event>
<event>
 4    1  0.3586324E+003  0.2002587E+02  0.7546771E-02  0.1533641E+00
          2   -1    0    0  502    0  0.00000000000E+00  0.00000000000E+00  0.10942122894E+04  0.10942122894E+04  0.00000000000E+00 0.  1.
          1   -1    0    0  501    0 -0.00000000000E+00 -0.00000000000E+00 -0.38154842434E+02  0.38154842434E+02  0.00000000000E+00 0. -1.
          2    1    1    2  501    0 -0.17610948872E+01  0.19948283664E+02  0.10914864170E+04  0.10916701123E+04  0.00000000000E+00 0.  1.
          1    1    1    2  502    0  0.17610948872E+01 -0.19948283664E+02 -0.35428970095E+02  0.40697019526E+02  0.00000000000E+00 0. -1.
</event>
<event>
 4    1  0.4192323E+003  0.3195492E+02  0.7546771E-02  0.1403336E+00
          2   -1    0    0  502    0  0.00000000000E+00  0.00000000000E+00  0.10376843210E+04  0.10376843210E+04  0.00000000000E+00 0. -1.
          1   -1    0    0  501    0 -0.00000000000E+00 -0.00000000000E+00 -0.73285320283E+03  0.73285320283E+03  0.00000000000E+00 0. -1.
          2    1    1    2  501    0 -0.21642216346E+02 -0.23510237503E+02  0.10370897767E+04  0.10375819591E+04  0.00000000000E+00 0. -1.
          1    1    1    2  502    0  0.21642216346E+02  0.23510237503E+02 -0.73225865859E+03  0.73295556473E+03  0.00000000000E+00 0. -1.
</event>
<event>
 4    1  0.3586324E+003  0.2158859E+02  0.7546771E-02  0.1511025E+00
          2   -1    0    0  502    0  0.00000000000E+00  0.00000000000E+00  0.82807303165E+02  0.82807303165E+02  0.00000000000E+00 0.  1.
          1   -1    0    0  501    0 -0.00000000000E+00 -0.00000000000E+00 -0.14982549609E+02  0.14982549609E+02  0.00000000000E+00 0.  1.
          2    1    1    2  501    0  0.95314067938E+01  0.19370587440E+02  0.72546811527E+02  0.75690866265E+02  0.00000000000E+00 0.  1.
          1    1    1    2  502    0 -0.95314067938E+01 -0.19370587440E+02 -0.47220579712E+01  0.22098986509E+02  0.00000000000E+00 0.  1.
</event>
<event>
 4    1  0.3586324E+003  0.6513882E+02  0.7546771E-02  0.1243306E+00
          2   -1    0    0  502    0  0.00000000000E+00  0.00000000000E+00  0.97607078863E+01  0.97607078863E+01  0.00000000000E+00 0.  1.
          1   -1    0    0  501    0 -0.00000000000E+00 -0.00000000000E+00 -0.43832932061E+03  0.43832932061E+03  0.00000000000E+00 0. -1.
          2    1    1    2  501    0  0.18453799529E+02 -0.62470175725E+02 -0.19392229000E+03  0.20457008611E+03  0.00000000000E+00 0.  1.
          1    1    1    2  502    0 -0.18453799529E+02  0.62470175725E+02 -0.23464632272E+03  0.24351994239E+03  0.00000000000E+00 0. -1.
</event>
<event>
 4    1  0.3586324E+003  0.2144450E+02  0.7546771E-02  0.1513012E+00
          2   -1    0    0  502    0  0.00000000000E+00  0.00000000000E+00  0.16279443981E+01  0.16279443981E+01  0.00000000000E+00 0.  1.
          1   -1    0    0  501    0 -0.00000000000E+00 -0.00000000000E+00 -0.36364631439E+03  0.36364631439E+03  0.00000000000E+00 0. -1.
          2    1    1    2  501    0  0.82139393784E+01 -0.19809035714E+02 -0.94725390663E+02  0.97122429604E+02  0.00000000000E+00 0.  1.
          1    1    1    2  502    0 -0.82139393784E+01  0.19809035714E+02 -0.26729297933E+03  0.26815182919E+03  0.00000000000E+00 0. -1.
</event>
<event>
 4    1  0.3586324E+003  0.3310784E+02  0.7546771E-02  0.1394377E+00
          2   -1    0    0  502    0  0.00000000000E+00  0.00000000000E+00  0.38313979613E+01  0.38313979613E+01  0.00000000000E+00 0.  1.
          1   -1    0    0  501    0 -0.00000000000E+00 -0.00000000000E+00 -0.31831172613E+03  0.31831172613E+03  0.00000000000E+00 0. -1.
          2    1    1    2  501    0  0.31393136376E+02  0.10516651783E+02 -0.10599423986E+03  0.11104462103E+03  0.00000000000E+00 0.  1.
          1    1    1    2  502    0 -0.31393136376E+02 -0.10516651783E+02 -0.20848608832E+03  0.21109850307E+03  0.00000000000E+00 0. -1.
</event>
<event>
 4    1  0.3586324E+003  0.2231797E+02  0.7546771E-02  0.1501245E+00
          2   -1    0    0  502    0  0.00000000000E+00  0.00000000000E+00  0.76733709183E+03  0.76733709183E+03  0.00000000000E+00 0. -1.
          1   -1    0    0  501    0 -0.00000000000E+00 -0.00000000000E+00 -0.33546887852E+03  0.33546887852E+03  0.00000000000E+00 0.  1.
          2    1    1    2  501    0  0.19321103494E+02  0.11170801990E+02  0.76680336336E+03  0.76712807921E+03  0.00000000000E+00 0. -1.
          1    1    1    2  502    0 -0.19321103494E+02 -0.11170801990E+02 -0.33493515005E+03  0.33567789114E+03  0.00000000000E+00 0.  1.
</event>
<event>
 4    1  0.3586324E+003  0.2675334E+02  0.7546771E-02  0.1450102E+00
          2   -1    0    0  502    0  0.00000000000E+00  0.00000000000E+00  0.25445998018E+02  0.25445998018E+02  0.00000000000E+00 0.  1.
          1   -1    0    0  501    0 -0.00000000000E+00 -0.00000000000E+00 -0.17836604072E+03  0.17836604072E+03  0.00000000000E+00 0. -1.
          2    1    1    2  501    0 -0.25454061902E+02 -0.82360167358E+01  0.17066315059E+02  0.31733268799E+02  0.00000000000E+00 0.  1.
          1    1    1    2  502    0  0.25454061902E+02  0.82360167358E+01 -0.16998635777E+03  0.17207876994E+03  0.00000000000E+00 0. -1.
</event>
<event>
 4    1  0.3586324E+003  0.2948041E+02  0.7546771E-02  0.1424166E+00
          2   -1    0    0  502    0  0.00000000000E+00  0.00000000000E+00  0.34544826109E+02  0.34544826109E+02  0.00000000000E+00 0. -1.
          1   -1    0    0  501    0 -0.00000000000E+00 -0.00000000000E+00 -0.28034525445E+02  0.28034525445E+02  0.00000000000E+00 0. -1.
          2    1    1    2  501    0 -0.26274822686E+02  0.13368920744E+02  0.13277151424E+02  0.32332291891E+02  0.00000000000E+00 0. -1.
          1    1    1    2  502    0  0.26274822686E+02 -0.13368920744E+02 -0.67668507593E+01  0.30247059662E+02  0.00000000000E+00 0. -1.
</event>
<event>
 4    1  0.3586324E+003  0.3351723E+02  0.7546771E-02  0.1391298E+00
          2   -1    0    0  502    0  0.00000000000E+00  0.00000000000E+00  0.47901640076E+03  0.47901640076E+03  0.00000000000E+00 0. -1.
          1   -1    0    0  501    0 -0.00000000000E+00 -0.00000000000E+00 -0.23606778473E+01  0.23606778473E+01  0.00000000000E+00 0.  1.
          2    1    1    2  501    0  0.18643005117E+02 -0.27853942481E+02  0.21885778887E+03  0.22140942957E+03  0.00000000000E+00 0. -1.
          1    1    1    2  502    0 -0.18643005117E+02  0.27853942481E+02  0.25779793404E+03  0.25996764904E+03  0.00000000000E+00 0.  1.
</event>
<event>
 4    1  0.3586324E+003  0.2669145E+02  0.7546771E-02  0.1450732E+00
          2   -1    0    0  502    0  0.00000000000E+00  0.00000000000E+00  0.11085080537E+03  0.11085080537E+03  0.00000000000E+00 0.  1.
          1   -1    0    0  501    0 -0.00000000000E+00 -0.00000000000E+00 -0.86669273094E+02  0.86669273094E+02  0.00000000000E+00 0. -1.
          2    1    1    2  501    0  0.13752822336E+02  0.22875604201E+02  0.10711850680E+03  0.11039387614E+03  0.00000000000E+00 0.  1.
          1    1    1    2  502    0 -0.13752822336E+02 -0.22875604201E+02 -0.82936974520E+02  0.87126202330E+02  0.00000000000E+00 0. -1.
</event>
<event>
 4    1  0.3586324E+003  0.2190381E+02  0.7546771E-02  0.1506742E+00
          2   -1    0    0  502    0  0.00000000000E+00  0.00000000000E+00  0.25301062628E+01  0.25301062628E+01  0.00000000000E+00 0. -1.
          1   -1    0    0  501    0 -0.00000000000E+00 -0.00000000000E+00 -0.95045701238E+03  0.95045701238E+03  0.00000000000E+00 0. -1.
          2    1    1    2  501    0 -0.18236990169E+02 -0.12132143814E+02 -0.47644556352E+02  0.52438349268E+02  0.00000000000E+00 0. -1.
          1    1    1    2  502    0  0.18236990169E+02  0.12132143814E+02 -0.90028234977E+03  0.90054876938E+03  0.00000000000E+00 0. -1.
</event>
<event>
 4    1  0.3586324E+003  0.3410575E+02  0.7546771E-02  0.1386961E+00
          2   -1    0    0  502    0  0.00000000000E+00  0.00000000000E+00  0.46642391091E+03  0.46642391091E+03  0.00000000000E+00 0. -1.
          1   -1    0    0  501    0 -0.00000000000E+00 -0.00000000000E+00 -0.29241731698E+01  0.29241731698E+01  0.00000000000E+00 0. -1.
          2    1    1    2  501    0  0.32295200935E+02  0.10964543607E+02  0.14172756771E+03  0.14577347039E+03  0.00000000000E+00 0. -1.
          1    1    1    2  502    0 -0.32295200935E+02 -0.10964543607E+02  0.32177217002E+03  0.32357461368E+03  0.00000000000E+00 0. -1.
</event>
<event>
 4    1  0.3586324E+003  0.2686102E+02  0.7546771E-02  0.1449009E+00
          2   -1    0    0  502    0  0.00000000000E+00  0.00000000000E+00  0.14257368692E+04  0.14257368692E+04  0.00000000000E+00 0. -1.
          1   -1    0    0  501    0 -0.00000000000E+00 -0.00000000000E+00 -0.50140938379E+02  0.50140938379E+02  0.00000000000E+00 0.  1.
          2    1    1    2  501    0 -0.15995307267E+02 -0.21579267991E+02  0.14220034761E+04  0.14222571500E+04  0.00000000000E+00 0. -1.
          1    1    1    2  502    0  0.15995307267E+02  0.21579267991E+02 -0.46407545277E+02  0.53620657589E+02  0.00000000000E+00 0.  1.
</event>
<event>
 4    1  0.3586324E+003  0.7016969E+02  0.7546771E-02  0.1228715E+00
          2   -1    0    0  502    0  0.00000000000E+00  0.00000000000E+00  0.81732403462E+03  0.81732403462E+03  0.00000000000E+00 0. -1.
          1   -1    0    0  501    0 -0.00000000000E+00 -0.00000000000E+00 -0.15550237467E+03  0.15550237467E+03  0.00000000000E+00 0.  1.
          2    1    1    2  501    0  0.63940033025E+02 -0.28904291045E+02  0.80780896652E+03  0.81085085698E+03  0.00000000000E+00 0. -1.
          1    1    1    2  502    0 -0.63940033025E+02  0.28904291045E+02 -0.14598730658E+03  0.16197555231E+03  0.00000000000E+00 0.  1.
</event>
<event>
 4    1  0.3586324E+003  0.2825966E+02  0.7546771E-02  0.1435349E+00
          2   -1    0    0  502    0  0.00000000000E+00  0.00000000000E+00  0.73480892693E+00  0.73480892693E+00  0.00000000000E+00 0.  1.
          1   -1    0    0  501    0 -0.00000000000E+00 -0.00000000000E+00 -0.12150522433E+04  0.12150522433E+04  0.00000000000E+00 0.  1.
          2    1    1    2  501    0 -0.27379628218E+02 -0.69974579806E+01 -0.40967978182E+03  0.41065329913E+03  0.00000000000E+00 0.  1.
          1    1    1    2  502    0  0.27379628218E+02  0.69974579806E+01 -0.80463765258E+03  0.80513375312E+03  0.00000000000E+00 0.  1.
</event>
<event>
 4    1  0.3586324E+003  0.2159295E+02  0.7546771E-02  0.1510965E+00
          2   -1    0    0  502    0  0.00000000000E+00  0.00000000000E+00  0.91377107790E+03  0.91377107790E+03  0.00000000000E+00 0. -1.
          1   -1    0    0  501    0 -0.00000000000E+00 -0.00000000000E+00 -0.89353788955E+01  0.89353788955E+01  0.00000000000E+00 0. -1.
          2    1    1    2  501    0 -0.19516870703E+02 -0.92383659050E+01  0.90040467554E+03  0.90066355282E+03  0.00000000000E+00 0. -1.
          1    1    1    2  502    0  0.19516870703E+02  0.92383659050E+01  0.44310234637E+01  0.22042903973E+02  0.00000000000E+00 0. -1.
</event>
<event>
 4    1  0.3586324E+003  0.2414480E+02  0.7546771E-02  0.1478602E+00
          2   -1    0    0  502    0  0.00000000000E+00  0.00000000000E+00  0.40189541223E+01  0.40189541223E+01  0.00000000000E+00 0.  1.
          1   -1    0    0  501    0 -0.00000000000E+00 -0.00000000000E+00 -0.21773128478E+03  0.21773128478E+03  0.00000000000E+00 0.  1.
          2    1    1    2  501    0 -0.53639835072E+01 -0.23541429968E+02 -0.42798860224E+02  0.49139736268E+02  0.00000000000E+00 0.  1.
          1    1    1    2  502    0  0.53639835072E+01  0.23541429968E+02 -0.17091347044E+03  0.17261050264E+03  0.00000000000E+00 0.  1.
</event>
<event>
 4    1  0.3586324E+003  0.2707318E+02  0.7546771E-02  0.1446874E+00
          2   -1    0    0  502    0  0.00000000000E+00  0.00000000000E+00  0.76275067504E+02  0.76275067504E+02  0.00000000000E+00 0. -1.
          1   -1    0    0  501    0 -0.00000000000E+00 -0.00000000000E+00 -0.96095377577E+01  0.96095377577E+01  0.00000000000E+00 0. -1.
          2    1    1    2  501    0  0.11307390906E+02 -0.24598776795E+02  0.33500867960E+02  0.43072787964E+02  0.00000000000E+00 0. -1.
          1    1    1    2  502    0 -0.11307390906E+02  0.24598776795E+02  0.33164661786E+02  0.42811817298E+02  0.00000000000E+00 0. -1.
</event>
<event>
 4    1  0.3586324E+003  0.2174771E+02  0.7546771E-02  0.1508852E+00
          2   -1    0    0  502    0  0.00000000000E+00  0.00000000000E+00  0.34542257036E+03  0.34542257036E+03  0.00000000000E+00 0. -1.
          1   -1    0    0  501    0 -0.00000000000E+00 -0.00000000000E+00 -0.59943102169E+01  0.59943102169E+01  0.00000000000E+00 0. -1.
          2    1    1    2  501    0 -0.19336177463E+02 -0.99536544143E+01  0.32405560436E+03  0.32478454045E+03  0.00000000000E+00 0. -1.
          1    1    1    2  502    0  0.19336177463E+02  0.99536544143E+01  0.15372655783E+02  0.26632340132E+02  0.00000000000E+00 0. -1.
</event>
<event>
 4    1  0.3586324E+003  0.2024745E+02  0.7546771E-02  0.1530286E+00
          2   -1    0    0  502    0  0.00000000000E+00  0.00000000000E+00  0.54885214736E+02  0.54885214736E+02  0.00000000000E+00 0.  1.
          1   -1    0    0  501    0 -0.00000000000E+00 -0.00000000000E+00 -0.25642362372E+02  0.25642362372E+02  0.00000000000E+00 0.  1.
          2    1    1    2  501    0  0.24143009519E+01 -0.20102995204E+02  0.48517434816E+02  0.52572813757E+02  0.00000000000E+00 0.  1.
          1    1    1    2  502    0 -0.24143009519E+01  0.20102995204E+02 -0.19274582452E+02  0.27954763350E+02  0.00000000000E+00 0.  1.
</event>
<event>
 4    1  0.3586324E+003  0.2094100E+02  0.7546771E-02  0.1520109E+00
          2   -1    0    0  502    0  0.00000000000E+00  0.00000000000E+00  0.53584701411E+03  0.53584701411E+03  0.00000000000E+00 0.  1.
          1   -1    0    0  501    0 -0.00000000000E+00 -0.00000000000E+00 -0.10618715661E+04  0.10618715661E+04  0.00000000000E+00 0. -1.
          2    1    1    2  501    0 -0.11888654958E+02 -0.17239062939E+02  0.53553911676E+03  0.53594838463E+03  0.00000000000E+00 0.  1.
          1    1    1    2  502    0  0.11888654958E+02  0.17239062939E+02 -0.10615636688E+04  0.10617701956E+04  0.00000000000E+00 0. -1.
</event>
<event>
 4    1  0.3586324E+003  0.2616093E+02  0.7546771E-02  0.1456224E+00
          2   -1    0    0  502    0  0.00000000000E+00  0.00000000000E+00  0.55038047136E+01  0.55038047136E+01  0.00000000000E+00 0. -1.
          1   -1    0    0  501    0 -0.00000000000E+00 -0.00000000000E+00 -0.11036310546E+04  0.11036310546E+04  0.00000000000E+00 0. -1.
          2    1    1    2  501    0  0.44413801899E+01  0.25781165217E+02 -0.26671968623E+02  0.37360249573E+02  0.00000000000E+00 0. -1.
          1    1    1    2  502    0 -0.44413801899E+01 -0.25781165217E+02 -0.10714552813E+04  0.10717746098E+04  0.00000000000E+00 0. -1.
</event>
<event>
 4    1  0.3586324E+003  0.1019708E+03  0.7546771E-02  0.1160436E+00
          2   -1    0    0  502    0  0.00000000000E+00  0.00000000000E+00  0.56054654411E+02  0.56054654411E+02  0.00000000000E+00 0.  1.
          1   -1    0    0  501    0 -0.00000000000E+00 -0.00000000000E+00 -0.24865686093E+03  0.24865686093E+03  0.00000000000E+00 0.  1.
          2    1    1    2  501    0 -0.19582207974E+02  0.10007288518E+03 -0.19516414011E+02  0.10382165301E+03  0.00000000000E+00 0.  1.
          1    1    1    2  502    0  0.19582207974E+02 -0.10007288518E+03 -0.17308579250E+03  0.20088986233E+03  0.00000000000E+00 0.  1.
</event>
<event>
 4    1  0.3586324E+003  0.2015738E+02  0.7546771E-02  0.1531643E+00
          2   -1    0    0  502    0  0.00000000000E+00  0.00000000000E+00  0.12345069327E+04  0.12345069327E+04  0.00000000000E+00 0.  1.
          1   -1    0    0  501    0 -0.00000000000E+00 -0.00000000000E+00 -0.17853113647E+03  0.17853113647E+03  0.00000000000E+00 0.  1.
          2    1    1    2  501    0  0.20155149421E+02 -0.29957069277E+00  0.12338553723E+04  0.12340200159E+04  0.00000000000E+00 0.  1.
          1    1    1    2  502    0 -0.20155149421E+02  0.29957069277E+00 -0.17787957612E+03  0.17901805326E+03  0.00000000000E+00 0.  1.
</event>
<event>
 4    1  0.3586324E+003  0.2104533E+02  0.7546771E-02  0.1518619E+00
          2   -1    0    0  502    0  0.00000000000E+00  0.00000000000E+00  0.14956660010E+04  0.14956660010E+04  0.00000000000E+00 0. -1.
          1   -1    0    0  501    0 -0.00000000000E+00 -0.00000000000E+00 -0.10133218323E+03  0.10133218323E+03  0.00000000000E+00 0. -1.
          2    1    1    2  501    0 -0.13021276829E+02  0.16533362552E+02  0.14944984084E+04  0.14946465798E+04  0.00000000000E+00 0. -1.
          1    1    1    2  502    0  0.13021276829E+02 -0.16533362552E+02 -0.10016459061E+03  0.10235160448E+03  0.00000000000E+00 0. -1.
</event>
<event>
 4    1  0.3586324E+003  0.3104504E+02  0.7546771E-02  0.1410727E+00
          2   -1    0    0  502    0  0.00000000000E+00  0.00000000000E+00  0.28916718550E+03  0.28916718550E+03  0.00000000000E+00 0. -1.
          1   -1    0    0  501    0 -0.00000000000E+00 -0.00000000000E+00 -0.21109659700E+03  0.21109659700E+03  0.00000000000E+00 0.  1.
          2    1    1    2  501    0 -0.21798650790E+02 -0.22104603340E+02  0.28718466422E+03  0.28885779551E+03  0.00000000000E+00 0. -1.
          1    1    1    2  502    0  0.21798650790E+02  0.22104603340E+02 -0.20911407572E+03  0.21140598698E+03  0.00000000000E+00 0.  1.
</event>
<event>
 4    1  0.3586324E+003  0.2417385E+02  0.7546771E-02  0.1478262E+00
          2   -1    0    0  502    0  0.00000000000E+00  0.00000000000E+00  0.84910429522E+03  0.84910429522E+03  0.00000000000E+00 0.  1.
          1   -1    0    0  501    0 -0.00000000000E+00 -0.00000000000E+00 -0.11517170764E+03  0.11517170764E+03  0.00000000000E+00 0. -1.
          2    1    1    2  501    0  0.20100907665E+02  0.13428651311E+02  0.84766159356E+03  0.84800622189E+03  0.00000000000E+00 0.  1.
          1    1    1    2  502    0 -0.20100907665E+02 -0.13428651311E+02 -0.11372900599E+03  0.11626978097E+03  0.00000000000E+00 0. -1.
</event>
<event>
 4    1  0.3586324E+003  0.2225467E+02  0.7546771E-02  0.1502075E+00
          2   -1    0    0  502    0  0.00000000000E+00  0.00000000000E+00  0.28339344712E+02  0.28339344712E+02  0.00000000000E+00 0.  1.
          1   -1    0    0  501    0 -0.00000000000E+00 -0.00000000000E+00 -0.92554687440E+02  0.92554687440E+02  0.00000000000E+00 0.  1.
          2    1    1    2  501    0  0.22110608126E+02  0.25281492144E+01  0.22334163560E+02  0.31529119748E+02  0.00000000000E+00 0.  1.
          1    1    1    2  502    0 -0.22110608126E+02 -0.25281492144E+01 -0.86549506289E+02  0.89364912404E+02  0.00000000000E+00 0.  1.
</event>
<event>
 4    1  0.3586324E+003  0.2316524E+02  0.7546771E-02  0.1490434E+00
          2   -1    0    0  502    0  0.00000000000E+00  0.00000000000E+00  0.53421812224E+02  0.53421812224E+02  0.00000000000E+00 0.  1.
          1   -1    0    0  501    0 -0.00000000000E+00 -0.00000000000E+00 -0.72053252234E+03  0.72053252234E+03  0.00000000000E+00 0.  1.
          2    1    1    2  501    0 -0.18552907169E+00 -0.23164501131E+02  0.50714872852E+02  0.55755061314E+02  0.00000000000E+00 0.  1.
          1    1    1    2  502    0  0.18552907169E+00  0.23164501131E+02 -0.71782558297E+03  0.71819927325E+03  0.00000000000E+00 0.  1.
</event>
<event>
 4    1  0.3586324E+003  0.2188166E+02  0.7546771E-02  0.1507040E+00
          2   -1    0    0  502    0  0.00000000000E+00  0.00000000000E+00  0.94371334110E+03  0.94371334110E+03  0.00000000000E+00 0. -1.
          1   -1    0    0  501    0 -0.00000000000E+00 -0.00000000000E+00 -0.73230392956E+01  0.73230392956E+01  0.00000000000E+00 0.  1.
          2    1    1    2  501    0  0.16482034239E+02  0.14392691971E+02  0.92694493154E+03  0.92720316713E+03  0.00000000000E+00 0. -1.
          1    1    1    2  502    0 -0.16482034239E+02 -0.14392691971E+02  0.94453702594E+01  0.23833213257E+02  0.00000000000E+00 0.  1.
</event>
<event>
 4    1  0.3586324E+003  0.3169934E+02  0.7546771E-02  0.1405382E+00
          2   -1    0    0  502    0  0.00000000000E+00  0.00000000000E+00  0.77755173870E+01  0.77755173870E+01  0.00000000000E+00 0.  1.
          1   -1    0    0  501    0 -0.00000000000E+00 -0.00000000000E+00 -0.29076127419E+03  0.29076127419E+03  0.00000000000E+00 0.  1.
          2    1    1    2  501    0  0.30203104297E+02 -0.96239663769E+01 -0.30236540839E+02  0.43807495248E+02  0.00000000000E+00 0.  1.
          1    1    1    2  502    0 -0.30203104297E+02  0.96239663769E+01 -0.25274921597E+03  0.25472929633E+03  0.00000000000E+00 0.  1.
</event>
<event>
 4    1  0.3586324E+003  0.2693385E+02  0.7546771E-02  0.1448274E+00
          2   -1    0    0  502    0  0.00000000000E+00  0.00000000000E+00  0.75266927320E+01  0.75266927320E+01  0.00000000000E+00 0. -1.
          1   -1    0    0  501    0 -0.00000000000E+00 -0.00000000000E+00 -0.24737053891E+03  0.24737053891E+03  0.00000000000E+00 0. -1.
          2    1    1    2  501    0 -0.16493969104E+02  0.21292746051E+02 -0.20350616530E+02  0.33757660528E+02  0.00000000000E+00 0. -1.
          1    1    1    2  502    0  0.16493969104E+02 -0.21292746051E+02 -0.21949322965E+03  0.22113957112E+03  0.00000000000E+00 0. -1.
</event>
<event>
 4    1  0.3586324E+003  0.2325873E+02  0.7546771E-02  0.1489275E+00
          2   -1    0    0  502    0  0.00000000000E+00  0.00000000000E+00  0.20976817980E+02  0.20976817980E+02  0.00000000000E+00 0.  1.
          1   -1    0    0  501    0 -0.00000000000E+00 -0.00000000000E+00 -0.14141510248E+03  0.14141510248E+03  0.00000000000E+00 0. -1.
          2    1    1    2  501    0 -0.22127290374E+02  0.71659971693E+01  0.13200913131E+02  0.26743832976E+02  0.00000000000E+00 0.  1.
          1    1    1    2  502    0  0.22127290374E+02 -0.71659971693E+01 -0.13363919763E+03  0.13564808749E+03  0.00000000000E+00 0. -1.
</event>
<event>
 4    1  0.3586324E+003  0.2123856E+02  0.7546771E-02  0.1515886E+00
          2   -1    0    0  502    0  0.00000000000E+00  0.00000000000E+00  0.35533543334E+02  0.35533543334E+02  0.00000000000E+00 0. -1.
          1   -1    0    0  501    0 -0.00000000000E+00 -0.00000000000E+00 -0.82223151663E+03  0.82223151663E+03  0.00000000000E+00 0.  1.
          2    1    1    2  501    0  0.20256825117E+02 -0.63825753730E+01  0.32209920620E+02  0.38581799058E+02  0.00000000000E+00 0. -1.
          1    1    1    2  502    0 -0.20256825117E+02  0.63825753730E+01 -0.81890789392E+03  0.81918326091E+03  0.00000000000E+00 0.  1.
</event>
<event>
 4    1  0.3586324E+003  0.2234573E+02  0.7546771E-02  0.1500881E+00
          2   -1    0    0  502    0  0.00000000000E+00  0.00000000000E+00  0.10207283016E+04  0.10207283016E+04  0.00000000000E+00 0. -1.
          1   -1    0    0  501    0 -0.00000000000E+00 -0.00000000000E+00 -0.58897300802E+00  0.58897300802E+00  0.00000000000E+00 0. -1.
          2    1    1    2  501    0  0.21675728767E+02 -0.54308129474E+01  0.29988093282E+03  0.30071232901E+03  0.00000000000E+00 0. -1.
          1    1    1    2  502    0 -0.21675728767E+02  0.54308129474E+01  0.72025839573E+03  0.72060494556E+03  0.00000000000E+00 0. -1.
</event>
<event>
 4    1  0.3586324E+003  0.3733117E+02  0.7546771E-02  0.1364877E+00
          2   -1    0    0  502    0  0.00000000000E+00  0.00000000000E+00  0.81121550085E+01  0.81121550085E+01  0.00000000000E+00 0. -1.
          1   -1    0    0  501    0 -0.00000000000E+00 -0.00000000000E+00 -0.41200136959E+03  0.41200136959E+03  0.00000000000E+00 0. -1.
          2    1    1    2  501    0  0.36883621538E+02 -0.57632425694E+01 -0.41553294703E+02  0.55859581124E+02  0.00000000000E+00 0. -1.
          1    1    1    2  502    0 -0.36883621538E+02  0.57632425694E+01 -0.36233591987E+03  0.36425394347E+03  0.00000000000E+00 0. -1.
</event>
<event>
 4    1  0.3586324E+003  0.2329182E+02  0.7546771E-02  0.1488866E+00
          2   -1    0    0  502    0  0.00000000000E+00  0.00000000000E+00  0.16605645147E+04  0.16605645147E+04  0.00000000000E+00 0. -1.
          1   -1    0    0  501    0 -0.00000000000E+00 -0.00000000000E+00 -0.46250361496E+00  0.46250361496E+00  0.00000000000E+00 0.  1.
          2    1    1    2  501    0 -0.16404105385E+02  0.16535245054E+02  0.12800818913E+04  0.12802937777E+04  0.00000000000E+00 0. -1.
          1    1    1    2  502    0  0.16404105385E+02 -0.16535245054E+02  0.38002011979E+03  0.38073324053E+03  0.00000000000E+00 0.  1.
</event>
<event>
 4    1  0.3586324E+003  0.2311079E+02  0.7546771E-02  0.1491112E+00
          2   -1    0    0  502    0  0.00000000000E+00  0.00000000000E+00  0.23906919795E+03  0.23906919795E+03  0.00000000000E+00 0. -1.
          1   -1    0    0  501    0 -0.00000000000E+00 -0.00000000000E+00 -0.44432782107E+01  0.44432782107E+01  0.00000000000E+00 0. -1.
          2    1    1    2  501    0 -0.29333831467E+01 -0.22923870564E+02  0.20316550301E+03  0.20447574475E+03  0.00000000000E+00 0. -1.
          1    1    1    2  502    0  0.29333831467E+01  0.22923870564E+02  0.31460416728E+02  0.39036731408E+02  0.00000000000E+00 0. -1.
</event>
<event>
 4    1  0.3586324E+003  0.2111271E+02  0.7546771E-02  0.1517662E+00
          2   -1    0    0  502    0  0.00000000000E+00  0.00000000000E+00  0.53712377584E+01  0.53712377584E+01  0.00000000000E+00 0. -1.
          1   -1    0    0  501    0 -0.00000000000E+00 -0.00000000000E+00 -0.15640254212E+03  0.15640254212E+03  0.00000000000E+00 0.  1.
          2    1    1    2  501    0  0.17644778838E+02 -0.11593455448E+02 -0.20097977451E+02  0.29149187417E+02  0.00000000000E+00 0. -1.
          1    1    1    2  502    0 -0.17644778838E+02  0.11593455448E+02 -0.13093332691E+03  0.13262459246E+03  0.00000000000E+00 0.  1.
</event>
<event>
 4    1  0.3586324E+003  0.3877455E+02  0.7546771E-02  0.1355820E+00
          2   -1    0    0  502    0  0.00000000000E+00  0.00000000000E+00  0.11768512929E+04  0.11768512929E+04  0.00000000000E+00 0.  1.
          1   -1    0    0  501    0 -0.00000000000E+00 -0.00000000000E+00 -0.13680322831E+01  0.13680322831E+01  0.00000000000E+00 0.  1.
          2    1    1    2  501    0  0.38769246589E+02 -0.64117217400E+00  0.73926238782E+03  0.74027855813E+03  0.00000000000E+00 0.  1.
          1    1    1    2  502    0 -0.38769246589E+02  0.64117217400E+00  0.43622087284E+03  0.43794076710E+03  0.00000000000E+00 0.  1.
</event>
<event>
 4    1  0.3586324E+003  0.2194451E+02  0.7546771E-02  0.1506195E+00
          2   -1    0    0  502    0  0.00000000000E+00  0.00000000000E+00  0.40556254310E+01  0.40556254310E+01  0.00000000000E+00 0.  1.
          1   -1    0    0  501    0 -0.00000000000E+00 -0.00000000000E+00 -0.12598632007E+03  0.12598632007E+03  0.00000000000E+00 0.  1.
          2    1    1    2  501    0 -0.20751499166E+02 -0.71370001755E+01 -0.45370677105E+02  0.50399006241E+02  0.00000000000E+00 0.  1.
          1    1    1    2  502    0  0.20751499166E+02  0.71370001755E+01 -0.76560017532E+02  0.79642939258E+02  0.00000000000E+00 0.  1.
</event>
<event>
 4    1  0.3586324E+003  0.3889417E+02  0.7546771E-02  0.1355091E+00
          2   -1    0    0  502    0  0.00000000000E+00  0.00000000000E+00  0.57062509447E+01  0.57062509447E+01  0.00000000000E+00 0.  1.
          1   -1    0    0  501    0 -0.00000000000E+00 -0.00000000000E+00 -0.10166517271E+04  0.10166517271E+04  0.00000000000E+00 0. -1.
          2    1    1    2  501    0 -0.24517235733E+02  0.30193730165E+02 -0.65966685468E+02  0.76579107992E+02  0.00000000000E+00 0.  1.
          1    1    1    2  502    0  0.24517235733E+02 -0.30193730165E+02 -0.94497879072E+03  0.94577887008E+03  0.00000000000E+00 0. -1.
</event>
<event>
 4    1  0.3586324E+003  0.2324721E+02  0.7546771E-02  0.1489417E+00
          2   -1    0    0  502    0  0.00000000000E+00  0.00000000000E+00  0.16683249263E+02  0.16683249263E+02  0.00000000000E+00 0.  1.
          1   -1    0    0  501    0 -0.00000000000E+00 -0.00000000000E+00 -0.74189602409E+02  0.74189602409E+02  0.00000000000E+00 0.  1.
          2    1    1    2  501    0 -0.19617536356E+02  0.12473379710E+02  0.53503472000E+01  0.23854960684E+02  0.00000000000E+00 0.  1.
          1    1    1    2  502    0  0.19617536356E+02 -0.12473379710E+02 -0.62856700346E+02  0.67017890988E+02  0.00000000000E+00 0.  1.
</event>
<event>
 4    1  0.3586324E+003  0.2118181E+02  0.7546771E-02  0.1516685E+00
          2   -1    0    0  502    0  0.00000000000E+00  0.00000000000E+00  0.32320769107E+03  0.32320769107E+03  0.00000000000E+00 0. -1.
          1   -1    0    0  501    0 -0.00000000000E+00 -0.00000000000E+00 -0.41458548253E+02  0.41458548253E+02  0.00000000000E+00 0.  1.
          2    1    1    2  501    0 -0.49836126167E+01 -0.20587193625E+02  0.32012913033E+03  0.32082912745E+03  0.00000000000E+00 0. -1.
          1    1    1    2  502    0  0.49836126167E+01  0.20587193625E+02 -0.38379987511E+02  0.43837111873E+02  0.00000000000E+00 0.  1.
</event>
<event>
 4    1  0.3586324E+003  0.6898886E+02  0.7546771E-02  0.1232013E+00
          2   -1    0    0  502    0  0.00000000000E+00  0.00000000000E+00  0.28061559681E+02  0.28061559681E+02  0.00000000000E+00 0. -1.
          1   -1    0    0  501    0 -0.00000000000E+00 -0.00000000000E+00 -0.46305396200E+03  0.46305396200E+03  0.00000000000E+00 0.  1.
          2    1    1    2  501    0  0.39762441907E+02 -0.56377392510E+02 -0.22016347112E+02  0.72416722605E+02  0.00000000000E+00 0. -1.
          1    1    1    2  502    0 -0.39762441907E+02  0.56377392510E+02 -0.41297605521E+03  0.41869879908E+03  0.00000000000E+00 0.  1.
</event>
<event>
 4    1  0.3586324E+003  0.4929072E+02  0.7546771E-02  0.1301277E+00
          2   -1    0    0  502    0  0.00000000000E+00  0.00000000000E+00  0.94273810054E+02  0.94273810054E+02  0.00000000000E+00 0. -1.
          1   -1    0    0  501    0 -0.00000000000E+00 -0.00000000000E+00 -0.28888865130E+02  0.28888865130E+02  0.00000000000E+00 0. -1.
          2    1    1    2  501    0  0.25145563618E+02  0.42394291342E+02  0.52921701440E+02  0.72320687160E+02  0.00000000000E+00 0. -1.
          1    1    1    2  502    0 -0.25145563618E+02 -0.42394291342E+02  0.12463243483E+02  0.50841988024E+02  0.00000000000E+00 0. -1.
</event>
<event>
 4    1  0.3586324E+003  0.2269439E+02  0.7546771E-02  0.1496372E+00
          2   -1    0    0  502    0  0.00000000000E+00  0.00000000000E+00  0.20724858226E+03  0.20724858226E+03  0.00000000000E+00 0. -1.
          1   -1    0    0  501    0 -0.00000000000E+00 -0.00000000000E+00 -0.13949012814E+02  0.13949012814E+02  0.00000000000E+00 0.  1.
          2    1    1    2  501    0 -0.22457062442E+02  0.32735018998E+01  0.19691376046E+03  0.19821721551E+03  0.00000000000E+00 0. -1.
          1    1    1    2  502    0  0.22457062442E+02 -0.32735018998E+01 -0.36141910094E+01  0.22980379563E+02  0.00000000000E+00 0.  1.
</event>
<event>
 4    1  0.3586324E+003  0.2521549E+02  0.7546771E-02  0.1466407E+00
          2   -1    0    0  502    0  0.00000000000E+00  0.00000000000E+00  0.59422550550E+03  0.59422550550E+03  0.00000000000E+00 0. -1.
          1   -1    0    0  501    0 -0.00000000000E+00 -0.00000000000E+00 -0.11572189882E+01  0.11572189882E+01  0.00000000000E+00 0. -1.
          2    1    1    2  501    0 -0.53090997168E+01 -0.24650241655E+02  0.37826111248E+03  0.37910063330E+03  0.00000000000E+00 0. -1.
          1    1    1    2  502    0  0.53090997168E+01  0.24650241655E+02  0.21480717404E+03  0.21628209120E+03  0.00000000000E+00 0. -1.
</event>
<event>
 4    1  0.3586324E+003  0.2607358E+02  0.7546771E-02  0.1457143E+00
          2   -1    0    0  502    0  0.00000000000E+00  0.00000000000E+00  0.15142487593E+01  0.15142487593E+01  0.00000000000E+00 0.  1.
          1   -1    0    0  501    0 -0.00000000000E+00 -0.00000000000E+00 -0.13420048624E+04  0.13420048624E+04  0.00000000000E+00 0.  1.
          2    1    1    2  501    0 -0.23102585671E+02 -0.12087279991E+02 -0.12225320290E+03  0.12500270966E+03  0.00000000000E+00 0.  1.
          1    1    1    2  502    0  0.23102585671E+02  0.12087279991E+02 -0.12182374107E+04  0.12185164015E+04  0.00000000000E+00 0.  1.
</event>
<event>
 4    1  0.3586324E+003  0.2786991E+02  0.7546771E-02  0.1439060E+00
          2   -1    0    0  502    0  0.00000000000E+00  0.00000000000E+00  0.75520258562E+03  0.75520258562E+03  0.00000000000E+00 0.  1.
          1   -1    0    0  501    0 -0.00000000000E+00 -0.00000000000E+00 -0.20684859974E+01  0.20684859974E+01  0.00000000000E+00 0.  1.
          2    1    1    2  501    0 -0.78531340278E+01  0.26740597141E+02  0.10808989664E+03  0.11162507337E+03  0.00000000000E+00 0.  1.
          1    1    1    2  502    0  0.78531340278E+01 -0.26740597141E+02  0.64504420299E+03  0.64564599825E+03  0.00000000000E+00 0.  1.
</event>
<event>
 4    1  0.3586324E+003  0.2025667E+02  0.7546771E-02  0.1530148E+00
          2   -1    0    0  502    0  0.00000000000E+00  0.00000000000E+00  0.28208788256E+03  0.28208788256E+03  0.00000000000E+00 0.  1.
          1   -1    0    0  501    0 -0.00000000000E+00 -0.00000000000E+00 -0.45372885545E+01  0.45372885545E+01  0.00000000000E+00 0. -1.
          2    1    1    2  501    0  0.18827006211E+02  0.74750521715E+01  0.25690226997E+03  0.25769964859E+03  0.00000000000E+00 0.  1.
          1    1    1    2  502    0 -0.18827006211E+02 -0.74750521715E+01  0.20648324035E+02  0.28925522524E+02  0.00000000000E+00 0. -1.
</event>
<event>
 4    1  0.3586324E+003  0.2011212E+02  0.7546771E-02  0.1532329E+00
          2   -1    0    0  502    0  0.00000000000E+00  0.00000000000E+00  0.13010162059E+04  0.13010162059E+04  0.00000000000E+00 0.  1.
          1   -1    0    0  501    0 -0.00000000000E+00 -0.00000000000E+00 -0.12919713991E+01  0.12919713991E+01  0.00000000000E+00 0. -1.
          2    1    1    2  501    0 -0.19933630992E+02 -0.26735356366E+01  0.12172834681E+04  0.12174496043E+04  0.00000000000E+00 0.  1.
          1    1    1    2  502    0  0.19933630992E+02  0.26735356366E+01  0.82440766436E+02  0.84858572978E+02  0.00000000000E+00 0. -1.
</event>
<event>
 4    1  0.3586324E+003  0.3353352E+02  0.7546771E-02  0.1391177E+00
          2   -1    0    0  502    0  0.00000000000E+00  0.00000000000E+00  0.18679773956E+03  0.18679773956E+03  0.00000000000E+00 0. -1.
          1   -1    0    0  501    0 -0.00000000000E+00 -0.00000000000E+00 -0.86058085378E+01  0.86058085378E+01  0.00000000000E+00 0.  1.
          2    1    1    2  501    0 -0.30920773957E+01  0.33390659638E+02  0.14265295604E+03  0.14654133533E+03  0.00000000000E+00 0. -1.
          1    1    1    2  502    0  0.30920773957E+01 -0.33390659638E+02  0.35538974984E+02  0.48862212768E+02  0.00000000000E+00 0.  1.
</event>
<event>
 4    1  0.3586324E+003  0.5201979E+02  0.7546771E-02  0.1289645E+00
          2   -1    0    0  502    0  0.00000000000E+00  0.00000000000E+00  0.16529127096E+04  0.16529127096E+04  0.00000000000E+00 0.  1.
          1   -1    0    0  501    0 -0.00000000000E+00 -0.00000000000E+00 -0.14875013183E+03  0.14875013183E+03  0.00000000000E+00 0. -1.
          2    1    1    2  501    0  0.27656817880E+02 -0.44058580847E+02  0.16479417149E+04  0.16487625523E+04  0.00000000000E+00 0.  1.
          1    1    1    2  502    0 -0.27656817880E+02  0.44058580847E+02 -0.14377913717E+03  0.15290028910E+03  0.00000000000E+00 0. -1.
</event>
<event>
 4    1  0.3586324E+003  0.2069746E+02  0.7546771E-02  0.1523628E+00
          2   -1    0    0  502    0  0.00000000000E+00  0.00000000000E+00  0.18383989049E+02  0.18383989049E+02  0.00000000000E+00 0.  1.
          1   -1    0    0  501    0 -0.00000000000E+00 -0.00000000000E+00 -0.56554713222E+02  0.56554713222E+02  0.00000000000E+00 0.  1.
          2    1    1    2  501    0  0.20466488981E+02 -0.30834576809E+01  0.96459128563E+01  0.22834809334E+02  0.00000000000E+00 0.  1.
          1    1    1    2  502    0 -0.20466488981E+02  0.30834576809E+01 -0.47816637029E+02  0.52103892937E+02  0.00000000000E+00 0.  1.
</event>
<event>
 4    1  0.3586324E+003  0.2194853E+02  0.7546771E-02  0.1506141E+00
          2   -1    0    0  502    0  0.00000000000E+00  0.00000000000E+00  0.34492422083E+03  0.34492422083E+03  0.00000000000E+00 0. -1.
          1   -1    0    0  501    0 -0.00000000000E+00 -0.00000000000E+00 -0.30160236002E+02  0.30160236002E+02  0.00000000000E+00 0.  1.
          2    1    1    2  501    0 -0.12609105423E+02  0.17965197733E+02  0.34053043537E+03  0.34123703680E+03  0.00000000000E+00 0. -1.
          1    1    1    2  502    0  0.12609105423E+02 -0.17965197733E+02 -0.25766450545E+02  0.33847420032E+02  0.00000000000E+00 0.  1.
</event>
<event>
 4    1  0.3586324E+003  0.2001440E+02  0.7546771E-02  0.1533816E+00
          2   -1    0    0  502    0  0.00000000000E+00  0.00000000000E+00  0.16466165053E+03  0.16466165053E+03  0.00000000000E+00 0.  1.
          1   -1    0    0  501    0 -0.00000000000E+00 -0.00000000000E+00 -0.41625117515E+01  0.41625117515E+01  0.00000000000E+00 0.  1.
          2    1    1    2  501    0  0.14783496525E-01 -0.20014391330E+02  0.13466517741E+03  0.13614435753E+03  0.00000000000E+00 0.  1.
          1    1    1    2  502    0 -0.14783496525E-01  0.20014391330E+02  0.25833961359E+02  0.32679804748E+02  0.00000000000E+00 0.  1.
</event>
<event>
 4    1  0.3586324E+003  0.5052940E+02  0.7546771E-02  0.1295893E+00
          2   -1    0    0  502    0  0.00000000000E+00  0.00000000000E+00  0.21040413315E+03  0.21040413315E+03  0.00000000000E+00 0. -1.
          1   -1    0    0  501    0 -0.00000000000E+00 -0.00000000000E+00 -0.15327801518E+03  0.15327801518E+03  0.00000000000E+00 0. -1.
          2    1    1    2  501    0  0.17038710687E+02 -0.47569976240E+02  0.20305766121E+03  0.20925017103E+03  0.00000000000E+00 0. -1.
          1    1    1    2  502    0 -0.17038710687E+02  0.47569976240E+02 -0.14593154324E+03  0.15443197730E+03  0.00000000000E+00 0. -1.
</event>
<event>
 4    1  0.3586324E+003  0.6018661E+02  0.7546771E-02  0.1259200E+00
          2   -1    0    0  502    0  0.00000000000E+00  0.00000000000E+00  0.26408182347E+03  0.26408182347E+03  0.00000000000E+00 0.  1.
          1   -1    0    0  501    0 -0.00000000000E+00 -0.00000000000E+00 -0.10730538977E+03  0.10730538977E+03  0.00000000000E+00 0. -1.
          2    1    1    2  501    0  0.31415847505E+02 -0.51336849369E+02  0.25180735340E+03  0.25890031055E+03  0.00000000000E+00 0.  1.
          1    1    1    2  502    0 -0.31415847505E+02  0.51336849369E+02 -0.95030919703E+02  0.11248690269E+03  0.00000000000E+00 0. -1.
</event>
<event>
 4    1  0.3586324E+003  0.2063157E+02  0.7546771E-02  0.1524591E+00
          2   -1    0    0  502    0  0.00000000000E+00  0.00000000000E+00  0.13072172282E+03  0.13072172282E+03  0.00000000000E+00 0. -1.
          1   -1    0    0  501    0 -0.00000000000E+00 -0.00000000000E+00 -0.13369703144E+03  0.13369703144E+03  0.00000000000E+00 0.  1.
          2    1    1    2  501    0  0.17348474336E+02 -0.11166560147E+02  0.12910179347E+03  0.13073995069E+03  0.00000000000E+00 0. -1.
          1    1    1    2  502    0 -0.17348474336E+02  0.11166560147E+02 -0.13207710210E+03  0.13367880358E+03  0.00000000000E+00 0.  1.
</event>
<event>
 4    1  0.3586324E+003  0.4145560E+02  0.7546771E-02  0.1340161E+00
          2   -1    0    0  502    0  0.00000000000E+00  0.00000000000E+00  0.19014415387E+02  0.19014415387E+02  0.00000000000E+00 0.  1.
          1   -1    0    0  501    0 -0.00000000000E+00 -0.00000000000E+00 -0.10752298706E+03  0.10752298706E+03  0.00000000000E+00 0.  1.
          2    1    1    2  501    0  0.32139947588E+02  0.26183782801E+02 -0.18993183742E+02  0.45599426985E+02  0.00000000000E+00 0.  1.
          1    1    1    2  502    0 -0.32139947588E+02 -0.26183782801E+02 -0.69515387927E+02  0.80937975459E+02  0.00000000000E+00 0.  1.
</event>
<event>
 4    1  0.3586324E+003  0.2218459E+02  0.7546771E-02  0.1502999E+00
          2   -1    0    0  502    0  0.00000000000E+00  0.00000000000E+00  0.19475199936E+03  0.19475199936E+03  0.00000000000E+00 0. -1.
          1   -1    0    0  501    0 -0.00000000000E+00 -0.00000000000E+00 -0.30377560263E+01  0.30377560263E+01  0.00000000000E+00 0. -1.
          2    1    1    2  501    0  0.21968026808E+02  0.30921858189E+01  0.13640478838E+03  0.13819704088E+03  0.00000000000E+00 0. -1.
          1    1    1    2  502    0 -0.21968026808E+02 -0.30921858189E+01  0.55309454956E+02  0.59592714509E+02  0.00000000000E+00 0. -1.
</event>
<event>
 4    1  0.3586324E+003  0.3183291E+02  0.7546771E-02  0.1404310E+00
          2   -1    0    0  502    0  0.00000000000E+00  0.00000000000E+00  0.32748998048E+03  0.32748998048E+03  0.00000000000E+00 0.  1.
          1   -1    0    0  501    0 -0.00000000000E+00 -0.00000000000E+00 -0.42122029928E+03  0.42122029928E+03  0.00000000000E+00 0. -1.
          2    1    1    2  501    0 -0.68932294053E+01  0.31077602837E+02  0.32611245738E+03  0.32766243127E+03  0.00000000000E+00 0.  1.
          1    1    1    2  502    0  0.68932294053E+01 -0.31077602837E+02 -0.41984277618E+03  0.42104784849E+03  0.00000000000E+00 0. -1.
</event>
<event>
 4    1  0.3586324E+003  0.3418500E+02  0.7546771E-02  0.1386385E+00
          2   -1    0    0  502    0  0.00000000000E+00  0.00000000000E+00  0.54241898396E+01  0.54241898396E+01  0.00000000000E+00 0.  1.
          1   -1    0    0  501    0 -0.00000000000E+00 -0.00000000000E+00 -0.71048353073E+03  0.71048353073E+03  0.00000000000E+00 0. -1.
          2    1    1    2  501    0 -0.20279852696E+02  0.27519847692E+02 -0.53737264485E+02  0.63689151641E+02  0.00000000000E+00 0.  1.
          1    1    1    2  502    0  0.20279852696E+02 -0.27519847692E+02 -0.65132207641E+03  0.65221856893E+03  0.00000000000E+00 0. -1.
</event>
<event>
 4    1  0.3586324E+003  0.2436368E+02  0.7546771E-02  0.1476049E+00
          2   -1    0    0  502    0  0.00000000000E+00  0.00000000000E+00  0.62631421151E+03  0.62631421151E+03  0.00000000000E+00 0. -1.
          1   -1    0    0  501    0 -0.00000000000E+00 -0.00000000000E+00 -0.53365461154E+03  0.53365461154E+03  0.00000000000E+00 0.  1.
          2    1    1    2  501    0  0.17988245500E+02 -0.16432041760E+02  0.62579896796E+03  0.62627305329E+03  0.00000000000E+00 0. -1.
          1    1    1    2  502    0 -0.17988245500E+02  0.16432041760E+02 -0.53313936798E+03  0.53369576977E+03  0.00000000000E+00 0.  1.
</event>
<event>
 4    1  0.3586324E+003  0.3327290E+02  0.7546771E-02  0.1393129E+00
          2   -1    0    0  502    0  0.00000000000E+00  0.00000000000E+00  0.10137500864E+03  0.10137500864E+03  0.00000000000E+00 0.  1.
          1   -1    0    0  501    0 -0.00000000000E+00 -0.00000000000E+00 -0.11476188093E+02  0.11476188093E+02  0.00000000000E+00 0.  1.
          2    1    1    2  501    0 -0.97531772661E+01 -0.31811336848E+02  0.57363543749E+02  0.66314868395E+02  0.00000000000E+00 0.  1.
          1    1    1    2  502    0  0.97531772661E+01  0.31811336848E+02  0.32535276802E+02  0.46536328341E+02  0.00000000000E+00 0.  1.
</event>
<event>
 4    1  0.3586324E+003  0.2155103E+02  0.7546771E-02  0.1511541E+00
          2   -1    0    0  502    0  0.00000000000E+00  0.00000000000E+00  0.70223625960E+03  0.70223625960E+03  0.00000000000E+00 0. -1.
          1   -1    0    0  501    0 -0.00000000000E+00 -0.00000000000E+00 -0.16883372063E+01  0.16883372063E+01  0.00000000000E+00 0. -1.
          2    1    1    2  501    0 -0.10186447504E+02 -0.18991661038E+02  0.62477383901E+03  0.62514542053E+03  0.00000000000E+00 0. -1.
          1    1    1    2  502    0  0.10186447504E+02  0.18991661038E+02  0.75774083386E+02  0.78779176276E+02  0.00000000000E+00 0. -1.
</event>
<event>
 4    1  0.3586324E+003  0.2214136E+02  0.7546771E-02  0.1503571E+00
          2   -1    0    0  502    0  0.00000000000E+00  0.00000000000E+00  0.61774429432E+01  0.61774429432E+01  0.00000000000E+00 0. -1.
          1   -1    0    0  501    0 -0.00000000000E+00 -0.00000000000E+00 -0.91424870019E+02  0.91424870019E+02  0.00000000000E+00 0. -1.
          2    1    1    2  501    0 -0.15670728381E+02 -0.15641874445E+02 -0.24895506280E+02  0.33317055649E+02  0.00000000000E+00 0. -1.
          1    1    1    2  502    0  0.15670728381E+02  0.15641874445E+02 -0.60351920795E+02  0.64285257313E+02  0.00000000000E+00 0. -1.
</event>
<event>
 4    1  0.3586324E+003  0.3624435E+02  0.7546771E-02  0.1372020E+00
          2   -1    0    0  502    0  0.00000000000E+00  0.00000000000E+00  0.28121995684E+03  0.28121995684E+03  0.00000000000E+00 0. -1.
          1   -1    0    0  501    0 -0.00000000000E+00 -0.00000000000E+00 -0.51992312802E+02  0.51992312802E+02  0.00000000000E+00 0.  1.
          2    1    1    2  501    0  0.24186690225E+02  0.26993649912E+02  0.27355945271E+03  0.27595004492E+03  0.00000000000E+00 0. -1.
          1    1    1    2  502    0 -0.24186690225E+02 -0.26993649912E+02 -0.44331808679E+02  0.57262224724E+02  0.00000000000E+00 0.  1.
</event>
<event>
 4    1  0.3586324E+003  0.2084257E+02  0.7546771E-02  0.1521525E+00
          2   -1    0    0  502    0  0.00000000000E+00  0.00000000000E+00  0.32134565777E+03  0.32134565777E+03  0.00000000000E+00 0. -1.
          1   -1    0    0  501    0 -0.00000000000E+00 -0.00000000000E+00 -0.49191157697E+01  0.49191157697E+01  0.00000000000E+00 0.  1.
          2    1    1    2  501    0  0.13334798913E+01  0.20799865189E+02  0.29713306490E+03  0.29786317466E+03  0.00000000000E+00 0. -1.
          1    1    1    2  502    0 -0.13334798913E+01 -0.20799865189E+02  0.19293477104E+02  0.28401598886E+02  0.00000000000E+00 0.  1.
</event>
<event>
 4    1  0.3586324E+003  0.2143774E+02  0.7546771E-02  0.1513106E+00
          2   -1    0    0  502    0  0.00000000000E+00  0.00000000000E+00  0.54743200142E+03  0.54743200142E+03  0.00000000000E+00 0.  1.
          1   -1    0    0  501    0 -0.00000000000E+00 -0.00000000000E+00 -0.30678551809E+03  0.30678551809E+03  0.00000000000E+00 0.  1.
          2    1    1    2  501    0 -0.12337802887E+02 -0.17531553990E+02  0.54684721279E+03  0.54726725729E+03  0.00000000000E+00 0.  1.
          1    1    1    2  502    0  0.12337802887E+02  0.17531553990E+02 -0.30620072946E+03  0.30695026223E+03  0.00000000000E+00 0.  1.
</event>
<event>
 4    1  0.3586324E+003  0.2079125E+02  0.7546771E-02  0.1522266E+00
          2   -1    0    0  502    0  0.00000000000E+00  0.00000000000E+00  0.73287474101E+01  0.73287474101E+01  0.00000000000E+00 0.  1.
          1   -1    0    0  501    0 -0.00000000000E+00 -0.00000000000E+00 -0.12767567211E+04  0.12767567211E+04  0.00000000000E+00 0.  1.
          2    1    1    2  501    0  0.20165570412E+02  0.50622051178E+01 -0.76771644795E+01  0.22163370798E+02  0.00000000000E+00 0.  1.
          1    1    1    2  502    0 -0.20165570412E+02 -0.50622051178E+01 -0.12617508092E+04  0.12619220977E+04  0.00000000000E+00 0.  1.
</event>
<event>
 4    1  0.3586324E+003  0.2635064E+02  0.7546771E-02  0.1454242E+00
          2   -1    0    0  502    0  0.00000000000E+00  0.00000000000E+00  0.13844966986E+04  0.13844966986E+04  0.00000000000E+00 0. -1.
          1   -1    0    0  501    0 -0.00000000000E+00 -0.00000000000E+00 -0.62550565009E+00  0.62550565009E+00  0.00000000000E+00 0. -1.
          2    1    1    2  501    0 -0.94762345118E+00  0.26333598050E+02  0.10002711782E+04  0.10006182020E+04  0.00000000000E+00 0. -1.
          1    1    1    2  502    0  0.94762345118E+00 -0.26333598050E+02  0.38360001484E+03  0.38450400227E+03  0.00000000000E+00 0. -1.
</event>
<event>
 4    1  0.3586324E+003  0.2298443E+02  0.7546771E-02  0.1492694E+00
          2   -1    0    0  502    0  0.00000000000E+00  0.00000000000E+00  0.10777520728E+03  0.10777520728E+03  0.00000000000E+00 0. -1.
          1   -1    0    0  501    0 -0.00000000000E+00 -0.00000000000E+00 -0.56676483535E+01  0.56676483535E+01  0.00000000000E+00 0. -1.
          2    1    1    2  501    0  0.50264620012E+01  0.22428081837E+02  0.71905362262E+02  0.75489504550E+02  0.00000000000E+00 0. -1.
          1    1    1    2  502    0 -0.50264620012E+01 -0.22428081837E+02  0.30202196665E+02  0.37953351085E+02  0.00000000000E+00 0. -1.
</event>
<event>
 4    1  0.3586324E+003  0.2682465E+02  0.7546771E-02  0.1449378E+00
          2   -1    0    0  502    0  0.00000000000E+00  0.00000000000E+00  0.10527236717E+02  0.10527236717E+02  0.00000000000E+00 0.  1.
          1   -1    0    0  501    0 -0.00000000000E+00 -0.00000000000E+00 -0.55243117541E+03  0.55243117541E+03  0.00000000000E+00 0. -1.
          2    1    1    2  501    0 -0.15483478897E+02 -0.21904881209E+02 -0.74612964645E+01  0.27843004228E+02  0.00000000000E+00 0.  1.
          1    1    1    2  502    0  0.15483478897E+02  0.21904881209E+02 -0.53444264223E+03  0.53511540790E+03  0.00000000000E+00 0. -1.
</event>
<event>
 4    1  0.3586324E+003  0.2961969E+02  0.7546771E-02  0.1422931E+00
          2   -1    0    0  502    0  0.00000000000E+00  0.00000000000E+00  0.34459724856E+02  0.34459724856E+02  0.00000000000E+00 0. -1.
          1   -1    0    0  501    0 -0.00000000000E+00 -0.00000000000E+00 -0.25187131062E+03  0.25187131062E+03  0.00000000000E+00 0. -1.
          2    1    1    2  501    0 -0.16763073516E+02 -0.24419773636E+02  0.27031334721E+02  0.40100112655E+02  0.00000000000E+00 0. -1.
          1    1    1    2  502    0  0.16763073516E+02  0.24419773636E+02 -0.24444292048E+03  0.24623092282E+03  0.00000000000E+00 0. -1.
</event>
<event>
 4    1  0.3586324E+003  0.2163503E+02  0.7546771E-02  0.1510388E+00
          2   -1    0    0  502    0  0.00000000000E+00  0.00000000000E+00  0.20771365562E+02  0.20771365562E+02  0.00000000000E+00 0. -1.
          1   -1    0    0  501    0 -0.00000000000E+00 -0.00000000000E+00 -0.63474460019E+03  0.63474460019E+03  0.00000000000E+00 0. -1.
          2    1    1    2  501    0 -0.86374957952E+01  0.19836037413E+02  0.14900781417E+02  0.26269906751E+02  0.00000000000E+00 0. -1.
          1    1    1    2  502    0  0.86374957952E+01 -0.19836037413E+02 -0.62887401605E+03  0.62924605901E+03  0.00000000000E+00 0. -1.
</event>
<event>
 4    1  0.3586324E+003  0.2388651E+02  0.7546771E-02  0.1481656E+00
          2   -1    0    0  502    0  0.00000000000E+00  0.00000000000E+00  0.13789682935E+01  0.13789682935E+01  0.00000000000E+00 0. -1.
          1   -1    0    0  501    0 -0.00000000000E+00 -0.00000000000E+00 -0.84710835197E+03  0.84710835197E+03  0.00000000000E+00 0. -1.
          2    1    1    2  501    0 -0.16018691236E+02 -0.17719115212E+02 -0.11943145590E+03  0.12179670837E+03  0.00000000000E+00 0. -1.
          1    1    1    2  502    0  0.16018691236E+02  0.17719115212E+02 -0.72629792778E+03  0.72669061189E+03  0.00000000000E+00 0. -1.
</event>
<event>
 4    1  0.3586324E+003  0.2549049E+02  0.7546771E-02  0.1463390E+00
          2   -1    0    0  502    0  0.00000000000E+00  0.00000000000E+00  0.12627574700E+04  0.12627574700E+04  0.00000000000E+00 0. -1.
          1   -1    0    0  501    0 -0.00000000000E+00 -0.00000000000E+00 -0.11944085981E+02  0.11944085981E+02  0.00000000000E+00 0.  1.
          2    1    1    2  501    0 -0.22643361582E+02  0.11706549743E+02  0.12488775514E+04  0.12491376639E+04  0.00000000000E+00 0. -1.
          1    1    1    2  502    0  0.22643361582E+02 -0.11706549743E+02  0.19358326880E+01  0.25563892091E+02  0.00000000000E+00 0.  1.
</event>
<event>
 4    1  0.3586324E+003  0.2053252E+02  0.7546771E-02  0.1526045E+00
          2   -1    0    0  502    0  0.00000000000E+00  0.00000000000E+00  0.57633020303E+02  0.57633020303E+02  0.00000000000E+00 0.  1.
          1   -1    0    0  501    0 -0.00000000000E+00 -0.00000000000E+00 -0.48582617251E+03  0.48582617251E+03  0.00000000000E+00 0.  1.
          2    1    1    2  501    0  0.11008505408E+02 -0.17331972712E+02  0.55579574037E+02  0.59250936867E+02  0.00000000000E+00 0.  1.
          1    1    1    2  502    0 -0.11008505408E+02  0.17331972712E+02 -0.48377272625E+03  0.48420825595E+03  0.00000000000E+00 0.  1.
</event>
<event>
 4    1  0.3586324E+003  0.5138168E+02  0.7546771E-02  0.1292291E+00
          2   -1    0    0  502    0  0.00000000000E+00  0.00000000000E+00  0.39649644633E+02  0.39649644633E+02  0.00000000000E+00 0.  1.
          1   -1    0    0  501    0 -0.00000000000E+00 -0.00000000000E+00 -0.16998672822E+03  0.16998672822E+03  0.00000000000E+00 0. -1.
          2    1    1    2  501    0 -0.45211151329E+02  0.24413710024E+02  0.16582392070E+02  0.53991232329E+02  0.00000000000E+00 0.  1.
          1    1    1    2  502    0  0.45211151329E+02 -0.24413710024E+02 -0.14691947566E+03  0.15564514053E+03  0.00000000000E+00 0. -1.
</event>
<event>
 4    1  0.3586324E+003  0.2023965E+02  0.7546771E-02  0.1530403E+00
          2   -1    0    0  502    0  0.00000000000E+00  0.00000000000E+00  0.53045753022E+03  0.53045753022E+03  0.00000000000E+00 0.  1.
          1   -1    0    0  501    0 -0.00000000000E+00 -0.00000000000E+00 -0.37711952282E+02  0.37711952282E+02  0.00000000000E+00 0. -1.
          2    1    1    2  501    0  0.11766910974E+02  0.16467642831E+02  0.52753381627E+03  0.52792193624E+03  0.00000000000E+00 0.  1.
          1    1    1    2  502    0 -0.11766910974E+02 -0.16467642831E+02 -0.34788238329E+02  0.40247546265E+02  0.00000000000E+00 0. -1.
</event>
<event>
 4    1  0.3586324E+003  0.2075685E+02  0.7546771E-02  0.1522765E+00
          2   -1    0    0  502    0  0.00000000000E+00  0.00000000000E+00  0.77009953101E+03  0.77009953101E+03  0.00000000000E+00 0.  1.
          1   -1    0    0  501    0 -0.00000000000E+00 -0.00000000000E+00 -0.84351159018E+00  0.84351159018E+00  0.00000000000E+00 0.  1.
          2    1    1    2  501    0  0.15938581783E+02  0.13296927285E+02  0.60831393158E+03  0.60866796040E+03  0.00000000000E+00 0.  1.
          1    1    1    2  502    0 -0.15938581783E+02 -0.13296927285E+02  0.16094208785E+03  0.16227508220E+03  0.00000000000E+00 0.  1.
</event>
<event>
 4    1  0.3586324E+003  0.2098459E+02  0.7546771E-02  0.1519485E+00
          2   -1    0    0  502    0  0.00000000000E+00  0.00000000000E+00  0.44464454269E+02  0.44464454269E+02  0.00000000000E+00 0.  1.
          1   -1    0    0  501    0 -0.00000000000E+00 -0.00000000000E+00 -0.26952168746E+02  0.26952168746E+02  0.00000000000E+00 0. -1.
          2    1    1    2  501    0 -0.14476982232E+02 -0.15191113088E+02  0.37156115241E+02  0.42672354414E+02  0.00000000000E+00 0.  1.
          1    1    1    2  502    0  0.14476982232E+02  0.15191113088E+02 -0.19643829718E+02  0.28744268601E+02  0.00000000000E+00 0. -1.
</event>
<event>
 4    1  0.3586324E+003  0.2452196E+02  0.7546771E-02  0.1474223E+00
          2   -1    0    0  502    0  0.00000000000E+00  0.00000000000E+00  0.28752071967E+02  0.28752071967E+02  0.00000000000E+00 0.  1.
          1   -1    0    0  501    0 -0.00000000000E+00 -0.00000000000E+00 -0.21413692897E+02  0.21413692897E+02  0.00000000000E+00 0.  1.
          2    1    1    2  501    0 -0.24457088585E+02  0.17823078867E+01 -0.16177481003E+00  0.24522478964E+02  0.00000000000E+00 0.  1.
          1    1    1    2  502    0  0.24457088585E+02 -0.17823078867E+01  0.75001538801E+01  0.25643285899E+02  0.00000000000E+00 0.  1.
</event>
<event>
 4    1  0.3586324E+003  0.2118680E+02  0.7546771E-02  0.1516615E+00
          2   -1    0    0  502    0  0.00000000000E+00  0.00000000000E+00  0.66939684388E+03  0.66939684388E+03  0.00000000000E+00 0. -1.
          1   -1    0    0  501    0 -0.00000000000E+00 -0.00000000000E+00 -0.10310316202E+03  0.10310316202E+03  0.00000000000E+00 0. -1.
          2    1    1    2  501    0 -0.20707917259E+02 -0.44791146176E+01  0.66813872614E+03  0.66847456023E+03  0.00000000000E+00 0. -1.
          1    1    1    2  502    0  0.20707917259E+02  0.44791146176E+01 -0.10184504428E+03  0.10402544568E+03  0.00000000000E+00 0. -1.
</event>
<event>
 4    1  0.3586324E+003  0.2412974E+02  0.7546771E-02  0.1478779E+00
          2   -1    0    0  502    0  0.00000000000E+00  0.00000000000E+00  0.65501281607E+03  0.65501281607E+03  0.00000000000E+00 0. -1.
          1   -1    0    0  501    0 -0.00000000000E+00 -0.00000000000E+00 -0.46169318168E+01  0.46169318168E+01  0.00000000000E+00 0. -1.
          2    1    1    2  501    0  0.23770518604E+02 -0.41481131054E+01  0.62156709615E+03  0.62203528792E+03  0.00000000000E+00 0. -1.
          1    1    1    2  502    0 -0.23770518604E+02  0.41481131054E+01  0.28828788109E+02  0.37594459976E+02  0.00000000000E+00 0. -1.
</event>
<event>
 4    1  0.3586324E+003  0.2808781E+02  0.7546771E-02  0.1436977E+00
          2   -1    0    0  502    0  0.00000000000E+00  0.00000000000E+00  0.18798332407E+03  0.18798332407E+03  0.00000000000E+00 0.  1.
          1   -1    0    0  501    0 -0.00000000000E+00 -0.00000000000E+00 -0.51339620551E+01  0.51339620551E+01  0.00000000000E+00 0.  1.
          2    1    1    2  501    0 -0.41586651303E+01  0.27778235871E+02  0.13267967485E+03  0.13562013495E+03  0.00000000000E+00 0.  1.
          1    1    1    2  502    0  0.41586651303E+01 -0.27778235871E+02  0.50169687165E+02  0.57497151181E+02  0.00000000000E+00 0.  1.
</event>
<event>
 4    1  0.3586324E+003  0.2457742E+02  0.7546771E-02  0.1473587E+00
          2   -1    0    0  502    0  0.00000000000E+00  0.00000000000E+00  0.58255606328E+03  0.58255606328E+03  0.00000000000E+00 0.  1.
          1   -1    0    0  501    0 -0.00000000000E+00 -0.00000000000E+00 -0.11047811978E+03  0.11047811978E+03  0.00000000000E+00 0.  1.
          2    1    1    2  501    0  0.15958277612E+02 -0.18691792610E+02  0.58092610687E+03  0.58144577682E+03  0.00000000000E+00 0.  1.
          1    1    1    2  502    0 -0.15958277612E+02  0.18691792610E+02 -0.10884816338E+03  0.11158840623E+03  0.00000000000E+00 0.  1.
</event>
<event>
 4    1  0.3586324E+003  0.2048890E+02  0.7546771E-02  0.1526689E+00
          2   -1    0    0  502    0  0.00000000000E+00  0.00000000000E+00  0.24952457307E+03  0.24952457307E+03  0.00000000000E+00 0. -1.
          1   -1    0    0  501    0 -0.00000000000E+00 -0.00000000000E+00 -0.17135338772E+01  0.17135338772E+01  0.00000000000E+00 0. -1.
          2    1    1    2  501    0 -0.16684153224E+02 -0.11892588787E+02  0.10696683861E+03  0.10891142823E+03  0.00000000000E+00 0. -1.
          1    1    1    2  502    0  0.16684153224E+02  0.11892588787E+02  0.14084420059E+03  0.14232667872E+03  0.00000000000E+00 0. -1.
</event>
<event>
 4    1  0.3586324E+003  0.2139682E+02  0.7546771E-02  0.1513674E+00
          2   -1    0    0  502    0  0.00000000000E+00  0.00000000000E+00  0.61174954645E+03  0.61174954645E+03  0.00000000000E+00 0. -1.
          1   -1    0    0  501    0 -0.00000000000E+00 -0.00000000000E+00 -0.10971467016E+02  0.10971467016E+02  0.00000000000E+00 0.  1.
          2    1    1    2  501    0  0.20915010714E+02  0.45151078029E+01  0.60094275984E+03  0.60132356055E+03  0.00000000000E+00 0. -1.
          1    1    1    2  502    0 -0.20915010714E+02 -0.45151078029E+01 -0.16468040328E+00  0.21397452916E+02  0.00000000000E+00 0.  1.
</event>
<event>
 4    1  0.3586324E+003  0.2809058E+02  0.7546771E-02  0.1436950E+00
          2   -1    0    0  502    0  0.00000000000E+00  0.00000000000E+00  0.30285994267E+02  0.30285994267E+02  0.00000000000E+00 0.  1.
          1   -1    0    0  501    0 -0.00000000000E+00 -0.00000000000E+00 -0.60226561059E+02  0.60226561059E+02  0.00000000000E+00 0. -1.
          2    1    1    2  501    0  0.99371946783E+01  0.26274188297E+02  0.19119289917E+02  0.33979818358E+02  0.00000000000E+00 0.  1.
          1    1    1    2  502    0 -0.99371946783E+01 -0.26274188297E+02 -0.49059856709E+02  0.56532736968E+02  0.00000000000E+00 0. -1.
</event>
<event>
 4    1  0.3586324E+003  0.2324251E+02  0.7546771E-02  0.1489475E+00
          2   -1    0    0  502    0  0.00000000000E+00  0.00000000000E+00  0.68232176146E+02  0.68232176146E+02  0.00000000000E+00 0.  1.
          1   -1    0    0  501    0 -0.00000000000E+00 -0.00000000000E+00 -0.15025296909E+04  0.15025296909E+04  0.00000000000E+00 0.  1.
          2    1    1    2  501    0 -0.15133255947E+02 -0.17640828206E+02  0.66160235285E+02  0.70124111320E+02  0.00000000000E+00 0.  1.
          1    1    1    2  502    0  0.15133255947E+02  0.17640828206E+02 -0.15004577500E+04  0.15006377557E+04  0.00000000000E+00 0.  1.
</event>
<event>
 4    1  0.3586324E+003  0.2008450E+02  0.7546771E-02  0.1532748E+00
          2   -1    0    0  502    0  0.00000000000E+00  0.00000000000E+00  0.13160646430E+03  0.13160646430E+03  0.00000000000E+00 0.  1.
          1   -1    0    0  501    0 -0.00000000000E+00 -0.00000000000E+00 -0.12039004600E+03  0.12039004600E+03  0.00000000000E+00 0. -1.
          2    1    1    2  501    0  0.20066340143E+02 -0.85390682455E+00  0.12999218069E+03  0.13153461219E+03  0.00000000000E+00 0.  1.
          1    1    1    2  502    0 -0.20066340143E+02  0.85390682455E+00 -0.11877576239E+03  0.12046189810E+03  0.00000000000E+00 0. -1.
</event>
<event>
 4    1  0.3586324E+003  0.2130356E+02  0.7546771E-02  0.1514975E+00
          2   -1    0    0  502    0  0.00000000000E+00  0.00000000000E+00  0.65194278656E+02  0.65194278656E+02  0.00000000000E+00 0.  1.
          1   -1    0    0  501    0 -0.00000000000E+00 -0.00000000000E+00 -0.55858173756E+02  0.55858173756E+02  0.00000000000E+00 0.  1.
          2    1    1    2  501    0 -0.14413871710E+02 -0.15687006247E+02  0.61297254356E+02  0.64893722765E+02  0.00000000000E+00 0.  1.
          1    1    1    2  502    0  0.14413871710E+02  0.15687006247E+02 -0.51961149457E+02  0.56158729647E+02  0.00000000000E+00 0.  1.
</event>
<event>
 4    1  0.3586324E+003  0.3157708E+02  0.7546771E-02  0.1406369E+00
          2   -1    0    0  502    0  0.00000000000E+00  0.00000000000E+00  0.12974372356E+04  0.12974372356E+04  0.00000000000E+00 0.  1.
          1   -1    0    0  501    0 -0.00000000000E+00 -0.00000000000E+00 -0.58481347521E+02  0.58481347521E+02  0.00000000000E+00 0. -1.
          2    1    1    2  501    0  0.26243732911E+02 -0.17560700117E+02  0.12929678524E+04  0.12933533852E+04  0.00000000000E+00 0.  1.
          1    1    1    2  502    0 -0.26243732911E+02  0.17560700117E+02 -0.54011964293E+02  0.62565197934E+02  0.00000000000E+00 0. -1.
</event>
<event>
 4    1  0.3586324E+003  0.3747615E+02  0.7546771E-02  0.1363946E+00
          2   -1    0    0  502    0  0.00000000000E+00  0.00000000000E+00  0.21644974870E+04  0.21644974870E+04  0.00000000000E+00 0.  1.
          1   -1    0    0  501    0 -0.00000000000E+00 -0.00000000000E+00 -0.23711445916E+01  0.23711445916E+01  0.00000000000E+00 0.  1.
          2    1    1    2  501    0 -0.36541991024E+02 -0.83153373886E+01  0.20044329802E+04  0.20047832885E+04  0.00000000000E+00 0.  1.
          1    1    1    2  502    0  0.36541991024E+02  0.83153373886E+01  0.15769336223E+03  0.16208534306E+03  0.00000000000E+00 0.  1.
</event>
<event>
 4    1  0.3586324E+003  0.2547481E+02  0.7546771E-02  0.1463561E+00
          2   -1    0    0  502    0  0.00000000000E+00  0.00000000000E+00  0.58681822399E+02  0.58681822399E+02  0.00000000000E+00 0. -1.
          1   -1    0    0  501    0 -0.00000000000E+00 -0.00000000000E+00 -0.18492277947E+02  0.18492277947E+02  0.00000000000E+00 0. -1.
          2    1    1    2  501    0  0.24821692828E+02  0.57314562523E+01  0.44559179158E+02  0.51327248834E+02  0.00000000000E+00 0. -1.
          1    1    1    2  502    0 -0.24821692828E+02 -0.57314562523E+01 -0.43696347067E+01  0.25846851512E+02  0.00000000000E+00 0. -1.
</event>
<event>
 4    1  0.3586324E+003  0.3106022E+02  0.7546771E-02  0.1410601E+00
          2   -1    0    0  502    0  0.00000000000E+00  0.00000000000E+00  0.98886505465E+02  0.98886505465E+02  0.00000000000E+00 0.  1.
          1   -1    0    0  501    0 -0.00000000000E+00 -0.00000000000E+00 -0.72955913956E+02  0.72955913956E+02  0.00000000000E+00 0. -1.
          2    1    1    2  501    0  0.10221068045E+02 -0.29330312377E+02  0.92935526773E+02  0.97988517657E+02  0.00000000000E+00 0.  1.
          1    1    1    2  502    0 -0.10221068045E+02  0.29330312377E+02 -0.67004935264E+02  0.73853901765E+02  0.00000000000E+00 0. -1.
</event>
<event>
 4    1  0.3586324E+003  0.2578488E+02  0.7546771E-02  0.1460211E+00
          2   -1    0    0  502    0  0.00000000000E+00  0.00000000000E+00  0.17673167301E+03  0.17673167301E+03  0.00000000000E+00 0. -1.
          1   -1    0    0  501    0 -0.00000000000E+00 -0.00000000000E+00 -0.50621752060E+03  0.50621752060E+03  0.00000000000E+00 0. -1.
          2    1    1    2  501    0  0.25423685045E+02 -0.43007358039E+01  0.17546046613E+03  0.17734496121E+03  0.00000000000E+00 0. -1.
          1    1    1    2  502    0 -0.25423685045E+02  0.43007358039E+01 -0.50494631372E+03  0.50560423241E+03  0.00000000000E+00 0. -1.
</event>
<event>
 4    1  0.3586324E+003  0.2075690E+02  0.7546771E-02  0.1522764E+00
          2   -1    0    0  502    0  0.00000000000E+00  0.00000000000E+00  0.92258883868E+02  0.92258883868E+02  0.00000000000E+00 0.  1.
          1   -1    0    0  501    0 -0.00000000000E+00 -0.00000000000E+00 -0.47090726253E+02  0.47090726253E+02  0.00000000000E+00 0.  1.
          2    1    1    2  501    0  0.74325599707E+01 -0.19380550762E+02  0.88713867359E+02  0.91109818117E+02  0.00000000000E+00 0.  1.
          1    1    1    2  502    0 -0.74325599707E+01  0.19380550762E+02 -0.43545709743E+02  0.48239792004E+02  0.00000000000E+00 0.  1.
</event>
<event>
 4    1  0.4909031E+003  0.2388130E+02  0.7546771E-02  0.1481718E+00
          2   -1    0    0  502    0  0.00000000000E+00  0.00000000000E+00  0.16199442181E+04  0.16199442181E+04  0.00000000000E+00 0.  1.
          1   -1    0    0  501    0 -0.00000000000E+00 -0.00000000000E+00 -0.44793370910E+03  0.44793370910E+03  0.00000000000E+00 0. -1.
          2    1    1    2  501    0  0.13742415152E+02 -0.19531069575E+02  0.16195378192E+04  0.16197138835E+04  0.00000000000E+00 0.  1.
          1    1    1    2  502    0 -0.13742415152E+02  0.19531069575E+02 -0.44752731021E+03  0.44816404367E+03  0.00000000000E+00 0. -1.
</event>
<event>
 4    1  0.3586324E+003  0.4705437E+02  0.7546771E-02  0.1311475E+00
          2   -1    0    0  502    0  0.00000000000E+00  0.00000000000E+00  0.28921616286E+02  0.28921616286E+02  0.00000000000E+00 0.  1.
          1   -1    0    0  501    0 -0.00000000000E+00 -0.00000000000E+00 -0.58262279223E+03  0.58262279223E+03  0.00000000000E+00 0. -1.
          2    1    1    2  501    0 -0.44580763346E+02  0.15055546122E+02  0.81254389496E+01  0.47750776828E+02  0.00000000000E+00 0.  1.
          1    1    1    2  502    0  0.44580763346E+02 -0.15055546122E+02 -0.56182661489E+03  0.56379363169E+03  0.00000000000E+00 0. -1.
</event>
<event>
 4    1  0.3586324E+003  0.8365709E+02  0.7546771E-02  0.1195603E+00
          2   -1    0    0  502    0  0.00000000000E+00  0.00000000000E+00  0.19443579034E+04  0.19443579034E+04  0.00000000000E+00 0.  1.
          1   -1    0    0  501    0 -0.00000000000E+00 -0.00000000000E+00 -0.10080189537E+04  0.10080189537E+04  0.00000000000E+00 0.  1.
          2    1    1    2  501    0 -0.36266652171E+02 -0.75387259822E+02  0.19417199894E+04  0.19435212956E+04  0.00000000000E+00 0.  1.
          1    1    1    2  502    0  0.36266652171E+02  0.75387259822E+02 -0.10053810397E+04  0.10088555616E+04  0.00000000000E+00 0.  1.
</event>
<event>
 4    1  0.3586324E+003  0.4962266E+02  0.7546771E-02  0.1299817E+00
          2   -1    0    0  502    0  0.00000000000E+00  0.00000000000E+00  0.16567407018E+04  0.16567407018E+04  0.00000000000E+00 0. -1.
          1   -1    0    0  501    0 -0.00000000000E+00 -0.00000000000E+00 -0.24875248077E+01  0.24875248077E+01  0.00000000000E+00 0. -1.
          2    1    1    2  501    0 -0.21338925456E+02  0.44800207581E+02  0.13534575578E+04  0.13543669256E+04  0.00000000000E+00 0. -1.
          1    1    1    2  502    0  0.21338925456E+02 -0.44800207581E+02  0.30079561917E+03  0.30486130101E+03  0.00000000000E+00 0. -1.
</event>
<event>
 4    1  0.4032122E+003  0.2887519E+02  0.7546771E-02  0.1429629E+00
          2   -1    0    0  502    0  0.00000000000E+00  0.00000000000E+00  0.14660622728E+04  0.14660622728E+04  0.00000000000E+00 0.  1.
          1   -1    0    0  501    0 -0.00000000000E+00 -0.00000000000E+00 -0.17167080913E+04  0.17167080913E+04  0.00000000000E+00 0.  1.
          2    1    1    2  501    0 -0.18974672887E+02  0.21765526682E+02  0.14657986506E+04  0.14660830333E+04  0.00000000000E+00 0.  1.
          1    1    1    2  502    0  0.18974672887E+02 -0.21765526682E+02 -0.17164444690E+04  0.17166873308E+04  0.00000000000E+00 0.  1.
</event>
<event>
 4    1  0.3586324E+003  0.2052335E+02  0.7546771E-02  0.1526180E+00
          2   -1    0    0  502    0  0.00000000000E+00  0.00000000000E+00  0.48461492451E+03  0.48461492451E+03  0.00000000000E+00 0.  1.
          1   -1    0    0  501    0 -0.00000000000E+00 -0.00000000000E+00 -0.94098758506E+00  0.94098758506E+00  0.00000000000E+00 0.  1.
          2    1    1    2  501    0  0.11797578150E+02  0.16793598355E+02  0.30891242456E+03  0.30959343314E+03  0.00000000000E+00 0.  1.
          1    1    1    2  502    0 -0.11797578150E+02 -0.16793598355E+02  0.17476151237E+03  0.17596247896E+03  0.00000000000E+00 0.  1.
</event>
<event>
 4    1  0.3586324E+003  0.2203748E+02  0.7546771E-02  0.1504952E+00
          2   -1    0    0  502    0  0.00000000000E+00  0.00000000000E+00  0.54316992512E+03  0.54316992512E+03  0.00000000000E+00 0.  1.
          1   -1    0    0  501    0 -0.00000000000E+00 -0.00000000000E+00 -0.16881042266E+02  0.16881042266E+02  0.00000000000E+00 0. -1.
          2    1    1    2  501    0  0.20027073824E+02 -0.91960170149E+01  0.53565326953E+03  0.53610640322E+03  0.00000000000E+00 0.  1.
          1    1    1    2  502    0 -0.20027073824E+02  0.91960170149E+01 -0.93643866824E+01  0.23944564160E+02  0.00000000000E+00 0. -1.
</event>
<event>
 4    1  0.3586324E+003  0.4327890E+02  0.7546771E-02  0.1330273E+00
          2   -1    0    0  502    0  0.00000000000E+00  0.00000000000E+00  0.82379227073E+02  0.82379227073E+02  0.00000000000E+00 0. -1.
          1   -1    0    0  501    0 -0.00000000000E+00 -0.00000000000E+00 -0.20486466676E+03  0.20486466676E+03  0.00000000000E+00 0. -1.
          2    1    1    2  501    0  0.26121816476E+02 -0.34506722029E+02  0.74174890021E+02  0.85877689017E+02  0.00000000000E+00 0. -1.
          1    1    1    2  502    0 -0.26121816476E+02  0.34506722029E+02 -0.19666032971E+03  0.20136620482E+03  0.00000000000E+00 0. -1.
</event>
<event>
 4    1  0.3586324E+003  0.2196536E+02  0.7546771E-02  0.1505916E+00
          2   -1    0    0  502    0  0.00000000000E+00  0.00000000000E+00  0.32999515714E+03  0.32999515714E+03  0.00000000000E+00 0.  1.
          1   -1    0    0  501    0 -0.00000000000E+00 -0.00000000000E+00 -0.54378011126E+02  0.54378011126E+02  0.00000000000E+00 0. -1.
          2    1    1    2  501    0  0.21884526471E+02 -0.18826877818E+01  0.32739387214E+03  0.32812988972E+03  0.00000000000E+00 0.  1.
          1    1    1    2  502    0 -0.21884526471E+02  0.18826877818E+01 -0.51776726132E+02  0.56243278541E+02  0.00000000000E+00 0. -1.
</event>
<event>
 4    1  0.3586324E+003  0.3001714E+02  0.7546771E-02  0.1419448E+00
          2   -1    0    0  502    0  0.00000000000E+00  0.00000000000E+00  0.93745317552E+02  0.93745317552E+02  0.00000000000E+00 0.  1.
          1   -1    0    0  501    0 -0.00000000000E+00 -0.00000000000E+00 -0.25852722901E+02  0.25852722901E+02  0.00000000000E+00 0.  1.
          2    1    1    2  501    0  0.10059921506E+02 -0.28281202330E+02  0.81343308431E+02  0.86705030145E+02  0.00000000000E+00 0.  1.
          1    1    1    2  502    0 -0.10059921506E+02  0.28281202330E+02 -0.13450713780E+02  0.32893010308E+02  0.00000000000E+00 0.  1.
</event>
<event>
 4    1  0.3586324E+003  0.2452878E+02  0.7546771E-02  0.1474144E+00
          2   -1    0    0  502    0  0.00000000000E+00  0.00000000000E+00  0.29358638656E+03  0.29358638656E+03  0.00000000000E+00 0.  1.
          1   -1    0    0  501    0 -0.00000000000E+00 -0.00000000000E+00 -0.32998682827E+02  0.32998682827E+02  0.00000000000E+00 0.  1.
          2    1    1    2  501    0 -0.23346888706E+02  0.75222367654E+01  0.28843455800E+03  0.28947565615E+03  0.00000000000E+00 0.  1.
          1    1    1    2  502    0  0.23346888706E+02 -0.75222367654E+01 -0.27846854263E+02  0.37109413234E+02  0.00000000000E+00 0.  1.
</event>
<event>
 4    1  0.3586324E+003  0.2540600E+02  0.7546771E-02  0.1464312E+00
          2   -1    0    0  502    0  0.00000000000E+00  0.00000000000E+00  0.53754300786E+03  0.53754300786E+03  0.00000000000E+00 0. -1.
          1   -1    0    0  501    0 -0.00000000000E+00 -0.00000000000E+00 -0.27284617393E+01  0.27284617393E+01  0.00000000000E+00 0. -1.
          2    1    1    2  501    0  0.24685614767E+02  0.60071010873E+01  0.46954210080E+03  0.47022893283E+03  0.00000000000E+00 0. -1.
          1    1    1    2  502    0 -0.24685614767E+02 -0.60071010873E+01  0.65272445315E+02  0.70042536771E+02  0.00000000000E+00 0. -1.
</event>
<event>
 4    1  0.3586324E+003  0.4706550E+02  0.7546771E-02  0.1311423E+00
          2   -1    0    0  502    0  0.00000000000E+00  0.00000000000E+00  0.23862927983E+04  0.23862927983E+04  0.00000000000E+00 0. -1.
          1   -1    0    0  501    0 -0.00000000000E+00 -0.00000000000E+00 -0.43477032148E+01  0.43477032148E+01  0.00000000000E+00 0. -1.
          2    1    1    2  501    0  0.35648473548E+02  0.30730235095E+02  0.22510324575E+04  0.22515244360E+04  0.00000000000E+00 0. -1.
          1    1    1    2  502    0 -0.35648473548E+02 -0.30730235095E+02  0.13091263758E+03  0.13911606555E+03  0.00000000000E+00 0. -1.
</event>
<event>
 4    1  0.3586324E+003  0.2102711E+02  0.7546771E-02  0.1518878E+00
          2   -1    0    0  502    0  0.00000000000E+00  0.00000000000E+00  0.16751150496E+03  0.16751150496E+03  0.00000000000E+00 0. -1.
          1   -1    0    0  501    0 -0.00000000000E+00 -0.00000000000E+00 -0.44787399804E+03  0.44787399804E+03  0.00000000000E+00 0. -1.
          2    1    1    2  501    0 -0.68908319675E+01  0.19865946231E+02  0.16660350202E+03  0.16792518057E+03  0.00000000000E+00 0. -1.
          1    1    1    2  502    0  0.68908319675E+01 -0.19865946231E+02 -0.44696599509E+03  0.44746032243E+03  0.00000000000E+00 0. -1.
</event>
<event>
 4    1  0.3586324E+003  0.2121301E+02  0.7546771E-02  0.1516245E+00
          2   -1    0    0  502    0  0.00000000000E+00  0.00000000000E+00  0.34853372353E+02  0.34853372353E+02  0.00000000000E+00 0.  1.
          1   -1    0    0  501    0 -0.00000000000E+00 -0.00000000000E+00 -0.16779212801E+03  0.16779212801E+03  0.00000000000E+00 0. -1.
          2    1    1    2  501    0  0.16133465101E+02  0.13773268551E+02  0.30877144364E+02  0.37461842811E+02  0.00000000000E+00 0.  1.
          1    1    1    2  502    0 -0.16133465101E+02 -0.13773268551E+02 -0.16381590002E+03  0.16518365755E+03  0.00000000000E+00 0. -1.
</event>
<event>
 4    1  0.3586324E+003  0.2375502E+02  0.7546771E-02  0.1483229E+00
          2   -1    0    0  502    0  0.00000000000E+00  0.00000000000E+00  0.16834339578E+02  0.16834339578E+02  0.00000000000E+00 0. -1.
          1   -1    0    0  501    0 -0.00000000000E+00 -0.00000000000E+00 -0.55974858783E+02  0.55974858783E+02  0.00000000000E+00 0.  1.
          2    1    1    2  501    0  0.17935951259E+02 -0.15575699435E+02  0.34869658330E+01  0.24009574989E+02  0.00000000000E+00 0. -1.
          1    1    1    2  502    0 -0.17935951259E+02  0.15575699435E+02 -0.42627485038E+02  0.48799623371E+02  0.00000000000E+00 0.  1.
</event>
<event>
 4    1  0.3586324E+003  0.3106203E+02  0.7546771E-02  0.1410586E+00
          2   -1    0    0  502    0  0.00000000000E+00  0.00000000000E+00  0.26727549725E+03  0.26727549725E+03  0.00000000000E+00 0.  1.
          1   -1    0    0  501    0 -0.00000000000E+00 -0.00000000000E+00 -0.25208097281E+02  0.25208097281E+02  0.00000000000E+00 0.  1.
          2    1    1    2  501    0 -0.17899534550E+02  0.25386149198E+02  0.25639975729E+03  0.25827443824E+03  0.00000000000E+00 0.  1.
          1    1    1    2  502    0  0.17899534550E+02 -0.25386149198E+02 -0.14332357318E+02  0.34209156296E+02  0.00000000000E+00 0.  1.
</event>
<event>
 4    1  0.3586324E+003  0.2416321E+02  0.7546771E-02  0.1478386E+00
          2   -1    0    0  502    0  0.00000000000E+00  0.00000000000E+00  0.40318240301E+02  0.40318240301E+02  0.00000000000E+00 0.  1.
          1   -1    0    0  501    0 -0.00000000000E+00 -0.00000000000E+00 -0.29313572086E+02  0.29313572086E+02  0.00000000000E+00 0.  1.
          2    1    1    2  501    0  0.42244411340E+01  0.23791063772E+02  0.30267836505E+02  0.38729866318E+02  0.00000000000E+00 0.  1.
          1    1    1    2  502    0 -0.42244411340E+01 -0.23791063772E+02 -0.19263168290E+02  0.30901946069E+02  0.00000000000E+00 0.  1.
</event>
<event>
 4    1  0.3586324E+003  0.2230310E+02  0.7546771E-02  0.1501440E+00
          2   -1    0    0  502    0  0.00000000000E+00  0.00000000000E+00  0.40095738909E+02  0.40095738909E+02  0.00000000000E+00 0.  1.
          1   -1    0    0  501    0 -0.00000000000E+00 -0.00000000000E+00 -0.13431349664E+02  0.13431349664E+02  0.00000000000E+00 0.  1.
          2    1    1    2  501    0  0.12223334643E+02 -0.18655248127E+02  0.20726840642E+02  0.30447169252E+02  0.00000000000E+00 0.  1.
          1    1    1    2  502    0 -0.12223334643E+02  0.18655248127E+02  0.59375486029E+01  0.23079919321E+02  0.00000000000E+00 0.  1.
</event>
<event>
 4    1  0.3586324E+003  0.2598059E+02  0.7546771E-02  0.1458126E+00
          2   -1    0    0  502    0  0.00000000000E+00  0.00000000000E+00  0.47565248674E+03  0.47565248674E+03  0.00000000000E+00 0. -1.
          1   -1    0    0  501    0 -0.00000000000E+00 -0.00000000000E+00 -0.13616621266E+02  0.13616621266E+02  0.00000000000E+00 0. -1.
          2    1    1    2  501    0 -0.12759861392E+02 -0.22631328852E+02  0.46255428530E+03  0.46328334522E+03  0.00000000000E+00 0. -1.
          1    1    1    2  502    0  0.12759861392E+02  0.22631328852E+02 -0.51841982843E+00  0.25985762784E+02  0.00000000000E+00 0. -1.
</event>
<event>
 4    1  0.3586324E+003  0.2028147E+02  0.7546771E-02  0.1529776E+00
          2   -1    0    0  502    0  0.00000000000E+00  0.00000000000E+00  0.18000553413E+04  0.18000553413E+04  0.00000000000E+00 0. -1.
          1   -1    0    0  501    0 -0.00000000000E+00 -0.00000000000E+00 -0.25863991141E+00  0.25863991141E+00  0.00000000000E+00 0. -1.
          2    1    1    2  501    0 -0.39253637763E+01  0.19897978659E+02  0.12071115186E+04  0.12072818877E+04  0.00000000000E+00 0. -1.
          1    1    1    2  502    0  0.39253637763E+01 -0.19897978659E+02  0.59268518277E+03  0.59303209349E+03  0.00000000000E+00 0. -1.
</event>
<event>
 4    1  0.3586324E+003  0.2111079E+02  0.7546771E-02  0.1517689E+00
          2   -1    0    0  502    0  0.00000000000E+00  0.00000000000E+00  0.14205672593E+04  0.14205672593E+04  0.00000000000E+00 0. -1.
          1   -1    0    0  501    0 -0.00000000000E+00 -0.00000000000E+00 -0.61450277230E+01  0.61450277230E+01  0.00000000000E+00 0.  1.
          2    1    1    2  501    0  0.86778115992E+01  0.19244766095E+02  0.14021191448E+04  0.14022780614E+04  0.00000000000E+00 0. -1.
          1    1    1    2  502    0 -0.86778115992E+01 -0.19244766095E+02  0.12303086842E+02  0.24434225628E+02  0.00000000000E+00 0.  1.
</event>
<event>
 4    1  0.3586324E+003  0.3062600E+02  0.7546771E-02  0.1414233E+00
          2   -1    0    0  502    0  0.00000000000E+00  0.00000000000E+00  0.10873237223E+03  0.10873237223E+03  0.00000000000E+00 0.  1.
          1   -1    0    0  501    0 -0.00000000000E+00 -0.00000000000E+00 -0.11457953642E+03  0.11457953642E+03  0.00000000000E+00 0. -1.
          2    1    1    2  501    0  0.17508873699E+02  0.25127500923E+02  0.10444706884E+03  0.10884457795E+03  0.00000000000E+00 0.  1.
          1    1    1    2  502    0 -0.17508873699E+02 -0.25127500923E+02 -0.11029423302E+03  0.11446733071E+03  0.00000000000E+00 0. -1.
</event>
<event>
 4    1  0.3586324E+003  0.2297868E+02  0.7546771E-02  0.1492766E+00
          2   -1    0    0  502    0  0.00000000000E+00  0.00000000000E+00  0.13371711561E+03  0.13371711561E+03  0.00000000000E+00 0.  1.
          1   -1    0    0  501    0 -0.00000000000E+00 -0.00000000000E+00 -0.10344842988E+02  0.10344842988E+02  0.00000000000E+00 0.  1.
          2    1    1    2  501    0 -0.12516209744E+02 -0.19270812553E+02  0.11832488758E+03  0.12053546675E+03  0.00000000000E+00 0.  1.
          1    1    1    2  502    0  0.12516209744E+02  0.19270812553E+02  0.50473850335E+01  0.23526491844E+02  0.00000000000E+00 0.  1.
</event>
<event>
 4    1  0.3586324E+003  0.3371493E+02  0.7546771E-02  0.1389830E+00
          2   -1    0    0  502    0  0.00000000000E+00  0.00000000000E+00  0.79824805187E+03  0.79824805187E+03  0.00000000000E+00 0. -1.
          1   -1    0    0  501    0 -0.00000000000E+00 -0.00000000000E+00 -0.70102039301E+02  0.70102039301E+02  0.00000000000E+00 0.  1.
          2    1    1    2  501    0 -0.32679714634E+02  0.82905237534E+01  0.79381570912E+03  0.79453135657E+03  0.00000000000E+00 0. -1.
          1    1    1    2  502    0  0.32679714634E+02 -0.82905237534E+01 -0.65669696550E+02  0.73818734598E+02  0.00000000000E+00 0.  1.
</event>
<event>
 4    1  0.3586324E+003  0.2017479E+02  0.7546771E-02  0.1531380E+00
          2   -1    0    0  502    0  0.00000000000E+00  0.00000000000E+00  0.71145354518E+03  0.71145354518E+03  0.00000000000E+00 0. -1.
          1   -1    0    0  501    0 -0.00000000000E+00 -0.00000000000E+00 -0.79835952735E+00  0.79835952735E+00  0.00000000000E+00 0. -1.
          2    1    1    2  501    0 -0.19817421828E+02 -0.37804603921E+01  0.54491455110E+03  0.54528789652E+03  0.00000000000E+00 0. -1.
          1    1    1    2  502    0  0.19817421828E+02  0.37804603921E+01  0.16574063455E+03  0.16696400819E+03  0.00000000000E+00 0. -1.
</event>
<event>
 4    1  0.3586324E+003  0.2705328E+02  0.7546771E-02  0.1447074E+00
          2   -1    0    0  502    0  0.00000000000E+00  0.00000000000E+00  0.18660760642E+04  0.18660760642E+04  0.00000000000E+00 0.  1.
          1   -1    0    0  501    0 -0.00000000000E+00 -0.00000000000E+00 -0.54762239585E+00  0.54762239585E+00  0.00000000000E+00 0. -1.
          2    1    1    2  501    0 -0.18569423731E+02  0.19673753831E+02  0.14299734613E+04  0.14302293453E+04  0.00000000000E+00 0.  1.
          1    1    1    2  502    0  0.18569423731E+02 -0.19673753831E+02  0.43555498050E+03  0.43639434131E+03  0.00000000000E+00 0. -1.
</event>
<event>
 4    1  0.3586324E+003  0.2173178E+02  0.7546771E-02  0.1509068E+00
          2   -1    0    0  502    0  0.00000000000E+00  0.00000000000E+00  0.82707667374E+02  0.82707667374E+02  0.00000000000E+00 0. -1.
          1   -1    0    0  501    0 -0.00000000000E+00 -0.00000000000E+00 -0.64587788894E+02  0.64587788894E+02  0.00000000000E+00 0. -1.
          2    1    1    2  501    0 -0.27745253433E+01  0.21553943511E+02  0.79376797725E+02  0.82297913028E+02  0.00000000000E+00 0. -1.
          1    1    1    2  502    0  0.27745253433E+01 -0.21553943511E+02 -0.61256919245E+02  0.64997543240E+02  0.00000000000E+00 0. -1.
</event>
<event>
 4    1  0.3586324E+003  0.2203375E+02  0.7546771E-02  0.1505001E+00
          2   -1    0    0  502    0  0.00000000000E+00  0.00000000000E+00  0.57324064221E+02  0.57324064221E+02  0.00000000000E+00 0.  1.
          1   -1    0    0  501    0 -0.00000000000E+00 -0.00000000000E+00 -0.72086854067E+02  0.72086854067E+02  0.00000000000E+00 0.  1.
          2    1    1    2  501    0 -0.39468060863E+01  0.21677385858E+02  0.53404367516E+02  0.57771210872E+02  0.00000000000E+00 0.  1.
          1    1    1    2  502    0  0.39468060863E+01 -0.21677385858E+02 -0.68167157361E+02  0.71639707416E+02  0.00000000000E+00 0.  1.
</event>
<event>
 4    1  0.3586324E+003  0.2014012E+02  0.7546771E-02  0.1531904E+00
          2   -1    0    0  502    0  0.00000000000E+00  0.00000000000E+00  0.52443076680E+03  0.52443076680E+03  0.00000000000E+00 0. -1.
          1   -1    0    0  501    0 -0.00000000000E+00 -0.00000000000E+00 -0.11562421431E+01  0.11562421431E+01  0.00000000000E+00 0.  1.
          2    1    1    2  501    0 -0.19460293044E+02  0.51885862517E+01  0.41284290495E+03  0.41333387062E+03  0.00000000000E+00 0. -1.
          1    1    1    2  502    0  0.19460293044E+02 -0.51885862517E+01  0.11043161970E+03  0.11225313832E+03  0.00000000000E+00 0.  1.
</event>
<event>
 4    1  0.3586324E+003  0.2314425E+02  0.7546771E-02  0.1490695E+00
          2   -1    0    0  502    0  0.00000000000E+00  0.00000000000E+00  0.13916495009E+04  0.13916495009E+04  0.00000000000E+00 0. -1.
          1   -1    0    0  501    0 -0.00000000000E+00 -0.00000000000E+00 -0.14740512288E+02  0.14740512288E+02  0.00000000000E+00 0.  1.
          2    1    1    2  501    0  0.23020090844E+02  0.23940634618E+01  0.13824077836E+04  0.13826015103E+04  0.00000000000E+00 0. -1.
          1    1    1    2  502    0 -0.23020090844E+02 -0.23940634618E+01 -0.54987950068E+01  0.23788502871E+02  0.00000000000E+00 0.  1.
</event>
<event>
 4    1  0.3586324E+003  0.2846655E+02  0.7546771E-02  0.1433408E+00
          2   -1    0    0  502    0  0.00000000000E+00  0.00000000000E+00  0.56224724835E+01  0.56224724835E+01  0.00000000000E+00 0.  1.
          1   -1    0    0  501    0 -0.00000000000E+00 -0.00000000000E+00 -0.55250893805E+03  0.55250893805E+03  0.00000000000E+00 0. -1.
          2    1    1    2  501    0 -0.32621951439E+01 -0.28279007562E+02 -0.33520921701E+02  0.43977225669E+02  0.00000000000E+00 0.  1.
          1    1    1    2  502    0  0.32621951439E+01  0.28279007562E+02 -0.51336554386E+03  0.51415418486E+03  0.00000000000E+00 0. -1.
</event>
<event>
 4    1  0.3586324E+003  0.3131412E+02  0.7546771E-02  0.1408510E+00
          2   -1    0    0  502    0  0.00000000000E+00  0.00000000000E+00  0.16063782467E+03  0.16063782467E+03  0.00000000000E+00 0.  1.
          1   -1    0    0  501    0 -0.00000000000E+00 -0.00000000000E+00 -0.86617070396E+02  0.86617070396E+02  0.00000000000E+00 0.  1.
          2    1    1    2  501    0 -0.23098263629E+02  0.21143425928E+02  0.15620198109E+03  0.15930986517E+03  0.00000000000E+00 0.  1.
          1    1    1    2  502    0  0.23098263629E+02 -0.21143425928E+02 -0.82181226817E+02  0.87945029899E+02  0.00000000000E+00 0.  1.
</event>
<event>
 4    1  0.3586324E+003  0.5566069E+02  0.7546771E-02  0.1275334E+00
          2   -1    0    0  502    0  0.00000000000E+00  0.00000000000E+00  0.22179365060E+04  0.22179365060E+04  0.00000000000E+00 0.  1.
          1   -1    0    0  501    0 -0.00000000000E+00 -0.00000000000E+00 -0.65070343015E+02  0.65070343015E+02  0.00000000000E+00 0.  1.
          2    1    1    2  501    0  0.54446198106E+02 -0.11563890812E+02  0.22056178921E+04  0.22063201033E+04  0.00000000000E+00 0.  1.
          1    1    1    2  502    0 -0.54446198106E+02  0.11563890812E+02 -0.52751729085E+02  0.76686745793E+02  0.00000000000E+00 0.  1.
</event>
<event>
 4    1  0.3586324E+003  0.2067870E+02  0.7546771E-02  0.1523902E+00
          2   -1    0    0  502    0  0.00000000000E+00  0.00000000000E+00  0.97631488031E+02  0.97631488031E+02  0.00000000000E+00 0. -1.
          1   -1    0    0  501    0 -0.00000000000E+00 -0.00000000000E+00 -0.69992858079E+01  0.69992858079E+01  0.00000000000E+00 0. -1.
          2    1    1    2  501    0  0.10794949986E+02  0.17637398273E+02  0.77320419987E+02  0.80037841737E+02  0.00000000000E+00 0. -1.
          1    1    1    2  502    0 -0.10794949986E+02 -0.17637398273E+02  0.13311782237E+02  0.24592932102E+02  0.00000000000E+00 0. -1.
</event>
<event>
 4    1  0.3586324E+003  0.2356011E+02  0.7546771E-02  0.1485582E+00
          2   -1    0    0  502    0  0.00000000000E+00  0.00000000000E+00  0.28916659799E+03  0.28916659799E+03  0.00000000000E+00 0. -1.
          1   -1    0    0  501    0 -0.00000000000E+00 -0.00000000000E+00 -0.10785477160E+02  0.10785477160E+02  0.00000000000E+00 0.  1.
          2    1    1    2  501    0 -0.10335832034E+02 -0.21171901579E+02  0.27516694897E+03  0.27617372910E+03  0.00000000000E+00 0. -1.
          1    1    1    2  502    0  0.10335832034E+02  0.21171901579E+02  0.32141718649E+01  0.23778346054E+02  0.00000000000E+00 0.  1.
</event>
<event>
 4    1  0.3586324E+003  0.2819922E+02  0.7546771E-02  0.1435920E+00
          2   -1    0    0  502    0  0.00000000000E+00  0.00000000000E+00  0.29565622024E+03  0.29565622024E+03  0.00000000000E+00 0.  1.
          1   -1    0    0  501    0 -0.00000000000E+00 -0.00000000000E+00 -0.23454813492E+03  0.23454813492E+03  0.00000000000E+00 0. -1.
          2    1    1    2  501    0 -0.15459418912E+02 -0.23583945376E+02  0.29413185527E+03  0.29548053133E+03  0.00000000000E+00 0.  1.
          1    1    1    2  502    0  0.15459418912E+02  0.23583945376E+02 -0.23302376995E+03  0.23472382383E+03  0.00000000000E+00 0. -1.
</event>
<event>
 4    1  0.3586324E+003  0.2114093E+02  0.7546771E-02  0.1517262E+00
          2   -1    0    0  502    0  0.00000000000E+00  0.00000000000E+00  0.45840635179E+01  0.45840635179E+01  0.00000000000E+00 0.  1.
          1   -1    0    0  501    0 -0.00000000000E+00 -0.00000000000E+00 -0.98391636351E+02  0.98391636351E+02  0.00000000000E+00 0.  1.
          2    1    1    2  501    0 -0.15904729146E+02 -0.13927613699E+02 -0.41997981946E+02  0.47018818787E+02  0.00000000000E+00 0.  1.
          1    1    1    2  502    0  0.15904729146E+02  0.13927613699E+02 -0.51809590888E+02  0.55956881083E+02  0.00000000000E+00 0.  1.
</event>
<event>
 4    1  0.3586324E+003  0.1001975E+03  0.7546771E-02  0.1163466E+00
          2   -1    0    0  502    0  0.00000000000E+00  0.00000000000E+00  0.84322008563E+02  0.84322008563E+02  0.00000000000E+00 0. -1.
          1   -1    0    0  501    0 -0.00000000000E+00 -0.00000000000E+00 -0.26416450366E+03  0.26416450366E+03  0.00000000000E+00 0. -1.
          2    1    1    2  501    0  0.12247856434E+02 -0.99446122025E+02  0.39217420959E+02  0.10759901152E+03  0.00000000000E+00 0. -1.
          1    1    1    2  502    0 -0.12247856434E+02  0.99446122025E+02 -0.21905991606E+03  0.24088750070E+03  0.00000000000E+00 0. -1.
</event>
<event>
 4    1  0.3586324E+003  0.2210520E+02  0.7546771E-02  0.1504051E+00
          2   -1    0    0  502    0  0.00000000000E+00  0.00000000000E+00  0.22572508212E+01  0.22572508212E+01  0.00000000000E+00 0.  1.
          1   -1    0    0  501    0 -0.00000000000E+00 -0.00000000000E+00 -0.49855001510E+03  0.49855001510E+03  0.00000000000E+00 0. -1.
          2    1    1    2  501    0 -0.17478386621E+01 -0.22035994905E+02 -0.59795347850E+02  0.63750479496E+02  0.00000000000E+00 0.  1.
          1    1    1    2  502    0  0.17478386621E+01  0.22035994905E+02 -0.43649741643E+03  0.43705678642E+03  0.00000000000E+00 0. -1.
</event>
<event>
 4    1  0.3586324E+003  0.2014943E+02  0.7546771E-02  0.1531764E+00
          2   -1    0    0  502    0  0.00000000000E+00  0.00000000000E+00  0.11512332017E+04  0.11512332017E+04  0.00000000000E+00 0. -1.
          1   -1    0    0  501    0 -0.00000000000E+00 -0.00000000000E+00 -0.32624031899E+01  0.32624031899E+01  0.00000000000E+00 0. -1.
          2    1    1    2  501    0  0.12292086507E+02  0.15965716631E+02  0.11191409509E+04  0.11193223251E+04  0.00000000000E+00 0. -1.
          1    1    1    2  502    0 -0.12292086507E+02 -0.15965716631E+02  0.28829847662E+02  0.35173279836E+02  0.00000000000E+00 0. -1.
</event>
<event>
 4    1  0.3586324E+003  0.2157624E+02  0.7546771E-02  0.1511194E+00
          2   -1    0    0  502    0  0.00000000000E+00  0.00000000000E+00  0.35535123162E+02  0.35535123162E+02  0.00000000000E+00 0.  1.
          1   -1    0    0  501    0 -0.00000000000E+00 -0.00000000000E+00 -0.72635394474E+02  0.72635394474E+02  0.00000000000E+00 0.  1.
          2    1    1    2  501    0 -0.17727011705E+02 -0.12299878434E+02  0.30415335008E+02  0.37291105603E+02  0.00000000000E+00 0.  1.
          1    1    1    2  502    0  0.17727011705E+02  0.12299878434E+02 -0.67515606319E+02  0.70879412033E+02  0.00000000000E+00 0.  1.
</event>
<event>
 4    1  0.3586324E+003  0.2045318E+02  0.7546771E-02  0.1527217E+00
          2   -1    0    0  502    0  0.00000000000E+00  0.00000000000E+00  0.43177444603E+02  0.43177444603E+02  0.00000000000E+00 0.  1.
          1   -1    0    0  501    0 -0.00000000000E+00 -0.00000000000E+00 -0.80596991654E+02  0.80596991654E+02  0.00000000000E+00 0. -1.
          2    1    1    2  501    0 -0.12429108500E+02  0.16243460176E+02  0.39338605545E+02  0.44338004272E+02  0.00000000000E+00 0.  1.
          1    1    1    2  502    0  0.12429108500E+02 -0.16243460176E+02 -0.76758152596E+02  0.79436431985E+02  0.00000000000E+00 0. -1.
</event>
<event>
 4    1  0.3586324E+003  0.3291589E+02  0.7546771E-02  0.1395838E+00
          2   -1    0    0  502    0  0.00000000000E+00  0.00000000000E+00  0.58746244903E+00  0.58746244903E+00  0.00000000000E+00 0.  1.
          1   -1    0    0  501    0 -0.00000000000E+00 -0.00000000000E+00 -0.20455283915E+04  0.20455283915E+04  0.00000000000E+00 0.  1.
          2    1    1    2  501    0  0.29195701356E+02 -0.15200887682E+02 -0.70158947356E+03  0.70236119296E+03  0.00000000000E+00 0.  1.
          1    1    1    2  502    0 -0.29195701356E+02  0.15200887682E+02 -0.13433514555E+04  0.13437546610E+04  0.00000000000E+00 0.  1.
</event>
<event>
 4    1  0.3586324E+003  0.2214318E+02  0.7546771E-02  0.1503547E+00
          2   -1    0    0  502    0  0.00000000000E+00  0.00000000000E+00  0.34530104433E+03  0.34530104433E+03  0.00000000000E+00 0. -1.
          1   -1    0    0  501    0 -0.00000000000E+00 -0.00000000000E+00 -0.14366066107E+01  0.14366066107E+01  0.00000000000E+00 0. -1.
          2    1    1    2  501    0 -0.86404521028E+01  0.20387814665E+02  0.19058358546E+03  0.19186563905E+03  0.00000000000E+00 0. -1.
          1    1    1    2  502    0  0.86404521028E+01 -0.20387814665E+02  0.15328085226E+03  0.15487201190E+03  0.00000000000E+00 0. -1.
</event>
<event>
 4    1  0.3586324E+003  0.2395140E+02  0.7546771E-02  0.1480885E+00
          2   -1    0    0  502    0  0.00000000000E+00  0.00000000000E+00  0.13461579681E+04  0.13461579681E+04  0.00000000000E+00 0.  1.
          1   -1    0    0  501    0 -0.00000000000E+00 -0.00000000000E+00 -0.36114154523E+01  0.36114154523E+01  0.00000000000E+00 0. -1.
          2    1    1    2  501    0  0.18038418923E+01 -0.23883374606E+02  0.13050896491E+04  0.13053094122E+04  0.00000000000E+00 0.  1.
          1    1    1    2  502    0 -0.18038418923E+01  0.23883374606E+02  0.37456903558E+02  0.44459971348E+02  0.00000000000E+00 0. -1.
</event>
<event>
 4    1  0.3586324E+003  0.2235712E+02  0.7546771E-02  0.1500732E+00
          2   -1    0    0  502    0  0.00000000000E+00  0.00000000000E+00  0.27985439443E+03  0.27985439443E+03  0.00000000000E+00 0. -1.
          1   -1    0    0  501    0 -0.00000000000E+00 -0.00000000000E+00 -0.22158050331E+02  0.22158050331E+02  0.00000000000E+00 0. -1.
          2    1    1    2  501    0 -0.22356302335E+02  0.19156130861E+00  0.27364053022E+03  0.27455232785E+03  0.00000000000E+00 0. -1.
          1    1    1    2  502    0  0.22356302335E+02 -0.19156130861E+00 -0.15944186118E+02  0.27460116911E+02  0.00000000000E+00 0. -1.
</event>
<event>
 4    1  0.3586324E+003  0.4200087E+02  0.7546771E-02  0.1337143E+00
          2   -1    0    0  502    0  0.00000000000E+00  0.00000000000E+00  0.45043949166E+03  0.45043949166E+03  0.00000000000E+00 0.  1.
          1   -1    0    0  501    0 -0.00000000000E+00 -0.00000000000E+00 -0.42447170889E+01  0.42447170889E+01  0.00000000000E+00 0.  1.
          2    1    1    2  501    0  0.30305119028E+02  0.29080455311E+02  0.28633034671E+03  0.28939443770E+03  0.00000000000E+00 0.  1.
          1    1    1    2  502    0 -0.30305119028E+02 -0.29080455311E+02  0.15986442786E+03  0.16528977105E+03  0.00000000000E+00 0.  1.
</event>
<event>
 4    1  0.3586324E+003  0.3887416E+02  0.7546771E-02  0.1355212E+00
          2   -1    0    0  502    0  0.00000000000E+00  0.00000000000E+00  0.15086964673E+03  0.15086964673E+03  0.00000000000E+00 0.  1.
          1   -1    0    0  501    0 -0.00000000000E+00 -0.00000000000E+00 -0.72926215311E+02  0.72926215311E+02  0.00000000000E+00 0. -1.
          2    1    1    2  501    0  0.30041454284E+02 -0.24672077655E+02  0.14290119356E+03  0.14809440068E+03  0.00000000000E+00 0.  1.
          1    1    1    2  502    0 -0.30041454284E+02  0.24672077655E+02 -0.64957762137E+02  0.75701461367E+02  0.00000000000E+00 0. -1.
</event>
<event>
 4    1  0.3586324E+003  0.2056504E+02  0.7546771E-02  0.1525566E+00
          2   -1    0    0  502    0  0.00000000000E+00  0.00000000000E+00  0.43448690157E+02  0.43448690157E+02  0.00000000000E+00 0.  1.
          1   -1    0    0  501    0 -0.00000000000E+00 -0.00000000000E+00 -0.45378255536E+03  0.45378255536E+03  0.00000000000E+00 0.  1.
          2    1    1    2  501    0  0.20441759182E+02  0.22484397949E+01  0.40767787222E+02  0.45661071767E+02  0.00000000000E+00 0.  1.
          1    1    1    2  502    0 -0.20441759182E+02 -0.22484397949E+01 -0.45110165243E+03  0.45157017375E+03  0.00000000000E+00 0.  1.
</event>
<event>
 4    1  0.3586324E+003  0.4474242E+02  0.7546771E-02  0.1322732E+00
          2   -1    0    0  502    0  0.00000000000E+00  0.00000000000E+00  0.43480310702E+03  0.43480310702E+03  0.00000000000E+00 0.  1.
          1   -1    0    0  501    0 -0.00000000000E+00 -0.00000000000E+00 -0.45766923627E+02  0.45766923627E+02  0.00000000000E+00 0. -1.
          2    1    1    2  501    0 -0.62838793607E+01  0.44298952559E+02  0.42239657360E+03  0.42475963760E+03  0.00000000000E+00 0.  1.
          1    1    1    2  502    0  0.62838793607E+01 -0.44298952559E+02 -0.33360390210E+02  0.55810393052E+02  0.00000000000E+00 0. -1.
</event>
<event>
 4    1  0.3586324E+003  0.2194811E+02  0.7546771E-02  0.1506147E+00
          2   -1    0    0  502    0  0.00000000000E+00  0.00000000000E+00  0.21303035745E+03  0.21303035745E+03  0.00000000000E+00 0.  1.
          1   -1    0    0  501    0 -0.00000000000E+00 -0.00000000000E+00 -0.69027748634E+03  0.69027748634E+03  0.00000000000E+00 0.  1.
          2    1    1    2  501    0  0.19121279027E+02 -0.10774803318E+02  0.21228996650E+03  0.21342153025E+03  0.00000000000E+00 0.  1.
          1    1    1    2  502    0 -0.19121279027E+02  0.10774803318E+02 -0.68953709538E+03  0.68988631354E+03  0.00000000000E+00 0.  1.
</event>
<event>
 4    1  0.3586324E+003  0.2739919E+02  0.7546771E-02  0.1443639E+00
          2   -1    0    0  502    0  0.00000000000E+00  0.00000000000E+00  0.41365267997E+03  0.41365267997E+03  0.00000000000E+00 0.  1.
          1   -1    0    0  501    0 -0.00000000000E+00 -0.00000000000E+00 -0.10900344858E+02  0.10900344858E+02  0.00000000000E+00 0.  1.
          2    1    1    2  501    0 -0.18104478690E+02  0.20565592323E+02  0.39517726141E+03  0.39612596944E+03  0.00000000000E+00 0.  1.
          1    1    1    2  502    0  0.18104478690E+02 -0.20565592323E+02  0.75750737084E+01  0.28427055386E+02  0.00000000000E+00 0.  1.
</event>
<event>
 4    1  0.3586324E+003  0.2051473E+02  0.7546771E-02  0.1526307E+00
          2   -1    0    0  502    0  0.00000000000E+00  0.00000000000E+00  0.36565314741E+03  0.36565314741E+03  0.00000000000E+00 0.  1.
          1   -1    0    0  501    0 -0.00000000000E+00 -0.00000000000E+00 -0.31089206688E+02  0.31089206688E+02  0.00000000000E+00 0.  1.
          2    1    1    2  501    0  0.35540990558E+01 -0.20204517971E+02  0.36194652988E+03  0.36252743987E+03  0.00000000000E+00 0.  1.
          1    1    1    2  502    0 -0.35540990558E+01  0.20204517971E+02 -0.27382589159E+02  0.34214914228E+02  0.00000000000E+00 0.  1.
</event>
<event>
 4    1  0.3586324E+003  0.3184825E+02  0.7546771E-02  0.1404187E+00
          2   -1    0    0  502    0  0.00000000000E+00  0.00000000000E+00  0.13791676154E+03  0.13791676154E+03  0.00000000000E+00 0.  1.
          1   -1    0    0  501    0 -0.00000000000E+00 -0.00000000000E+00 -0.10237526129E+04  0.10237526129E+04  0.00000000000E+00 0. -1.
          2    1    1    2  501    0  0.26692236382E+01 -0.31736200032E+02  0.13582667744E+03  0.13951056394E+03  0.00000000000E+00 0.  1.
          1    1    1    2  502    0 -0.26692236382E+01  0.31736200032E+02 -0.10216625288E+04  0.10221588105E+04  0.00000000000E+00 0. -1.
</event>
<event>
 4    1  0.3586324E+003  0.2356318E+02  0.7546771E-02  0.1485545E+00
          2   -1    0    0  502    0  0.00000000000E+00  0.00000000000E+00  0.18805196351E+03  0.18805196351E+03  0.00000000000E+00 0. -1.
          1   -1    0    0  501    0 -0.00000000000E+00 -0.00000000000E+00 -0.44111613477E+02  0.44111613477E+02  0.00000000000E+00 0.  1.
          2    1    1    2  501    0  0.20035174731E+02  0.12402225667E+02  0.18409986590E+03  0.18560168116E+03  0.00000000000E+00 0. -1.
          1    1    1    2  502    0 -0.20035174731E+02 -0.12402225667E+02 -0.40159515864E+02  0.46561895821E+02  0.00000000000E+00 0.  1.
</event>
<event>
 4    1  0.3586324E+003  0.2358297E+02  0.7546771E-02  0.1485305E+00
          2   -1    0    0  502    0  0.00000000000E+00  0.00000000000E+00  0.99750815021E+03  0.99750815021E+03  0.00000000000E+00 0.  1.
          1   -1    0    0  501    0 -0.00000000000E+00 -0.00000000000E+00 -0.94453588275E+02  0.94453588275E+02  0.00000000000E+00 0. -1.
          2    1    1    2  501    0 -0.21010199226E+02  0.10711109611E+02  0.99589434272E+03  0.99617352816E+03  0.00000000000E+00 0.  1.
          1    1    1    2  502    0  0.21010199226E+02 -0.10711109611E+02 -0.92839780787E+02  0.95788210325E+02  0.00000000000E+00 0. -1.
</event>
<event>
 4    1  0.3586324E+003  0.3402134E+02  0.7546771E-02  0.1387577E+00
          2   -1    0    0  502    0  0.00000000000E+00  0.00000000000E+00  0.15537458691E+03  0.15537458691E+03  0.00000000000E+00 0. -1.
          1   -1    0    0  501    0 -0.00000000000E+00 -0.00000000000E+00 -0.13479423757E+02  0.13479423757E+02  0.00000000000E+00 0. -1.
          2    1    1    2  501    0 -0.63860655443E+01  0.33416604402E+02  0.12741583360E+03  0.13187966460E+03  0.00000000000E+00 0. -1.
          1    1    1    2  502    0  0.63860655443E+01 -0.33416604402E+02  0.14479329555E+02  0.36974346069E+02  0.00000000000E+00 0. -1.
</event>
<event>
 4    1  0.3586324E+003  0.5780654E+02  0.7546771E-02  0.1267473E+00
          2   -1    0    0  502    0  0.00000000000E+00  0.00000000000E+00  0.50650779747E+02  0.50650779747E+02  0.00000000000E+00 0. -1.
          1   -1    0    0  501    0 -0.00000000000E+00 -0.00000000000E+00 -0.11409165460E+03  0.11409165460E+03  0.00000000000E+00 0. -1.
          2    1    1    2  501    0 -0.54275603659E+02 -0.19893602477E+02  0.21773449144E+02  0.61771187941E+02  0.00000000000E+00 0. -1.
          1    1    1    2  502    0  0.54275603659E+02  0.19893602477E+02 -0.85214323995E+02  0.10297124640E+03  0.00000000000E+00 0. -1.
</event>
<event>
 4    1  0.3586324E+003  0.2961595E+02  0.7546771E-02  0.1422964E+00
          2   -1    0    0  502    0  0.00000000000E+00  0.00000000000E+00  0.57143048004E+03  0.57143048004E+03  0.00000000000E+00 0. -1.
          1   -1    0    0  501    0 -0.00000000000E+00 -0.00000000000E+00 -0.57434780443E+02  0.57434780443E+02  0.00000000000E+00 0. -1.
          2    1    1    2  501    0 -0.21383048754E+02 -0.20490715960E+02  0.56720046842E+03  0.56797312929E+03  0.00000000000E+00 0. -1.
          1    1    1    2  502    0  0.21383048754E+02  0.20490715960E+02 -0.53204768831E+02  0.60892131190E+02  0.00000000000E+00 0. -1.
</event>
<event>
 4    1  0.3586324E+003  0.2310451E+02  0.7546771E-02  0.1491190E+00
          2   -1    0    0  502    0  0.00000000000E+00  0.00000000000E+00  0.12021107886E+04  0.12021107886E+04  0.00000000000E+00 0. -1.
          1   -1    0    0  501    0 -0.00000000000E+00 -0.00000000000E+00 -0.48279689796E+02  0.48279689796E+02  0.00000000000E+00 0. -1.
          2    1    1    2  501    0 -0.13363044616E+01 -0.23065833835E+02  0.11992289322E+04  0.11994514788E+04  0.00000000000E+00 0. -1.
          1    1    1    2  502    0  0.13363044616E+01  0.23065833835E+02 -0.45397833359E+02  0.50938999537E+02  0.00000000000E+00 0. -1.
</event>
<event>
 4    1  0.3586324E+003  0.2030118E+02  0.7546771E-02  0.1529480E+00
          2   -1    0    0  502    0  0.00000000000E+00  0.00000000000E+00  0.69963195928E+02  0.69963195928E+02  0.00000000000E+00 0. -1.
          1   -1    0    0  501    0 -0.00000000000E+00 -0.00000000000E+00 -0.49967116010E+03  0.49967116010E+03  0.00000000000E+00 0.  1.
          2    1    1    2  501    0  0.20026566153E+02  0.33278355011E+01  0.68279318574E+02  0.71233441486E+02  0.00000000000E+00 0. -1.
          1    1    1    2  502    0 -0.20026566153E+02 -0.33278355011E+01 -0.49798728275E+03  0.49840091455E+03  0.00000000000E+00 0.  1.
</event>
<event>
 4    1  0.3586324E+003  0.2548391E+02  0.7546771E-02  0.1463462E+00
          2   -1    0    0  502    0  0.00000000000E+00  0.00000000000E+00  0.11780537656E+03  0.11780537656E+03  0.00000000000E+00 0.  1.
          1   -1    0    0  501    0 -0.00000000000E+00 -0.00000000000E+00 -0.75852995692E+03  0.75852995692E+03  0.00000000000E+00 0.  1.
          2    1    1    2  501    0 -0.21607110672E+02 -0.13511557954E+02  0.11621024804E+03  0.11897164023E+03  0.00000000000E+00 0.  1.
          1    1    1    2  502    0  0.21607110672E+02  0.13511557954E+02 -0.75693482839E+03  0.75736369326E+03  0.00000000000E+00 0.  1.
</event>
<event>
 4    1  0.3586324E+003  0.2172532E+02  0.7546771E-02  0.1509156E+00
          2   -1    0    0  502    0  0.00000000000E+00  0.00000000000E+00  0.16136602273E+04  0.16136602273E+04  0.00000000000E+00 0. -1.
          1   -1    0    0  501    0 -0.00000000000E+00 -0.00000000000E+00 -0.26007959999E+01  0.26007959999E+01  0.00000000000E+00 0. -1.
          2    1    1    2  501    0 -0.86106374292E+01 -0.19946093562E+02  0.15668623618E+04  0.15670129708E+04  0.00000000000E+00 0. -1.
          1    1    1    2  502    0  0.86106374292E+01  0.19946093562E+02  0.44197069441E+02  0.49248052474E+02  0.00000000000E+00 0. -1.
</event>
<event>
 4    1  0.3586324E+003  0.2374100E+02  0.7546771E-02  0.1483397E+00
          2   -1    0    0  502    0  0.00000000000E+00  0.00000000000E+00  0.11789814919E+04  0.11789814919E+04  0.00000000000E+00 0.  1.
          1   -1    0    0  501    0 -0.00000000000E+00 -0.00000000000E+00 -0.97472155232E+02  0.97472155232E+02  0.00000000000E+00 0. -1.
          2    1    1    2  501    0  0.22296894168E+02 -0.81537486245E+01  0.11774144196E+04  0.11776537481E+04  0.00000000000E+00 0.  1.
          1    1    1    2  502    0 -0.22296894168E+02  0.81537486245E+01 -0.95905082921E+02  0.98799898969E+02  0.00000000000E+00 0. -1.
</event>
<event>
 4    1  0.3586324E+003  0.2719545E+02  0.7546771E-02  0.1445655E+00
          2   -1    0    0  502    0  0.00000000000E+00  0.00000000000E+00  0.77096363435E+03  0.77096363435E+03  0.00000000000E+00 0. -1.
          1   -1    0    0  501    0 -0.00000000000E+00 -0.00000000000E+00 -0.13053661685E+02  0.13053661685E+02  0.00000000000E+00 0.  1.
          2    1    1    2  501    0  0.16907996170E+02  0.21300516008E+02  0.75628450964E+03  0.75677331602E+03  0.00000000000E+00 0. -1.
          1    1    1    2  502    0 -0.16907996170E+02 -0.21300516008E+02  0.16254630180E+01  0.27243980009E+02  0.00000000000E+00 0.  1.
</event>
<event>
 4    1  0.3586324E+003  0.2412234E+02  0.7546771E-02  0.1478866E+00
          2   -1    0    0  502    0  0.00000000000E+00  0.00000000000E+00  0.37148085110E+03  0.37148085110E+03  0.00000000000E+00 0.  1.
          1   -1    0    0  501    0 -0.00000000000E+00 -0.00000000000E+00 -0.29124176115E+01  0.29124176115E+01  0.00000000000E+00 0.  1.
          2    1    1    2  501    0 -0.19435239839E+02 -0.14288416078E+02  0.31154561193E+03  0.31247808834E+03  0.00000000000E+00 0.  1.
          1    1    1    2  502    0  0.19435239839E+02  0.14288416078E+02  0.57022821561E+02  0.61915180371E+02  0.00000000000E+00 0.  1.
</event>
<event>
 4    1  0.3586324E+003  0.2190160E+02  0.7546771E-02  0.1506771E+00
          2   -1    0    0  502    0  0.00000000000E+00  0.00000000000E+00  0.15305367232E+03  0.15305367232E+03  0.00000000000E+00 0. -1.
          1   -1    0    0  501    0 -0.00000000000E+00 -0.00000000000E+00 -0.19788658501E+02  0.19788658501E+02  0.00000000000E+00 0. -1.
          2    1    1    2  501    0  0.11281504601E+02 -0.18772523413E+02  0.14591530612E+03  0.14754984426E+03  0.00000000000E+00 0. -1.
          1    1    1    2  502    0 -0.11281504601E+02  0.18772523413E+02 -0.12650292298E+02  0.25292486564E+02  0.00000000000E+00 0. -1.
</event>
<event>
 4    1  0.3586324E+003  0.2153708E+02  0.7546771E-02  0.1511733E+00
          2   -1    0    0  502    0  0.00000000000E+00  0.00000000000E+00  0.31074642548E+02  0.31074642548E+02  0.00000000000E+00 0.  1.
          1   -1    0    0  501    0 -0.00000000000E+00 -0.00000000000E+00 -0.32521900255E+02  0.32521900255E+02  0.00000000000E+00 0.  1.
          2    1    1    2  501    0  0.52746594645E+01 -0.20881178883E+02  0.22665344225E+02  0.31266011784E+02  0.00000000000E+00 0.  1.
          1    1    1    2  502    0 -0.52746594645E+01  0.20881178883E+02 -0.24112601932E+02  0.32330531019E+02  0.00000000000E+00 0.  1.
</event>
<event>
 4    1  0.3586324E+003  0.2353162E+02  0.7546771E-02  0.1485928E+00
          2   -1    0    0  502    0  0.00000000000E+00  0.00000000000E+00  0.54593410220E+02  0.54593410220E+02  0.00000000000E+00 0. -1.
          1   -1    0    0  501    0 -0.00000000000E+00 -0.00000000000E+00 -0.22842331822E+03  0.22842331822E+03  0.00000000000E+00 0. -1.
          2    1    1    2  501    0 -0.23221126584E+02  0.38100393548E+01  0.51415961690E+02  0.56545010710E+02  0.00000000000E+00 0. -1.
          1    1    1    2  502    0  0.23221126584E+02 -0.38100393548E+01 -0.22524586969E+03  0.22647171773E+03  0.00000000000E+00 0. -1.
</event>
<event>
 4    1  0.3586324E+003  0.2071979E+02  0.7546771E-02  0.1523303E+00
          2   -1    0    0  502    0  0.00000000000E+00  0.00000000000E+00  0.72700319523E+03  0.72700319523E+03  0.00000000000E+00 0.  1.
          1   -1    0    0  501    0 -0.00000000000E+00 -0.00000000000E+00 -0.12967907861E+01  0.12967907861E+01  0.00000000000E+00 0.  1.
          2    1    1    2  501    0  0.94183023691E+01  0.18455491408E+02  0.63159246088E+03  0.63193223230E+03  0.00000000000E+00 0.  1.
          1    1    1    2  502    0 -0.94183023691E+01 -0.18455491408E+02  0.94113943563E+02  0.96367753713E+02  0.00000000000E+00 0.  1.
</event>
<event>
 4    1  0.3586324E+003  0.2024561E+02  0.7546771E-02  0.1530314E+00
          2   -1    0    0  502    0  0.00000000000E+00  0.00000000000E+00  0.16191365325E+02  0.16191365325E+02  0.00000000000E+00 0.  1.
          1   -1    0    0  501    0 -0.00000000000E+00 -0.00000000000E+00 -0.31624179384E+03  0.31624179384E+03  0.00000000000E+00 0. -1.
          2    1    1    2  501    0 -0.70196470999E+01 -0.18989712457E+02  0.93998348316E+01  0.22321324322E+02  0.00000000000E+00 0.  1.
          1    1    1    2  502    0  0.70196470999E+01  0.18989712457E+02 -0.30945026335E+03  0.31011183484E+03  0.00000000000E+00 0. -1.
</event>
<event>
 4    1  0.3586324E+003  0.2664051E+02  0.7546771E-02  0.1451253E+00
          2   -1    0    0  502    0  0.00000000000E+00  0.00000000000E+00  0.33669928437E+03  0.33669928437E+03  0.00000000000E+00 0.  1.
          1   -1    0    0  501    0 -0.00000000000E+00 -0.00000000000E+00 -0.43251045599E+01  0.43251045599E+01  0.00000000000E+00 0.  1.
          2    1    1    2  501    0 -0.26628936635E+02 -0.78513694901E+00  0.28827240471E+03  0.28950077034E+03  0.00000000000E+00 0.  1.
          1    1    1    2  502    0  0.26628936635E+02  0.78513694901E+00  0.44101775101E+02  0.51523618598E+02  0.00000000000E+00 0.  1.
</event>
<event>
 4    1  0.3586324E+003  0.2114956E+02  0.7546771E-02  0.1517140E+00
          2   -1    0    0  502    0  0.00000000000E+00  0.00000000000E+00  0.13119514020E+02  0.13119514020E+02  0.00000000000E+00 0.  1.
          1   -1    0    0  501    0 -0.00000000000E+00 -0.00000000000E+00 -0.59974919739E+02  0.59974919739E+02  0.00000000000E+00 0.  1.
          2    1    1    2  501    0 -0.12239758143E+02 -0.17247961297E+02  0.58022962872E+00  0.21157516742E+02  0.00000000000E+00 0.  1.
          1    1    1    2  502    0  0.12239758143E+02  0.17247961297E+02 -0.47435635348E+02  0.51936917017E+02  0.00000000000E+00 0.  1.
</event>
<event>
 4    1  0.3586324E+003  0.3117873E+02  0.7546771E-02  0.1409622E+00
          2   -1    0    0  502    0  0.00000000000E+00  0.00000000000E+00  0.52000677692E+02  0.52000677692E+02  0.00000000000E+00 0. -1.
          1   -1    0    0  501    0 -0.00000000000E+00 -0.00000000000E+00 -0.13868959454E+04  0.13868959454E+04  0.00000000000E+00 0.  1.
          2    1    1    2  501    0 -0.12364258869E+02 -0.28622340976E+02  0.47135434612E+02  0.56514268077E+02  0.00000000000E+00 0. -1.
          1    1    1    2  502    0  0.12364258869E+02  0.28622340976E+02 -0.13820307023E+04  0.13823823550E+04  0.00000000000E+00 0.  1.
</event>
<event>
 4    1  0.3586324E+003  0.2525282E+02  0.7546771E-02  0.1465995E+00
          2   -1    0    0  502    0  0.00000000000E+00  0.00000000000E+00  0.16623808703E+04  0.16623808703E+04  0.00000000000E+00 0.  1.
          1   -1    0    0  501    0 -0.00000000000E+00 -0.00000000000E+00 -0.64808931641E+00  0.64808931641E+00  0.00000000000E+00 0.  1.
          2    1    1    2  501    0  0.23330276561E+02  0.96645409297E+01  0.13620548392E+04  0.13622889158E+04  0.00000000000E+00 0.  1.
          1    1    1    2  502    0 -0.23330276561E+02 -0.96645409297E+01  0.29967794173E+03  0.30074004376E+03  0.00000000000E+00 0.  1.
</event>
<event>
 4    1  0.3586324E+003  0.2586357E+02  0.7546771E-02  0.1459370E+00
          2   -1    0    0  502    0  0.00000000000E+00  0.00000000000E+00  0.18780036409E+01  0.18780036409E+01  0.00000000000E+00 0.  1.
          1   -1    0    0  501    0 -0.00000000000E+00 -0.00000000000E+00 -0.66129250892E+03  0.66129250892E+03  0.00000000000E+00 0. -1.
          2    1    1    2  501    0 -0.25678068708E+02  0.30921196763E+01 -0.10447947896E+03  0.10763310802E+03  0.00000000000E+00 0.  1.
          1    1    1    2  502    0  0.25678068708E+02 -0.30921196763E+01 -0.55493502632E+03  0.55553740455E+03  0.00000000000E+00 0. -1.
</event>
<event>
 4    1  0.3586324E+003  0.2506588E+02  0.7546771E-02  0.1468068E+00
          2   -1    0    0  502    0  0.00000000000E+00  0.00000000000E+00  0.21667875643E+01  0.21667875643E+01  0.00000000000E+00 0. -1.
          1   -1    0    0  501    0 -0.00000000000E+00 -0.00000000000E+00 -0.31135768976E+03  0.31135768976E+03  0.00000000000E+00 0.  1.
          2    1    1    2  501    0  0.20781069835E+02 -0.14015905140E+02 -0.11350729100E+03  0.11624200433E+03  0.00000000000E+00 0. -1.
          1    1    1    2  502    0 -0.20781069835E+02  0.14015905140E+02 -0.19568361120E+03  0.19728247300E+03  0.00000000000E+00 0.  1.
</event>
<event>
 4    1  0.3586324E+003  0.2344603E+02  0.7546771E-02  0.1486972E+00
          2   -1    0    0  502    0  0.00000000000E+00  0.00000000000E+00  0.76963340784E+03  0.76963340784E+03  0.00000000000E+00 0.  1.
          1   -1    0    0  501    0 -0.00000000000E+00 -0.00000000000E+00 -0.87717574656E+00  0.87717574656E+00  0.00000000000E+00 0. -1.
          2    1    1    2  501    0  0.20435927219E+02  0.11493014459E+02  0.55040944711E+03  0.55090859130E+03  0.00000000000E+00 0.  1.
          1    1    1    2  502    0 -0.20435927219E+02 -0.11493014459E+02  0.21834678499E+03  0.21960199229E+03  0.00000000000E+00 0. -1.
</event>
<event>
 4    1  0.3586324E+003  0.2918511E+02  0.7546771E-02  0.1426812E+00
          2   -1    0    0  502    0  0.00000000000E+00  0.00000000000E+00  0.19311847604E+03  0.19311847604E+03  0.00000000000E+00 0. -1.
          1   -1    0    0  501    0 -0.00000000000E+00 -0.00000000000E+00 -0.29852053708E+02  0.29852053708E+02  0.00000000000E+00 0. -1.
          2    1    1    2  501    0  0.56470560514E+01  0.28633568791E+02  0.18455355518E+03  0.18684695672E+03  0.00000000000E+00 0. -1.
          1    1    1    2  502    0 -0.56470560514E+01 -0.28633568791E+02 -0.21287132849E+02  0.36123573033E+02  0.00000000000E+00 0. -1.
</event>
<event>
 4    1  0.3586324E+003  0.2452215E+02  0.7546771E-02  0.1474221E+00
          2   -1    0    0  502    0  0.00000000000E+00  0.00000000000E+00  0.36649586845E+03  0.36649586845E+03  0.00000000000E+00 0. -1.
          1   -1    0    0  501    0 -0.00000000000E+00 -0.00000000000E+00 -0.14604660335E+04  0.14604660335E+04  0.00000000000E+00 0.  1.
          2    1    1    2  501    0 -0.22595821035E+01  0.24417823015E+02  0.36598259590E+03  0.36680321195E+03  0.00000000000E+00 0. -1.
          1    1    1    2  502    0  0.22595821035E+01 -0.24417823015E+02 -0.14599527610E+04  0.14601586900E+04  0.00000000000E+00 0.  1.
</event>
<event>
 4    1  0.3586324E+003  0.2085396E+02  0.7546771E-02  0.1521360E+00
          2   -1    0    0  502    0  0.00000000000E+00  0.00000000000E+00  0.28933517404E+03  0.28933517404E+03  0.00000000000E+00 0.  1.
          1   -1    0    0  501    0 -0.00000000000E+00 -0.00000000000E+00 -0.97975798119E+01  0.97975798119E+01  0.00000000000E+00 0.  1.
          2    1    1    2  501    0 -0.78033224525E+01  0.19338966453E+02  0.27738521617E+03  0.27816801688E+03  0.00000000000E+00 0.  1.
          1    1    1    2  502    0  0.78033224525E+01 -0.19338966453E+02  0.21523780512E+01  0.20964736966E+02  0.00000000000E+00 0.  1.
</event>
<event>
 4    1  0.3586324E+003  0.2055794E+02  0.7546771E-02  0.1525671E+00
          2   -1    0    0  502    0  0.00000000000E+00  0.00000000000E+00  0.13368309004E+02  0.13368309004E+02  0.00000000000E+00 0. -1.
          1   -1    0    0  501    0 -0.00000000000E+00 -0.00000000000E+00 -0.13628863664E+03  0.13628863664E+03  0.00000000000E+00 0.  1.
          2    1    1    2  501    0 -0.80620937947E+01 -0.18911153518E+02  0.41177002765E+01  0.20966271469E+02  0.00000000000E+00 0. -1.
          1    1    1    2  502    0  0.80620937947E+01  0.18911153518E+02 -0.12703802791E+03  0.12869067418E+03  0.00000000000E+00 0.  1.
</event>
<event>
 4    1  0.3586324E+003  0.2282347E+02  0.7546771E-02  0.1494727E+00
          2   -1    0    0  502    0  0.00000000000E+00  0.00000000000E+00  0.13518571297E+01  0.13518571297E+01  0.00000000000E+00 0.  1.
          1   -1    0    0  501    0 -0.00000000000E+00 -0.00000000000E+00 -0.43256883041E+03  0.43256883041E+03  0.00000000000E+00 0.  1.
          2    1    1    2  501    0 -0.20635414463E+02  0.97514379918E+01 -0.14391113470E+03  0.14570973050E+03  0.00000000000E+00 0.  1.
          1    1    1    2  502    0  0.20635414463E+02 -0.97514379918E+01 -0.28730583858E+03  0.28821095704E+03  0.00000000000E+00 0.  1.
</event>
<event>
 4    1  0.3586324E+003  0.2088731E+02  0.7546771E-02  0.1520880E+00
          2   -1    0    0  502    0  0.00000000000E+00  0.00000000000E+00  0.20778960566E+03  0.20778960566E+03  0.00000000000E+00 0.  1.
          1   -1    0    0  501    0 -0.00000000000E+00 -0.00000000000E+00 -0.16223633016E+02  0.16223633016E+02  0.00000000000E+00 0.  1.
          2    1    1    2  501    0 -0.19849691573E+02 -0.65015125271E+01  0.20029076922E+03  0.20137694048E+03  0.00000000000E+00 0.  1.
          1    1    1    2  502    0  0.19849691573E+02  0.65015125271E+01 -0.87247965797E+01  0.22636298197E+02  0.00000000000E+00 0.  1.
</event>
<event>
 4    1  0.3586324E+003  0.4074144E+02  0.7546771E-02  0.1344195E+00
          2   -1    0    0  502    0  0.00000000000E+00  0.00000000000E+00  0.11310011662E+03  0.11310011662E+03  0.00000000000E+00 0. -1.
          1   -1    0    0  501    0 -0.00000000000E+00 -0.00000000000E+00 -0.14710980336E+03  0.14710980336E+03  0.00000000000E+00 0.  1.
          2    1    1    2  501    0  0.50249582359E+01  0.40430364484E+02  0.10643983331E+03  0.11397062206E+03  0.00000000000E+00 0. -1.
          1    1    1    2  502    0 -0.50249582359E+01 -0.40430364484E+02 -0.14044952005E+03  0.14623929793E+03  0.00000000000E+00 0.  1.
</event>
<event>
 4    1  0.3586324E+003  0.2388258E+02  0.7546771E-02  0.1481703E+00
          2   -1    0    0  502    0  0.00000000000E+00  0.00000000000E+00  0.20654490894E+03  0.20654490894E+03  0.00000000000E+00 0.  1.
          1   -1    0    0  501    0 -0.00000000000E+00 -0.00000000000E+00 -0.30093169424E+01  0.30093169424E+01  0.00000000000E+00 0.  1.
          2    1    1    2  501    0  0.11608361841E+02 -0.20871599596E+02  0.13183417475E+03  0.13397995136E+03  0.00000000000E+00 0.  1.
          1    1    1    2  502    0 -0.11608361841E+02  0.20871599596E+02  0.71701417248E+02  0.75574274523E+02  0.00000000000E+00 0.  1.
</event>
<event>
 4    1  0.3586324E+003  0.2107672E+02  0.7546771E-02  0.1518172E+00
          2   -1    0    0  502    0  0.00000000000E+00  0.00000000000E+00  0.47286542140E+00  0.47286542140E+00  0.00000000000E+00 0. -1.
          1   -1    0    0  501    0 -0.00000000000E+00 -0.00000000000E+00 -0.10658858874E+04  0.10658858874E+04  0.00000000000E+00 0. -1.
          2    1    1    2  501    0 -0.17776208455E+02  0.11324064158E+02 -0.34906418136E+03  0.34969991525E+03  0.00000000000E+00 0. -1.
          1    1    1    2  502    0  0.17776208455E+02 -0.11324064158E+02 -0.71634884057E+03  0.71665883753E+03  0.00000000000E+00 0. -1.
</event>
<event>
 4    1  0.3586324E+003  0.2662529E+02  0.7546771E-02  0.1451409E+00
          2   -1    0    0  502    0  0.00000000000E+00  0.00000000000E+00  0.92310919255E+03  0.92310919255E+03  0.00000000000E+00 0. -1.
          1   -1    0    0  501    0 -0.00000000000E+00 -0.00000000000E+00 -0.88255875960E+00  0.88255875960E+00  0.00000000000E+00 0. -1.
          2    1    1    2  501    0  0.23686697663E+02  0.12159203831E+02  0.62759505868E+03  0.62815958447E+03  0.00000000000E+00 0. -1.
          1    1    1    2  502    0 -0.23686697663E+02 -0.12159203831E+02  0.29463157511E+03  0.29583216683E+03  0.00000000000E+00 0. -1.
</event>
<event>
 4    1  0.3586324E+003  0.3536455E+02  0.7546771E-02  0.1378018E+00
          2   -1    0    0  502    0  0.00000000000E+00  0.00000000000E+00  0.31194549136E+03  0.31194549136E+03  0.00000000000E+00 0. -1.
          1   -1    0    0  501    0 -0.00000000000E+00 -0.00000000000E+00 -0.76975354535E+03  0.76975354535E+03  0.00000000000E+00 0.  1.
          2    1    1    2  501    0 -0.29628039933E+02 -0.19308820268E+02  0.31053516741E+03  0.31254238351E+03  0.00000000000E+00 0. -1.
          1    1    1    2  502    0  0.29628039933E+02  0.19308820268E+02 -0.76834322140E+03  0.76915665320E+03  0.00000000000E+00 0.  1.
</event>
<event>
 4    1  0.3586324E+003  0.5010219E+02  0.7546771E-02  0.1297730E+00
          2   -1    0    0  502    0  0.00000000000E+00  0.00000000000E+00  0.68302264829E+03  0.68302264829E+03  0.00000000000E+00 0.  1.
          1   -1    0    0  501    0 -0.00000000000E+00 -0.00000000000E+00 -0.42076799104E+02  0.42076799104E+02  0.00000000000E+00 0. -1.
          2    1    1    2  501    0  0.50102010196E+02 -0.13383259372E+00  0.66682756794E+03  0.66870713672E+03  0.00000000000E+00 0.  1.
          1    1    1    2  502    0 -0.50102010196E+02  0.13383259372E+00 -0.25881718757E+02  0.56392310669E+02  0.00000000000E+00 0. -1.
</event>
<event>
 4    1  0.3586324E+003  0.2096498E+02  0.7546771E-02  0.1519765E+00
          2   -1    0    0  502    0  0.00000000000E+00  0.00000000000E+00  0.25923067013E+03  0.25923067013E+03  0.00000000000E+00 0. -1.
          1   -1    0    0  501    0 -0.00000000000E+00 -0.00000000000E+00 -0.18618828232E+01  0.18618828232E+01  0.00000000000E+00 0.  1.
          2    1    1    2  501    0 -0.11803592023E+02  0.17326441837E+02  0.16770720408E+03  0.16901253406E+03  0.00000000000E+00 0. -1.
          1    1    1    2  502    0  0.11803592023E+02 -0.17326441837E+02  0.89661583228E+02  0.92080018888E+02  0.00000000000E+00 0.  1.
</event>
<event>
 4    1  0.3586324E+003  0.3093472E+02  0.7546771E-02  0.1411644E+00
          2   -1    0    0  502    0  0.00000000000E+00  0.00000000000E+00  0.36902484544E+02  0.36902484544E+02  0.00000000000E+00 0.  1.
          1   -1    0    0  501    0 -0.00000000000E+00 -0.00000000000E+00 -0.12935339485E+03  0.12935339485E+03  0.00000000000E+00 0.  1.
          2    1    1    2  501    0  0.30699517884E+02 -0.38074438008E+01  0.28104384227E+02  0.41794897289E+02  0.00000000000E+00 0.  1.
          1    1    1    2  502    0 -0.30699517884E+02  0.38074438008E+01 -0.12055529453E+03  0.12446098210E+03  0.00000000000E+00 0.  1.
</event>
<event>
 4    1  0.3586324E+003  0.2589553E+02  0.7546771E-02  0.1459030E+00
          2   -1    0    0  502    0  0.00000000000E+00  0.00000000000E+00  0.92951906808E+03  0.92951906808E+03  0.00000000000E+00 0.  1.
          1   -1    0    0  501    0 -0.00000000000E+00 -0.00000000000E+00 -0.83431671313E+00  0.83431671313E+00  0.00000000000E+00 0. -1.
          2    1    1    2  501    0  0.52792613973E+01  0.25351683197E+02  0.63545545223E+03  0.63598286943E+03  0.00000000000E+00 0.  1.
          1    1    1    2  502    0 -0.52792613973E+01 -0.25351683197E+02  0.29322929914E+03  0.29437051536E+03  0.00000000000E+00 0. -1.
</event>
<event>
 4    1  0.3586324E+003  0.3437378E+02  0.7546771E-02  0.1385020E+00
          2   -1    0    0  502    0  0.00000000000E+00  0.00000000000E+00  0.14180830921E+02  0.14180830921E+02  0.00000000000E+00 0. -1.
          1   -1    0    0  501    0 -0.00000000000E+00 -0.00000000000E+00 -0.21559278602E+03  0.21559278602E+03  0.00000000000E+00 0. -1.
          2    1    1    2  501    0 -0.16771938278E+02  0.30004309479E+02 -0.10717442089E+02  0.36005833775E+02  0.00000000000E+00 0. -1.
          1    1    1    2  502    0  0.16771938278E+02 -0.30004309479E+02 -0.19069451301E+03  0.19376778316E+03  0.00000000000E+00 0. -1.
</event>
<event>
 4    1  0.3586324E+003  0.2797844E+02  0.7546771E-02  0.1438020E+00
          2   -1    0    0  502    0  0.00000000000E+00  0.00000000000E+00  0.11935038679E+03  0.11935038679E+03  0.00000000000E+00 0. -1.
          1   -1    0    0  501    0 -0.00000000000E+00 -0.00000000000E+00 -0.98499948800E+01  0.98499948800E+01  0.00000000000E+00 0.  1.
          2    1    1    2  501    0  0.16954973901E+02 -0.22255824987E+02  0.92091883601E+02  0.96248157962E+02  0.00000000000E+00 0. -1.
          1    1    1    2  502    0 -0.16954973901E+02  0.22255824987E+02  0.17408508311E+02  0.32952223711E+02  0.00000000000E+00 0.  1.
</event>
<event>
 4    1  0.3586324E+003  0.2276144E+02  0.7546771E-02  0.1495516E+00
          2   -1    0    0  502    0  0.00000000000E+00  0.00000000000E+00  0.15403796912E+03  0.15403796912E+03  0.00000000000E+00 0. -1.
          1   -1    0    0  501    0 -0.00000000000E+00 -0.00000000000E+00 -0.61480775386E+01  0.61480775386E+01  0.00000000000E+00 0. -1.
          2    1    1    2  501    0 -0.16467266685E+02  0.15713438284E+02  0.12784840945E+03  0.12985876487E+03  0.00000000000E+00 0. -1.
          1    1    1    2  502    0  0.16467266685E+02 -0.15713438284E+02  0.20041482140E+02  0.30327281797E+02  0.00000000000E+00 0. -1.
</event>
<event>
 4    1  0.3586324E+003  0.2803192E+02  0.7546771E-02  0.1437509E+00
          2   -1    0    0  502    0  0.00000000000E+00  0.00000000000E+00  0.59123216017E+01  0.59123216017E+01  0.00000000000E+00 0. -1.
          1   -1    0    0  501    0 -0.00000000000E+00 -0.00000000000E+00 -0.24662767422E+03  0.24662767422E+03  0.00000000000E+00 0.  1.
          2    1    1    2  501    0  0.99289311108E+01 -0.26214593183E+02 -0.34614592680E+02  0.44541650117E+02  0.00000000000E+00 0. -1.
          1    1    1    2  502    0 -0.99289311108E+01  0.26214593183E+02 -0.20610075994E+03  0.20799834571E+03  0.00000000000E+00 0.  1.
</event>
<event>
 4    1  0.3586324E+003  0.3919755E+02  0.7546771E-02  0.1353253E+00
          2   -1    0    0  502    0  0.00000000000E+00  0.00000000000E+00  0.38939517113E+01  0.38939517113E+01  0.00000000000E+00 0.  1.
          1   -1    0    0  501    0 -0.00000000000E+00 -0.00000000000E+00 -0.58781105535E+03  0.58781105535E+03  0.00000000000E+00 0. -1.
          2    1    1    2  501    0 -0.22965193578E+02  0.31765509204E+02 -0.12232847755E+03  0.12845506651E+03  0.00000000000E+00 0.  1.
          1    1    1    2  502    0  0.22965193578E+02 -0.31765509204E+02 -0.46158862608E+03  0.46324994055E+03  0.00000000000E+00 0. -1.
</event>
<event>
 4    1  0.3586324E+003  0.2140035E+02  0.7546771E-02  0.1513625E+00
          2   -1    0    0  502    0  0.00000000000E+00  0.00000000000E+00  0.20963159332E+02  0.20963159332E+02  0.00000000000E+00 0. -1.
          1   -1    0    0  501    0 -0.00000000000E+00 -0.00000000000E+00 -0.27743776187E+02  0.27743776187E+02  0.00000000000E+00 0.  1.
          2    1    1    2  501    0 -0.21269394204E+02  0.23638429571E+01  0.78375802164E+01  0.22790404713E+02  0.00000000000E+00 0. -1.
          1    1    1    2  502    0  0.21269394204E+02 -0.23638429571E+01 -0.14618197072E+02  0.25916530805E+02  0.00000000000E+00 0.  1.
</event>
<event>
 4    1  0.3586324E+003  0.7966091E+02  0.7546771E-02  0.1204637E+00
          2   -1    0    0  502    0  0.00000000000E+00  0.00000000000E+00  0.13860935325E+04  0.13860935325E+04  0.00000000000E+00 0. -1.
          1   -1    0    0  501    0 -0.00000000000E+00 -0.00000000000E+00 -0.14738718945E+03  0.14738718945E+03  0.00000000000E+00 0.  1.
          2    1    1    2  501    0 -0.26387714511E+02  0.75163483854E+02  0.13740911032E+04  0.13763982784E+04  0.00000000000E+00 0. -1.
          1    1    1    2  502    0  0.26387714511E+02 -0.75163483854E+02 -0.13538476019E+03  0.15708244356E+03  0.00000000000E+00 0.  1.
</event>
<event>
 4    1  0.3586324E+003  0.2002438E+02  0.7546771E-02  0.1533663E+00
          2   -1    0    0  502    0  0.00000000000E+00  0.00000000000E+00  0.41669147247E+02  0.41669147247E+02  0.00000000000E+00 0.  1.
          1   -1    0    0  501    0 -0.00000000000E+00 -0.00000000000E+00 -0.11270218611E+02  0.11270218611E+02  0.00000000000E+00 0. -1.
          2    1    1    2  501    0  0.19539431124E+02  0.43802226272E+01  0.25319422190E+02  0.32280781573E+02  0.00000000000E+00 0.  1.
          1    1    1    2  502    0 -0.19539431124E+02 -0.43802226272E+01  0.50795064464E+01  0.20658584285E+02  0.00000000000E+00 0. -1.
</event>
<event>
 4    1  0.3586324E+003  0.2982188E+02  0.7546771E-02  0.1421151E+00
          2   -1    0    0  502    0  0.00000000000E+00  0.00000000000E+00  0.37678386431E+03  0.37678386431E+03  0.00000000000E+00 0.  1.
          1   -1    0    0  501    0 -0.00000000000E+00 -0.00000000000E+00 -0.23903654214E+01  0.23903654214E+01  0.00000000000E+00 0.  1.
          2    1    1    2  501    0  0.28142529587E+02  0.98661809758E+01  0.16595373414E+03  0.16861193722E+03  0.00000000000E+00 0.  1.
          1    1    1    2  502    0 -0.28142529587E+02 -0.98661809758E+01  0.20843976475E+03  0.21056229251E+03  0.00000000000E+00 0.  1.
</event>
<event>
 4    1  0.3586324E+003  0.2119759E+02  0.7546771E-02  0.1516462E+00
          2   -1    0    0  502    0  0.00000000000E+00  0.00000000000E+00  0.12874801718E+04  0.12874801718E+04  0.00000000000E+00 0. -1.
          1   -1    0    0  501    0 -0.00000000000E+00 -0.00000000000E+00 -0.39157980570E+01  0.39157980570E+01  0.00000000000E+00 0.  1.
          2    1    1    2  501    0 -0.19678857491E+02 -0.78791139065E+01  0.12580339912E+04  0.12582125658E+04  0.00000000000E+00 0. -1.
          1    1    1    2  502    0  0.19678857491E+02  0.78791139065E+01  0.25530382538E+02  0.33183403994E+02  0.00000000000E+00 0.  1.
</event>
<event>
 4    1  0.3586324E+003  0.2154900E+02  0.7546771E-02  0.1511569E+00
          2   -1    0    0  502    0  0.00000000000E+00  0.00000000000E+00  0.11983168522E+03  0.11983168522E+03  0.00000000000E+00 0. -1.
          1   -1    0    0  501    0 -0.00000000000E+00 -0.00000000000E+00 -0.13995452427E+03  0.13995452427E+03  0.00000000000E+00 0.  1.
          2    1    1    2  501    0  0.15365899994E+02  0.15107893851E+02  0.11802080554E+03  0.11997195456E+03  0.00000000000E+00 0. -1.
          1    1    1    2  502    0 -0.15365899994E+02 -0.15107893851E+02 -0.13814364459E+03  0.13981425493E+03  0.00000000000E+00 0.  1.
</event>
<event>
 4    1  0.3586324E+003  0.2568748E+02  0.7546771E-02  0.1461257E+00
          2   -1    0    0  502    0  0.00000000000E+00  0.00000000000E+00  0.28382212727E+03  0.28382212727E+03  0.00000000000E+00 0. -1.
          1   -1    0    0  501    0 -0.00000000000E+00 -0.00000000000E+00 -0.22063610671E+02  0.22063610671E+02  0.00000000000E+00 0. -1.
          2    1    1    2  501    0  0.18209812702E+02  0.18117656194E+02  0.27554002724E+03  0.27673480691E+03  0.00000000000E+00 0. -1.
          1    1    1    2  502    0 -0.18209812702E+02 -0.18117656194E+02 -0.13781510638E+02  0.29150931032E+02  0.00000000000E+00 0. -1.
</event>
<event>
 4    1  0.3586324E+003  0.2227394E+02  0.7546771E-02  0.1501822E+00
          2   -1    0    0  502    0  0.00000000000E+00  0.00000000000E+00  0.16791067976E+02  0.16791067976E+02  0.00000000000E+00 0.  1.
          1   -1    0    0  501    0 -0.00000000000E+00 -0.00000000000E+00 -0.13847930562E+04  0.13847930562E+04  0.00000000000E+00 0. -1.
          2    1    1    2  501    0 -0.18698889960E+02  0.12102893349E+02  0.92743968338E+01  0.24127638711E+02  0.00000000000E+00 0.  1.
          1    1    1    2  502    0  0.18698889960E+02 -0.12102893349E+02 -0.13772763850E+04  0.13774564854E+04  0.00000000000E+00 0. -1.
</event>
<event>
 4    1  0.3586324E+003  0.2073851E+02  0.7546771E-02  0.1523031E+00
          2   -1    0    0  502    0  0.00000000000E+00  0.00000000000E+00  0.25818798448E+01  0.25818798448E+01  0.00000000000E+00 0.  1.
          1   -1    0    0  501    0 -0.00000000000E+00 -0.00000000000E+00 -0.52738147316E+03  0.52738147316E+03  0.00000000000E+00 0. -1.
          2    1    1    2  501    0  0.20699775989E+02  0.12669019292E+01 -0.43226095933E+02  0.47943520272E+02  0.00000000000E+00 0.  1.
          1    1    1    2  502    0 -0.20699775989E+02 -0.12669019292E+01 -0.48157349738E+03  0.48201983273E+03  0.00000000000E+00 0. -1.
</event>
<event>
 4    1  0.3586324E+003  0.2246075E+02  0.7546771E-02  0.1499383E+00
          2   -1    0    0  502    0  0.00000000000E+00  0.00000000000E+00  0.11328916610E+03  0.11328916610E+03  0.00000000000E+00 0. -1.
          1   -1    0    0  501    0 -0.00000000000E+00 -0.00000000000E+00 -0.66075066579E+03  0.66075066579E+03  0.00000000000E+00 0.  1.
          2    1    1    2  501    0 -0.12218451653E+02 -0.18846605879E+02  0.11198281696E+03  0.11421311838E+03  0.00000000000E+00 0. -1.
          1    1    1    2  502    0  0.12218451653E+02  0.18846605879E+02 -0.65944431665E+03  0.65982671352E+03  0.00000000000E+00 0.  1.
</event>
<event>
 4    1  0.3586324E+003  0.2272775E+02  0.7546771E-02  0.1495945E+00
          2   -1    0    0  502    0  0.00000000000E+00  0.00000000000E+00  0.19504834954E+03  0.19504834954E+03  0.00000000000E+00 0. -1.
          1   -1    0    0  501    0 -0.00000000000E+00 -0.00000000000E+00 -0.42685394459E+01  0.42685394459E+01  0.00000000000E+00 0. -1.
          2    1    1    2  501    0 -0.18857699356E+02  0.12686122964E+02  0.15678890662E+03  0.15842762316E+03  0.00000000000E+00 0. -1.
          1    1    1    2  502    0  0.18857699356E+02 -0.12686122964E+02  0.33990903473E+02  0.40889265825E+02  0.00000000000E+00 0. -1.
</event>
<event>
 4    1  0.3586324E+003  0.2833181E+02  0.7546771E-02  0.1434670E+00
          2   -1    0    0  502    0  0.00000000000E+00  0.00000000000E+00  0.14046842497E+04  0.14046842497E+04  0.00000000000E+00 0. -1.
          1   -1    0    0  501    0 -0.00000000000E+00 -0.00000000000E+00 -0.10801686732E+01  0.10801686732E+01  0.00000000000E+00 0.  1.
          2    1    1    2  501    0 -0.27085434892E+02  0.83108681861E+01  0.11841720651E+04  0.11845109418E+04  0.00000000000E+00 0. -1.
          1    1    1    2  502    0  0.27085434892E+02 -0.83108681861E+01  0.21943201592E+03  0.22125347664E+03  0.00000000000E+00 0.  1.
</event>
<event>
 4    1  0.3586324E+003  0.2607635E+02  0.7546771E-02  0.1457114E+00
          2   -1    0    0  502    0  0.00000000000E+00  0.00000000000E+00  0.11378514266E+04  0.11378514266E+04  0.00000000000E+00 0.  1.
          1   -1    0    0  501    0 -0.00000000000E+00 -0.00000000000E+00 -0.11743176243E+01  0.11743176243E+01  0.00000000000E+00 0. -1.
          2    1    1    2  501    0 -0.19436518249E+02 -0.17383830731E+02  0.96744960864E+03  0.96780097182E+03  0.00000000000E+00 0.  1.
          1    1    1    2  502    0  0.19436518249E+02  0.17383830731E+02  0.16922750034E+03  0.17122477240E+03  0.00000000000E+00 0. -1.
</event>
<event>
 4    1  0.3586324E+003  0.2997083E+02  0.7546771E-02  0.1419850E+00
          2   -1    0    0  502    0  0.00000000000E+00  0.00000000000E+00  0.14368051587E+04  0.14368051587E+04  0.00000000000E+00 0. -1.
          1   -1    0    0  501    0 -0.00000000000E+00 -0.00000000000E+00 -0.21885994648E+02  0.21885994648E+02  0.00000000000E+00 0.  1.
          2    1    1    2  501    0  0.25146906564E+02 -0.16305937664E+02  0.14263128316E+04  0.14266276823E+04  0.00000000000E+00 0. -1.
          1    1    1    2  502    0 -0.25146906564E+02  0.16305937664E+02 -0.11393667528E+02  0.32063471001E+02  0.00000000000E+00 0.  1.
</event>
<event>
 4    1  0.3586324E+003  0.3278140E+02  0.7546771E-02  0.1396869E+00
          2   -1    0    0  502    0  0.00000000000E+00  0.00000000000E+00  0.40607678016E+01  0.40607678016E+01  0.00000000000E+00 0. -1.
          1   -1    0    0  501    0 -0.00000000000E+00 -0.00000000000E+00 -0.72396320090E+03  0.72396320090E+03  0.00000000000E+00 0.  1.
          2    1    1    2  501    0 -0.23068573415E+02 -0.23290789481E+02 -0.70003864665E+02  0.77299165727E+02  0.00000000000E+00 0. -1.
          1    1    1    2  502    0  0.23068573415E+02  0.23290789481E+02 -0.64989856843E+03  0.65072480298E+03  0.00000000000E+00 0.  1.
</event>
<event>
 4    1  0.3586324E+003  0.2518883E+02  0.7546771E-02  0.1466702E+00
          2   -1    0    0  502    0  0.00000000000E+00  0.00000000000E+00  0.45791479809E+02  0.45791479809E+02  0.00000000000E+00 0.  1.
          1   -1    0    0  501    0 -0.00000000000E+00 -0.00000000000E+00 -0.28883741158E+03  0.28883741158E+03  0.00000000000E+00 0. -1.
          2    1    1    2  501    0  0.21858517187E+02  0.12517282132E+02  0.41729049384E+02  0.48742083338E+02  0.00000000000E+00 0.  1.
          1    1    1    2  502    0 -0.21858517187E+02 -0.12517282132E+02 -0.28477498116E+03  0.28588680805E+03  0.00000000000E+00 0. -1.
</event>
<event>
 4    1  0.3586324E+003  0.3137787E+02  0.7546771E-02  0.1407989E+00
          2   -1    0    0  502    0  0.00000000000E+00  0.00000000000E+00  0.14721361034E+02  0.14721361034E+02  0.00000000000E+00 0.  1.
          1   -1    0    0  501    0 -0.00000000000E+00 -0.00000000000E+00 -0.91868503219E+02  0.91868503219E+02  0.00000000000E+00 0. -1.
          2    1    1    2  501    0 -0.21989036017E+02 -0.22384208907E+02 -0.10778407184E+02  0.33177470892E+02  0.00000000000E+00 0.  1.
          1    1    1    2  502    0  0.21989036017E+02  0.22384208907E+02 -0.66368735000E+02  0.73412393361E+02  0.00000000000E+00 0. -1.
</event>
<event>
 4    1  0.3586324E+003  0.2737290E+02  0.7546771E-02  0.1443898E+00
          2   -1    0    0  502    0  0.00000000000E+00  0.00000000000E+00  0.60554241835E+02  0.60554241835E+02  0.00000000000E+00 0. -1.
          1   -1    0    0  501    0 -0.00000000000E+00 -0.00000000000E+00 -0.30404011127E+02  0.30404011127E+02  0.00000000000E+00 0. -1.
          2    1    1    2  501    0  0.95183253756E+00  0.27356348335E+02  0.50097775308E+02  0.57088202549E+02  0.00000000000E+00 0. -1.
          1    1    1    2  502    0 -0.95183253756E+00 -0.27356348335E+02 -0.19947544600E+02  0.33870050413E+02  0.00000000000E+00 0. -1.
</event>
<event>
 4    1  0.3586324E+003  0.3296791E+02  0.7546771E-02  0.1395441E+00
          2   -1    0    0  502    0  0.00000000000E+00  0.00000000000E+00  0.29637212134E+03  0.29637212134E+03  0.00000000000E+00 0.  1.
          1   -1    0    0  501    0 -0.00000000000E+00 -0.00000000000E+00 -0.21048391931E+02  0.21048391931E+02  0.00000000000E+00 0.  1.
          2    1    1    2  501    0  0.32258644918E+02 -0.68016759828E+01  0.28188474582E+03  0.28380608326E+03  0.00000000000E+00 0.  1.
          1    1    1    2  502    0 -0.32258644918E+02  0.68016759828E+01 -0.65610164193E+01  0.33614430005E+02  0.00000000000E+00 0.  1.
</event>
<event>
 4    1  0.3586324E+003  0.2755310E+02  0.7546771E-02  0.1442130E+00
          2   -1    0    0  502    0  0.00000000000E+00  0.00000000000E+00  0.75015386197E+03  0.75015386197E+03  0.00000000000E+00 0. -1.
          1   -1    0    0  501    0 -0.00000000000E+00 -0.00000000000E+00 -0.15010091212E+01  0.15010091212E+01  0.00000000000E+00 0.  1.
          2    1    1    2  501    0  0.67364967575E+01 -0.26716901543E+02  0.58883513610E+03  0.58947942349E+03  0.00000000000E+00 0. -1.
          1    1    1    2  502    0 -0.67364967575E+01  0.26716901543E+02  0.15981771675E+03  0.16217544760E+03  0.00000000000E+00 0.  1.
</event>
<event>
 4    1  0.3586324E+003  0.2194106E+02  0.7546771E-02  0.1506241E+00
          2   -1    0    0  502    0  0.00000000000E+00  0.00000000000E+00  0.46276473590E+03  0.46276473590E+03  0.00000000000E+00 0. -1.
          1   -1    0    0  501    0 -0.00000000000E+00 -0.00000000000E+00 -0.15199178026E+02  0.15199178026E+02  0.00000000000E+00 0. -1.
          2    1    1    2  501    0  0.13359676024E+02  0.17404864336E+02  0.45444135783E+03  0.45497072208E+03  0.00000000000E+00 0. -1.
          1    1    1    2  502    0 -0.13359676024E+02 -0.17404864336E+02 -0.68757999570E+01  0.22993191842E+02  0.00000000000E+00 0. -1.
</event>
<event>
 4    1  0.3586324E+003  0.4321155E+02  0.7546771E-02  0.1330629E+00
          2   -1    0    0  502    0  0.00000000000E+00  0.00000000000E+00  0.59244489421E+03  0.59244489421E+03  0.00000000000E+00 0.  1.
          1   -1    0    0  501    0 -0.00000000000E+00 -0.00000000000E+00 -0.11157431950E+03  0.11157431950E+03  0.00000000000E+00 0. -1.
          2    1    1    2  501    0  0.27053911084E+02 -0.33694569962E+02  0.58743749727E+03  0.58902466107E+03  0.00000000000E+00 0.  1.
          1    1    1    2  502    0 -0.27053911084E+02  0.33694569962E+02 -0.10656692257E+03  0.11499455263E+03  0.00000000000E+00 0. -1.
</event>
<event>
 4    1  0.3586324E+003  0.2821720E+02  0.7546771E-02  0.1435750E+00
          2   -1    0    0  502    0  0.00000000000E+00  0.00000000000E+00  0.78818202632E+02  0.78818202632E+02  0.00000000000E+00 0.  1.
          1   -1    0    0  501    0 -0.00000000000E+00 -0.00000000000E+00 -0.69136622543E+03  0.69136622543E+03  0.00000000000E+00 0.  1.
          2    1    1    2  501    0 -0.18192253716E+02  0.21569705235E+02  0.75994473615E+02  0.81063988918E+02  0.00000000000E+00 0.  1.
          1    1    1    2  502    0  0.18192253716E+02 -0.21569705235E+02 -0.68854249641E+03  0.68912043914E+03  0.00000000000E+00 0.  1.
</event>
<event>
 4    1  0.3586324E+003  0.2231431E+02  0.7546771E-02  0.1501293E+00
          2   -1    0    0  502    0  0.00000000000E+00  0.00000000000E+00  0.33002261157E+03  0.33002261157E+03  0.00000000000E+00 0. -1.
          1   -1    0    0  501    0 -0.00000000000E+00 -0.00000000000E+00 -0.38419478097E+01  0.38419478097E+01  0.00000000000E+00 0.  1.
          2    1    1    2  501    0  0.21661614969E+02  0.53574919617E+01  0.29317870829E+03  0.29402667103E+03  0.00000000000E+00 0. -1.
          1    1    1    2  502    0 -0.21661614969E+02 -0.53574919617E+01  0.33001955469E+02  0.39837888347E+02  0.00000000000E+00 0.  1.
</event>
<event>
 4    1  0.3586324E+003  0.2070232E+02  0.7546771E-02  0.1523558E+00
          2   -1    0    0  502    0  0.00000000000E+00  0.00000000000E+00  0.23207369668E+03  0.23207369668E+03  0.00000000000E+00 0. -1.
          1   -1    0    0  501    0 -0.00000000000E+00 -0.00000000000E+00 -0.13468250474E+03  0.13468250474E+03  0.00000000000E+00 0. -1.
          2    1    1    2  501    0 -0.17313942458E+02  0.11349606528E+02  0.23081211608E+03  0.23173868711E+03  0.00000000000E+00 0. -1.
          1    1    1    2  502    0  0.17313942458E+02 -0.11349606528E+02 -0.13342092414E+03  0.13501751431E+03  0.00000000000E+00 0. -1.
</event>
<event>
 4    1  0.3586324E+003  0.2495083E+02  0.7546771E-02  0.1469354E+00
          2   -1    0    0  502    0  0.00000000000E+00  0.00000000000E+00  0.12700216521E+04  0.12700216521E+04  0.00000000000E+00 0. -1.
          1   -1    0    0  501    0 -0.00000000000E+00 -0.00000000000E+00 -0.19573237026E+02  0.19573237026E+02  0.00000000000E+00 0. -1.
          2    1    1    2  501    0 -0.19212959548E+01  0.24876751234E+02  0.12618964412E+04  0.12621430872E+04  0.00000000000E+00 0. -1.
          1    1    1    2  502    0  0.19212959548E+01 -0.24876751234E+02 -0.11448026117E+02  0.27451801983E+02  0.00000000000E+00 0. -1.
</event>
<event>
 4    1  0.3586324E+003  0.2763708E+02  0.7546771E-02  0.1441311E+00
          2   -1    0    0  502    0  0.00000000000E+00  0.00000000000E+00  0.11447161855E+04  0.11447161855E+04  0.00000000000E+00 0. -1.
          1   -1    0    0  501    0 -0.00000000000E+00 -0.00000000000E+00 -0.22532023052E+01  0.22532023052E+01  0.00000000000E+00 0. -1.
          2    1    1    2  501    0 -0.21476789534E+02  0.17394128841E+02  0.10523668097E+04  0.10527296473E+04  0.00000000000E+00 0. -1.
          1    1    1    2  502    0  0.21476789534E+02 -0.17394128841E+02  0.90096173518E+02  0.94239740499E+02  0.00000000000E+00 0. -1.
</event>
<event>
 4    1  0.3586324E+003  0.2028310E+02  0.7546771E-02  0.1529751E+00
          2   -1    0    0  502    0  0.00000000000E+00  0.00000000000E+00  0.13476113696E+04  0.13476113696E+04  0.00000000000E+00 0. -1.
          1   -1    0    0  501    0 -0.00000000000E+00 -0.00000000000E+00 -0.40221008125E+00  0.40221008125E+00  0.00000000000E+00 0. -1.
          2    1    1    2  501    0  0.17573985023E+02  0.10127157403E+02  0.10044750391E+04  0.10046798039E+04  0.00000000000E+00 0. -1.
          1    1    1    2  502    0 -0.17573985023E+02 -0.10127157403E+02  0.34273412044E+03  0.34333377576E+03  0.00000000000E+00 0. -1.
</event>
<event>
 4    1  0.3586324E+003  0.2172908E+02  0.7546771E-02  0.1509105E+00
          2   -1    0    0  502    0  0.00000000000E+00  0.00000000000E+00  0.85777553080E+02  0.85777553080E+02  0.00000000000E+00 0. -1.
          1   -1    0    0  501    0 -0.00000000000E+00 -0.00000000000E+00 -0.33145441150E+03  0.33145441150E+03  0.00000000000E+00 0.  1.
          2    1    1    2  501    0 -0.20942792440E+02 -0.57924383989E+01  0.84038082153E+02  0.86801798079E+02  0.00000000000E+00 0. -1.
          1    1    1    2  502    0  0.20942792440E+02  0.57924383989E+01 -0.32971494057E+03  0.33043016650E+03  0.00000000000E+00 0.  1.
</event>
<event>
 4    1  0.3586324E+003  0.2504003E+02  0.7546771E-02  0.1468356E+00
          2   -1    0    0  502    0  0.00000000000E+00  0.00000000000E+00  0.58565004884E+03  0.58565004884E+03  0.00000000000E+00 0.  1.
          1   -1    0    0  501    0 -0.00000000000E+00 -0.00000000000E+00 -0.10711123096E+01  0.10711123096E+01  0.00000000000E+00 0.  1.
          2    1    1    2  501    0 -0.47247541203E+01 -0.24590220718E+02  0.28593074446E+03  0.28702507361E+03  0.00000000000E+00 0.  1.
          1    1    1    2  502    0  0.47247541203E+01  0.24590220718E+02  0.29864819207E+03  0.29969608754E+03  0.00000000000E+00 0.  1.
</event>
<event>
 4    1  0.3586324E+003  0.2326367E+02  0.7546771E-02  0.1489214E+00
          2   -1    0    0  502    0  0.00000000000E+00  0.00000000000E+00  0.69638237639E+03  0.69638237639E+03  0.00000000000E+00 0. -1.
          1   -1    0    0  501    0 -0.00000000000E+00 -0.00000000000E+00 -0.12732336458E+03  0.12732336458E+03  0.00000000000E+00 0. -1.
          2    1    1    2  501    0  0.22281139246E+02 -0.66894800537E+01  0.69512351798E+03  0.69551269115E+03  0.00000000000E+00 0. -1.
          1    1    1    2  502    0 -0.22281139246E+02  0.66894800537E+01 -0.12606450616E+03  0.12819304983E+03  0.00000000000E+00 0. -1.
</event>
<event>
 4    1  0.3586324E+003  0.2266022E+02  0.7546771E-02  0.1496809E+00
          2   -1    0    0  502    0  0.00000000000E+00  0.00000000000E+00  0.23869702341E+02  0.23869702341E+02  0.00000000000E+00 0.  1.
          1   -1    0    0  501    0 -0.00000000000E+00 -0.00000000000E+00 -0.27830188022E+02  0.27830188022E+02  0.00000000000E+00 0.  1.
          2    1    1    2  501    0  0.15822674881E+02 -0.16221243060E+02  0.10336525639E+02  0.24906415420E+02  0.00000000000E+00 0.  1.
          1    1    1    2  502    0 -0.15822674881E+02  0.16221243060E+02 -0.14297011320E+02  0.26793474943E+02  0.00000000000E+00 0.  1.
</event>
<event>
 4    1  0.3586324E+003  0.2945023E+02  0.7546771E-02  0.1424435E+00
          2   -1    0    0  502    0  0.00000000000E+00  0.00000000000E+00  0.15557806092E+04  0.15557806092E+04  0.00000000000E+00 0. -1.
          1   -1    0    0  501    0 -0.00000000000E+00 -0.00000000000E+00 -0.27071128706E+01  0.27071128706E+01  0.00000000000E+00 0.  1.
          2    1    1    2  501    0 -0.13011237075E+02  0.26420137971E+02  0.14709250462E+04  0.14712198366E+04  0.00000000000E+00 0. -1.
          1    1    1    2  502    0  0.13011237075E+02 -0.26420137971E+02  0.82148450097E+02  0.87267885467E+02  0.00000000000E+00 0.  1.
</event>
<event>
 4    1  0.3586324E+003  0.3464224E+02  0.7546771E-02  0.1383096E+00
          2   -1    0    0  502    0  0.00000000000E+00  0.00000000000E+00  0.11859709852E+03  0.11859709852E+03  0.00000000000E+00 0. -1.
          1   -1    0    0  501    0 -0.00000000000E+00 -0.00000000000E+00 -0.57039918115E+02  0.57039918115E+02  0.00000000000E+00 0.  1.
          2    1    1    2  501    0 -0.12748334461E+02  0.32211249701E+02  0.11042750016E+03  0.11573382146E+03  0.00000000000E+00 0. -1.
          1    1    1    2  502    0  0.12748334461E+02 -0.32211249701E+02 -0.48870319755E+02  0.59903195172E+02  0.00000000000E+00 0.  1.
</event>
<event>
 4    1  0.3586324E+003  0.2705313E+02  0.7546771E-02  0.1447075E+00
          2   -1    0    0  502    0  0.00000000000E+00  0.00000000000E+00  0.26480451796E+03  0.26480451796E+03  0.00000000000E+00 0. -1.
          1   -1    0    0  501    0 -0.00000000000E+00 -0.00000000000E+00 -0.11394178618E+02  0.11394178618E+02  0.00000000000E+00 0.  1.
          2    1    1    2  501    0 -0.87240350487E+01 -0.25607868418E+02  0.24689412715E+03  0.24837186180E+03  0.00000000000E+00 0. -1.
          1    1    1    2  502    0  0.87240350487E+01  0.25607868418E+02  0.65162121926E+01  0.27826834779E+02  0.00000000000E+00 0.  1.
</event>
<event>
 4    1  0.3586324E+003  0.2531717E+02  0.7546771E-02  0.1465286E+00
          2   -1    0    0  502    0  0.00000000000E+00  0.00000000000E+00  0.19546261070E+01  0.19546261070E+01  0.00000000000E+00 0.  1.
          1   -1    0    0  501    0 -0.00000000000E+00 -0.00000000000E+00 -0.35547953964E+03  0.35547953964E+03  0.00000000000E+00 0.  1.
          2    1    1    2  501    0 -0.12023671506E+02 -0.22279820342E+02 -0.12699992251E+03  0.12949880072E+03  0.00000000000E+00 0.  1.
          1    1    1    2  502    0  0.12023671506E+02  0.22279820342E+02 -0.22652499103E+03  0.22793536503E+03  0.00000000000E+00 0.  1.
</event>
<event>
 4    1  0.3586324E+003  0.3225493E+02  0.7546771E-02  0.1400962E+00
          2   -1    0    0  502    0  0.00000000000E+00  0.00000000000E+00  0.38249466065E+02  0.38249466065E+02  0.00000000000E+00 0. -1.
          1   -1    0    0  501    0 -0.00000000000E+00 -0.00000000000E+00 -0.12859902371E+03  0.12859902371E+03  0.00000000000E+00 0. -1.
          2    1    1    2  501    0  0.28229129757E+02 -0.15604383419E+02  0.28903453624E+02  0.43310393442E+02  0.00000000000E+00 0. -1.
          1    1    1    2  502    0 -0.28229129757E+02  0.15604383419E+02 -0.11925301127E+03  0.12353809634E+03  0.00000000000E+00 0. -1.
</event>
<event>
 4    1  0.3586324E+003  0.2932509E+02  0.7546771E-02  0.1425553E+00
          2   -1    0    0  502    0  0.00000000000E+00  0.00000000000E+00  0.40988679079E+02  0.40988679079E+02  0.00000000000E+00 0. -1.
          1   -1    0    0  501    0 -0.00000000000E+00 -0.00000000000E+00 -0.12099335940E+04  0.12099335940E+04  0.00000000000E+00 0.  1.
          2    1    1    2  501    0 -0.27418487862E+02 -0.10401318605E+02  0.35542165001E+02  0.46078263838E+02  0.00000000000E+00 0. -1.
          1    1    1    2  502    0  0.27418487862E+02  0.10401318605E+02 -0.12044870799E+04  0.12048440092E+04  0.00000000000E+00 0.  1.
</event>
<event>
 4    1  0.3586324E+003  0.2666075E+02  0.7546771E-02  0.1451046E+00
          2   -1    0    0  502    0  0.00000000000E+00  0.00000000000E+00  0.12463943113E+04  0.12463943113E+04  0.00000000000E+00 0. -1.
          1   -1    0    0  501    0 -0.00000000000E+00 -0.00000000000E+00 -0.20668685456E+03  0.20668685456E+03  0.00000000000E+00 0. -1.
          2    1    1    2  501    0 -0.26340366591E+02 -0.41207879280E+01  0.12453912989E+04  0.12456766366E+04  0.00000000000E+00 0. -1.
          1    1    1    2  502    0  0.26340366591E+02  0.41207879280E+01 -0.20568384215E+03  0.20740452919E+03  0.00000000000E+00 0. -1.
</event>
<event>
 4    1  0.3586324E+003  0.3701380E+02  0.7546771E-02  0.1366933E+00
          2   -1    0    0  502    0  0.00000000000E+00  0.00000000000E+00  0.60499822350E+03  0.60499822350E+03  0.00000000000E+00 0. -1.
          1   -1    0    0  501    0 -0.00000000000E+00 -0.00000000000E+00 -0.36660694752E+01  0.36660694752E+01  0.00000000000E+00 0.  1.
          2    1    1    2  501    0 -0.47179715599E+01  0.36711880660E+02  0.48883766104E+03  0.49023696341E+03  0.00000000000E+00 0. -1.
          1    1    1    2  502    0  0.47179715599E+01 -0.36711880660E+02  0.11249449298E+03  0.11842732957E+03  0.00000000000E+00 0.  1.
</event>
<event>
 4    1  0.3586324E+003  0.2096740E+02  0.7546771E-02  0.1519731E+00
          2   -1    0    0  502    0  0.00000000000E+00  0.00000000000E+00  0.99720805789E+03  0.99720805789E+03  0.00000000000E+00 0.  1.
          1   -1    0    0  501    0 -0.00000000000E+00 -0.00000000000E+00 -0.18439293023E+03  0.18439293023E+03  0.00000000000E+00 0.  1.
          2    1    1    2  501    0  0.96790634399E+01 -0.18599661348E+02  0.99650136683E+03  0.99672193001E+03  0.00000000000E+00 0.  1.
          1    1    1    2  502    0 -0.96790634399E+01  0.18599661348E+02 -0.18368623916E+03  0.18487905811E+03  0.00000000000E+00 0.  1.
</event>
<event>
 4    1  0.3586324E+003  0.2003479E+02  0.7546771E-02  0.1533505E+00
          2   -1    0    0  502    0  0.00000000000E+00  0.00000000000E+00  0.98626179218E+03  0.98626179218E+03  0.00000000000E+00 0.  1.
          1   -1    0    0  501    0 -0.00000000000E+00 -0.00000000000E+00 -0.69549610810E+00  0.69549610810E+00  0.00000000000E+00 0.  1.
          2    1    1    2  501    0  0.96741021166E+01 -0.17544357747E+02  0.81061912483E+03  0.81086667109E+03  0.00000000000E+00 0.  1.
          1    1    1    2  502    0 -0.96741021166E+01  0.17544357747E+02  0.17494717125E+03  0.17609061721E+03  0.00000000000E+00 0.  1.
</event>
<event>
 4    1  0.3586324E+003  0.2267547E+02  0.7546771E-02  0.1496614E+00
          2   -1    0    0  502    0  0.00000000000E+00  0.00000000000E+00  0.44822130799E+02  0.44822130799E+02  0.00000000000E+00 0.  1.
          1   -1    0    0  501    0 -0.00000000000E+00 -0.00000000000E+00 -0.28152488726E+02  0.28152488726E+02  0.00000000000E+00 0.  1.
          2    1    1    2  501    0  0.15645022248E+02 -0.16413705787E+02 -0.19751478291E+02  0.30071537266E+02  0.00000000000E+00 0.  1.
          1    1    1    2  502    0 -0.15645022248E+02  0.16413705787E+02  0.36421120364E+02  0.42903082260E+02  0.00000000000E+00 0.  1.
</event>
<event>
 4    1  0.3586324E+003  0.2292324E+02  0.7546771E-02  0.1493464E+00
          2   -1    0    0  502    0  0.00000000000E+00  0.00000000000E+00  0.35965223561E+02  0.35965223561E+02  0.00000000000E+00 0.  1.
          1   -1    0    0  501    0 -0.00000000000E+00 -0.00000000000E+00 -0.37111846963E+02  0.37111846963E+02  0.00000000000E+00 0. -1.
          2    1    1    2  501    0 -0.22365682686E+02 -0.50250722353E+01  0.27877699614E+02  0.36092121699E+02  0.00000000000E+00 0.  1.
          1    1    1    2  502    0  0.22365682686E+02  0.50250722353E+01 -0.29024323017E+02  0.36984948825E+02  0.00000000000E+00 0. -1.
</event>
<event>
 4    1  0.3586324E+003  0.2043020E+02  0.7546771E-02  0.1527558E+00
          2   -1    0    0  502    0  0.00000000000E+00  0.00000000000E+00  0.85292592332E+00  0.85292592332E+00  0.00000000000E+00 0.  1.
          1   -1    0    0  501    0 -0.00000000000E+00 -0.00000000000E+00 -0.48945406151E+03  0.48945406151E+03  0.00000000000E+00 0.  1.
          2    1    1    2  501    0  0.16587275740E+02  0.11927069066E+02 -0.24759446062E+03  0.24843592659E+03  0.00000000000E+00 0.  1.
          1    1    1    2  502    0 -0.16587275740E+02 -0.11927069066E+02 -0.24100667497E+03  0.24187106084E+03  0.00000000000E+00 0.  1.
</event>
<event>
 4    1  0.3586324E+003  0.2198145E+02  0.7546771E-02  0.1505700E+00
          2   -1    0    0  502    0  0.00000000000E+00  0.00000000000E+00  0.22761977471E+03  0.22761977471E+03  0.00000000000E+00 0.  1.
          1   -1    0    0  501    0 -0.00000000000E+00 -0.00000000000E+00 -0.62363582985E+01  0.62363582985E+01  0.00000000000E+00 0.  1.
          2    1    1    2  501    0  0.17128543908E+02 -0.13776688251E+02  0.20565673920E+03  0.20682813767E+03  0.00000000000E+00 0.  1.
          1    1    1    2  502    0 -0.17128543908E+02  0.13776688251E+02  0.15726677207E+02  0.27027995330E+02  0.00000000000E+00 0.  1.
</event>
<event>
 4    1  0.3586324E+003  0.2956196E+02  0.7546771E-02  0.1423442E+00
          2   -1    0    0  502    0  0.00000000000E+00  0.00000000000E+00  0.21566479013E+03  0.21566479013E+03  0.00000000000E+00 0. -1.
          1   -1    0    0  501    0 -0.00000000000E+00 -0.00000000000E+00 -0.12610902830E+03  0.12610902830E+03  0.00000000000E+00 0.  1.
          2    1    1    2  501    0 -0.24702628268E+02  0.16238527167E+02  0.21289688370E+03  0.21493950939E+03  0.00000000000E+00 0. -1.
          1    1    1    2  502    0  0.24702628268E+02 -0.16238527167E+02 -0.12334112187E+03  0.12683430904E+03  0.00000000000E+00 0.  1.
</event>
<event>
 4    1  0.3586324E+003  0.2895488E+02  0.7546771E-02  0.1428901E+00
          2   -1    0    0  502    0  0.00000000000E+00  0.00000000000E+00  0.12530898238E+03  0.12530898238E+03  0.00000000000E+00 0.  1.
          1   -1    0    0  501    0 -0.00000000000E+00 -0.00000000000E+00 -0.51484595909E+02  0.51484595909E+02  0.00000000000E+00 0. -1.
          2    1    1    2  501    0  0.15930547561E+02 -0.24178565255E+02  0.11936548652E+03  0.12282713355E+03  0.00000000000E+00 0.  1.
          1    1    1    2  502    0 -0.15930547561E+02  0.24178565255E+02 -0.45541100053E+02  0.53966444736E+02  0.00000000000E+00 0. -1.
</event>
<event>
 4    1  0.3586324E+003  0.2123871E+02  0.7546771E-02  0.1515884E+00
          2   -1    0    0  502    0  0.00000000000E+00  0.00000000000E+00  0.19977488561E+02  0.19977488561E+02  0.00000000000E+00 0. -1.
          1   -1    0    0  501    0 -0.00000000000E+00 -0.00000000000E+00 -0.15502771182E+03  0.15502771182E+03  0.00000000000E+00 0. -1.
          2    1    1    2  501    0  0.17951684891E+02 -0.11349883508E+02  0.13354535139E+02  0.25088372902E+02  0.00000000000E+00 0. -1.
          1    1    1    2  502    0 -0.17951684891E+02  0.11349883508E+02 -0.14840475840E+03  0.14991682748E+03  0.00000000000E+00 0. -1.
</event>
<event>
 4    1  0.3586324E+003  0.2336370E+02  0.7546771E-02  0.1487981E+00
          2   -1    0    0  502    0  0.00000000000E+00  0.00000000000E+00  0.55138118574E+01  0.55138118574E+01  0.00000000000E+00 0.  1.
          1   -1    0    0  501    0 -0.00000000000E+00 -0.00000000000E+00 -0.27262398226E+03  0.27262398226E+03  0.00000000000E+00 0.  1.
          2    1    1    2  501    0  0.91799587037E+01 -0.21484669609E+02 -0.22572738120E+02  0.32486784640E+02  0.00000000000E+00 0.  1.
          1    1    1    2  502    0 -0.91799587037E+01  0.21484669609E+02 -0.24453743228E+03  0.24565100947E+03  0.00000000000E+00 0.  1.
</event>
<event>
 4    1  0.3586324E+003  0.2637430E+02  0.7546771E-02  0.1453997E+00
          2   -1    0    0  502    0  0.00000000000E+00  0.00000000000E+00  0.11584467632E+02  0.11584467632E+02  0.00000000000E+00 0.  1.
          1   -1    0    0  501    0 -0.00000000000E+00 -0.00000000000E+00 -0.74348293530E+03  0.74348293530E+03  0.00000000000E+00 0. -1.
          2    1    1    2  501    0 -0.22247561254E+02 -0.14165097283E+02 -0.39819126281E+01  0.26673199863E+02  0.00000000000E+00 0.  1.
          1    1    1    2  502    0  0.22247561254E+02  0.14165097283E+02 -0.72791655504E+03  0.72839420306E+03  0.00000000000E+00 0. -1.
</event>
<event>
 4    1  0.3586324E+003  0.2739401E+02  0.7546771E-02  0.1443690E+00
          2   -1    0    0  502    0  0.00000000000E+00  0.00000000000E+00  0.58910718935E+02  0.58910718935E+02  0.00000000000E+00 0.  1.
          1   -1    0    0  501    0 -0.00000000000E+00 -0.00000000000E+00 -0.15101343311E+02  0.15101343311E+02  0.00000000000E+00 0. -1.
          2    1    1    2  501    0 -0.73572416998E+01 -0.26387548814E+02  0.36542831674E+02  0.45670672040E+02  0.00000000000E+00 0.  1.
          1    1    1    2  502    0  0.73572416998E+01  0.26387548814E+02  0.72665439506E+01  0.28341390207E+02  0.00000000000E+00 0. -1.
</event>
<event>
 4    1  0.3586324E+003  0.2980122E+02  0.7546771E-02  0.1421332E+00
          2   -1    0    0  502    0  0.00000000000E+00  0.00000000000E+00  0.38175941667E+03  0.38175941667E+03  0.00000000000E+00 0. -1.
          1   -1    0    0  501    0 -0.00000000000E+00 -0.00000000000E+00 -0.35819720633E+01  0.35819720633E+01  0.00000000000E+00 0. -1.
          2    1    1    2  501    0  0.27348683109E+02 -0.11839025629E+02  0.30316119983E+03  0.30462243200E+03  0.00000000000E+00 0. -1.
          1    1    1    2  502    0 -0.27348683109E+02  0.11839025629E+02  0.75016244778E+02  0.80718956734E+02  0.00000000000E+00 0. -1.
</event>
<event>
 4    1  0.3586324E+003  0.3254914E+02  0.7546771E-02  0.1398664E+00
          2   -1    0    0  502    0  0.00000000000E+00  0.00000000000E+00  0.32759440464E+02  0.32759440464E+02  0.00000000000E+00 0.  1.
          1   -1    0    0  501    0 -0.00000000000E+00 -0.00000000000E+00 -0.46860654200E+03  0.46860654200E+03  0.00000000000E+00 0.  1.
          2    1    1    2  501    0  0.31612722957E+02  0.77512957917E+01  0.23954549536E+02  0.40413701670E+02  0.00000000000E+00 0.  1.
          1    1    1    2  502    0 -0.31612722957E+02 -0.77512957917E+01 -0.45980165108E+03  0.46095228080E+03  0.00000000000E+00 0.  1.
</event>
<event>
 4    1  0.3586324E+003  0.2548388E+02  0.7546771E-02  0.1463462E+00
          2   -1    0    0  502    0  0.00000000000E+00  0.00000000000E+00  0.15654074296E+04  0.15654074296E+04  0.00000000000E+00 0.  1.
          1   -1    0    0  501    0 -0.00000000000E+00 -0.00000000000E+00 -0.95259754749E+00  0.95259754749E+00  0.00000000000E+00 0. -1.
          2    1    1    2  501    0  0.58390164918E+00 -0.25477189671E+02  0.13706525567E+04  0.13708894409E+04  0.00000000000E+00 0.  1.
          1    1    1    2  502    0 -0.58390164918E+00  0.25477189671E+02  0.19380227541E+03  0.19547058625E+03  0.00000000000E+00 0. -1.
</event>
<event>
 4    1  0.3586324E+003  0.2092588E+02  0.7546771E-02  0.1520326E+00
          2   -1    0    0  502    0  0.00000000000E+00  0.00000000000E+00  0.48722574095E+03  0.48722574095E+03  0.00000000000E+00 0. -1.
          1   -1    0    0  501    0 -0.00000000000E+00 -0.00000000000E+00 -0.49661808403E+01  0.49661808403E+01  0.00000000000E+00 0. -1.
          2    1    1    2  501    0  0.50810042269E+01 -0.20299650511E+02  0.46384684663E+03  0.46431862933E+03  0.00000000000E+00 0. -1.
          1    1    1    2  502    0 -0.50810042269E+01  0.20299650511E+02  0.18412713477E+02  0.27873292457E+02  0.00000000000E+00 0. -1.
</event>
<event>
 4    1  0.3586324E+003  0.2560007E+02  0.7546771E-02  0.1462201E+00
          2   -1    0    0  502    0  0.00000000000E+00  0.00000000000E+00  0.37257571283E+03  0.37257571283E+03  0.00000000000E+00 0.  1.
          1   -1    0    0  501    0 -0.00000000000E+00 -0.00000000000E+00 -0.11090932587E+03  0.11090932587E+03  0.00000000000E+00 0.  1.
          2    1    1    2  501    0 -0.20206166269E+02 -0.15718609279E+02  0.37065104756E+03  0.37153406693E+03  0.00000000000E+00 0.  1.
          1    1    1    2  502    0  0.20206166269E+02  0.15718609279E+02 -0.10898466061E+03  0.11195097177E+03  0.00000000000E+00 0.  1.
</event>
<event>
 4    1  0.3586324E+003  0.2591671E+02  0.7546771E-02  0.1458804E+00
          2   -1    0    0  502    0  0.00000000000E+00  0.00000000000E+00  0.31182796704E+02  0.31182796704E+02  0.00000000000E+00 0. -1.
          1   -1    0    0  501    0 -0.00000000000E+00 -0.00000000000E+00 -0.46246066323E+02  0.46246066323E+02  0.00000000000E+00 0. -1.
          2    1    1    2  501    0  0.13901149334E+02  0.21873137822E+02  0.20765187257E+02  0.33209473239E+02  0.00000000000E+00 0. -1.
          1    1    1    2  502    0 -0.13901149334E+02 -0.21873137822E+02 -0.35828456876E+02  0.44219389787E+02  0.00000000000E+00 0. -1.
</event>
<event>
 4    1  0.3586324E+003  0.1353213E+03  0.7546771E-02  0.1113692E+00
          2   -1    0    0  502    0  0.00000000000E+00  0.00000000000E+00  0.12016231381E+04  0.12016231381E+04  0.00000000000E+00 0. -1.
          1   -1    0    0  501    0 -0.00000000000E+00 -0.00000000000E+00 -0.14550898646E+03  0.14550898646E+03  0.00000000000E+00 0. -1.
          2    1    1    2  501    0 -0.10187839025E+03 -0.89065383637E+02  0.11653763277E+04  0.11732066460E+04  0.00000000000E+00 0. -1.
          1    1    1    2  502    0  0.10187839025E+03  0.89065383637E+02 -0.10926217611E+03  0.17392547855E+03  0.00000000000E+00 0. -1.
</event>
<event>
 4    1  0.3586324E+003  0.2874005E+02  0.7546771E-02  0.1430871E+00
          2   -1    0    0  502    0  0.00000000000E+00  0.00000000000E+00  0.17902043571E+04  0.17902043571E+04  0.00000000000E+00 0.  1.
          1   -1    0    0  501    0 -0.00000000000E+00 -0.00000000000E+00 -0.46163005881E+00  0.46163005881E+00  0.00000000000E+00 0. -1.
          2    1    1    2  501    0 -0.20263184111E+02 -0.20381197600E+02  0.87463208218E+03  0.87510414753E+03  0.00000000000E+00 0.  1.
          1    1    1    2  502    0  0.20263184111E+02  0.20381197600E+02  0.91511064484E+03  0.91556183961E+03  0.00000000000E+00 0. -1.
</event>
<event>
 4    1  0.3586324E+003  0.2758762E+02  0.7546771E-02  0.1441793E+00
          2   -1    0    0  502    0  0.00000000000E+00  0.00000000000E+00  0.52426256882E+03  0.52426256882E+03  0.00000000000E+00 0. -1.
          1   -1    0    0  501    0 -0.00000000000E+00 -0.00000000000E+00 -0.16253504163E+01  0.16253504163E+01  0.00000000000E+00 0. -1.
          2    1    1    2  501    0 -0.12992360511E+01  0.27557004698E+02  0.34726284493E+03  0.34835694336E+03  0.00000000000E+00 0. -1.
          1    1    1    2  502    0  0.12992360511E+01 -0.27557004698E+02  0.17537437348E+03  0.17753097588E+03  0.00000000000E+00 0. -1.
</event>
<event>
 4    1  0.3586324E+003  0.2076306E+02  0.7546771E-02  0.1522675E+00
          2   -1    0    0  502    0  0.00000000000E+00  0.00000000000E+00  0.81460812776E+03  0.81460812776E+03  0.00000000000E+00 0. -1.
          1   -1    0    0  501    0 -0.00000000000E+00 -0.00000000000E+00 -0.48532923007E+01  0.48532923007E+01  0.00000000000E+00 0.  1.
          2    1    1    2  501    0 -0.20006510648E+02 -0.55537390846E+01  0.79162438355E+03  0.79189662780E+03  0.00000000000E+00 0. -1.
          1    1    1    2  502    0  0.20006510648E+02  0.55537390846E+01  0.18130451911E+02  0.27564792265E+02  0.00000000000E+00 0.  1.
</event>
<event>
 4    1  0.3586324E+003  0.2109700E+02  0.7546771E-02  0.1517884E+00
          2   -1    0    0  502    0  0.00000000000E+00  0.00000000000E+00  0.10397735317E+02  0.10397735317E+02  0.00000000000E+00 0. -1.
          1   -1    0    0  501    0 -0.00000000000E+00 -0.00000000000E+00 -0.30492748253E+03  0.30492748253E+03  0.00000000000E+00 0. -1.
          2    1    1    2  501    0 -0.20732460062E+02  0.39049579131E+01 -0.10869189889E+01  0.21124984957E+02  0.00000000000E+00 0. -1.
          1    1    1    2  502    0  0.20732460062E+02 -0.39049579131E+01 -0.29344282823E+03  0.29420023289E+03  0.00000000000E+00 0. -1.
</event>
<event>
 4    1  0.3586324E+003  0.2825904E+02  0.7546771E-02  0.1435355E+00
          2   -1    0    0  502    0  0.00000000000E+00  0.00000000000E+00  0.14536348394E+04  0.14536348394E+04  0.00000000000E+00 0.  1.
          1   -1    0    0  501    0 -0.00000000000E+00 -0.00000000000E+00 -0.46673994828E+01  0.46673994828E+01  0.00000000000E+00 0.  1.
          2    1    1    2  501    0 -0.53573544557E-01 -0.28258989977E+02  0.14093805373E+04  0.14096638153E+04  0.00000000000E+00 0.  1.
          1    1    1    2  502    0  0.53573544557E-01  0.28258989977E+02  0.39586902596E+02  0.48638423512E+02  0.00000000000E+00 0.  1.
</event>
<event>
 4    1  0.3586324E+003  0.2203584E+02  0.7546771E-02  0.1504973E+00
          2   -1    0    0  502    0  0.00000000000E+00  0.00000000000E+00  0.96062394116E+01  0.96062394116E+01  0.00000000000E+00 0. -1.
          1   -1    0    0  501    0 -0.00000000000E+00 -0.00000000000E+00 -0.15073274356E+03  0.15073274356E+03  0.00000000000E+00 0. -1.
          2    1    1    2  501    0 -0.18022161292E+02 -0.12679905446E+02 -0.52042148411E+01  0.22642043898E+02  0.00000000000E+00 0. -1.
          1    1    1    2  502    0  0.18022161292E+02  0.12679905446E+02 -0.13592228931E+03  0.13769693907E+03  0.00000000000E+00 0. -1.
</event>
<event>
 4    1  0.3586324E+003  0.2077383E+02  0.7546771E-02  0.1522519E+00
          2   -1    0    0  502    0  0.00000000000E+00  0.00000000000E+00  0.22015035506E+03  0.22015035506E+03  0.00000000000E+00 0. -1.
          1   -1    0    0  501    0 -0.00000000000E+00 -0.00000000000E+00 -0.11229472250E+04  0.11229472250E+04  0.00000000000E+00 0.  1.
          2    1    1    2  501    0 -0.14961325923E+02 -0.14412177595E+02  0.21956395803E+03  0.22054451660E+03  0.00000000000E+00 0. -1.
          1    1    1    2  502    0  0.14961325923E+02  0.14412177595E+02 -0.11223608279E+04  0.11225530634E+04  0.00000000000E+00 0.  1.
</event>
<event>
 4    1  0.3586324E+003  0.3137920E+02  0.7546771E-02  0.1407978E+00
          2   -1    0    0  502    0  0.00000000000E+00  0.00000000000E+00  0.45613119357E+02  0.45613119357E+02  0.00000000000E+00 0. -1.
          1   -1    0    0  501    0 -0.00000000000E+00 -0.00000000000E+00 -0.84585911261E+02  0.84585911261E+02  0.00000000000E+00 0.  1.
          2    1    1    2  501    0 -0.15902492875E+02  0.27051152435E+02  0.36695317431E+02  0.48282506657E+02  0.00000000000E+00 0. -1.
          1    1    1    2  502    0  0.15902492875E+02 -0.27051152435E+02 -0.75668109334E+02  0.81916523961E+02  0.00000000000E+00 0.  1.
</event>
<event>
 4    1  0.3586324E+003  0.3976788E+02  0.7546771E-02  0.1349851E+00
          2   -1    0    0  502    0  0.00000000000E+00  0.00000000000E+00  0.21121576297E+01  0.21121576297E+01  0.00000000000E+00 0. -1.
          1   -1    0    0  501    0 -0.00000000000E+00 -0.00000000000E+00 -0.19667556575E+04  0.19667556575E+04  0.00000000000E+00 0.  1.
          2    1    1    2  501    0  0.15977028725E+02  0.36417282173E+02 -0.20761825023E+03  0.21139257725E+03  0.00000000000E+00 0. -1.
          1    1    1    2  502    0 -0.15977028725E+02 -0.36417282173E+02 -0.17570252497E+04  0.17574752379E+04  0.00000000000E+00 0.  1.
</event>
<event>
 4    1  0.3586324E+003  0.2899249E+02  0.7546771E-02  0.1428558E+00
          2   -1    0    0  502    0  0.00000000000E+00  0.00000000000E+00  0.21236170535E+02  0.21236170535E+02  0.00000000000E+00 0. -1.
          1   -1    0    0  501    0 -0.00000000000E+00 -0.00000000000E+00 -0.73584718762E+02  0.73584718762E+02  0.00000000000E+00 0.  1.
          2    1    1    2  501    0  0.26919850025E+02 -0.10765043685E+02  0.60541240445E+01  0.29617847809E+02  0.00000000000E+00 0. -1.
          1    1    1    2  502    0 -0.26919850025E+02  0.10765043685E+02 -0.58402672271E+02  0.65203041488E+02  0.00000000000E+00 0.  1.
</event>
<event>
 4    1  0.3586324E+003  0.2227323E+02  0.7546771E-02  0.1501832E+00
          2   -1    0    0  502    0  0.00000000000E+00  0.00000000000E+00  0.44098713821E+03  0.44098713821E+03  0.00000000000E+00 0.  1.
          1   -1    0    0  501    0 -0.00000000000E+00 -0.00000000000E+00 -0.15933571512E+01  0.15933571512E+01  0.00000000000E+00 0. -1.
          2    1    1    2  501    0  0.59816320320E+01  0.21454996604E+02  0.33967685249E+03  0.34040631739E+03  0.00000000000E+00 0.  1.
          1    1    1    2  502    0 -0.59816320320E+01 -0.21454996604E+02  0.99716928565E+02  0.10217417797E+03  0.00000000000E+00 0. -1.
</event>
<event>
 4    1  0.3586324E+003  0.2021627E+02  0.7546771E-02  0.1530755E+00
          2   -1    0    0  502    0  0.00000000000E+00  0.00000000000E+00  0.56254643262E+01  0.56254643262E+01  0.00000000000E+00 0. -1.
          1   -1    0    0  501    0 -0.00000000000E+00 -0.00000000000E+00 -0.14434520169E+03  0.14434520169E+03  0.00000000000E+00 0. -1.
          2    1    1    2  501    0 -0.20212459033E+02 -0.39276783203E+00 -0.16513396188E+02  0.26103448439E+02  0.00000000000E+00 0. -1.
          1    1    1    2  502    0  0.20212459033E+02  0.39276783203E+00 -0.12220634118E+03  0.12386721758E+03  0.00000000000E+00 0. -1.
</event>
<event>
 4    1  0.3586324E+003  0.1081860E+03  0.7546771E-02  0.1150332E+00
          2   -1    0    0  502    0  0.00000000000E+00  0.00000000000E+00  0.26177579941E+03  0.26177579941E+03  0.00000000000E+00 0.  1.
          1   -1    0    0  501    0 -0.00000000000E+00 -0.00000000000E+00 -0.57425241936E+02  0.57425241936E+02  0.00000000000E+00 0.  1.
          2    1    1    2  501    0  0.10273415753E+03  0.33910187553E+02  0.17727379789E+03  0.20767813405E+03  0.00000000000E+00 0.  1.
          1    1    1    2  502    0 -0.10273415753E+03 -0.33910187553E+02  0.27076759590E+02  0.11152290730E+03  0.00000000000E+00 0.  1.
</event>
<event>
 4    1  0.3586324E+003  0.2155320E+02  0.7546771E-02  0.1511511E+00
          2   -1    0    0  502    0  0.00000000000E+00  0.00000000000E+00  0.10967324846E+03  0.10967324846E+03  0.00000000000E+00 0. -1.
          1   -1    0    0  501    0 -0.00000000000E+00 -0.00000000000E+00 -0.47990909894E+02  0.47990909894E+02  0.00000000000E+00 0.  1.
          2    1    1    2  501    0 -0.86729062725E+01  0.19731226930E+02  0.10611404040E+03  0.10828079326E+03  0.00000000000E+00 0. -1.
          1    1    1    2  502    0  0.86729062725E+01 -0.19731226930E+02 -0.44431701838E+02  0.49383365089E+02  0.00000000000E+00 0.  1.
</event>
<event>
 4    1  0.3586324E+003  0.2073004E+02  0.7546771E-02  0.1523154E+00
          2   -1    0    0  502    0  0.00000000000E+00  0.00000000000E+00  0.69211246119E+03  0.69211246119E+03  0.00000000000E+00 0.  1.
          1   -1    0    0  501    0 -0.00000000000E+00 -0.00000000000E+00 -0.56415846019E+03  0.56415846019E+03  0.00000000000E+00 0. -1.
          2    1    1    2  501    0 -0.10351733268E+02 -0.17960401213E+02  0.69176670880E+03  0.69207724554E+03  0.00000000000E+00 0.  1.
          1    1    1    2  502    0  0.10351733268E+02  0.17960401213E+02 -0.56381270780E+03  0.56419367585E+03  0.00000000000E+00 0. -1.
</event>
<event>
 4    1  0.3586324E+003  0.2108320E+02  0.7546771E-02  0.1518080E+00
          2   -1    0    0  502    0  0.00000000000E+00  0.00000000000E+00  0.15092641052E+04  0.15092641052E+04  0.00000000000E+00 0.  1.
          1   -1    0    0  501    0 -0.00000000000E+00 -0.00000000000E+00 -0.44618029459E+00  0.44618029459E+00  0.00000000000E+00 0.  1.
          2    1    1    2  501    0 -0.20516493606E+02  0.48554010509E+01  0.11945086363E+04  0.11946946821E+04  0.00000000000E+00 0.  1.
          1    1    1    2  502    0  0.20516493606E+02 -0.48554010509E+01  0.31430928862E+03  0.31501560334E+03  0.00000000000E+00 0.  1.
</event>
<event>
 4    1  0.3586324E+003  0.3600081E+02  0.7546771E-02  0.1373661E+00
          2   -1    0    0  502    0  0.00000000000E+00  0.00000000000E+00  0.14976783201E+04  0.14976783201E+04  0.00000000000E+00 0.  1.
          1   -1    0    0  501    0 -0.00000000000E+00 -0.00000000000E+00 -0.22926880905E+01  0.22926880905E+01  0.00000000000E+00 0.  1.
          2    1    1    2  501    0 -0.26064432244E+02  0.24833515936E+02  0.13394445268E+04  0.13399282438E+04  0.00000000000E+00 0.  1.
          1    1    1    2  502    0  0.26064432244E+02 -0.24833515936E+02  0.15594110523E+03  0.16004276442E+03  0.00000000000E+00 0.  1.
</event>
<event>
 4    1  0.3586324E+003  0.2476875E+02  0.7546771E-02  0.1471407E+00
          2   -1    0    0  502    0  0.00000000000E+00  0.00000000000E+00  0.16476341473E+04  0.16476341473E+04  0.00000000000E+00 0.  1.
          1   -1    0    0  501    0 -0.00000000000E+00 -0.00000000000E+00 -0.18947774957E+02  0.18947774957E+02  0.00000000000E+00 0. -1.
          2    1    1    2  501    0 -0.24645864116E+02  0.24642101918E+01  0.16394059379E+04  0.16395930350E+04  0.00000000000E+00 0.  1.
          1    1    1    2  502    0  0.24645864116E+02 -0.24642101918E+01 -0.10719565609E+02  0.26988887282E+02  0.00000000000E+00 0. -1.
</event>
<event>
 4    1  0.3586324E+003  0.2270111E+02  0.7546771E-02  0.1496286E+00
          2   -1    0    0  502    0  0.00000000000E+00  0.00000000000E+00  0.68717477642E+00  0.68717477642E+00  0.00000000000E+00 0.  1.
          1   -1    0    0  501    0 -0.00000000000E+00 -0.00000000000E+00 -0.80974914250E+03  0.80974914250E+03  0.00000000000E+00 0.  1.
          2    1    1    2  501    0  0.16657372165E+02  0.15423091475E+02 -0.51465897627E+03  0.51515939442E+03  0.00000000000E+00 0.  1.
          1    1    1    2  502    0 -0.16657372165E+02 -0.15423091475E+02 -0.29440299145E+03  0.29527692286E+03  0.00000000000E+00 0.  1.
</event>
<event>
 4    1  0.3586324E+003  0.2587826E+02  0.7546771E-02  0.1459214E+00
          2   -1    0    0  502    0  0.00000000000E+00  0.00000000000E+00  0.12116350930E+04  0.12116350930E+04  0.00000000000E+00 0. -1.
          1   -1    0    0  501    0 -0.00000000000E+00 -0.00000000000E+00 -0.12775774674E+02  0.12775774674E+02  0.00000000000E+00 0. -1.
          2    1    1    2  501    0  0.16162707226E+02  0.20210171426E+02  0.11982459323E+04  0.11985253432E+04  0.00000000000E+00 0. -1.
          1    1    1    2  502    0 -0.16162707226E+02 -0.20210171426E+02  0.61338605700E+00  0.25885524457E+02  0.00000000000E+00 0. -1.
</event>
<event>
 4    1  0.3586324E+003  0.3318855E+02  0.7546771E-02  0.1393766E+00
          2   -1    0    0  502    0  0.00000000000E+00  0.00000000000E+00  0.88484892722E+02  0.88484892722E+02  0.00000000000E+00 0. -1.
          1   -1    0    0  501    0 -0.00000000000E+00 -0.00000000000E+00 -0.19554232868E+03  0.19554232868E+03  0.00000000000E+00 0.  1.
          2    1    1    2  501    0  0.57077367200E+01  0.32694063548E+02  0.83890272825E+02  0.90216727520E+02  0.00000000000E+00 0. -1.
          1    1    1    2  502    0 -0.57077367200E+01 -0.32694063548E+02 -0.19094770879E+03  0.19381049389E+03  0.00000000000E+00 0.  1.
</event>
<event>
 4    1  0.3586324E+003  0.3323547E+02  0.7546771E-02  0.1393411E+00
          2   -1    0    0  502    0  0.00000000000E+00  0.00000000000E+00  0.46842172754E+02  0.46842172754E+02  0.00000000000E+00 0.  1.
          1   -1    0    0  501    0 -0.00000000000E+00 -0.00000000000E+00 -0.25505699565E+02  0.25505699565E+02  0.00000000000E+00 0. -1.
          2    1    1    2  501    0  0.33190750689E+02  0.17235858160E+01  0.20604684365E+02  0.39104343713E+02  0.00000000000E+00 0.  1.
          1    1    1    2  502    0 -0.33190750689E+02 -0.17235858160E+01  0.73178882372E+00  0.33243528607E+02  0.00000000000E+00 0. -1.
</event>
<event>
 4    1  0.3883160E+003  0.2215733E+02  0.7546771E-02  0.1503360E+00
          2   -1    0    0  502    0  0.00000000000E+00  0.00000000000E+00  0.16190425553E+04  0.16190425553E+04  0.00000000000E+00 0. -1.
          1   -1    0    0  501    0 -0.00000000000E+00 -0.00000000000E+00 -0.49323743852E+03  0.49323743852E+03  0.00000000000E+00 0. -1.
          2    1    1    2  501    0  0.21676092516E+02 -0.45928613663E+01  0.16187178578E+04  0.16188694977E+04  0.00000000000E+00 0. -1.
          1    1    1    2  502    0 -0.21676092516E+02  0.45928613663E+01 -0.49291274106E+03  0.49341049610E+03  0.00000000000E+00 0. -1.
</event>
<event>
 4    1  0.3586324E+003  0.2439910E+02  0.7546771E-02  0.1475639E+00
          2   -1    0    0  502    0  0.00000000000E+00  0.00000000000E+00  0.63418348766E+03  0.63418348766E+03  0.00000000000E+00 0. -1.
          1   -1    0    0  501    0 -0.00000000000E+00 -0.00000000000E+00 -0.16535877172E+03  0.16535877172E+03  0.00000000000E+00 0. -1.
          2    1    1    2  501    0 -0.51189739511E+01  0.23856076205E+02  0.63304715711E+03  0.63351718160E+03  0.00000000000E+00 0. -1.
          1    1    1    2  502    0  0.51189739511E+01 -0.23856076205E+02 -0.16422244117E+03  0.16602507778E+03  0.00000000000E+00 0. -1.
</event>
<event>
 4    1  0.3586324E+003  0.2320583E+02  0.7546771E-02  0.1489930E+00
          2   -1    0    0  502    0  0.00000000000E+00  0.00000000000E+00  0.10056174583E+02  0.10056174583E+02  0.00000000000E+00 0. -1.
          1   -1    0    0  501    0 -0.00000000000E+00 -0.00000000000E+00 -0.63997831179E+02  0.63997831179E+02  0.00000000000E+00 0. -1.
          2    1    1    2  501    0  0.21056719195E+02  0.97532112238E+01 -0.12010399643E+02  0.26129681437E+02  0.00000000000E+00 0. -1.
          1    1    1    2  502    0 -0.21056719195E+02 -0.97532112238E+01 -0.41931256952E+02  0.47924324325E+02  0.00000000000E+00 0. -1.
</event>
<event>
 4    1  0.3586324E+003  0.7008411E+02  0.7546771E-02  0.1228951E+00
          2   -1    0    0  502    0  0.00000000000E+00  0.00000000000E+00  0.83657712480E+03  0.83657712480E+03  0.00000000000E+00 0. -1.
          1   -1    0    0  501    0 -0.00000000000E+00 -0.00000000000E+00 -0.98711490754E+01  0.98711490754E+01  0.00000000000E+00 0.  1.
          2    1    1    2  501    0  0.72813948121E+01  0.69704829255E+02  0.68276021423E+03  0.68634779235E+03  0.00000000000E+00 0. -1.
          1    1    1    2  502    0 -0.72813948121E+01 -0.69704829255E+02  0.14394576150E+03  0.16010048153E+03  0.00000000000E+00 0.  1.
</event>
<event>
 4    1  0.3586324E+003  0.2053442E+02  0.7546771E-02  0.1526017E+00
          2   -1    0    0  502    0  0.00000000000E+00  0.00000000000E+00  0.20082998557E+02  0.20082998557E+02  0.00000000000E+00 0.  1.
          1   -1    0    0  501    0 -0.00000000000E+00 -0.00000000000E+00 -0.36620550856E+03  0.36620550856E+03  0.00000000000E+00 0. -1.
          2    1    1    2  501    0 -0.13309694568E+02 -0.15636952142E+02  0.14464422121E+02  0.25117359516E+02  0.00000000000E+00 0.  1.
          1    1    1    2  502    0  0.13309694568E+02  0.15636952142E+02 -0.36058693212E+03  0.36117114760E+03  0.00000000000E+00 0. -1.
</event>
<event>
 4    1  0.3586324E+003  0.2283368E+02  0.7546771E-02  0.1494597E+00
          2   -1    0    0  502    0  0.00000000000E+00  0.00000000000E+00  0.22593123816E+03  0.22593123816E+03  0.00000000000E+00 0. -1.
          1   -1    0    0  501    0 -0.00000000000E+00 -0.00000000000E+00 -0.84302812538E+03  0.84302812538E+03  0.00000000000E+00 0. -1.
          2    1    1    2  501    0  0.10272056687E+02  0.20392685202E+02  0.22519920284E+03  0.22635383301E+03  0.00000000000E+00 0. -1.
          1    1    1    2  502    0 -0.10272056687E+02 -0.20392685202E+02 -0.84229609006E+03  0.84260553053E+03  0.00000000000E+00 0. -1.
</event>
<event>
 4    1  0.3586324E+003  0.2012916E+02  0.7546771E-02  0.1532070E+00
          2   -1    0    0  502    0  0.00000000000E+00  0.00000000000E+00  0.92760158521E+01  0.92760158521E+01  0.00000000000E+00 0. -1.
          1   -1    0    0  501    0 -0.00000000000E+00 -0.00000000000E+00 -0.30412481508E+03  0.30412481508E+03  0.00000000000E+00 0.  1.
          2    1    1    2  501    0  0.17705829787E+02 -0.95753175999E+01 -0.24132248471E+01  0.20273301896E+02  0.00000000000E+00 0. -1.
          1    1    1    2  502    0 -0.17705829787E+02  0.95753175999E+01 -0.29243557438E+03  0.29312752903E+03  0.00000000000E+00 0.  1.
</event>
<event>
 4    1  0.3586324E+003  0.2033693E+02  0.7546771E-02  0.1528946E+00
          2   -1    0    0  502    0  0.00000000000E+00  0.00000000000E+00  0.26908075955E+01  0.26908075955E+01  0.00000000000E+00 0.  1.
          1   -1    0    0  501    0 -0.00000000000E+00 -0.00000000000E+00 -0.41517659566E+03  0.41517659566E+03  0.00000000000E+00 0. -1.
          2    1    1    2  501    0  0.19427361381E+02 -0.60140075299E+01 -0.40435343991E+02  0.45261547703E+02  0.00000000000E+00 0.  1.
          1    1    1    2  502    0 -0.19427361381E+02  0.60140075299E+01 -0.37205044407E+03  0.37260585555E+03  0.00000000000E+00 0. -1.
</event>
<event>
 4    1  0.3586324E+003  0.2453695E+02  0.7546771E-02  0.1474051E+00
          2   -1    0    0  502    0  0.00000000000E+00  0.00000000000E+00  0.61835280602E+02  0.61835280602E+02  0.00000000000E+00 0.  1.
          1   -1    0    0  501    0 -0.00000000000E+00 -0.00000000000E+00 -0.97391792605E+01  0.97391792605E+01  0.00000000000E+00 0.  1.
          2    1    1    2  501    0 -0.13022456632E+02  0.20796089430E+02  0.26637123533E+02  0.36215991805E+02  0.00000000000E+00 0.  1.
          1    1    1    2  502    0  0.13022456632E+02 -0.20796089430E+02  0.25458977808E+02  0.35358468057E+02  0.00000000000E+00 0.  1.
</event>
<event>
 4    1  0.3586324E+003  0.2425115E+02  0.7546771E-02  0.1477358E+00
          2   -1    0    0  502    0  0.00000000000E+00  0.00000000000E+00  0.13771385104E+04  0.13771385104E+04  0.00000000000E+00 0. -1.
          1   -1    0    0  501    0 -0.00000000000E+00 -0.00000000000E+00 -0.11486010214E+01  0.11486010214E+01  0.00000000000E+00 0.  1.
          2    1    1    2  501    0  0.18814859539E+02  0.15300961954E+02  0.12342005407E+04  0.12344387766E+04  0.00000000000E+00 0. -1.
          1    1    1    2  502    0 -0.18814859539E+02 -0.15300961954E+02  0.14178936868E+03  0.14384833488E+03  0.00000000000E+00 0.  1.
</event>
<event>
 4    1  0.3586324E+003  0.2467291E+02  0.7546771E-02  0.1472496E+00
          2   -1    0    0  502    0  0.00000000000E+00  0.00000000000E+00  0.82891549983E+03  0.82891549983E+03  0.00000000000E+00 0. -1.
          1   -1    0    0  501    0 -0.00000000000E+00 -0.00000000000E+00 -0.21821913426E+01  0.21821913426E+01  0.00000000000E+00 0. -1.
          2    1    1    2  501    0  0.24646022330E+02 -0.11516249333E+01  0.75184366420E+03  0.75224839518E+03  0.00000000000E+00 0. -1.
          1    1    1    2  502    0 -0.24646022330E+02  0.11516249333E+01  0.74889644290E+02  0.78849295993E+02  0.00000000000E+00 0. -1.
</event>
<event>
 4    1  0.3586324E+003  0.2142729E+02  0.7546771E-02  0.1513251E+00
          2   -1    0    0  502    0  0.00000000000E+00  0.00000000000E+00  0.26864759085E+03  0.26864759085E+03  0.00000000000E+00 0.  1.
          1   -1    0    0  501    0 -0.00000000000E+00 -0.00000000000E+00 -0.22133005573E+01  0.22133005573E+01  0.00000000000E+00 0.  1.
          2    1    1    2  501    0 -0.15828827291E+02  0.14442189738E+02  0.19786066423E+03  0.19901751448E+03  0.00000000000E+00 0.  1.
          1    1    1    2  502    0  0.15828827291E+02 -0.14442189738E+02  0.68573626066E+02  0.71843376936E+02  0.00000000000E+00 0.  1.
</event>
<event>
 4    1  0.3586324E+003  0.2062713E+02  0.7546771E-02  0.1524656E+00
          2   -1    0    0  502    0  0.00000000000E+00  0.00000000000E+00  0.24406656015E+01  0.24406656015E+01  0.00000000000E+00 0. -1.
          1   -1    0    0  501    0 -0.00000000000E+00 -0.00000000000E+00 -0.31474871011E+03  0.31474871011E+03  0.00000000000E+00 0. -1.
          2    1    1    2  501    0  0.16691257008E+02  0.12119430321E+02 -0.50223580613E+02  0.54294444480E+02  0.00000000000E+00 0. -1.
          1    1    1    2  502    0 -0.16691257008E+02 -0.12119430321E+02 -0.26208446389E+03  0.26289493123E+03  0.00000000000E+00 0. -1.
</event>
<event>
 4    1  0.3586324E+003  0.2612969E+02  0.7546771E-02  0.1456552E+00
          2   -1    0    0  502    0  0.00000000000E+00  0.00000000000E+00  0.22309057266E+03  0.22309057266E+03  0.00000000000E+00 0.  1.
          1   -1    0    0  501    0 -0.00000000000E+00 -0.00000000000E+00 -0.33478243354E+02  0.33478243354E+02  0.00000000000E+00 0. -1.
          2    1    1    2  501    0  0.17722969927E+02 -0.19200440372E+02  0.21708640932E+03  0.21865330934E+03  0.00000000000E+00 0.  1.
          1    1    1    2  502    0 -0.17722969927E+02  0.19200440372E+02 -0.27474080017E+02  0.37915506673E+02  0.00000000000E+00 0. -1.
</event>
<event>
 4    1  0.3586324E+003  0.2141797E+02  0.7546771E-02  0.1513380E+00
          2   -1    0    0  502    0  0.00000000000E+00  0.00000000000E+00  0.13615744144E+04  0.13615744144E+04  0.00000000000E+00 0.  1.
          1   -1    0    0  501    0 -0.00000000000E+00 -0.00000000000E+00 -0.11577852803E+01  0.11577852803E+01  0.00000000000E+00 0.  1.
          2    1    1    2  501    0 -0.18197009685E+02  0.11295938172E+02  0.12539347192E+04  0.12541176218E+04  0.00000000000E+00 0.  1.
          1    1    1    2  502    0  0.18197009685E+02 -0.11295938172E+02  0.10648190997E+03  0.10861457790E+03  0.00000000000E+00 0.  1.
</event>
<event>
 4    1  0.3586324E+003  0.9104645E+02  0.7546771E-02  0.1180298E+00
          2   -1    0    0  502    0  0.00000000000E+00  0.00000000000E+00  0.24558657567E+03  0.24558657567E+03  0.00000000000E+00 0. -1.
          1   -1    0    0  501    0 -0.00000000000E+00 -0.00000000000E+00 -0.69114008569E+02  0.69114008569E+02  0.00000000000E+00 0. -1.
          2    1    1    2  501    0 -0.88545914886E+02 -0.21191426113E+02  0.20078551553E+03  0.22046378122E+03  0.00000000000E+00 0. -1.
          1    1    1    2  502    0  0.88545914886E+02  0.21191426113E+02 -0.24312948421E+02  0.94236803026E+02  0.00000000000E+00 0. -1.
</event>
<event>
 4    1  0.3586324E+003  0.2290891E+02  0.7546771E-02  0.1493645E+00
          2   -1    0    0  502    0  0.00000000000E+00  0.00000000000E+00  0.10665661502E+03  0.10665661502E+03  0.00000000000E+00 0. -1.
          1   -1    0    0  501    0 -0.00000000000E+00 -0.00000000000E+00 -0.52361876657E+01  0.52361876657E+01  0.00000000000E+00 0. -1.
          2    1    1    2  501    0  0.22830607924E+02  0.18925260730E+01  0.64444314193E+02  0.68395087140E+02  0.00000000000E+00 0. -1.
          1    1    1    2  502    0 -0.22830607924E+02 -0.18925260730E+01  0.36976113157E+02  0.43497715541E+02  0.00000000000E+00 0. -1.
</event>
<event>
 4    1  0.3586324E+003  0.3332491E+02  0.7546771E-02  0.1392738E+00
          2   -1    0    0  502    0  0.00000000000E+00  0.00000000000E+00  0.15739827522E+03  0.15739827522E+03  0.00000000000E+00 0.  1.
          1   -1    0    0  501    0 -0.00000000000E+00 -0.00000000000E+00 -0.59596385284E+02  0.59596385284E+02  0.00000000000E+00 0. -1.
          2    1    1    2  501    0 -0.30966028112E+02 -0.12314808413E+02  0.15077347824E+03  0.15441240606E+03  0.00000000000E+00 0.  1.
          1    1    1    2  502    0  0.30966028112E+02  0.12314808413E+02 -0.52971588309E+02  0.62582254444E+02  0.00000000000E+00 0. -1.
</event>
<event>
 4    1  0.3586324E+003  0.2106105E+02  0.7546771E-02  0.1518395E+00
          2   -1    0    0  502    0  0.00000000000E+00  0.00000000000E+00  0.11582034264E+04  0.11582034264E+04  0.00000000000E+00 0. -1.
          1   -1    0    0  501    0 -0.00000000000E+00 -0.00000000000E+00 -0.56779732576E+01  0.56779732576E+01  0.00000000000E+00 0. -1.
          2    1    1    2  501    0  0.13531959007E+02 -0.16138582779E+02  0.11382348863E+04  0.11384297186E+04  0.00000000000E+00 0. -1.
          1    1    1    2  502    0 -0.13531959007E+02  0.16138582779E+02  0.14290566841E+02  0.25451681071E+02  0.00000000000E+00 0. -1.
</event>
<event>
 4    1  0.3586324E+003  0.2256137E+02  0.7546771E-02  0.1498081E+00
          2   -1    0    0  502    0  0.00000000000E+00  0.00000000000E+00  0.26928886682E+00  0.26928886682E+00  0.00000000000E+00 0. -1.
          1   -1    0    0  501    0 -0.00000000000E+00 -0.00000000000E+00 -0.18968114082E+04  0.18968114082E+04  0.00000000000E+00 0. -1.
          2    1    1    2  501    0  0.18686097756E+02  0.12642987734E+02 -0.89235841453E+03  0.89264357690E+03  0.00000000000E+00 0. -1.
          1    1    1    2  502    0 -0.18686097756E+02 -0.12642987734E+02 -0.10041837048E+04  0.10044371201E+04  0.00000000000E+00 0. -1.
</event>
<event>
 4    1  0.3586324E+003  0.6804050E+02  0.7546771E-02  0.1234716E+00
          2   -1    0    0  502    0  0.00000000000E+00  0.00000000000E+00  0.12289437954E+04  0.12289437954E+04  0.00000000000E+00 0. -1.
          1   -1    0    0  501    0 -0.00000000000E+00 -0.00000000000E+00 -0.15209095334E+03  0.15209095334E+03  0.00000000000E+00 0. -1.
          2    1    1    2  501    0 -0.62347846823E+02 -0.27244360040E+02  0.12203386405E+04  0.12222339820E+04  0.00000000000E+00 0. -1.
          1    1    1    2  502    0  0.62347846823E+02  0.27244360040E+02 -0.14348579847E+03  0.15880076675E+03  0.00000000000E+00 0. -1.
</event>
<event>
 4    1  0.3586324E+003  0.2104790E+02  0.7546771E-02  0.1518582E+00
          2   -1    0    0  502    0  0.00000000000E+00  0.00000000000E+00  0.39041572008E+01  0.39041572008E+01  0.00000000000E+00 0. -1.
          1   -1    0    0  501    0 -0.00000000000E+00 -0.00000000000E+00 -0.15094243865E+03  0.15094243865E+03  0.00000000000E+00 0. -1.
          2    1    1    2  501    0 -0.20950673399E+02  0.20206905012E+01 -0.34943928366E+02  0.40793284197E+02  0.00000000000E+00 0. -1.
          1    1    1    2  502    0  0.20950673399E+02 -0.20206905012E+01 -0.11209435309E+03  0.11405331166E+03  0.00000000000E+00 0. -1.
</event>
<event>
 4    1  0.3586324E+003  0.3099918E+02  0.7546771E-02  0.1411108E+00
          2   -1    0    0  502    0  0.00000000000E+00  0.00000000000E+00  0.19232538810E+04  0.19232538810E+04  0.00000000000E+00 0. -1.
          1   -1    0    0  501    0 -0.00000000000E+00 -0.00000000000E+00 -0.12762137320E+01  0.12762137320E+01  0.00000000000E+00 0.  1.
          2    1    1    2  501    0  0.11283812455E+02 -0.28872564596E+02  0.17116123993E+04  0.17118930909E+04  0.00000000000E+00 0. -1.
          1    1    1    2  502    0 -0.11283812455E+02  0.28872564596E+02  0.21036526804E+03  0.21263700386E+03  0.00000000000E+00 0.  1.
</event>
<event>
 4    1  0.4509963E+003  0.2432452E+02  0.7546771E-02  0.1476504E+00
          2   -1    0    0  502    0  0.00000000000E+00  0.00000000000E+00  0.78652939942E+03  0.78652939942E+03  0.00000000000E+00 0.  1.
          1   -1    0    0  501    0 -0.00000000000E+00 -0.00000000000E+00 -0.11215914707E+04  0.11215914707E+04  0.00000000000E+00 0.  1.
          2    1    1    2  501    0 -0.29092406438E+01 -0.24149917345E+02  0.78620939382E+03  0.78658559174E+03  0.00000000000E+00 0.  1.
          1    1    1    2  502    0  0.29092406438E+01  0.24149917345E+02 -0.11212714651E+04  0.11215352784E+04  0.00000000000E+00 0.  1.
</event>
<event>
 4    1  0.3586324E+003  0.2884000E+02  0.7546771E-02  0.1429952E+00
          2   -1    0    0  502    0  0.00000000000E+00  0.00000000000E+00  0.17151752757E+03  0.17151752757E+03  0.00000000000E+00 0.  1.
          1   -1    0    0  501    0 -0.00000000000E+00 -0.00000000000E+00 -0.14844084476E+02  0.14844084476E+02  0.00000000000E+00 0. -1.
          2    1    1    2  501    0 -0.11081192331E+02  0.26626170416E+02  0.15479697491E+03  0.15746062751E+03  0.00000000000E+00 0.  1.
          1    1    1    2  502    0  0.11081192331E+02 -0.26626170416E+02  0.18764681876E+01  0.28900984540E+02  0.00000000000E+00 0. -1.
</event>
<event>
 4    1  0.3586324E+003  0.2280056E+02  0.7546771E-02  0.1495018E+00
          2   -1    0    0  502    0  0.00000000000E+00  0.00000000000E+00  0.13700404987E+03  0.13700404987E+03  0.00000000000E+00 0.  1.
          1   -1    0    0  501    0 -0.00000000000E+00 -0.00000000000E+00 -0.18781151629E+03  0.18781151629E+03  0.00000000000E+00 0.  1.
          2    1    1    2  501    0 -0.14281147786E+02  0.17773975628E+02  0.13535504269E+03  0.13726198663E+03  0.00000000000E+00 0.  1.
          1    1    1    2  502    0  0.14281147786E+02 -0.17773975628E+02 -0.18616250912E+03  0.18755357953E+03  0.00000000000E+00 0.  1.
</event>
<event>
 4    1  0.3586324E+003  0.2212714E+02  0.7546771E-02  0.1503760E+00
          2   -1    0    0  502    0  0.00000000000E+00  0.00000000000E+00  0.50020811994E+03  0.50020811994E+03  0.00000000000E+00 0. -1.
          1   -1    0    0  501    0 -0.00000000000E+00 -0.00000000000E+00 -0.23281065911E+02  0.23281065911E+02  0.00000000000E+00 0.  1.
          2    1    1    2  501    0 -0.15748721252E+02 -0.15543098304E+02  0.49464673434E+03  0.49514139588E+03  0.00000000000E+00 0. -1.
          1    1    1    2  502    0  0.15748721252E+02  0.15543098304E+02 -0.17719680307E+02  0.28347789969E+02  0.00000000000E+00 0.  1.
</event>
<event>
 4    1  0.3586324E+003  0.2761483E+02  0.7546771E-02  0.1441528E+00
          2   -1    0    0  502    0  0.00000000000E+00  0.00000000000E+00  0.61821269903E+02  0.61821269903E+02  0.00000000000E+00 0. -1.
          1   -1    0    0  501    0 -0.00000000000E+00 -0.00000000000E+00 -0.35966722853E+02  0.35966722853E+02  0.00000000000E+00 0. -1.
          2    1    1    2  501    0  0.11215467000E+02  0.25234737939E+02  0.52559713648E+02  0.59372571089E+02  0.00000000000E+00 0. -1.
          1    1    1    2  502    0 -0.11215467000E+02 -0.25234737939E+02 -0.26705166598E+02  0.38415421668E+02  0.00000000000E+00 0. -1.
</event>
<event>
 4    1  0.3586324E+003  0.2165987E+02  0.7546771E-02  0.1510048E+00
          2   -1    0    0  502    0  0.00000000000E+00  0.00000000000E+00  0.18981681566E+03  0.18981681566E+03  0.00000000000E+00 0.  1.
          1   -1    0    0  501    0 -0.00000000000E+00 -0.00000000000E+00 -0.11565959844E+02  0.11565959844E+02  0.00000000000E+00 0.  1.
          2    1    1    2  501    0 -0.10346710004E+02  0.19028811264E+02  0.17841231900E+03  0.17972230145E+03  0.00000000000E+00 0.  1.
          1    1    1    2  502    0  0.10346710004E+02 -0.19028811264E+02 -0.16146318435E+00  0.21660474057E+02  0.00000000000E+00 0.  1.
</event>
<event>
 4    1  0.3586324E+003  0.2094400E+02  0.7546771E-02  0.1520066E+00
          2   -1    0    0  502    0  0.00000000000E+00  0.00000000000E+00  0.28648719419E+03  0.28648719419E+03  0.00000000000E+00 0. -1.
          1   -1    0    0  501    0 -0.00000000000E+00 -0.00000000000E+00 -0.65424876680E+01  0.65424876680E+01  0.00000000000E+00 0.  1.
          2    1    1    2  501    0 -0.99628193111E+01  0.18422637306E+02  0.26820172942E+03  0.26901825031E+03  0.00000000000E+00 0. -1.
          1    1    1    2  502    0  0.99628193111E+01 -0.18422637306E+02  0.11742977101E+02  0.24011431551E+02  0.00000000000E+00 0.  1.
</event>
<event>
 4    1  0.3586324E+003  0.2596240E+02  0.7546771E-02  0.1458319E+00
          2   -1    0    0  502    0  0.00000000000E+00  0.00000000000E+00  0.10973227667E+02  0.10973227667E+02  0.00000000000E+00 0. -1.
          1   -1    0    0  501    0 -0.00000000000E+00 -0.00000000000E+00 -0.10906814643E+03  0.10906814643E+03  0.00000000000E+00 0. -1.
          2    1    1    2  501    0  0.21308479528E+02  0.14832227063E+02 -0.93789691354E+01  0.27604552550E+02  0.00000000000E+00 0. -1.
          1    1    1    2  502    0 -0.21308479528E+02 -0.14832227063E+02 -0.88715949629E+02  0.92436821549E+02  0.00000000000E+00 0. -1.
</event>
<event>
 4    1  0.3586324E+003  0.3136089E+02  0.7546771E-02  0.1408128E+00
          2   -1    0    0  502    0  0.00000000000E+00  0.00000000000E+00  0.44359010521E+02  0.44359010521E+02  0.00000000000E+00 0.  1.
          1   -1    0    0  501    0 -0.00000000000E+00 -0.00000000000E+00 -0.40978634933E+03  0.40978634933E+03  0.00000000000E+00 0. -1.
          2    1    1    2  501    0 -0.29287997549E+02  0.11212432792E+02  0.38130709395E+02  0.49370603080E+02  0.00000000000E+00 0.  1.
          1    1    1    2  502    0  0.29287997549E+02 -0.11212432792E+02 -0.40355804820E+03  0.40477475677E+03  0.00000000000E+00 0. -1.
</event>
<event>
 4    1  0.3586324E+003  0.2030727E+02  0.7546771E-02  0.1529389E+00
          2   -1    0    0  502    0  0.00000000000E+00  0.00000000000E+00  0.20336431202E+02  0.20336431202E+02  0.00000000000E+00 0.  1.
          1   -1    0    0  501    0 -0.00000000000E+00 -0.00000000000E+00 -0.20784527556E+02  0.20784527556E+02  0.00000000000E+00 0. -1.
          2    1    1    2  501    0 -0.11115048207E+02 -0.16995322533E+02  0.29851655964E+01  0.20525508478E+02  0.00000000000E+00 0.  1.
          1    1    1    2  502    0  0.11115048207E+02  0.16995322533E+02 -0.34332619498E+01  0.20595450280E+02  0.00000000000E+00 0. -1.
</event>
<event>
 4    1  0.3586324E+003  0.4147584E+02  0.7546771E-02  0.1340048E+00
          2   -1    0    0  502    0  0.00000000000E+00  0.00000000000E+00  0.61782073135E+03  0.61782073135E+03  0.00000000000E+00 0. -1.
          1   -1    0    0  501    0 -0.00000000000E+00 -0.00000000000E+00 -0.72511713573E+02  0.72511713573E+02  0.00000000000E+00 0. -1.
          2    1    1    2  501    0  0.15716176052E+02  0.38382903351E+02  0.61112884536E+03  0.61253466113E+03  0.00000000000E+00 0. -1.
          1    1    1    2  502    0 -0.15716176052E+02 -0.38382903351E+02 -0.65819827583E+02  0.77797783789E+02  0.00000000000E+00 0. -1.
</event>
<event>
 4    1  0.3586324E+003  0.2711769E+02  0.7546771E-02  0.1446430E+00
          2   -1    0    0  502    0  0.00000000000E+00  0.00000000000E+00  0.79548010012E+02  0.79548010012E+02  0.00000000000E+00 0. -1.
          1   -1    0    0  501    0 -0.00000000000E+00 -0.00000000000E+00 -0.56230099689E+03  0.56230099689E+03  0.00000000000E+00 0. -1.
          2    1    1    2  501    0 -0.22204687908E+02  0.15566653120E+02  0.76899046239E+02  0.81540371393E+02  0.00000000000E+00 0. -1.
          1    1    1    2  502    0  0.22204687908E+02 -0.15566653120E+02 -0.55965203312E+03  0.56030863551E+03  0.00000000000E+00 0. -1.
</event>
<event>
 4    1  0.3586324E+003  0.4946058E+02  0.7546771E-02  0.1300528E+00
          2   -1    0    0  502    0  0.00000000000E+00  0.00000000000E+00  0.22288392516E+02  0.22288392516E+02  0.00000000000E+00 0.  1.
          1   -1    0    0  501    0 -0.00000000000E+00 -0.00000000000E+00 -0.56206157516E+03  0.56206157516E+03  0.00000000000E+00 0.  1.
          2    1    1    2  501    0  0.37614324794E+02 -0.32117148365E+02 -0.77874030227E+01  0.50069874123E+02  0.00000000000E+00 0.  1.
          1    1    1    2  502    0 -0.37614324794E+02  0.32117148365E+02 -0.53198577962E+03  0.53428009356E+03  0.00000000000E+00 0.  1.
</event>
<event>
 4    1  0.3586324E+003  0.2590428E+02  0.7546771E-02  0.1458936E+00
          2   -1    0    0  502    0  0.00000000000E+00  0.00000000000E+00  0.66715333856E+03  0.66715333856E+03  0.00000000000E+00 0. -1.
          1   -1    0    0  501    0 -0.00000000000E+00 -0.00000000000E+00 -0.57738859677E+01  0.57738859677E+01  0.00000000000E+00 0. -1.
          2    1    1    2  501    0 -0.16849919155E+01 -0.25849424943E+02  0.63644602792E+03  0.63697298092E+03  0.00000000000E+00 0. -1.
          1    1    1    2  502    0  0.16849919155E+01  0.25849424943E+02  0.24933424679E+02  0.35954243614E+02  0.00000000000E+00 0. -1.
</event>
<event>
 4    1  0.3586324E+003  0.3592151E+02  0.7546771E-02  0.1374198E+00
          2   -1    0    0  502    0  0.00000000000E+00  0.00000000000E+00  0.78891186240E+03  0.78891186240E+03  0.00000000000E+00 0. -1.
          1   -1    0    0  501    0 -0.00000000000E+00 -0.00000000000E+00 -0.44955380056E+01  0.44955380056E+01  0.00000000000E+00 0. -1.
          2    1    1    2  501    0 -0.71733766698E+01 -0.35197974240E+02  0.70861999424E+03  0.70952988024E+03  0.00000000000E+00 0. -1.
          1    1    1    2  502    0  0.71733766698E+01  0.35197974240E+02  0.75796330155E+02  0.83877520161E+02  0.00000000000E+00 0. -1.
</event>
<event>
 4    1  0.3586324E+003  0.2573890E+02  0.7546771E-02  0.1460705E+00
          2   -1    0    0  502    0  0.00000000000E+00  0.00000000000E+00  0.97386460489E+03  0.97386460489E+03  0.00000000000E+00 0.  1.
          1   -1    0    0  501    0 -0.00000000000E+00 -0.00000000000E+00 -0.71901899783E+00  0.71901899783E+00  0.00000000000E+00 0.  1.
          2    1    1    2  501    0  0.10686609542E+02 -0.23415534507E+02  0.59969533084E+03  0.60024743290E+03  0.00000000000E+00 0.  1.
          1    1    1    2  502    0 -0.10686609542E+02  0.23415534507E+02  0.37345025506E+03  0.37433619098E+03  0.00000000000E+00 0.  1.
</event>
<event>
 4    1  0.3586324E+003  0.4148102E+02  0.7546771E-02  0.1340019E+00
          2   -1    0    0  502    0  0.00000000000E+00  0.00000000000E+00  0.16957799090E+04  0.16957799090E+04  0.00000000000E+00 0.  1.
          1   -1    0    0  501    0 -0.00000000000E+00 -0.00000000000E+00 -0.11198067392E+02  0.11198067392E+02  0.00000000000E+00 0. -1.
          2    1    1    2  501    0  0.25388707856E+02 -0.32803785876E+02  0.16561936507E+04  0.16567130360E+04  0.00000000000E+00 0.  1.
          1    1    1    2  502    0 -0.25388707856E+02  0.32803785876E+02  0.28388190896E+02  0.50264940433E+02  0.00000000000E+00 0. -1.
</event>
<event>
 4    1  0.3586324E+003  0.2837908E+02  0.7546771E-02  0.1434226E+00
          2   -1    0    0  502    0  0.00000000000E+00  0.00000000000E+00  0.13052679697E+04  0.13052679697E+04  0.00000000000E+00 0.  1.
          1   -1    0    0  501    0 -0.00000000000E+00 -0.00000000000E+00 -0.61702055497E+00  0.61702055497E+00  0.00000000000E+00 0.  1.
          2    1    1    2  501    0  0.17973141868E+02  0.21962183756E+02  0.65056976201E+03  0.65118844169E+03  0.00000000000E+00 0.  1.
          1    1    1    2  502    0 -0.17973141868E+02 -0.21962183756E+02  0.65408118716E+03  0.65469654859E+03  0.00000000000E+00 0.  1.
</event>
<event>
 4    1  0.3586324E+003  0.2276385E+02  0.7546771E-02  0.1495485E+00
          2   -1    0    0  502    0  0.00000000000E+00  0.00000000000E+00  0.46537700850E+03  0.46537700850E+03  0.00000000000E+00 0. -1.
          1   -1    0    0  501    0 -0.00000000000E+00 -0.00000000000E+00 -0.34778231365E+03  0.34778231365E+03  0.00000000000E+00 0.  1.
          2    1    1    2  501    0  0.24179335115E+01 -0.22635073897E+02  0.46472561594E+03  0.46528280764E+03  0.00000000000E+00 0. -1.
          1    1    1    2  502    0 -0.24179335115E+01  0.22635073897E+02 -0.34713092109E+03  0.34787651451E+03  0.00000000000E+00 0.  1.
</event>
<event>
 4    1  0.3586324E+003  0.3163418E+02  0.7546771E-02  0.1405908E+00
          2   -1    0    0  502    0  0.00000000000E+00  0.00000000000E+00  0.37843553157E+02  0.37843553157E+02  0.00000000000E+00 0. -1.
          1   -1    0    0  501    0 -0.00000000000E+00 -0.00000000000E+00 -0.43901272561E+03  0.43901272561E+03  0.00000000000E+00 0. -1.
          2    1    1    2  501    0  0.27446012997E+02  0.15730155273E+02  0.30551254918E+02  0.43978410515E+02  0.00000000000E+00 0. -1.
          1    1    1    2  502    0 -0.27446012997E+02 -0.15730155273E+02 -0.43172042737E+03  0.43287786826E+03  0.00000000000E+00 0. -1.
</event>
<event>
 4    1  0.3586324E+003  0.2015782E+02  0.7546771E-02  0.1531637E+00
          2   -1    0    0  502    0  0.00000000000E+00  0.00000000000E+00  0.20565668521E+03  0.20565668521E+03  0.00000000000E+00 0. -1.
          1   -1    0    0  501    0 -0.00000000000E+00 -0.00000000000E+00 -0.48982982048E+02  0.48982982048E+02  0.00000000000E+00 0. -1.
          2    1    1    2  501    0 -0.18651158523E+02 -0.76467017715E+01  0.20306243144E+03  0.20406050285E+03  0.00000000000E+00 0. -1.
          1    1    1    2  502    0  0.18651158523E+02  0.76467017715E+01 -0.46388728270E+02  0.50579164413E+02  0.00000000000E+00 0. -1.
</event>
<event>
 4    1  0.3586324E+003  0.4029895E+02  0.7546771E-02  0.1346743E+00
          2   -1    0    0  502    0  0.00000000000E+00  0.00000000000E+00  0.40479233552E+02  0.40479233552E+02  0.00000000000E+00 0.  1.
          1   -1    0    0  501    0 -0.00000000000E+00 -0.00000000000E+00 -0.74862391788E+03  0.74862391788E+03  0.00000000000E+00 0. -1.
          2    1    1    2  501    0 -0.31858106425E+02  0.24679263404E+02  0.29761467563E+02  0.50097404510E+02  0.00000000000E+00 0.  1.
          1    1    1    2  502    0  0.31858106425E+02 -0.24679263404E+02 -0.73790615189E+03  0.73900574693E+03  0.00000000000E+00 0. -1.
</event>
<event>
 4    1  0.3586324E+003  0.2429704E+02  0.7546771E-02  0.1476823E+00
          2   -1    0    0  502    0  0.00000000000E+00  0.00000000000E+00  0.23053327507E+02  0.23053327507E+02  0.00000000000E+00 0. -1.
          1   -1    0    0  501    0 -0.00000000000E+00 -0.00000000000E+00 -0.17075916613E+04  0.17075916613E+04  0.00000000000E+00 0.  1.
          2    1    1    2  501    0 -0.20127660364E+02 -0.13609673851E+02  0.16540427911E+02  0.29392714906E+02  0.00000000000E+00 0. -1.
          1    1    1    2  502    0  0.20127660364E+02  0.13609673851E+02 -0.17010787617E+04  0.17012522739E+04  0.00000000000E+00 0.  1.
</event>
<event>
 4    1  0.3586324E+003  0.2409120E+02  0.7546771E-02  0.1479232E+00
          2   -1    0    0  502    0  0.00000000000E+00  0.00000000000E+00  0.47368676973E+03  0.47368676973E+03  0.00000000000E+00 0.  1.
          1   -1    0    0  501    0 -0.00000000000E+00 -0.00000000000E+00 -0.19966196294E+02  0.19966196294E+02  0.00000000000E+00 0. -1.
          2    1    1    2  501    0 -0.21927932447E+02 -0.99775501186E+01  0.46599345623E+03  0.46661578089E+03  0.00000000000E+00 0.  1.
          1    1    1    2  502    0  0.21927932447E+02  0.99775501186E+01 -0.12272882795E+02  0.27037185132E+02  0.00000000000E+00 0. -1.
</event>
<event>
 4    1  0.3586324E+003  0.3110037E+02  0.7546771E-02  0.1410269E+00
          2   -1    0    0  502    0  0.00000000000E+00  0.00000000000E+00  0.17538584713E+04  0.17538584713E+04  0.00000000000E+00 0.  1.
          1   -1    0    0  501    0 -0.00000000000E+00 -0.00000000000E+00 -0.39430442491E+01  0.39430442491E+01  0.00000000000E+00 0. -1.
          2    1    1    2  501    0 -0.15024835272E+02 -0.27230269809E+02  0.16900813293E+04  0.16903674550E+04  0.00000000000E+00 0.  1.
          1    1    1    2  502    0  0.15024835272E+02  0.27230269809E+02  0.59834097757E+02  0.67434060557E+02  0.00000000000E+00 0. -1.
</event>
<event>
 4    1  0.3586324E+003  0.2527356E+02  0.7546771E-02  0.1465766E+00
          2   -1    0    0  502    0  0.00000000000E+00  0.00000000000E+00  0.14200651419E+04  0.14200651419E+04  0.00000000000E+00 0. -1.
          1   -1    0    0  501    0 -0.00000000000E+00 -0.00000000000E+00 -0.96669674401E+01  0.96669674401E+01  0.00000000000E+00 0. -1.
          2    1    1    2  501    0  0.13873535248E+02  0.21125289185E+02  0.14032356333E+04  0.14034632148E+04  0.00000000000E+00 0. -1.
          1    1    1    2  502    0 -0.13873535248E+02 -0.21125289185E+02  0.71625411761E+01  0.26268894524E+02  0.00000000000E+00 0. -1.
</event>
<event>
 4    1  0.3586324E+003  0.2433381E+02  0.7546771E-02  0.1476396E+00
          2   -1    0    0  502    0  0.00000000000E+00  0.00000000000E+00  0.95949922305E+03  0.95949922305E+03  0.00000000000E+00 0.  1.
          1   -1    0    0  501    0 -0.00000000000E+00 -0.00000000000E+00 -0.15800980234E+01  0.15800980234E+01  0.00000000000E+00 0. -1.
          2    1    1    2  501    0  0.23252054685E+02 -0.71747097781E+01  0.85409962696E+03  0.85444619918E+03  0.00000000000E+00 0.  1.
          1    1    1    2  502    0 -0.23252054685E+02  0.71747097781E+01  0.10381949806E+03  0.10663312190E+03  0.00000000000E+00 0. -1.
</event>
<event>
 4    1  0.3586324E+003  0.2838919E+02  0.7546771E-02  0.1434131E+00
          2   -1    0    0  502    0  0.00000000000E+00  0.00000000000E+00  0.89445719506E+03  0.89445719506E+03  0.00000000000E+00 0.  1.
          1   -1    0    0  501    0 -0.00000000000E+00 -0.00000000000E+00 -0.60140776043E+02  0.60140776043E+02  0.00000000000E+00 0.  1.
          2    1    1    2  501    0  0.17940398848E+02 -0.22002002469E+02  0.89086819242E+03  0.89132041505E+03  0.00000000000E+00 0.  1.
          1    1    1    2  502    0 -0.17940398848E+02  0.22002002469E+02 -0.56551773408E+02  0.63277556046E+02  0.00000000000E+00 0.  1.
</event>
<event>
 4    1  0.3586324E+003  0.5092498E+02  0.7546771E-02  0.1294211E+00
          2   -1    0    0  502    0  0.00000000000E+00  0.00000000000E+00  0.80416479643E+02  0.80416479643E+02  0.00000000000E+00 0.  1.
          1   -1    0    0  501    0 -0.00000000000E+00 -0.00000000000E+00 -0.46308404451E+02  0.46308404451E+02  0.00000000000E+00 0.  1.
          2    1    1    2  501    0 -0.22571400404E+02 -0.45649593803E+02  0.51966862025E+02  0.72759248754E+02  0.00000000000E+00 0.  1.
          1    1    1    2  502    0  0.22571400404E+02  0.45649593803E+02 -0.17858786833E+02  0.53965635340E+02  0.00000000000E+00 0.  1.
</event>
<event>
 4    1  0.3586324E+003  0.2210607E+02  0.7546771E-02  0.1504039E+00
          2   -1    0    0  502    0  0.00000000000E+00  0.00000000000E+00  0.12807294359E+04  0.12807294359E+04  0.00000000000E+00 0.  1.
          1   -1    0    0  501    0 -0.00000000000E+00 -0.00000000000E+00 -0.96888185497E+02  0.96888185497E+02  0.00000000000E+00 0.  1.
          2    1    1    2  501    0 -0.20750328768E+02  0.76224673138E+01  0.12793717740E+04  0.12795627434E+04  0.00000000000E+00 0.  1.
          1    1    1    2  502    0  0.20750328768E+02 -0.76224673138E+01 -0.95530523626E+02  0.98054877982E+02  0.00000000000E+00 0.  1.
</event>
<event>
 4    1  0.3586324E+003  0.6131944E+02  0.7546771E-02  0.1255414E+00
          2   -1    0    0  502    0  0.00000000000E+00  0.00000000000E+00  0.23941110364E+02  0.23941110364E+02  0.00000000000E+00 0.  1.
          1   -1    0    0  501    0 -0.00000000000E+00 -0.00000000000E+00 -0.53173747000E+03  0.53173747000E+03  0.00000000000E+00 0.  1.
          2    1    1    2  501    0 -0.73031813039E+00 -0.61315087965E+02 -0.20672342885E+02  0.64710270723E+02  0.00000000000E+00 0.  1.
          1    1    1    2  502    0  0.73031813039E+00  0.61315087965E+02 -0.48712401675E+03  0.49096830964E+03  0.00000000000E+00 0.  1.
</event>
<event>
 4    1  0.3586324E+003  0.2786638E+02  0.7546771E-02  0.1439094E+00
          2   -1    0    0  502    0  0.00000000000E+00  0.00000000000E+00  0.20938646163E+04  0.20938646163E+04  0.00000000000E+00 0.  1.
          1   -1    0    0  501    0 -0.00000000000E+00 -0.00000000000E+00 -0.10759573576E+01  0.10759573576E+01  0.00000000000E+00 0.  1.
          2    1    1    2  501    0 -0.23202235301E+02 -0.15433455346E+02  0.18943400336E+04  0.18945449845E+04  0.00000000000E+00 0.  1.
          1    1    1    2  502    0  0.23202235301E+02  0.15433455346E+02  0.19844862531E+03  0.20039558916E+03  0.00000000000E+00 0.  1.
</event>
<event>
 4    1  0.3586324E+003  0.2386298E+02  0.7546771E-02  0.1481937E+00
          2   -1    0    0  502    0  0.00000000000E+00  0.00000000000E+00  0.52254610928E+03  0.52254610928E+03  0.00000000000E+00 0. -1.
          1   -1    0    0  501    0 -0.00000000000E+00 -0.00000000000E+00 -0.10898348554E+01  0.10898348554E+01  0.00000000000E+00 0.  1.
          2    1    1    2  501    0 -0.21872943005E+02  0.95402353594E+01  0.26311264082E+03  0.26419255002E+03  0.00000000000E+00 0. -1.
          1    1    1    2  502    0  0.21872943005E+02 -0.95402353594E+01  0.25834363360E+03  0.25944339411E+03  0.00000000000E+00 0.  1.
</event>
<event>
 4    1  0.3586324E+003  0.2082606E+02  0.7546771E-02  0.1521763E+00
          2   -1    0    0  502    0  0.00000000000E+00  0.00000000000E+00  0.14510494879E+03  0.14510494879E+03  0.00000000000E+00 0.  1.
          1   -1    0    0  501    0 -0.00000000000E+00 -0.00000000000E+00 -0.65201426492E+01  0.65201426492E+01  0.00000000000E+00 0. -1.
          2    1    1    2  501    0 -0.13353804271E+02 -0.15981258886E+02  0.12508384760E+03  0.12680573195E+03  0.00000000000E+00 0.  1.
          1    1    1    2  502    0  0.13353804271E+02  0.15981258886E+02  0.13500958539E+02  0.24819359491E+02  0.00000000000E+00 0. -1.
</event>
<event>
 4    1  0.3586324E+003  0.2357805E+02  0.7546771E-02  0.1485364E+00
          2   -1    0    0  502    0  0.00000000000E+00  0.00000000000E+00  0.13691171800E+04  0.13691171800E+04  0.00000000000E+00 0. -1.
          1   -1    0    0  501    0 -0.00000000000E+00 -0.00000000000E+00 -0.89123946907E+00  0.89123946907E+00  0.00000000000E+00 0.  1.
          2    1    1    2  501    0  0.18368294673E+02 -0.14782766279E+02  0.11895342807E+04  0.11897679308E+04  0.00000000000E+00 0. -1.
          1    1    1    2  502    0 -0.18368294673E+02  0.14782766279E+02  0.17869165987E+03  0.18024048862E+03  0.00000000000E+00 0.  1.
</event>
<event>
 4    1  0.3586324E+003  0.2489805E+02  0.7546771E-02  0.1469947E+00
          2   -1    0    0  502    0  0.00000000000E+00  0.00000000000E+00  0.80472587726E+02  0.80472587726E+02  0.00000000000E+00 0. -1.
          1   -1    0    0  501    0 -0.00000000000E+00 -0.00000000000E+00 -0.98116033407E+02  0.98116033407E+02  0.00000000000E+00 0.  1.
          2    1    1    2  501    0  0.19846473509E+02 -0.15034314618E+02  0.76895548775E+02  0.80825976940E+02  0.00000000000E+00 0. -1.
          1    1    1    2  502    0 -0.19846473509E+02  0.15034314618E+02 -0.94538994457E+02  0.97762644193E+02  0.00000000000E+00 0.  1.
</event>
<event>
 4    1  0.3586324E+003  0.2334019E+02  0.7546771E-02  0.1488270E+00
          2   -1    0    0  502    0  0.00000000000E+00  0.00000000000E+00  0.10375531617E+04  0.10375531617E+04  0.00000000000E+00 0. -1.
          1   -1    0    0  501    0 -0.00000000000E+00 -0.00000000000E+00 -0.18211032533E+02  0.18211032533E+02  0.00000000000E+00 0. -1.
          2    1    1    2  501    0  0.19345662139E+02  0.13057938348E+02  0.10298877508E+04  0.10301521944E+04  0.00000000000E+00 0. -1.
          1    1    1    2  502    0 -0.19345662139E+02 -0.13057938348E+02 -0.10545621659E+02  0.25611999798E+02  0.00000000000E+00 0. -1.
</event>
<event>
 4    1  0.3586324E+003  0.4216201E+02  0.7546771E-02  0.1336262E+00
          2   -1    0    0  502    0  0.00000000000E+00  0.00000000000E+00  0.21526457634E+04  0.21526457634E+04  0.00000000000E+00 0. -1.
          1   -1    0    0  501    0 -0.00000000000E+00 -0.00000000000E+00 -0.83120081606E+00  0.83120081606E+00  0.00000000000E+00 0. -1.
          2    1    1    2  501    0 -0.27605907358E+02  0.31867677089E+02  0.11627750070E+04  0.11635391493E+04  0.00000000000E+00 0. -1.
          1    1    1    2  502    0  0.27605907358E+02 -0.31867677089E+02  0.98903955561E+03  0.98993781498E+03  0.00000000000E+00 0. -1.
</event>
<event>
 4    1  0.3586324E+003  0.3170060E+02  0.7546771E-02  0.1405372E+00
          2   -1    0    0  502    0  0.00000000000E+00  0.00000000000E+00  0.22675092648E+04  0.22675092648E+04  0.00000000000E+00 0. -1.
          1   -1    0    0  501    0 -0.00000000000E+00 -0.00000000000E+00 -0.62339899562E+00  0.62339899562E+00  0.00000000000E+00 0. -1.
          2    1    1    2  501    0  0.31699864724E+02 -0.21522875494E+00  0.17431886907E+04  0.17434769110E+04  0.00000000000E+00 0. -1.
          1    1    1    2  502    0 -0.31699864724E+02  0.21522875494E+00  0.52369717510E+03  0.52465575280E+03  0.00000000000E+00 0. -1.
</event>
<event>
 4    1  0.3586324E+003  0.2127424E+02  0.7546771E-02  0.1515385E+00
          2   -1    0    0  502    0  0.00000000000E+00  0.00000000000E+00  0.34200986155E+03  0.34200986155E+03  0.00000000000E+00 0. -1.
          1   -1    0    0  501    0 -0.00000000000E+00 -0.00000000000E+00 -0.57200458526E+02  0.57200458526E+02  0.00000000000E+00 0. -1.
          2    1    1    2  501    0  0.21113424022E+02 -0.26108912413E+01  0.33968741460E+03  0.34035295366E+03  0.00000000000E+00 0. -1.
          1    1    1    2  502    0 -0.21113424022E+02  0.26108912413E+01 -0.54878011575E+02  0.58857366416E+02  0.00000000000E+00 0. -1.
</event>
<event>
 4    1  0.3586324E+003  0.2873618E+02  0.7546771E-02  0.1430906E+00
          2   -1    0    0  502    0  0.00000000000E+00  0.00000000000E+00  0.13462206906E+03  0.13462206906E+03  0.00000000000E+00 0. -1.
          1   -1    0    0  501    0 -0.00000000000E+00 -0.00000000000E+00 -0.37425254790E+03  0.37425254790E+03  0.00000000000E+00 0. -1.
          2    1    1    2  501    0  0.46045142841E+01  0.28364882199E+02  0.13252834993E+03  0.13560800725E+03  0.00000000000E+00 0. -1.
          1    1    1    2  502    0 -0.46045142841E+01 -0.28364882199E+02 -0.37215882877E+03  0.37326660972E+03  0.00000000000E+00 0. -1.
</event>
<event>
 4    1  0.3586324E+003  0.2214323E+02  0.7546771E-02  0.1503546E+00
          2   -1    0    0  502    0  0.00000000000E+00  0.00000000000E+00  0.23206565353E+02  0.23206565353E+02  0.00000000000E+00 0.  1.
          1   -1    0    0  501    0 -0.00000000000E+00 -0.00000000000E+00 -0.64960610198E+02  0.64960610198E+02  0.00000000000E+00 0. -1.
          2    1    1    2  501    0 -0.10996756923E+02 -0.19219625459E+02  0.15334558653E+02  0.26934575451E+02  0.00000000000E+00 0.  1.
          1    1    1    2  502    0  0.10996756923E+02  0.19219625459E+02 -0.57088603499E+02  0.61232600101E+02  0.00000000000E+00 0. -1.
</event>
<event>
 4    1  0.3586324E+003  0.3146130E+02  0.7546771E-02  0.1407309E+00
          2   -1    0    0  502    0  0.00000000000E+00  0.00000000000E+00  0.26580169903E+04  0.26580169903E+04  0.00000000000E+00 0. -1.
          1   -1    0    0  501    0 -0.00000000000E+00 -0.00000000000E+00 -0.43994630141E+00  0.43994630141E+00  0.00000000000E+00 0. -1.
          2    1    1    2  501    0 -0.14281838999E+02 -0.28032884405E+02  0.18496704353E+04  0.18499379808E+04  0.00000000000E+00 0. -1.
          1    1    1    2  502    0  0.14281838999E+02  0.28032884405E+02  0.80790660869E+03  0.80851895581E+03  0.00000000000E+00 0. -1.
</event>
