<event>
 4    1  0.5565417E+003  0.4144343E+02  0.7546771E-02  0.1340229E+00
          2   -1    0    0  501    0  0.00000000000E+00  0.00000000000E+00  0.16457875138E+04  0.16457875138E+04  0.00000000000E+00 0.  1.
         -2   -1    0    0    0  501 -0.00000000000E+00 -0.00000000000E+00 -0.56777977005E+01  0.56777977005E+01  0.00000000000E+00 0. -1.
          2    1    1    2  502    0 -0.26325867871E+02 -0.32007917665E+02  0.15660506463E+04  0.15665989228E+04  0.00000000000E+00 0.  1.
         -2    1    1    2    0  502  0.26325867871E+02  0.32007917665E+02  0.74059069767E+02  0.84866388678E+02  0.00000000000E+00 0. -1.
</event>
<event>
 4    1  0.5565417E+003  0.2277270E+02  0.7546771E-02  0.1495372E+00
          2   -1    0    0  501    0  0.00000000000E+00  0.00000000000E+00  0.71591496078E+02  0.71591496078E+02  0.00000000000E+00 0.  1.
         -2   -1    0    0    0  501 -0.00000000000E+00 -0.00000000000E+00 -0.31469964653E+02  0.31469964653E+02  0.00000000000E+00 0. -1.
          2    1    1    2  502    0 -0.29880044838E+01  0.22575816570E+02  0.65273456486E+02  0.69131901364E+02  0.00000000000E+00 0.  1.
         -2    1    1    2    0  502  0.29880044838E+01 -0.22575816570E+02 -0.25151925060E+02  0.33929559367E+02  0.00000000000E+00 0. -1.
</event>
<event>
 4    1  0.5565417E+003  0.2142888E+02  0.7546771E-02  0.1513229E+00
          2   -1    0    0  501    0  0.00000000000E+00  0.00000000000E+00  0.20121921181E+04  0.20121921181E+04  0.00000000000E+00 0.  1.
         -2   -1    0    0    0  501 -0.00000000000E+00 -0.00000000000E+00 -0.26668043540E+00  0.26668043540E+00  0.00000000000E+00 0.  1.
          2    1    1    2  502    0 -0.90690128258E+01 -0.19415203038E+02  0.13881530814E+04  0.13883184701E+04  0.00000000000E+00 0.  1.
         -2    1    1    2    0  502  0.90690128258E+01  0.19415203038E+02  0.62377235625E+03  0.62414032839E+03  0.00000000000E+00 0.  1.
</event>
<event>
 4    1  0.5565417E+003  0.2153350E+02  0.7546771E-02  0.1511782E+00
          2   -1    0    0  501    0  0.00000000000E+00  0.00000000000E+00  0.10926207047E+04  0.10926207047E+04  0.00000000000E+00 0. -1.
         -2   -1    0    0    0  501 -0.00000000000E+00 -0.00000000000E+00 -0.41670439074E+02  0.41670439074E+02  0.00000000000E+00 0. -1.
          2    1    1    2  502    0  0.48777107130E+01 -0.20973787769E+02  0.10897253186E+04  0.10899380541E+04  0.00000000000E+00 0. -1.
         -2    1    1    2    0  502 -0.48777107130E+01  0.20973787769E+02 -0.38775052932E+02  0.44353089690E+02  0.00000000000E+00 0. -1.
</event>
<event>
 4    1  0.5565417E+003  0.2103052E+02  0.7546771E-02  0.1518829E+00
          2   -1    0    0  501    0  0.00000000000E+00  0.00000000000E+00  0.15799334385E+01  0.15799334385E+01  0.00000000000E+00 0.  1.
         -2   -1    0    0    0  501 -0.00000000000E+00 -0.00000000000E+00 -0.30219092771E+03  0.30219092771E+03  0.00000000000E+00 0. -1.
          2    1    1    2  502    0 -0.19710522899E+02  0.73333453849E+01 -0.10908876545E+03  0.11109744109E+03  0.00000000000E+00 0.  1.
         -2    1    1    2    0  502  0.19710522899E+02 -0.73333453849E+01 -0.19152222882E+03  0.19267342006E+03  0.00000000000E+00 0. -1.
</event>
<event>
 4    1  0.5565417E+003  0.3100206E+02  0.7546771E-02  0.1411084E+00
          2   -1    0    0  501    0  0.00000000000E+00  0.00000000000E+00  0.18700924661E+04  0.18700924661E+04  0.00000000000E+00 0. -1.
         -2   -1    0    0    0  501 -0.00000000000E+00 -0.00000000000E+00 -0.23833093341E+01  0.23833093341E+01  0.00000000000E+00 0. -1.
          2    1    1    2  502    0 -0.25230143747E+02 -0.18015754471E+02  0.17630230918E+04  0.17632956502E+04  0.00000000000E+00 0. -1.
         -2    1    1    2    0  502  0.25230143747E+02  0.18015754471E+02  0.10468606499E+03  0.10918012532E+03  0.00000000000E+00 0. -1.
</event>
<event>
 4    1  0.5565417E+003  0.2745086E+02  0.7546771E-02  0.1443131E+00
          2   -1    0    0  501    0  0.00000000000E+00  0.00000000000E+00  0.12869440335E+04  0.12869440335E+04  0.00000000000E+00 0. -1.
         -2   -1    0    0    0  501 -0.00000000000E+00 -0.00000000000E+00 -0.61919674165E+00  0.61919674165E+00  0.00000000000E+00 0.  1.
          2    1    1    2  502    0 -0.63657141983E+01 -0.26702572425E+02  0.79326838668E+03  0.79374320973E+03  0.00000000000E+00 0. -1.
         -2    1    1    2    0  502  0.63657141983E+01  0.26702572425E+02  0.49305645013E+03  0.49382002056E+03  0.00000000000E+00 0.  1.
</event>
<event>
 4    1  0.5565417E+003  0.5735403E+02  0.7546771E-02  0.1269098E+00
          2   -1    0    0  501    0  0.00000000000E+00  0.00000000000E+00  0.18363169426E+02  0.18363169426E+02  0.00000000000E+00 0. -1.
         -2   -1    0    0    0  501 -0.00000000000E+00 -0.00000000000E+00 -0.50657351240E+03  0.50657351240E+03  0.00000000000E+00 0. -1.
          2    1    1    2  502    0 -0.55205571376E+02  0.15550878268E+02 -0.33086629462E+02  0.66213367042E+02  0.00000000000E+00 0. -1.
         -2    1    1    2    0  502  0.55205571376E+02 -0.15550878268E+02 -0.45512371351E+03  0.45872331479E+03  0.00000000000E+00 0. -1.
</event>
<event>
 4    1  0.5565417E+003  0.2183708E+02  0.7546771E-02  0.1507641E+00
          2   -1    0    0  501    0  0.00000000000E+00  0.00000000000E+00  0.10386464925E+02  0.10386464925E+02  0.00000000000E+00 0.  1.
         -2   -1    0    0    0  501 -0.00000000000E+00 -0.00000000000E+00 -0.62691881789E+02  0.62691881789E+02  0.00000000000E+00 0. -1.
          2    1    1    2  502    0  0.26913136911E+00 -0.21835418911E+02 -0.72486837855E+01  0.23008723723E+02  0.00000000000E+00 0.  1.
         -2    1    1    2    0  502 -0.26913136911E+00  0.21835418911E+02 -0.45056733078E+02  0.50069622991E+02  0.00000000000E+00 0. -1.
</event>
<event>
 4    1  0.5565417E+003  0.2281694E+02  0.7546771E-02  0.1494810E+00
          2   -1    0    0  501    0  0.00000000000E+00  0.00000000000E+00  0.38863421983E+03  0.38863421983E+03  0.00000000000E+00 0.  1.
         -2   -1    0    0    0  501 -0.00000000000E+00 -0.00000000000E+00 -0.13631003892E+01  0.13631003892E+01  0.00000000000E+00 0.  1.
          2    1    1    2  502    0 -0.11410541210E+02  0.19758844409E+02  0.16802888392E+03  0.16957098282E+03  0.00000000000E+00 0.  1.
         -2    1    1    2    0  502  0.11410541210E+02 -0.19758844409E+02  0.21924223552E+03  0.22042633740E+03  0.00000000000E+00 0.  1.
</event>
<event>
 4    1  0.5565417E+003  0.2939496E+02  0.7546771E-02  0.1424928E+00
          2   -1    0    0  501    0  0.00000000000E+00  0.00000000000E+00  0.10961984083E+04  0.10961984083E+04  0.00000000000E+00 0. -1.
         -2   -1    0    0    0  501 -0.00000000000E+00 -0.00000000000E+00 -0.11023201681E+02  0.11023201681E+02  0.00000000000E+00 0. -1.
          2    1    1    2  502    0  0.13417874636E+02  0.26153853642E+02  0.10760377874E+04  0.10764392149E+04  0.00000000000E+00 0. -1.
         -2    1    1    2    0  502 -0.13417874636E+02 -0.26153853642E+02  0.91374192630E+01  0.30782395145E+02  0.00000000000E+00 0. -1.
</event>
<event>
 4    1  0.5565417E+003  0.2747254E+02  0.7546771E-02  0.1442918E+00
          2   -1    0    0  501    0  0.00000000000E+00  0.00000000000E+00  0.99094489599E+03  0.99094489599E+03  0.00000000000E+00 0. -1.
         -2   -1    0    0    0  501 -0.00000000000E+00 -0.00000000000E+00 -0.24160379905E+01  0.24160379905E+01  0.00000000000E+00 0.  1.
          2    1    1    2  502    0  0.17688410521E+02  0.21020479298E+02  0.90526798202E+03  0.90568474630E+03  0.00000000000E+00 0. -1.
         -2    1    1    2    0  502 -0.17688410521E+02 -0.21020479298E+02  0.83260875982E+02  0.87676187679E+02  0.00000000000E+00 0.  1.
</event>
<event>
 4    1  0.5565417E+003  0.2217801E+02  0.7546771E-02  0.1503086E+00
          2   -1    0    0  501    0  0.00000000000E+00  0.00000000000E+00  0.12643096286E+03  0.12643096286E+03  0.00000000000E+00 0.  1.
         -2   -1    0    0    0  501 -0.00000000000E+00 -0.00000000000E+00 -0.45622821085E+02  0.45622821085E+02  0.00000000000E+00 0.  1.
          2    1    1    2  502    0 -0.22010324618E+02  0.27220896659E+01  0.12268137866E+03  0.12466990347E+03  0.00000000000E+00 0.  1.
         -2    1    1    2    0  502  0.22010324618E+02 -0.27220896659E+01 -0.41873236882E+02  0.47383880475E+02  0.00000000000E+00 0.  1.
</event>
<event>
 4    1  0.5565417E+003  0.3857666E+02  0.7546771E-02  0.1357035E+00
          2   -1    0    0  501    0  0.00000000000E+00  0.00000000000E+00  0.19690333843E+04  0.19690333843E+04  0.00000000000E+00 0.  1.
         -2   -1    0    0    0  501 -0.00000000000E+00 -0.00000000000E+00 -0.28944046131E+01  0.28944046131E+01  0.00000000000E+00 0.  1.
          2    1    1    2  502    0  0.34977182452E+02 -0.16271305488E+02  0.18305867192E+04  0.18309931445E+04  0.00000000000E+00 0.  1.
         -2    1    1    2    0  502 -0.34977182452E+02  0.16271305488E+02  0.13555226051E+03  0.14093464444E+03  0.00000000000E+00 0.  1.
</event>
<event>
 4    1  0.5565417E+003  0.2585129E+02  0.7546771E-02  0.1459501E+00
          2   -1    0    0  501    0  0.00000000000E+00  0.00000000000E+00  0.48024199619E+03  0.48024199619E+03  0.00000000000E+00 0. -1.
         -2   -1    0    0    0  501 -0.00000000000E+00 -0.00000000000E+00 -0.81179017567E+02  0.81179017567E+02  0.00000000000E+00 0.  1.
          2    1    1    2  502    0  0.22987682431E+02  0.11826053775E+02  0.47782563216E+03  0.47852442345E+03  0.00000000000E+00 0. -1.
         -2    1    1    2    0  502 -0.22987682431E+02 -0.11826053775E+02 -0.78762653538E+02  0.82896590303E+02  0.00000000000E+00 0.  1.
</event>
<event>
 4    1  0.5565417E+003  0.3096548E+02  0.7546771E-02  0.1411388E+00
          2   -1    0    0  501    0  0.00000000000E+00  0.00000000000E+00  0.24704459003E+02  0.24704459003E+02  0.00000000000E+00 0. -1.
         -2   -1    0    0    0  501 -0.00000000000E+00 -0.00000000000E+00 -0.90046628608E+02  0.90046628608E+02  0.00000000000E+00 0. -1.
          2    1    1    2  502    0 -0.22027229548E+02  0.21763785429E+02  0.10607139942E+02  0.32731828784E+02  0.00000000000E+00 0. -1.
         -2    1    1    2    0  502  0.22027229548E+02 -0.21763785429E+02 -0.75949309547E+02  0.82019258827E+02  0.00000000000E+00 0. -1.
</event>
<event>
 4    1  0.5565417E+003  0.3116854E+02  0.7546771E-02  0.1409706E+00
          2   -1    0    0  501    0  0.00000000000E+00  0.00000000000E+00  0.20606459537E+03  0.20606459537E+03  0.00000000000E+00 0. -1.
         -2   -1    0    0    0  501 -0.00000000000E+00 -0.00000000000E+00 -0.10774894622E+02  0.10774894622E+02  0.00000000000E+00 0. -1.
          2    1    1    2  502    0 -0.16447570165E+02  0.26475562044E+02  0.17895685723E+03  0.18165085934E+03  0.00000000000E+00 0. -1.
         -2    1    1    2    0  502  0.16447570165E+02 -0.26475562044E+02  0.16332843523E+02  0.35188630656E+02  0.00000000000E+00 0. -1.
</event>
<event>
 4    1  0.5565417E+003  0.2857776E+02  0.7546771E-02  0.1432372E+00
          2   -1    0    0  501    0  0.00000000000E+00  0.00000000000E+00  0.75599599089E+03  0.75599599089E+03  0.00000000000E+00 0. -1.
         -2   -1    0    0    0  501 -0.00000000000E+00 -0.00000000000E+00 -0.26295927850E+01  0.26295927850E+01  0.00000000000E+00 0.  1.
          2    1    1    2  502    0  0.90078734332E+01  0.27120966528E+02  0.66783706294E+03  0.66844822630E+03  0.00000000000E+00 0. -1.
         -2    1    1    2    0  502 -0.90078734332E+01 -0.27120966528E+02  0.85529335173E+02  0.90177357382E+02  0.00000000000E+00 0.  1.
</event>
<event>
 4    1  0.5565417E+003  0.2479822E+02  0.7546771E-02  0.1471073E+00
          2   -1    0    0  501    0  0.00000000000E+00  0.00000000000E+00  0.12177872136E+03  0.12177872136E+03  0.00000000000E+00 0.  1.
         -2   -1    0    0    0  501 -0.00000000000E+00 -0.00000000000E+00 -0.10745975421E+03  0.10745975421E+03  0.00000000000E+00 0. -1.
          2    1    1    2  502    0 -0.18531703876E+02  0.16478091640E+02  0.11905322511E+03  0.12160847817E+03  0.00000000000E+00 0.  1.
         -2    1    1    2    0  502  0.18531703876E+02 -0.16478091640E+02 -0.10473425796E+03  0.10762999741E+03  0.00000000000E+00 0. -1.
</event>
<event>
 4    1  0.5565417E+003  0.2698016E+02  0.7546771E-02  0.1447808E+00
          2   -1    0    0  501    0  0.00000000000E+00  0.00000000000E+00  0.11373054012E+02  0.11373054012E+02  0.00000000000E+00 0. -1.
         -2   -1    0    0    0  501 -0.00000000000E+00 -0.00000000000E+00 -0.10024560066E+03  0.10024560066E+03  0.00000000000E+00 0.  1.
          2    1    1    2  502    0 -0.23905153164E+02  0.12508893681E+02 -0.10880002381E+02  0.29091291149E+02  0.00000000000E+00 0. -1.
         -2    1    1    2    0  502  0.23905153164E+02 -0.12508893681E+02 -0.77992544269E+02  0.82527363525E+02  0.00000000000E+00 0.  1.
</event>
<event>
 4    1  0.5565417E+003  0.2184555E+02  0.7546771E-02  0.1507527E+00
          2   -1    0    0  501    0  0.00000000000E+00  0.00000000000E+00  0.97786330638E+03  0.97786330638E+03  0.00000000000E+00 0.  1.
         -2   -1    0    0    0  501 -0.00000000000E+00 -0.00000000000E+00 -0.51303204749E+00  0.51303204749E+00  0.00000000000E+00 0.  1.
          2    1    1    2  502    0  0.23927059361E+01  0.21714120194E+02  0.59666395863E+03  0.59706373829E+03  0.00000000000E+00 0.  1.
         -2    1    1    2    0  502 -0.23927059361E+01 -0.21714120194E+02  0.38068631570E+03  0.38131260013E+03  0.00000000000E+00 0.  1.
</event>
<event>
 4    1  0.5565417E+003  0.2058683E+02  0.7546771E-02  0.1525246E+00
          2   -1    0    0  501    0  0.00000000000E+00  0.00000000000E+00  0.14865247128E+02  0.14865247128E+02  0.00000000000E+00 0.  1.
         -2   -1    0    0    0  501 -0.00000000000E+00 -0.00000000000E+00 -0.37934625047E+03  0.37934625047E+03  0.00000000000E+00 0. -1.
          2    1    1    2  502    0  0.15974989656E+02 -0.12985266035E+02  0.73136230866E+01  0.21847345632E+02  0.00000000000E+00 0.  1.
         -2    1    1    2    0  502 -0.15974989656E+02  0.12985266035E+02 -0.37179462643E+03  0.37236415197E+03  0.00000000000E+00 0. -1.
</event>
<event>
 4    1  0.5565417E+003  0.2992714E+02  0.7546771E-02  0.1420231E+00
          2   -1    0    0  501    0  0.00000000000E+00  0.00000000000E+00  0.65455076364E+03  0.65455076364E+03  0.00000000000E+00 0. -1.
         -2   -1    0    0    0  501 -0.00000000000E+00 -0.00000000000E+00 -0.59778742768E+02  0.59778742768E+02  0.00000000000E+00 0.  1.
          2    1    1    2  502    0 -0.12794041642E+02 -0.27054499351E+02  0.65043940264E+03  0.65112752203E+03  0.00000000000E+00 0. -1.
         -2    1    1    2    0  502  0.12794041642E+02  0.27054499351E+02 -0.55667381767E+02  0.63201984379E+02  0.00000000000E+00 0.  1.
</event>
<event>
 4    1  0.5565417E+003  0.2271766E+02  0.7546771E-02  0.1496074E+00
          2   -1    0    0  501    0  0.00000000000E+00  0.00000000000E+00  0.12596551498E+04  0.12596551498E+04  0.00000000000E+00 0. -1.
         -2   -1    0    0    0  501 -0.00000000000E+00 -0.00000000000E+00 -0.56703388341E+00  0.56703388341E+00  0.00000000000E+00 0.  1.
          2    1    1    2  502    0 -0.79938208205E+01  0.21264781598E+02  0.96144712604E+03  0.96171548198E+03  0.00000000000E+00 0. -1.
         -2    1    1    2    0  502  0.79938208205E+01 -0.21264781598E+02  0.29764098991E+03  0.29850670174E+03  0.00000000000E+00 0.  1.
</event>
<event>
 4    1  0.5565417E+003  0.4708676E+02  0.7546771E-02  0.1311323E+00
          2   -1    0    0  501    0  0.00000000000E+00  0.00000000000E+00  0.81121694889E+03  0.81121694889E+03  0.00000000000E+00 0. -1.
         -2   -1    0    0    0  501 -0.00000000000E+00 -0.00000000000E+00 -0.40163678705E+01  0.40163678705E+01  0.00000000000E+00 0.  1.
          2    1    1    2  502    0  0.44914659964E+02  0.14136360953E+02  0.63400340678E+03  0.63574954438E+03  0.00000000000E+00 0. -1.
         -2    1    1    2    0  502 -0.44914659964E+02 -0.14136360953E+02  0.17319717425E+03  0.17948377238E+03  0.00000000000E+00 0.  1.
</event>
<event>
 4    1  0.5565417E+003  0.3019375E+02  0.7546771E-02  0.1417920E+00
          2   -1    0    0  501    0  0.00000000000E+00  0.00000000000E+00  0.52290080659E+03  0.52290080659E+03  0.00000000000E+00 0.  1.
         -2   -1    0    0    0  501 -0.00000000000E+00 -0.00000000000E+00 -0.25834136647E+02  0.25834136647E+02  0.00000000000E+00 0. -1.
          2    1    1    2  502    0 -0.27767276999E+02  0.11859219976E+02  0.51348096462E+03  0.51436792649E+03  0.00000000000E+00 0.  1.
         -2    1    1    2    0  502  0.27767276999E+02 -0.11859219976E+02 -0.16414294679E+02  0.34367016748E+02  0.00000000000E+00 0. -1.
</event>
<event>
 4    1  0.5565417E+003  0.2069313E+02  0.7546771E-02  0.1523692E+00
          2   -1    0    0  501    0  0.00000000000E+00  0.00000000000E+00  0.43338470762E+02  0.43338470762E+02  0.00000000000E+00 0. -1.
         -2   -1    0    0    0  501 -0.00000000000E+00 -0.00000000000E+00 -0.25527083331E+03  0.25527083331E+03  0.00000000000E+00 0. -1.
          2    1    1    2  502    0 -0.24871746726E+01  0.20543111765E+02  0.40420468862E+02  0.45409467976E+02  0.00000000000E+00 0. -1.
         -2    1    1    2    0  502  0.24871746726E+01 -0.20543111765E+02 -0.25235283141E+03  0.25319983609E+03  0.00000000000E+00 0. -1.
</event>
<event>
 4    1  0.5565417E+003  0.3285082E+02  0.7546771E-02  0.1396337E+00
          2   -1    0    0  501    0  0.00000000000E+00  0.00000000000E+00  0.14440766075E+04  0.14440766075E+04  0.00000000000E+00 0.  1.
         -2   -1    0    0    0  501 -0.00000000000E+00 -0.00000000000E+00 -0.24282335435E+02  0.24282335435E+02  0.00000000000E+00 0.  1.
          2    1    1    2  502    0 -0.21768765420E+02 -0.24602794239E+02  0.14326907752E+04  0.14330673515E+04  0.00000000000E+00 0.  1.
         -2    1    1    2    0  502  0.21768765420E+02  0.24602794239E+02 -0.12896503131E+02  0.35291591424E+02  0.00000000000E+00 0.  1.
</event>
<event>
 4    1  0.5565417E+003  0.2686120E+02  0.7546771E-02  0.1449007E+00
          2   -1    0    0  501    0  0.00000000000E+00  0.00000000000E+00  0.12459941683E+03  0.12459941683E+03  0.00000000000E+00 0. -1.
         -2   -1    0    0    0  501 -0.00000000000E+00 -0.00000000000E+00 -0.38491622150E+02  0.38491622150E+02  0.00000000000E+00 0.  1.
          2    1    1    2  502    0  0.51152596154E+01  0.26369644603E+02  0.11821560983E+03  0.12122893403E+03  0.00000000000E+00 0. -1.
         -2    1    1    2    0  502 -0.51152596154E+01 -0.26369644603E+02 -0.32107815150E+02  0.41862104954E+02  0.00000000000E+00 0.  1.
</event>
<event>
 4    1  0.5565417E+003  0.2273833E+02  0.7546771E-02  0.1495810E+00
          2   -1    0    0  501    0  0.00000000000E+00  0.00000000000E+00  0.44750478946E+01  0.44750478946E+01  0.00000000000E+00 0.  1.
         -2   -1    0    0    0  501 -0.00000000000E+00 -0.00000000000E+00 -0.11683397274E+03  0.11683397274E+03  0.00000000000E+00 0. -1.
          2    1    1    2  502    0 -0.22399086006E+02  0.39130435478E+01 -0.62571552466E+02  0.66574996370E+02  0.00000000000E+00 0.  1.
         -2    1    1    2    0  502  0.22399086006E+02 -0.39130435478E+01 -0.49787372381E+02  0.54734024266E+02  0.00000000000E+00 0. -1.
</event>
<event>
 4    1  0.5565417E+003  0.2673650E+02  0.7546771E-02  0.1450273E+00
          2   -1    0    0  501    0  0.00000000000E+00  0.00000000000E+00  0.10300778466E+04  0.10300778466E+04  0.00000000000E+00 0. -1.
         -2   -1    0    0    0  501 -0.00000000000E+00 -0.00000000000E+00 -0.97474984615E+01  0.97474984615E+01  0.00000000000E+00 0. -1.
          2    1    1    2  502    0  0.26581266917E+02 -0.28768938465E+01  0.10112287317E+04  0.10115821213E+04  0.00000000000E+00 0. -1.
         -2    1    1    2    0  502 -0.26581266917E+02  0.28768938465E+01  0.91016164670E+01  0.28243223814E+02  0.00000000000E+00 0. -1.
</event>
<event>
 4    1  0.5565417E+003  0.2023404E+02  0.7546771E-02  0.1530488E+00
          2   -1    0    0  501    0  0.00000000000E+00  0.00000000000E+00  0.12612711275E+04  0.12612711275E+04  0.00000000000E+00 0.  1.
         -2   -1    0    0    0  501 -0.00000000000E+00 -0.00000000000E+00 -0.74984459205E+02  0.74984459205E+02  0.00000000000E+00 0. -1.
          2    1    1    2  502    0  0.19865901595E+02 -0.38421691737E+01  0.12598234036E+04  0.12599858827E+04  0.00000000000E+00 0.  1.
         -2    1    1    2    0  502 -0.19865901595E+02  0.38421691737E+01 -0.73536735311E+02  0.76269704014E+02  0.00000000000E+00 0. -1.
</event>
<event>
 4    1  0.5565417E+003  0.2549358E+02  0.7546771E-02  0.1463357E+00
          2   -1    0    0  501    0  0.00000000000E+00  0.00000000000E+00  0.48220173696E+03  0.48220173696E+03  0.00000000000E+00 0.  1.
         -2   -1    0    0    0  501 -0.00000000000E+00 -0.00000000000E+00 -0.13983507462E+01  0.13983507462E+01  0.00000000000E+00 0.  1.
          2    1    1    2  502    0 -0.24365249830E+02  0.75004302958E+01  0.19443747730E+03  0.19610164311E+03  0.00000000000E+00 0.  1.
         -2    1    1    2    0  502  0.24365249830E+02 -0.75004302958E+01  0.28636590891E+03  0.28749844459E+03  0.00000000000E+00 0.  1.
</event>
<event>
 4    1  0.5565417E+003  0.2149966E+02  0.7546771E-02  0.1512249E+00
          2   -1    0    0  501    0  0.00000000000E+00  0.00000000000E+00  0.14374829842E+04  0.14374829842E+04  0.00000000000E+00 0. -1.
         -2   -1    0    0    0  501 -0.00000000000E+00 -0.00000000000E+00 -0.10203147985E+01  0.10203147985E+01  0.00000000000E+00 0. -1.
          2    1    1    2  502    0  0.21023021403E+02  0.45019922405E+01  0.13134499914E+04  0.13136259419E+04  0.00000000000E+00 0. -1.
         -2    1    1    2    0  502 -0.21023021403E+02 -0.45019922405E+01  0.12301267799E+03  0.12487735707E+03  0.00000000000E+00 0. -1.
</event>
<event>
 4    1  0.5565417E+003  0.3492307E+02  0.7546771E-02  0.1381105E+00
          2   -1    0    0  501    0  0.00000000000E+00  0.00000000000E+00  0.27817778666E+02  0.27817778666E+02  0.00000000000E+00 0. -1.
         -2   -1    0    0    0  501 -0.00000000000E+00 -0.00000000000E+00 -0.44191186387E+02  0.44191186387E+02  0.00000000000E+00 0. -1.
          2    1    1    2  502    0  0.20124239724E+02 -0.28541804646E+02 -0.11381828034E+02  0.36730990271E+02  0.00000000000E+00 0. -1.
         -2    1    1    2    0  502 -0.20124239724E+02  0.28541804646E+02 -0.49915796871E+01  0.35277974782E+02  0.00000000000E+00 0. -1.
</event>
<event>
 4    1  0.5565417E+003  0.2506331E+02  0.7546771E-02  0.1468096E+00
          2   -1    0    0  501    0  0.00000000000E+00  0.00000000000E+00  0.15609603066E+03  0.15609603066E+03  0.00000000000E+00 0. -1.
         -2   -1    0    0    0  501 -0.00000000000E+00 -0.00000000000E+00 -0.17707687806E+02  0.17707687806E+02  0.00000000000E+00 0.  1.
          2    1    1    2  502    0  0.78782443390E+01 -0.23792911834E+02  0.14558579804E+03  0.14772743137E+03  0.00000000000E+00 0. -1.
         -2    1    1    2    0  502 -0.78782443390E+01  0.23792911834E+02 -0.71974551901E+01  0.26076287094E+02  0.00000000000E+00 0.  1.
</event>
<event>
 4    1  0.5565417E+003  0.2223458E+02  0.7546771E-02  0.1502340E+00
          2   -1    0    0  501    0  0.00000000000E+00  0.00000000000E+00  0.45963805614E+03  0.45963805614E+03  0.00000000000E+00 0.  1.
         -2   -1    0    0    0  501 -0.00000000000E+00 -0.00000000000E+00 -0.13824276732E+01  0.13824276732E+01  0.00000000000E+00 0.  1.
          2    1    1    2  502    0  0.16582451971E+02  0.14812125307E+02  0.33772824794E+03  0.33845937160E+03  0.00000000000E+00 0.  1.
         -2    1    1    2    0  502 -0.16582451971E+02 -0.14812125307E+02  0.12052738053E+03  0.12256111222E+03  0.00000000000E+00 0.  1.
</event>
<event>
 4    1  0.5565417E+003  0.2867425E+02  0.7546771E-02  0.1431478E+00
          2   -1    0    0  501    0  0.00000000000E+00  0.00000000000E+00  0.17849552391E+03  0.17849552391E+03  0.00000000000E+00 0. -1.
         -2   -1    0    0    0  501 -0.00000000000E+00 -0.00000000000E+00 -0.16090296097E+02  0.16090296097E+02  0.00000000000E+00 0. -1.
          2    1    1    2  502    0 -0.28357438540E+02  0.42507003093E+01  0.16339749217E+03  0.16589440383E+03  0.00000000000E+00 0. -1.
         -2    1    1    2    0  502  0.28357438540E+02 -0.42507003093E+01 -0.99226436061E+00  0.28691416176E+02  0.00000000000E+00 0. -1.
</event>
<event>
 4    1  0.5565417E+003  0.3836277E+02  0.7546771E-02  0.1358356E+00
          2   -1    0    0  501    0  0.00000000000E+00  0.00000000000E+00  0.19381668763E+03  0.19381668763E+03  0.00000000000E+00 0.  1.
         -2   -1    0    0    0  501 -0.00000000000E+00 -0.00000000000E+00 -0.51819489564E+02  0.51819489564E+02  0.00000000000E+00 0.  1.
          2    1    1    2  502    0  0.74382994716E+01  0.37634745587E+02  0.18446196926E+03  0.18840891825E+03  0.00000000000E+00 0.  1.
         -2    1    1    2    0  502 -0.74382994716E+01 -0.37634745587E+02 -0.42464771187E+02  0.57227258946E+02  0.00000000000E+00 0.  1.
</event>
<event>
 4    1  0.5565417E+003  0.2212087E+02  0.7546771E-02  0.1503843E+00
          2   -1    0    0  501    0  0.00000000000E+00  0.00000000000E+00  0.95110342034E+03  0.95110342034E+03  0.00000000000E+00 0.  1.
         -2   -1    0    0    0  501 -0.00000000000E+00 -0.00000000000E+00 -0.53578382846E+00  0.53578382846E+00  0.00000000000E+00 0.  1.
          2    1    1    2  502    0  0.20621272554E+02 -0.80059750331E+01  0.38042412777E+03  0.38106672579E+03  0.00000000000E+00 0.  1.
         -2    1    1    2    0  502 -0.20621272554E+02  0.80059750331E+01  0.57014350874E+03  0.57057247837E+03  0.00000000000E+00 0.  1.
</event>
<event>
 4    1  0.5565417E+003  0.2300588E+02  0.7546771E-02  0.1492424E+00
          2   -1    0    0  501    0  0.00000000000E+00  0.00000000000E+00  0.30502748346E+03  0.30502748346E+03  0.00000000000E+00 0. -1.
         -2   -1    0    0    0  501 -0.00000000000E+00 -0.00000000000E+00 -0.46534554011E+01  0.46534554011E+01  0.00000000000E+00 0.  1.
          2    1    1    2  502    0 -0.26961854750E+01 -0.22847341688E+02  0.27280709054E+03  0.27377541725E+03  0.00000000000E+00 0. -1.
         -2    1    1    2    0  502  0.26961854750E+01  0.22847341688E+02  0.27566937513E+02  0.35905521611E+02  0.00000000000E+00 0.  1.
</event>
<event>
 4    1  0.5565417E+003  0.2825438E+02  0.7546771E-02  0.1435399E+00
          2   -1    0    0  501    0  0.00000000000E+00  0.00000000000E+00  0.99176722105E+02  0.99176722105E+02  0.00000000000E+00 0.  1.
         -2   -1    0    0    0  501 -0.00000000000E+00 -0.00000000000E+00 -0.88033223008E+01  0.88033223008E+01  0.00000000000E+00 0.  1.
          2    1    1    2  502    0  0.16669414435E+02 -0.22813166401E+02  0.60986904121E+02  0.67213930201E+02  0.00000000000E+00 0.  1.
         -2    1    1    2    0  502 -0.16669414435E+02  0.22813166401E+02  0.29386495684E+02  0.40766114205E+02  0.00000000000E+00 0.  1.
</event>
<event>
 4    1  0.5565417E+003  0.2542808E+02  0.7546771E-02  0.1464071E+00
          2   -1    0    0  501    0  0.00000000000E+00  0.00000000000E+00  0.92504761270E+02  0.92504761270E+02  0.00000000000E+00 0. -1.
         -2   -1    0    0    0  501 -0.00000000000E+00 -0.00000000000E+00 -0.76257140796E+02  0.76257140796E+02  0.00000000000E+00 0. -1.
          2    1    1    2  502    0 -0.21480605115E+02 -0.13607755271E+02  0.88544629922E+02  0.92123498021E+02  0.00000000000E+00 0. -1.
         -2    1    1    2    0  502  0.21480605115E+02  0.13607755271E+02 -0.72297009447E+02  0.76638404046E+02  0.00000000000E+00 0. -1.
</event>
<event>
 4    1  0.5565417E+003  0.2400823E+02  0.7546771E-02  0.1480211E+00
          2   -1    0    0  501    0  0.00000000000E+00  0.00000000000E+00  0.63306658277E+01  0.63306658277E+01  0.00000000000E+00 0.  1.
         -2   -1    0    0    0  501 -0.00000000000E+00 -0.00000000000E+00 -0.89026852403E+03  0.89026852403E+03  0.00000000000E+00 0.  1.
          2    1    1    2  502    0  0.22595781118E+02 -0.81133195527E+01 -0.17211370425E+02  0.29540253053E+02  0.00000000000E+00 0.  1.
         -2    1    1    2    0  502 -0.22595781118E+02  0.81133195527E+01 -0.86672648778E+03  0.86705893680E+03  0.00000000000E+00 0.  1.
</event>
<event>
 4    1  0.5565417E+003  0.2170064E+02  0.7546771E-02  0.1509492E+00
          2   -1    0    0  501    0  0.00000000000E+00  0.00000000000E+00  0.18104855191E+04  0.18104855191E+04  0.00000000000E+00 0. -1.
         -2   -1    0    0    0  501 -0.00000000000E+00 -0.00000000000E+00 -0.62662996072E+00  0.62662996072E+00  0.00000000000E+00 0. -1.
          2    1    1    2  502    0  0.11707976619E+02  0.18271314240E+02  0.15974953718E+04  0.15976427575E+04  0.00000000000E+00 0. -1.
         -2    1    1    2    0  502 -0.11707976619E+02 -0.18271314240E+02  0.21236351737E+03  0.21346939160E+03  0.00000000000E+00 0. -1.
</event>
<event>
 4    1  0.5565417E+003  0.2264195E+02  0.7546771E-02  0.1497044E+00
          2   -1    0    0  501    0  0.00000000000E+00  0.00000000000E+00  0.15073070403E+04  0.15073070403E+04  0.00000000000E+00 0. -1.
         -2   -1    0    0    0  501 -0.00000000000E+00 -0.00000000000E+00 -0.37975755607E+00  0.37975755607E+00  0.00000000000E+00 0. -1.
          2    1    1    2  502    0 -0.17217363307E+02 -0.14704418587E+02  0.50990165481E+03  0.51040410961E+03  0.00000000000E+00 0. -1.
         -2    1    1    2    0  502  0.17217363307E+02  0.14704418587E+02  0.99702562797E+03  0.99728268828E+03  0.00000000000E+00 0. -1.
</event>
<event>
 4    1  0.5565417E+003  0.2274487E+02  0.7546771E-02  0.1495727E+00
          2   -1    0    0  501    0  0.00000000000E+00  0.00000000000E+00  0.25566064892E+03  0.25566064892E+03  0.00000000000E+00 0.  1.
         -2   -1    0    0    0  501 -0.00000000000E+00 -0.00000000000E+00 -0.44870532197E+01  0.44870532197E+01  0.00000000000E+00 0. -1.
          2    1    1    2  502    0 -0.19772224862E+02  0.11242249935E+02  0.22196758157E+03  0.22312986426E+03  0.00000000000E+00 0.  1.
         -2    1    1    2    0  502  0.19772224862E+02 -0.11242249935E+02  0.29206014140E+02  0.37017837883E+02  0.00000000000E+00 0. -1.
</event>
<event>
 4    1  0.5565417E+003  0.2256489E+02  0.7546771E-02  0.1498035E+00
          2   -1    0    0  501    0  0.00000000000E+00  0.00000000000E+00  0.39010971955E+02  0.39010971955E+02  0.00000000000E+00 0.  1.
         -2   -1    0    0    0  501 -0.00000000000E+00 -0.00000000000E+00 -0.15493343447E+02  0.15493343447E+02  0.00000000000E+00 0.  1.
          2    1    1    2  502    0  0.11593405964E+02  0.19358892118E+02  0.94106470235E+00  0.22584493987E+02  0.00000000000E+00 0.  1.
         -2    1    1    2    0  502 -0.11593405964E+02 -0.19358892118E+02  0.22576563805E+02  0.31919821415E+02  0.00000000000E+00 0.  1.
</event>
<event>
 4    1  0.5565417E+003  0.2685221E+02  0.7546771E-02  0.1449098E+00
          2   -1    0    0  501    0  0.00000000000E+00  0.00000000000E+00  0.15145063786E+03  0.15145063786E+03  0.00000000000E+00 0.  1.
         -2   -1    0    0    0  501 -0.00000000000E+00 -0.00000000000E+00 -0.60076141069E+03  0.60076141069E+03  0.00000000000E+00 0.  1.
          2    1    1    2  502    0  0.20350860902E+02  0.17518096523E+02  0.14995739565E+03  0.15234258025E+03  0.00000000000E+00 0.  1.
         -2    1    1    2    0  502 -0.20350860902E+02 -0.17518096523E+02 -0.59926816848E+03  0.59986946830E+03  0.00000000000E+00 0.  1.
</event>
<event>
 4    1  0.5565417E+003  0.2261488E+02  0.7546771E-02  0.1497392E+00
          2   -1    0    0  501    0  0.00000000000E+00  0.00000000000E+00  0.72296276166E+01  0.72296276166E+01  0.00000000000E+00 0. -1.
         -2   -1    0    0    0  501 -0.00000000000E+00 -0.00000000000E+00 -0.91415615585E+03  0.91415615585E+03  0.00000000000E+00 0.  1.
          2    1    1    2  502    0  0.22537008757E+02 -0.18750615478E+01 -0.10954411752E+02  0.25128305879E+02  0.00000000000E+00 0. -1.
         -2    1    1    2    0  502 -0.22537008757E+02  0.18750615478E+01 -0.89597211648E+03  0.89625747758E+03  0.00000000000E+00 0.  1.
</event>
<event>
 4    1  0.5565417E+003  0.2207990E+02  0.7546771E-02  0.1504387E+00
          2   -1    0    0  501    0  0.00000000000E+00  0.00000000000E+00  0.17117233058E+02  0.17117233058E+02  0.00000000000E+00 0. -1.
         -2   -1    0    0    0  501 -0.00000000000E+00 -0.00000000000E+00 -0.30947298265E+02  0.30947298265E+02  0.00000000000E+00 0. -1.
          2    1    1    2  502    0  0.17527426191E+02  0.13428000150E+02 -0.13119289294E+00  0.22080286875E+02  0.00000000000E+00 0. -1.
         -2    1    1    2    0  502 -0.17527426191E+02 -0.13428000150E+02 -0.13698872314E+02  0.25984244448E+02  0.00000000000E+00 0. -1.
</event>
<event>
 4    1  0.5565417E+003  0.3884905E+02  0.7546771E-02  0.1355366E+00
          2   -1    0    0  501    0  0.00000000000E+00  0.00000000000E+00  0.23014532190E+04  0.23014532190E+04  0.00000000000E+00 0.  1.
         -2   -1    0    0    0  501 -0.00000000000E+00 -0.00000000000E+00 -0.85283909394E+00  0.85283909394E+00  0.00000000000E+00 0. -1.
          2    1    1    2  502    0 -0.29642600236E+02  0.25111057928E+02  0.17036462219E+04  0.17040891111E+04  0.00000000000E+00 0.  1.
         -2    1    1    2    0  502  0.29642600236E+02 -0.25111057928E+02  0.59695415802E+03  0.59821694707E+03  0.00000000000E+00 0. -1.
</event>
<event>
 4    1  0.5565417E+003  0.2056615E+02  0.7546771E-02  0.1525550E+00
          2   -1    0    0  501    0  0.00000000000E+00  0.00000000000E+00  0.23468866023E+03  0.23468866023E+03  0.00000000000E+00 0.  1.
         -2   -1    0    0    0  501 -0.00000000000E+00 -0.00000000000E+00 -0.19274362391E+01  0.19274362391E+01  0.00000000000E+00 0. -1.
          2    1    1    2  502    0  0.16577565886E+02  0.12171726162E+02  0.14653219960E+03  0.14796841598E+03  0.00000000000E+00 0.  1.
         -2    1    1    2    0  502 -0.16577565886E+02 -0.12171726162E+02  0.86229024396E+02  0.88647680493E+02  0.00000000000E+00 0. -1.
</event>
<event>
 4    1  0.5565417E+003  0.2737956E+02  0.7546771E-02  0.1443832E+00
          2   -1    0    0  501    0  0.00000000000E+00  0.00000000000E+00  0.29918343156E+03  0.29918343156E+03  0.00000000000E+00 0.  1.
         -2   -1    0    0    0  501 -0.00000000000E+00 -0.00000000000E+00 -0.45154981875E+01  0.45154981875E+01  0.00000000000E+00 0.  1.
          2    1    1    2  502    0  0.27050736137E+02 -0.42306064523E+01  0.24864229886E+03  0.25014522410E+03  0.00000000000E+00 0.  1.
         -2    1    1    2    0  502 -0.27050736137E+02  0.42306064523E+01  0.46025634512E+02  0.53553705649E+02  0.00000000000E+00 0.  1.
</event>
<event>
 4    1  0.5565417E+003  0.3597813E+02  0.7546771E-02  0.1373814E+00
          2   -1    0    0  501    0  0.00000000000E+00  0.00000000000E+00  0.42683278992E+03  0.42683278992E+03  0.00000000000E+00 0.  1.
         -2   -1    0    0    0  501 -0.00000000000E+00 -0.00000000000E+00 -0.33455188967E+02  0.33455188967E+02  0.00000000000E+00 0. -1.
          2    1    1    2  502    0  0.33617053411E+02 -0.12818713598E+02  0.41615405247E+03  0.41770638143E+03  0.00000000000E+00 0.  1.
         -2    1    1    2    0  502 -0.33617053411E+02  0.12818713598E+02 -0.22776451518E+02  0.42581597458E+02  0.00000000000E+00 0. -1.
</event>
<event>
 4    1  0.5565417E+003  0.2164749E+02  0.7546771E-02  0.1510218E+00
          2   -1    0    0  501    0  0.00000000000E+00  0.00000000000E+00  0.13498619651E+03  0.13498619651E+03  0.00000000000E+00 0. -1.
         -2   -1    0    0    0  501 -0.00000000000E+00 -0.00000000000E+00 -0.35091676171E+01  0.35091676171E+01  0.00000000000E+00 0. -1.
          2    1    1    2  502    0 -0.21645266262E+02 -0.31036811770E+00  0.72906378732E+02  0.76052310548E+02  0.00000000000E+00 0. -1.
         -2    1    1    2    0  502  0.21645266262E+02  0.31036811770E+00  0.58570650159E+02  0.62443053577E+02  0.00000000000E+00 0. -1.
</event>
<event>
 4    1  0.5565417E+003  0.2235189E+02  0.7546771E-02  0.1500801E+00
          2   -1    0    0  501    0  0.00000000000E+00  0.00000000000E+00  0.24918927932E+03  0.24918927932E+03  0.00000000000E+00 0.  1.
         -2   -1    0    0    0  501 -0.00000000000E+00 -0.00000000000E+00 -0.23365057483E+02  0.23365057483E+02  0.00000000000E+00 0.  1.
          2    1    1    2  502    0 -0.22325832196E+02 -0.10789533632E+01  0.24321126614E+03  0.24423621128E+03  0.00000000000E+00 0.  1.
         -2    1    1    2    0  502  0.22325832196E+02  0.10789533632E+01 -0.17387044301E+02  0.28318125523E+02  0.00000000000E+00 0.  1.
</event>
<event>
 4    1  0.5565417E+003  0.4687638E+02  0.7546771E-02  0.1312315E+00
          2   -1    0    0  501    0  0.00000000000E+00  0.00000000000E+00  0.15456671355E+04  0.15456671355E+04  0.00000000000E+00 0. -1.
         -2   -1    0    0    0  501 -0.00000000000E+00 -0.00000000000E+00 -0.37116619128E+02  0.37116619128E+02  0.00000000000E+00 0.  1.
          2    1    1    2  502    0  0.26039445751E+02  0.38978745187E+02  0.15303631323E+04  0.15310808966E+04  0.00000000000E+00 0. -1.
         -2    1    1    2    0  502 -0.26039445751E+02 -0.38978745187E+02 -0.21812615932E+02  0.51702857998E+02  0.00000000000E+00 0.  1.
</event>
<event>
 4    1  0.5565417E+003  0.2503945E+02  0.7546771E-02  0.1468363E+00
          2   -1    0    0  501    0  0.00000000000E+00  0.00000000000E+00  0.14192510293E+02  0.14192510293E+02  0.00000000000E+00 0.  1.
         -2   -1    0    0    0  501 -0.00000000000E+00 -0.00000000000E+00 -0.63036782876E+02  0.63036782876E+02  0.00000000000E+00 0. -1.
          2    1    1    2  502    0  0.10986327407E+01 -0.25015332070E+02 -0.33003598319E+01  0.25256013293E+02  0.00000000000E+00 0.  1.
         -2    1    1    2    0  502 -0.10986327407E+01  0.25015332070E+02 -0.45543912750E+02  0.51973279876E+02  0.00000000000E+00 0. -1.
</event>
<event>
 4    1  0.5565417E+003  0.3488028E+02  0.7546771E-02  0.1381407E+00
          2   -1    0    0  501    0  0.00000000000E+00  0.00000000000E+00  0.11158257049E+04  0.11158257049E+04  0.00000000000E+00 0. -1.
         -2   -1    0    0    0  501 -0.00000000000E+00 -0.00000000000E+00 -0.16753269646E+03  0.16753269646E+03  0.00000000000E+00 0.  1.
          2    1    1    2  502    0  0.20544733451E+02  0.28187728959E+02  0.11137341928E+04  0.11142802549E+04  0.00000000000E+00 0. -1.
         -2    1    1    2    0  502 -0.20544733451E+02 -0.28187728959E+02 -0.16544118438E+03  0.16907814650E+03  0.00000000000E+00 0.  1.
</event>
<event>
 4    1  0.5565417E+003  0.2651254E+02  0.7546771E-02  0.1452567E+00
          2   -1    0    0  501    0  0.00000000000E+00  0.00000000000E+00  0.12935053711E+04  0.12935053711E+04  0.00000000000E+00 0. -1.
         -2   -1    0    0    0  501 -0.00000000000E+00 -0.00000000000E+00 -0.98924634670E+00  0.98924634670E+00  0.00000000000E+00 0.  1.
          2    1    1    2  502    0 -0.87767757314E+01  0.25017655328E+02  0.10807698628E+04  0.10810950057E+04  0.00000000000E+00 0. -1.
         -2    1    1    2    0  502  0.87767757314E+01 -0.25017655328E+02  0.21174626188E+03  0.21339961174E+03  0.00000000000E+00 0.  1.
</event>
<event>
 4    1  0.5565417E+003  0.5466626E+02  0.7546771E-02  0.1279117E+00
          2   -1    0    0  501    0  0.00000000000E+00  0.00000000000E+00  0.35439165622E+03  0.35439165622E+03  0.00000000000E+00 0.  1.
         -2   -1    0    0    0  501 -0.00000000000E+00 -0.00000000000E+00 -0.13569419750E+02  0.13569419750E+02  0.00000000000E+00 0. -1.
          2    1    1    2  502    0 -0.13873947102E+02 -0.52876400148E+02  0.28361036472E+03  0.28883081394E+03  0.00000000000E+00 0.  1.
         -2    1    1    2    0  502  0.13873947102E+02  0.52876400148E+02  0.57211871746E+02  0.79130262034E+02  0.00000000000E+00 0. -1.
</event>
<event>
 4    1  0.5565417E+003  0.4211969E+02  0.7546771E-02  0.1336493E+00
          2   -1    0    0  501    0  0.00000000000E+00  0.00000000000E+00  0.91897589422E+03  0.91897589422E+03  0.00000000000E+00 0.  1.
         -2   -1    0    0    0  501 -0.00000000000E+00 -0.00000000000E+00 -0.24959865489E+01  0.24959865489E+01  0.00000000000E+00 0.  1.
          2    1    1    2  502    0  0.35849801886E+02 -0.22110170710E+02  0.67754487966E+03  0.67885280577E+03  0.00000000000E+00 0.  1.
         -2    1    1    2    0  502 -0.35849801886E+02  0.22110170710E+02  0.23893502801E+03  0.24261907500E+03  0.00000000000E+00 0.  1.
</event>
<event>
 4    1  0.5565417E+003  0.2871413E+02  0.7546771E-02  0.1431110E+00
          2   -1    0    0  501    0  0.00000000000E+00  0.00000000000E+00  0.17422125507E+04  0.17422125507E+04  0.00000000000E+00 0.  1.
         -2   -1    0    0    0  501 -0.00000000000E+00 -0.00000000000E+00 -0.15499334081E+01  0.15499334081E+01  0.00000000000E+00 0.  1.
          2    1    1    2  502    0 -0.27843099900E+02  0.70187529315E+01  0.15970142055E+04  0.15972723230E+04  0.00000000000E+00 0.  1.
         -2    1    1    2    0  502  0.27843099900E+02 -0.70187529315E+01  0.14364841180E+03  0.14649016116E+03  0.00000000000E+00 0.  1.
</event>
<event>
 4    1  0.5565417E+003  0.3287994E+02  0.7546771E-02  0.1396113E+00
          2   -1    0    0  501    0  0.00000000000E+00  0.00000000000E+00  0.91786979108E+01  0.91786979108E+01  0.00000000000E+00 0.  1.
         -2   -1    0    0    0  501 -0.00000000000E+00 -0.00000000000E+00 -0.17923925404E+03  0.17923925404E+03  0.00000000000E+00 0. -1.
          2    1    1    2  502    0 -0.24362260526E+02  0.22081006389E+02 -0.29865700139E+02  0.44419034500E+02  0.00000000000E+00 0.  1.
         -2    1    1    2    0  502  0.24362260526E+02 -0.22081006389E+02 -0.14019485599E+03  0.14399891746E+03  0.00000000000E+00 0. -1.
</event>
<event>
 4    1  0.5565417E+003  0.2226594E+02  0.7546771E-02  0.1501927E+00
          2   -1    0    0  501    0  0.00000000000E+00  0.00000000000E+00  0.85769269815E+03  0.85769269815E+03  0.00000000000E+00 0. -1.
         -2   -1    0    0    0  501 -0.00000000000E+00 -0.00000000000E+00 -0.16414204019E+02  0.16414204019E+02  0.00000000000E+00 0.  1.
          2    1    1    2  502    0  0.12986939934E+02 -0.18086224111E+02  0.84992825957E+03  0.85021986482E+03  0.00000000000E+00 0. -1.
         -2    1    1    2    0  502 -0.12986939934E+02  0.18086224111E+02 -0.86497654383E+01  0.23887037355E+02  0.00000000000E+00 0.  1.
</event>
<event>
 4    1  0.5565417E+003  0.2806784E+02  0.7546771E-02  0.1437167E+00
          2   -1    0    0  501    0  0.00000000000E+00  0.00000000000E+00  0.16763827089E+04  0.16763827089E+04  0.00000000000E+00 0.  1.
         -2   -1    0    0    0  501 -0.00000000000E+00 -0.00000000000E+00 -0.84499056157E+01  0.84499056157E+01  0.00000000000E+00 0. -1.
          2    1    1    2  502    0 -0.25309403208E+02 -0.12134155728E+02  0.16526220750E+04  0.16528604074E+04  0.00000000000E+00 0.  1.
         -2    1    1    2    0  502  0.25309403208E+02  0.12134155728E+02  0.15310728276E+02  0.31972207092E+02  0.00000000000E+00 0. -1.
</event>
<event>
 4    1  0.5565417E+003  0.2107829E+02  0.7546771E-02  0.1518150E+00
          2   -1    0    0  501    0  0.00000000000E+00  0.00000000000E+00  0.85539211173E+02  0.85539211173E+02  0.00000000000E+00 0.  1.
         -2   -1    0    0    0  501 -0.00000000000E+00 -0.00000000000E+00 -0.52121461109E+01  0.52121461109E+01  0.00000000000E+00 0. -1.
          2    1    1    2  502    0 -0.72160423767E+00 -0.21065934171E+02  0.42837757106E+02  0.47742724357E+02  0.00000000000E+00 0.  1.
         -2    1    1    2    0  502  0.72160423767E+00  0.21065934171E+02  0.37489307956E+02  0.43008632926E+02  0.00000000000E+00 0. -1.
</event>
<event>
 4    1  0.5565417E+003  0.2382842E+02  0.7546771E-02  0.1482350E+00
          2   -1    0    0  501    0  0.00000000000E+00  0.00000000000E+00  0.20567642705E+03  0.20567642705E+03  0.00000000000E+00 0.  1.
         -2   -1    0    0    0  501 -0.00000000000E+00 -0.00000000000E+00 -0.43743238122E+02  0.43743238122E+02  0.00000000000E+00 0.  1.
          2    1    1    2  502    0 -0.23696265917E+02  0.25061333746E+01  0.20167710880E+03  0.20307991022E+03  0.00000000000E+00 0.  1.
         -2    1    1    2    0  502  0.23696265917E+02 -0.25061333746E+01 -0.39743919865E+02  0.46339754953E+02  0.00000000000E+00 0.  1.
</event>
<event>
 4    1  0.5565417E+003  0.2551231E+02  0.7546771E-02  0.1463153E+00
          2   -1    0    0  501    0  0.00000000000E+00  0.00000000000E+00  0.66731946646E+03  0.66731946646E+03  0.00000000000E+00 0.  1.
         -2   -1    0    0    0  501 -0.00000000000E+00 -0.00000000000E+00 -0.19839500831E+02  0.19839500831E+02  0.00000000000E+00 0. -1.
          2    1    1    2  502    0  0.46716330408E+01  0.25080940157E+02  0.65876740053E+03  0.65926122722E+03  0.00000000000E+00 0.  1.
         -2    1    1    2    0  502 -0.46716330408E+01 -0.25080940157E+02 -0.11287434901E+02  0.27897740071E+02  0.00000000000E+00 0. -1.
</event>
<event>
 4    1  0.5565417E+003  0.2289258E+02  0.7546771E-02  0.1493851E+00
          2   -1    0    0  501    0  0.00000000000E+00  0.00000000000E+00  0.74649121942E+02  0.74649121942E+02  0.00000000000E+00 0. -1.
         -2   -1    0    0    0  501 -0.00000000000E+00 -0.00000000000E+00 -0.14041097888E+03  0.14041097888E+03  0.00000000000E+00 0. -1.
          2    1    1    2  502    0 -0.18363049153E+02  0.13669984392E+02  0.71926441130E+02  0.75481673147E+02  0.00000000000E+00 0. -1.
         -2    1    1    2    0  502  0.18363049153E+02 -0.13669984392E+02 -0.13768829807E+03  0.13957842768E+03  0.00000000000E+00 0. -1.
</event>
<event>
 4    1  0.5565417E+003  0.2406993E+02  0.7546771E-02  0.1479483E+00
          2   -1    0    0  501    0  0.00000000000E+00  0.00000000000E+00  0.60462531227E+03  0.60462531227E+03  0.00000000000E+00 0.  1.
         -2   -1    0    0    0  501 -0.00000000000E+00 -0.00000000000E+00 -0.10937721364E+01  0.10937721364E+01  0.00000000000E+00 0.  1.
          2    1    1    2  502    0 -0.15172116600E+01  0.24022066936E+02  0.40838547350E+03  0.40909419038E+03  0.00000000000E+00 0.  1.
         -2    1    1    2    0  502  0.15172116600E+01 -0.24022066936E+02  0.19514606663E+03  0.19662489403E+03  0.00000000000E+00 0.  1.
</event>
<event>
 4    1  0.5565417E+003  0.2412154E+02  0.7546771E-02  0.1478876E+00
          2   -1    0    0  501    0  0.00000000000E+00  0.00000000000E+00  0.53129376364E+03  0.53129376364E+03  0.00000000000E+00 0.  1.
         -2   -1    0    0    0  501 -0.00000000000E+00 -0.00000000000E+00 -0.11403903787E+01  0.11403903787E+01  0.00000000000E+00 0. -1.
          2    1    1    2  502    0 -0.71104761844E+01  0.23049721372E+02  0.31809827387E+03  0.31901153642E+03  0.00000000000E+00 0.  1.
         -2    1    1    2    0  502  0.71104761844E+01 -0.23049721372E+02  0.21205509939E+03  0.21342261760E+03  0.00000000000E+00 0. -1.
</event>
<event>
 4    1  0.5565417E+003  0.4024687E+02  0.7546771E-02  0.1347045E+00
          2   -1    0    0  501    0  0.00000000000E+00  0.00000000000E+00  0.67065231173E+03  0.67065231173E+03  0.00000000000E+00 0. -1.
         -2   -1    0    0    0  501 -0.00000000000E+00 -0.00000000000E+00 -0.27081279945E+02  0.27081279945E+02  0.00000000000E+00 0.  1.
          2    1    1    2  502    0 -0.39543828307E+02 -0.74897572573E+01  0.65473200250E+03  0.65596783909E+03  0.00000000000E+00 0. -1.
         -2    1    1    2    0  502  0.39543828307E+02  0.74897572573E+01 -0.11160970723E+02  0.41765752579E+02  0.00000000000E+00 0.  1.
</event>
<event>
 4    1  0.5565417E+003  0.2891043E+02  0.7546771E-02  0.1429307E+00
          2   -1    0    0  501    0  0.00000000000E+00  0.00000000000E+00  0.88882955629E+03  0.88882955629E+03  0.00000000000E+00 0. -1.
         -2   -1    0    0    0  501 -0.00000000000E+00 -0.00000000000E+00 -0.24915967171E+01  0.24915967171E+01  0.00000000000E+00 0.  1.
          2    1    1    2  502    0 -0.26085827362E+02  0.12463656147E+02  0.79481477410E+03  0.79534039143E+03  0.00000000000E+00 0. -1.
         -2    1    1    2    0  502  0.26085827362E+02 -0.12463656147E+02  0.91523185480E+02  0.95980761584E+02  0.00000000000E+00 0.  1.
</event>
<event>
 4    1  0.5565417E+003  0.2443214E+02  0.7546771E-02  0.1475257E+00
          2   -1    0    0  501    0  0.00000000000E+00  0.00000000000E+00  0.10143591647E+04  0.10143591647E+04  0.00000000000E+00 0. -1.
         -2   -1    0    0    0  501 -0.00000000000E+00 -0.00000000000E+00 -0.34773257975E+01  0.34773257975E+01  0.00000000000E+00 0. -1.
          2    1    1    2  502    0 -0.21884274299E+02 -0.10863146694E+02  0.96930159831E+03  0.96960946669E+03  0.00000000000E+00 0. -1.
         -2    1    1    2    0  502  0.21884274299E+02  0.10863146694E+02  0.41580240634E+02  0.48227023844E+02  0.00000000000E+00 0. -1.
</event>
<event>
 4    1  0.5565417E+003  0.3767634E+02  0.7546771E-02  0.1362668E+00
          2   -1    0    0  501    0  0.00000000000E+00  0.00000000000E+00  0.47396279039E+03  0.47396279039E+03  0.00000000000E+00 0.  1.
         -2   -1    0    0    0  501 -0.00000000000E+00 -0.00000000000E+00 -0.14709797281E+03  0.14709797281E+03  0.00000000000E+00 0.  1.
          2    1    1    2  502    0  0.13181322867E+02  0.35295319135E+02  0.47078527014E+03  0.47229045873E+03  0.00000000000E+00 0.  1.
         -2    1    1    2    0  502 -0.13181322867E+02 -0.35295319135E+02 -0.14392045257E+03  0.14877030447E+03  0.00000000000E+00 0.  1.
</event>
<event>
 4    1  0.5565417E+003  0.3191804E+02  0.7546771E-02  0.1403630E+00
          2   -1    0    0  501    0  0.00000000000E+00  0.00000000000E+00  0.10334719766E+04  0.10334719766E+04  0.00000000000E+00 0.  1.
         -2   -1    0    0    0  501 -0.00000000000E+00 -0.00000000000E+00 -0.24367509913E+01  0.24367509913E+01  0.00000000000E+00 0.  1.
          2    1    1    2  502    0  0.11576537914E+02  0.29744658885E+02  0.91520225774E+03  0.91575866555E+03  0.00000000000E+00 0.  1.
         -2    1    1    2    0  502 -0.11576537914E+02 -0.29744658885E+02  0.11583296782E+03  0.12015006199E+03  0.00000000000E+00 0.  1.
</event>
<event>
 4    1  0.5565417E+003  0.2718231E+02  0.7546771E-02  0.1445785E+00
          2   -1    0    0  501    0  0.00000000000E+00  0.00000000000E+00  0.71263365237E+03  0.71263365237E+03  0.00000000000E+00 0.  1.
         -2   -1    0    0    0  501 -0.00000000000E+00 -0.00000000000E+00 -0.10369121409E+01  0.10369121409E+01  0.00000000000E+00 0.  1.
          2    1    1    2  502    0  0.50537338270E+01  0.26708388387E+02  0.35902050214E+03  0.36004805123E+03  0.00000000000E+00 0.  1.
         -2    1    1    2    0  502 -0.50537338270E+01 -0.26708388387E+02  0.35257623809E+03  0.35362251328E+03  0.00000000000E+00 0.  1.
</event>
<event>
 4    1  0.5565417E+003  0.2277724E+02  0.7546771E-02  0.1495314E+00
          2   -1    0    0  501    0  0.00000000000E+00  0.00000000000E+00  0.67203539283E+03  0.67203539283E+03  0.00000000000E+00 0. -1.
         -2   -1    0    0    0  501 -0.00000000000E+00 -0.00000000000E+00 -0.75809895119E+01  0.75809895119E+01  0.00000000000E+00 0.  1.
          2    1    1    2  502    0 -0.84176139924E+01  0.21164745022E+02  0.65426929382E+03  0.65466564863E+03  0.00000000000E+00 0. -1.
         -2    1    1    2    0  502  0.84176139924E+01 -0.21164745022E+02  0.10185109491E+02  0.24950733707E+02  0.00000000000E+00 0.  1.
</event>
<event>
 4    1  0.5565417E+003  0.4303058E+02  0.7546771E-02  0.1331587E+00
          2   -1    0    0  501    0  0.00000000000E+00  0.00000000000E+00  0.18854236413E+03  0.18854236413E+03  0.00000000000E+00 0. -1.
         -2   -1    0    0    0  501 -0.00000000000E+00 -0.00000000000E+00 -0.19960296143E+02  0.19960296143E+02  0.00000000000E+00 0.  1.
          2    1    1    2  502    0  0.38025818900E+02  0.20141197542E+02  0.15859414464E+03  0.16432812740E+03  0.00000000000E+00 0. -1.
         -2    1    1    2    0  502 -0.38025818900E+02 -0.20141197542E+02  0.99879233447E+01  0.44174532869E+02  0.00000000000E+00 0.  1.
</event>
<event>
 4    1  0.5565417E+003  0.5708193E+02  0.7546771E-02  0.1270083E+00
          2   -1    0    0  501    0  0.00000000000E+00  0.00000000000E+00  0.11120380246E+04  0.11120380246E+04  0.00000000000E+00 0. -1.
         -2   -1    0    0    0  501 -0.00000000000E+00 -0.00000000000E+00 -0.30699318758E+01  0.30699318758E+01  0.00000000000E+00 0. -1.
          2    1    1    2  502    0 -0.45356257809E+01 -0.56901447414E+02  0.67349197716E+03  0.67590664290E+03  0.00000000000E+00 0. -1.
         -2    1    1    2    0  502  0.45356257809E+01  0.56901447414E+02  0.43547611559E+03  0.43920131360E+03  0.00000000000E+00 0. -1.
</event>
<event>
 4    1  0.5565417E+003  0.4418716E+02  0.7546771E-02  0.1325554E+00
          2   -1    0    0  501    0  0.00000000000E+00  0.00000000000E+00  0.38869093648E+03  0.38869093648E+03  0.00000000000E+00 0.  1.
         -2   -1    0    0    0  501 -0.00000000000E+00 -0.00000000000E+00 -0.22711088312E+02  0.22711088312E+02  0.00000000000E+00 0.  1.
          2    1    1    2  502    0 -0.27578009162E+02  0.34524746160E+02  0.36452244021E+03  0.36719084153E+03  0.00000000000E+00 0.  1.
         -2    1    1    2    0  502  0.27578009162E+02 -0.34524746160E+02  0.14574079501E+01  0.44211183254E+02  0.00000000000E+00 0.  1.
</event>
<event>
 4    1  0.5565417E+003  0.3838818E+02  0.7546771E-02  0.1358199E+00
          2   -1    0    0  501    0  0.00000000000E+00  0.00000000000E+00  0.65433082831E+03  0.65433082831E+03  0.00000000000E+00 0. -1.
         -2   -1    0    0    0  501 -0.00000000000E+00 -0.00000000000E+00 -0.33841999142E+02  0.33841999142E+02  0.00000000000E+00 0.  1.
          2    1    1    2  502    0  0.29415930837E+02  0.24664864384E+02  0.64268442065E+03  0.64382988209E+03  0.00000000000E+00 0. -1.
         -2    1    1    2    0  502 -0.29415930837E+02 -0.24664864384E+02 -0.22195591485E+02  0.44342945363E+02  0.00000000000E+00 0.  1.
</event>
<event>
 4    1  0.5565417E+003  0.2278423E+02  0.7546771E-02  0.1495226E+00
          2   -1    0    0  501    0  0.00000000000E+00  0.00000000000E+00  0.65224049197E+03  0.65224049197E+03  0.00000000000E+00 0. -1.
         -2   -1    0    0    0  501 -0.00000000000E+00 -0.00000000000E+00 -0.51536561930E+02  0.51536561930E+02  0.00000000000E+00 0.  1.
          2    1    1    2  502    0 -0.39727751084E+01 -0.22435198434E+02  0.64951272592E+03  0.64991222654E+03  0.00000000000E+00 0. -1.
         -2    1    1    2    0  502  0.39727751084E+01  0.22435198434E+02 -0.48808795884E+02  0.53864827359E+02  0.00000000000E+00 0.  1.
</event>
<event>
 4    1  0.5565417E+003  0.2766908E+02  0.7546771E-02  0.1441000E+00
          2   -1    0    0  501    0  0.00000000000E+00  0.00000000000E+00  0.14789788065E+03  0.14789788065E+03  0.00000000000E+00 0.  1.
         -2   -1    0    0    0  501 -0.00000000000E+00 -0.00000000000E+00 -0.63442443680E+01  0.63442443680E+01  0.00000000000E+00 0.  1.
          2    1    1    2  502    0 -0.27572594766E+02  0.23086221030E+01  0.10386528415E+03  0.10748755727E+03  0.00000000000E+00 0.  1.
         -2    1    1    2    0  502  0.27572594766E+02 -0.23086221030E+01  0.37688352137E+02  0.46754567744E+02  0.00000000000E+00 0.  1.
</event>
<event>
 4    1  0.5565417E+003  0.3398464E+02  0.7546771E-02  0.1387845E+00
          2   -1    0    0  501    0  0.00000000000E+00  0.00000000000E+00  0.54872902512E+03  0.54872902512E+03  0.00000000000E+00 0. -1.
         -2   -1    0    0    0  501 -0.00000000000E+00 -0.00000000000E+00 -0.11142756183E+02  0.11142756183E+02  0.00000000000E+00 0.  1.
          2    1    1    2  502    0 -0.32990597662E+02 -0.81594099970E+01  0.52090761702E+03  0.52201503903E+03  0.00000000000E+00 0. -1.
         -2    1    1    2    0  502  0.32990597662E+02  0.81594099970E+01  0.16678651916E+02  0.37856742271E+02  0.00000000000E+00 0.  1.
</event>
<event>
 4    1  0.5565417E+003  0.2082043E+02  0.7546771E-02  0.1521844E+00
          2   -1    0    0  501    0  0.00000000000E+00  0.00000000000E+00  0.20839158095E+02  0.20839158095E+02  0.00000000000E+00 0.  1.
         -2   -1    0    0    0  501 -0.00000000000E+00 -0.00000000000E+00 -0.42506369236E+02  0.42506369236E+02  0.00000000000E+00 0.  1.
          2    1    1    2  502    0  0.93418653411E+01  0.18606981961E+02  0.11799043613E+02  0.23931311204E+02  0.00000000000E+00 0.  1.
         -2    1    1    2    0  502 -0.93418653411E+01 -0.18606981961E+02 -0.33466254754E+02  0.39414216128E+02  0.00000000000E+00 0.  1.
</event>
<event>
 4    1  0.5869355E+003  0.2683200E+02  0.7546771E-02  0.1449303E+00
          2   -1    0    0  501    0  0.00000000000E+00  0.00000000000E+00  0.82425005841E+03  0.82425005841E+03  0.00000000000E+00 0.  1.
         -2   -1    0    0    0  501 -0.00000000000E+00 -0.00000000000E+00 -0.86183137441E+02  0.86183137441E+02  0.00000000000E+00 0. -1.
          2    1    1    2  502    0  0.31975765854E+01 -0.26640791604E+02  0.82193736784E+03  0.82237521420E+03  0.00000000000E+00 0.  1.
         -2    1    1    2    0  502 -0.31975765854E+01  0.26640791604E+02 -0.83870446875E+02  0.88057981650E+02  0.00000000000E+00 0. -1.
</event>
<event>
 4    1  0.5565417E+003  0.3401594E+02  0.7546771E-02  0.1387617E+00
          2   -1    0    0  501    0  0.00000000000E+00  0.00000000000E+00  0.23926793492E+04  0.23926793492E+04  0.00000000000E+00 0. -1.
         -2   -1    0    0    0  501 -0.00000000000E+00 -0.00000000000E+00 -0.53744765975E+00  0.53744765975E+00  0.00000000000E+00 0.  1.
          2    1    1    2  502    0 -0.33759990623E+02  0.41648422172E+01  0.81728332589E+03  0.81799090316E+03  0.00000000000E+00 0.  1.
         -2    1    1    2    0  502  0.33759990623E+02 -0.41648422172E+01  0.15748585757E+04  0.15752258937E+04  0.00000000000E+00 0. -1.
</event>
<event>
 4    1  0.5565417E+003  0.2209863E+02  0.7546771E-02  0.1504138E+00
          2   -1    0    0  501    0  0.00000000000E+00  0.00000000000E+00  0.23984168138E+03  0.23984168138E+03  0.00000000000E+00 0. -1.
         -2   -1    0    0    0  501 -0.00000000000E+00 -0.00000000000E+00 -0.99282392721E+01  0.99282392721E+01  0.00000000000E+00 0. -1.
          2    1    1    2  502    0 -0.15077015173E+02  0.16156511760E+02  0.22630166982E+03  0.22737808826E+03  0.00000000000E+00 0. -1.
         -2    1    1    2    0  502  0.15077015173E+02 -0.16156511760E+02  0.36117722903E+01  0.22391832392E+02  0.00000000000E+00 0. -1.
</event>
<event>
 4    1  0.5565417E+003  0.2939332E+02  0.7546771E-02  0.1424943E+00
          2   -1    0    0  501    0  0.00000000000E+00  0.00000000000E+00  0.53954950370E+03  0.53954950370E+03  0.00000000000E+00 0.  1.
         -2   -1    0    0    0  501 -0.00000000000E+00 -0.00000000000E+00 -0.44371308922E+01  0.44371308922E+01  0.00000000000E+00 0.  1.
          2    1    1    2  502    0 -0.14740103038E+02  0.25430234146E+02  0.48500104727E+03  0.48589091708E+03  0.00000000000E+00 0.  1.
         -2    1    1    2    0  502  0.14740103038E+02 -0.25430234146E+02  0.50111325537E+02  0.58095717513E+02  0.00000000000E+00 0.  1.
</event>
<event>
 4    1  0.5565417E+003  0.3184217E+02  0.7546771E-02  0.1404236E+00
          2   -1    0    0  501    0  0.00000000000E+00  0.00000000000E+00  0.60068831724E+01  0.60068831724E+01  0.00000000000E+00 0.  1.
         -2   -1    0    0    0  501 -0.00000000000E+00 -0.00000000000E+00 -0.17088250930E+03  0.17088250930E+03  0.00000000000E+00 0.  1.
          2    1    1    2  502    0  0.30456323459E+02 -0.92917237360E+01 -0.72659205576E+02  0.79330220746E+02  0.00000000000E+00 0.  1.
         -2    1    1    2    0  502 -0.30456323459E+02  0.92917237360E+01 -0.92216420555E+02  0.97559171730E+02  0.00000000000E+00 0.  1.
</event>
<event>
 4    1  0.5565417E+003  0.4322016E+02  0.7546771E-02  0.1330583E+00
          2   -1    0    0  501    0  0.00000000000E+00  0.00000000000E+00  0.42539612856E+03  0.42539612856E+03  0.00000000000E+00 0.  1.
         -2   -1    0    0    0  501 -0.00000000000E+00 -0.00000000000E+00 -0.93518660490E+02  0.93518660490E+02  0.00000000000E+00 0.  1.
          2    1    1    2  502    0 -0.30759734014E+02  0.30361508198E+02  0.41923149484E+03  0.42145347155E+03  0.00000000000E+00 0.  1.
         -2    1    1    2    0  502  0.30759734014E+02 -0.30361508198E+02 -0.87354026767E+02  0.97461317501E+02  0.00000000000E+00 0.  1.
</event>
<event>
 4    1  0.5565417E+003  0.2370256E+02  0.7546771E-02  0.1483860E+00
          2   -1    0    0  501    0  0.00000000000E+00  0.00000000000E+00  0.19689141042E+04  0.19689141042E+04  0.00000000000E+00 0. -1.
         -2   -1    0    0    0  501 -0.00000000000E+00 -0.00000000000E+00 -0.31952500457E+00  0.31952500457E+00  0.00000000000E+00 0. -1.
          2    1    1    2  502    0 -0.39929354782E+01  0.23363815744E+02  0.13063507010E+04  0.13065657142E+04  0.00000000000E+00 0. -1.
         -2    1    1    2    0  502  0.39929354782E+01 -0.23363815744E+02  0.66224387817E+03  0.66266791502E+03  0.00000000000E+00 0. -1.
</event>
<event>
 4    1  0.5565417E+003  0.2431362E+02  0.7546771E-02  0.1476630E+00
          2   -1    0    0  501    0  0.00000000000E+00  0.00000000000E+00  0.20844442430E+03  0.20844442430E+03  0.00000000000E+00 0. -1.
         -2   -1    0    0    0  501 -0.00000000000E+00 -0.00000000000E+00 -0.10340914545E+03  0.10340914545E+03  0.00000000000E+00 0. -1.
          2    1    1    2  502    0 -0.29626489986E+01  0.24132444391E+02  0.20629139702E+03  0.20771926403E+03  0.00000000000E+00 0. -1.
         -2    1    1    2    0  502  0.29626489986E+01 -0.24132444391E+02 -0.10125611817E+03  0.10413430572E+03  0.00000000000E+00 0. -1.
</event>
<event>
 4    1  0.5565417E+003  0.2308308E+02  0.7546771E-02  0.1491457E+00
          2   -1    0    0  501    0  0.00000000000E+00  0.00000000000E+00  0.78860445559E+02  0.78860445559E+02  0.00000000000E+00 0.  1.
         -2   -1    0    0    0  501 -0.00000000000E+00 -0.00000000000E+00 -0.43854669799E+02  0.43854669799E+02  0.00000000000E+00 0.  1.
          2    1    1    2  502    0 -0.65138231249E+01  0.22144952400E+02  0.73936230482E+02  0.77455761480E+02  0.00000000000E+00 0.  1.
         -2    1    1    2    0  502  0.65138231249E+01 -0.22144952400E+02 -0.38930454722E+02  0.45259353878E+02  0.00000000000E+00 0.  1.
</event>
<event>
 4    1  0.5565417E+003  0.2736377E+02  0.7546771E-02  0.1443988E+00
          2   -1    0    0  501    0  0.00000000000E+00  0.00000000000E+00  0.13554823752E+04  0.13554823752E+04  0.00000000000E+00 0.  1.
         -2   -1    0    0    0  501 -0.00000000000E+00 -0.00000000000E+00 -0.49654705719E+01  0.49654705719E+01  0.00000000000E+00 0. -1.
          2    1    1    2  502    0 -0.26082133059E+02  0.82763783784E+01  0.13165298273E+04  0.13168141715E+04  0.00000000000E+00 0.  1.
         -2    1    1    2    0  502  0.26082133059E+02 -0.82763783784E+01  0.33987077286E+02  0.43633674225E+02  0.00000000000E+00 0. -1.
</event>
<event>
 4    1  0.5565417E+003  0.3689298E+02  0.7546771E-02  0.1367722E+00
          2   -1    0    0  501    0  0.00000000000E+00  0.00000000000E+00  0.70324160900E+03  0.70324160900E+03  0.00000000000E+00 0. -1.
         -2   -1    0    0    0  501 -0.00000000000E+00 -0.00000000000E+00 -0.11259110373E+02  0.11259110373E+02  0.00000000000E+00 0. -1.
          2    1    1    2  502    0 -0.17058468081E+02 -0.32712388422E+02  0.67108885363E+03  0.67210218059E+03  0.00000000000E+00 0. -1.
         -2    1    1    2    0  502  0.17058468081E+02  0.32712388422E+02  0.20893644997E+02  0.42398538781E+02  0.00000000000E+00 0. -1.
</event>
<event>
 4    1  0.5565417E+003  0.3151708E+02  0.7546771E-02  0.1406856E+00
          2   -1    0    0  501    0  0.00000000000E+00  0.00000000000E+00  0.13402599426E+04  0.13402599426E+04  0.00000000000E+00 0.  1.
         -2   -1    0    0    0  501 -0.00000000000E+00 -0.00000000000E+00 -0.10020869909E+01  0.10020869909E+01  0.00000000000E+00 0.  1.
          2    1    1    2  502    0  0.17024706110E+02 -0.26523299469E+02  0.10118474258E+04  0.10123381545E+04  0.00000000000E+00 0.  1.
         -2    1    1    2    0  502 -0.17024706110E+02  0.26523299469E+02  0.32741042979E+03  0.32892387503E+03  0.00000000000E+00 0.  1.
</event>
<event>
 4    1  0.5565417E+003  0.2462925E+02  0.7546771E-02  0.1472994E+00
          2   -1    0    0  501    0  0.00000000000E+00  0.00000000000E+00  0.90886497671E+03  0.90886497671E+03  0.00000000000E+00 0.  1.
         -2   -1    0    0    0  501 -0.00000000000E+00 -0.00000000000E+00 -0.67364950777E+00  0.67364950777E+00  0.00000000000E+00 0.  1.
          2    1    1    2  502    0  0.23628854644E+02  0.69481832983E+01  0.49780712650E+03  0.49841602624E+03  0.00000000000E+00 0.  1.
         -2    1    1    2    0  502 -0.23628854644E+02 -0.69481832983E+01  0.41038420070E+03  0.41112259997E+03  0.00000000000E+00 0.  1.
</event>
<event>
 4    1  0.5565417E+003  0.2757613E+02  0.7546771E-02  0.1441905E+00
          2   -1    0    0  501    0  0.00000000000E+00  0.00000000000E+00  0.20203987744E+03  0.20203987744E+03  0.00000000000E+00 0. -1.
         -2   -1    0    0    0  501 -0.00000000000E+00 -0.00000000000E+00 -0.51426966869E+01  0.51426966869E+01  0.00000000000E+00 0. -1.
          2    1    1    2  502    0 -0.14306553431E+02 -0.23574681315E+02  0.15208867380E+03  0.15456845658E+03  0.00000000000E+00 0. -1.
         -2    1    1    2    0  502  0.14306553431E+02  0.23574681315E+02  0.44808506949E+02  0.52614117546E+02  0.00000000000E+00 0. -1.
</event>
<event>
 4    1  0.5565417E+003  0.5933458E+02  0.7546771E-02  0.1262110E+00
          2   -1    0    0  501    0  0.00000000000E+00  0.00000000000E+00  0.22564343520E+02  0.22564343520E+02  0.00000000000E+00 0.  1.
         -2   -1    0    0    0  501 -0.00000000000E+00 -0.00000000000E+00 -0.32454024983E+03  0.32454024983E+03  0.00000000000E+00 0. -1.
          2    1    1    2  502    0  0.30718828370E+02  0.50763626340E+02 -0.25928584980E+02  0.64752480220E+02  0.00000000000E+00 0.  1.
         -2    1    1    2    0  502 -0.30718828370E+02 -0.50763626340E+02 -0.27604732133E+03  0.28235211313E+03  0.00000000000E+00 0. -1.
</event>
<event>
 4    1  0.5565417E+003  0.3250501E+02  0.7546771E-02  0.1399007E+00
          2   -1    0    0  501    0  0.00000000000E+00  0.00000000000E+00  0.73440418164E+03  0.73440418164E+03  0.00000000000E+00 0.  1.
         -2   -1    0    0    0  501 -0.00000000000E+00 -0.00000000000E+00 -0.18812987609E+01  0.18812987609E+01  0.00000000000E+00 0. -1.
          2    1    1    2  502    0 -0.32460851345E+02 -0.16937883281E+01  0.54482800462E+03  0.54579678490E+03  0.00000000000E+00 0.  1.
         -2    1    1    2    0  502  0.32460851345E+02  0.16937883281E+01  0.18769487827E+03  0.19048869551E+03  0.00000000000E+00 0. -1.
</event>
<event>
 4    1  0.5565417E+003  0.2108611E+02  0.7546771E-02  0.1518039E+00
          2   -1    0    0  501    0  0.00000000000E+00  0.00000000000E+00  0.18950289337E+04  0.18950289337E+04  0.00000000000E+00 0. -1.
         -2   -1    0    0    0  501 -0.00000000000E+00 -0.00000000000E+00 -0.31723198025E+00  0.31723198025E+00  0.00000000000E+00 0.  1.
          2    1    1    2  502    0  0.11121450523E+01 -0.21056758273E+02  0.14309428228E+04  0.14310981749E+04  0.00000000000E+00 0. -1.
         -2    1    1    2    0  502 -0.11121450523E+01  0.21056758273E+02  0.46376887885E+03  0.46424799076E+03  0.00000000000E+00 0.  1.
</event>
<event>
 4    1  0.5565417E+003  0.2557164E+02  0.7546771E-02  0.1462509E+00
          2   -1    0    0  501    0  0.00000000000E+00  0.00000000000E+00  0.42115938002E+02  0.42115938002E+02  0.00000000000E+00 0.  1.
         -2   -1    0    0    0  501 -0.00000000000E+00 -0.00000000000E+00 -0.41268181425E+02  0.41268181425E+02  0.00000000000E+00 0. -1.
          2    1    1    2  502    0  0.23550938730E+02  0.99630362876E+01  0.33351851767E+02  0.42026834564E+02  0.00000000000E+00 0.  1.
         -2    1    1    2    0  502 -0.23550938730E+02 -0.99630362876E+01 -0.32504095190E+02  0.41357284863E+02  0.00000000000E+00 0. -1.
</event>
<event>
 4    1  0.5565417E+003  0.2102475E+02  0.7546771E-02  0.1518912E+00
          2   -1    0    0  501    0  0.00000000000E+00  0.00000000000E+00  0.65640389853E+02  0.65640389853E+02  0.00000000000E+00 0. -1.
         -2   -1    0    0    0  501 -0.00000000000E+00 -0.00000000000E+00 -0.42969593165E+02  0.42969593165E+02  0.00000000000E+00 0. -1.
          2    1    1    2  502    0  0.11674840082E+02  0.17485377233E+02  0.61203769191E+02  0.64714308086E+02  0.00000000000E+00 0. -1.
         -2    1    1    2    0  502 -0.11674840082E+02 -0.17485377233E+02 -0.38532972502E+02  0.43895674932E+02  0.00000000000E+00 0. -1.
</event>
<event>
 4    1  0.5565417E+003  0.2005149E+02  0.7546771E-02  0.1533250E+00
          2   -1    0    0  501    0  0.00000000000E+00  0.00000000000E+00  0.28456784682E+03  0.28456784682E+03  0.00000000000E+00 0. -1.
         -2   -1    0    0    0  501 -0.00000000000E+00 -0.00000000000E+00 -0.84069342147E+02  0.84069342147E+02  0.00000000000E+00 0. -1.
          2    1    1    2  502    0 -0.11579193615E+02  0.16370227657E+02  0.28301243602E+03  0.28372187265E+03  0.00000000000E+00 0. -1.
         -2    1    1    2    0  502  0.11579193615E+02 -0.16370227657E+02 -0.82513931349E+02  0.84915316316E+02  0.00000000000E+00 0. -1.
</event>
<event>
 4    1  0.5565417E+003  0.2570722E+02  0.7546771E-02  0.1461045E+00
          2   -1    0    0  501    0  0.00000000000E+00  0.00000000000E+00  0.16373195952E+04  0.16373195952E+04  0.00000000000E+00 0. -1.
         -2   -1    0    0    0  501 -0.00000000000E+00 -0.00000000000E+00 -0.52785177391E+00  0.52785177391E+00  0.00000000000E+00 0. -1.
          2    1    1    2  502    0  0.25512970522E+02  0.31543007116E+01  0.12156761731E+04  0.12159479508E+04  0.00000000000E+00 0. -1.
         -2    1    1    2    0  502 -0.25512970522E+02 -0.31543007116E+01  0.42111557037E+03  0.42189949620E+03  0.00000000000E+00 0. -1.
</event>
<event>
 4    1  0.5565417E+003  0.2168279E+02  0.7546771E-02  0.1509736E+00
          2   -1    0    0  501    0  0.00000000000E+00  0.00000000000E+00  0.17761313517E+03  0.17761313517E+03  0.00000000000E+00 0. -1.
         -2   -1    0    0    0  501 -0.00000000000E+00 -0.00000000000E+00 -0.32826132319E+02  0.32826132319E+02  0.00000000000E+00 0.  1.
          2    1    1    2  502    0  0.58081469354E+01  0.20890398675E+02  0.17328167211E+03  0.17463299006E+03  0.00000000000E+00 0. -1.
         -2    1    1    2    0  502 -0.58081469354E+01 -0.20890398675E+02 -0.28494669256E+02  0.35806277433E+02  0.00000000000E+00 0.  1.
</event>
<event>
 4    1  0.5565417E+003  0.2439734E+02  0.7546771E-02  0.1475659E+00
          2   -1    0    0  501    0  0.00000000000E+00  0.00000000000E+00  0.20741238984E+04  0.20741238984E+04  0.00000000000E+00 0. -1.
         -2   -1    0    0    0  501 -0.00000000000E+00 -0.00000000000E+00 -0.33187449867E+00  0.33187449867E+00  0.00000000000E+00 0. -1.
          2    1    1    2  502    0 -0.55567257770E+01  0.23756107330E+02  0.65540085509E+03  0.65585479390E+03  0.00000000000E+00 0. -1.
         -2    1    1    2    0  502  0.55567257770E+01 -0.23756107330E+02  0.14183911688E+04  0.14186009790E+04  0.00000000000E+00 0. -1.
</event>
<event>
 4    1  0.5565417E+003  0.2612286E+02  0.7546771E-02  0.1456624E+00
          2   -1    0    0  501    0  0.00000000000E+00  0.00000000000E+00  0.16701292861E+04  0.16701292861E+04  0.00000000000E+00 0.  1.
         -2   -1    0    0    0  501 -0.00000000000E+00 -0.00000000000E+00 -0.90084236300E+00  0.90084236300E+00  0.00000000000E+00 0.  1.
          2    1    1    2  502    0  0.12109887128E+02 -0.23146371976E+02  0.14522355187E+04  0.14524704492E+04  0.00000000000E+00 0.  1.
         -2    1    1    2    0  502 -0.12109887128E+02  0.23146371976E+02  0.21699292499E+03  0.21855967926E+03  0.00000000000E+00 0.  1.
</event>
<event>
 4    1  0.5565417E+003  0.3903793E+02  0.7546771E-02  0.1354218E+00
          2   -1    0    0  501    0  0.00000000000E+00  0.00000000000E+00  0.54807228398E+03  0.54807228398E+03  0.00000000000E+00 0.  1.
         -2   -1    0    0    0  501 -0.00000000000E+00 -0.00000000000E+00 -0.94474809944E+01  0.94474809944E+01  0.00000000000E+00 0.  1.
          2    1    1    2  502    0  0.18072631979E+02 -0.34602598862E+02  0.50348398903E+03  0.50499513571E+03  0.00000000000E+00 0.  1.
         -2    1    1    2    0  502 -0.18072631979E+02  0.34602598862E+02  0.35140813958E+02  0.52524629273E+02  0.00000000000E+00 0.  1.
</event>
<event>
 4    1  0.5565417E+003  0.3138629E+02  0.7546771E-02  0.1407920E+00
          2   -1    0    0  501    0  0.00000000000E+00  0.00000000000E+00  0.11762216715E+04  0.11762216715E+04  0.00000000000E+00 0.  1.
         -2   -1    0    0    0  501 -0.00000000000E+00 -0.00000000000E+00 -0.49803235612E+01  0.49803235612E+01  0.00000000000E+00 0. -1.
          2    1    1    2  502    0  0.24905118137E+02 -0.19100642849E+02  0.11242785319E+04  0.11247165495E+04  0.00000000000E+00 0.  1.
         -2    1    1    2    0  502 -0.24905118137E+02  0.19100642849E+02  0.46962815967E+02  0.56485445473E+02  0.00000000000E+00 0. -1.
</event>
<event>
 4    1  0.5565417E+003  0.3367170E+02  0.7546771E-02  0.1390150E+00
          2   -1    0    0  501    0  0.00000000000E+00  0.00000000000E+00  0.61214673185E+03  0.61214673185E+03  0.00000000000E+00 0. -1.
         -2   -1    0    0    0  501 -0.00000000000E+00 -0.00000000000E+00 -0.19934644976E+01  0.19934644976E+01  0.00000000000E+00 0.  1.
          2    1    1    2  502    0 -0.25350334883E+02  0.22161736013E+02  0.22331669449E+03  0.22584093531E+03  0.00000000000E+00 0. -1.
         -2    1    1    2    0  502  0.25350334883E+02 -0.22161736013E+02  0.38683657287E+03  0.38829926104E+03  0.00000000000E+00 0.  1.
</event>
<event>
 4    1  0.5565417E+003  0.2089564E+02  0.7546771E-02  0.1520760E+00
          2   -1    0    0  501    0  0.00000000000E+00  0.00000000000E+00  0.68832685013E+02  0.68832685013E+02  0.00000000000E+00 0.  1.
         -2   -1    0    0    0  501 -0.00000000000E+00 -0.00000000000E+00 -0.85314556502E+02  0.85314556502E+02  0.00000000000E+00 0.  1.
          2    1    1    2  502    0 -0.70169578553E+01 -0.19682231856E+02  0.65912051972E+02  0.69144967594E+02  0.00000000000E+00 0.  1.
         -2    1    1    2    0  502  0.70169578553E+01  0.19682231856E+02 -0.82393923461E+02  0.85002273921E+02  0.00000000000E+00 0.  1.
</event>
<event>
 4    1  0.5565417E+003  0.4195113E+02  0.7546771E-02  0.1337417E+00
          2   -1    0    0  501    0  0.00000000000E+00  0.00000000000E+00  0.89049477387E+02  0.89049477387E+02  0.00000000000E+00 0. -1.
         -2   -1    0    0    0  501 -0.00000000000E+00 -0.00000000000E+00 -0.10348131673E+03  0.10348131673E+03  0.00000000000E+00 0.  1.
          2    1    1    2  502    0  0.41939615727E+02 -0.98268890813E+00  0.79370368244E+02  0.89775009886E+02  0.00000000000E+00 0. -1.
         -2    1    1    2    0  502 -0.41939615727E+02  0.98268890813E+00 -0.93802207592E+02  0.10275578424E+03  0.00000000000E+00 0.  1.
</event>
<event>
 4    1  0.5565417E+003  0.2322451E+02  0.7546771E-02  0.1489698E+00
          2   -1    0    0  501    0  0.00000000000E+00  0.00000000000E+00  0.10281525365E+04  0.10281525365E+04  0.00000000000E+00 0.  1.
         -2   -1    0    0    0  501 -0.00000000000E+00 -0.00000000000E+00 -0.36337437978E+01  0.36337437978E+01  0.00000000000E+00 0. -1.
          2    1    1    2  502    0 -0.22428462028E+02 -0.60284162391E+01  0.98946155740E+03  0.98973408109E+03  0.00000000000E+00 0.  1.
         -2    1    1    2    0  502  0.22428462028E+02  0.60284162391E+01  0.35057235348E+02  0.42052199247E+02  0.00000000000E+00 0. -1.
</event>
<event>
 4    1  0.5565417E+003  0.2044082E+02  0.7546771E-02  0.1527400E+00
          2   -1    0    0  501    0  0.00000000000E+00  0.00000000000E+00  0.11332653609E+02  0.11332653609E+02  0.00000000000E+00 0. -1.
         -2   -1    0    0    0  501 -0.00000000000E+00 -0.00000000000E+00 -0.36947971437E+02  0.36947971437E+02  0.00000000000E+00 0. -1.
          2    1    1    2  502    0  0.14784194777E+02 -0.14115757088E+02 -0.11693738264E+02  0.23549321179E+02  0.00000000000E+00 0. -1.
         -2    1    1    2    0  502 -0.14784194777E+02  0.14115757088E+02 -0.13921579564E+02  0.24731303867E+02  0.00000000000E+00 0. -1.
</event>
<event>
 4    1  0.5565417E+003  0.4097578E+02  0.7546771E-02  0.1342861E+00
          2   -1    0    0  501    0  0.00000000000E+00  0.00000000000E+00  0.43317209405E+03  0.43317209405E+03  0.00000000000E+00 0. -1.
         -2   -1    0    0    0  501 -0.00000000000E+00 -0.00000000000E+00 -0.76971526139E+01  0.76971526139E+01  0.00000000000E+00 0. -1.
          2    1    1    2  502    0 -0.40563824269E+02  0.57957814846E+01  0.36805008135E+03  0.37032401665E+03  0.00000000000E+00 0. -1.
         -2    1    1    2    0  502  0.40563824269E+02 -0.57957814846E+01  0.57424860081E+02  0.70545230014E+02  0.00000000000E+00 0. -1.
</event>
<event>
 4    1  0.5565417E+003  0.3583201E+02  0.7546771E-02  0.1374806E+00
          2   -1    0    0  501    0  0.00000000000E+00  0.00000000000E+00  0.25027939255E+01  0.25027939255E+01  0.00000000000E+00 0.  1.
         -2   -1    0    0    0  501 -0.00000000000E+00 -0.00000000000E+00 -0.96188099293E+03  0.96188099293E+03  0.00000000000E+00 0. -1.
          2    1    1    2  502    0  0.33025934184E+02  0.13900384408E+02 -0.15028811464E+03  0.15450064860E+03  0.00000000000E+00 0.  1.
         -2    1    1    2    0  502 -0.33025934184E+02 -0.13900384408E+02 -0.80909008436E+03  0.80988313826E+03  0.00000000000E+00 0. -1.
</event>
<event>
 4    1  0.5565417E+003  0.2141377E+02  0.7546771E-02  0.1513439E+00
          2   -1    0    0  501    0  0.00000000000E+00  0.00000000000E+00  0.38580446753E+03  0.38580446753E+03  0.00000000000E+00 0.  1.
         -2   -1    0    0    0  501 -0.00000000000E+00 -0.00000000000E+00 -0.24313172659E+03  0.24313172659E+03  0.00000000000E+00 0. -1.
          2    1    1    2  502    0 -0.20881332865E+02  0.47454818078E+01  0.38503488390E+03  0.38562988924E+03  0.00000000000E+00 0.  1.
         -2    1    1    2    0  502  0.20881332865E+02 -0.47454818078E+01 -0.24236214295E+03  0.24330630488E+03  0.00000000000E+00 0. -1.
</event>
<event>
 4    1  0.5565417E+003  0.2661012E+02  0.7546771E-02  0.1451564E+00
          2   -1    0    0  501    0  0.00000000000E+00  0.00000000000E+00  0.86755270431E+03  0.86755270431E+03  0.00000000000E+00 0. -1.
         -2   -1    0    0    0  501 -0.00000000000E+00 -0.00000000000E+00 -0.10647986030E+01  0.10647986030E+01  0.00000000000E+00 0. -1.
          2    1    1    2  502    0  0.14118906073E+02  0.22555599277E+02  0.64309547416E+03  0.64364577794E+03  0.00000000000E+00 0. -1.
         -2    1    1    2    0  502 -0.14118906073E+02 -0.22555599277E+02  0.22339243155E+03  0.22497172498E+03  0.00000000000E+00 0. -1.
</event>
<event>
 4    1  0.5565417E+003  0.2490272E+02  0.7546771E-02  0.1469895E+00
          2   -1    0    0  501    0  0.00000000000E+00  0.00000000000E+00  0.10339334494E+04  0.10339334494E+04  0.00000000000E+00 0.  1.
         -2   -1    0    0    0  501 -0.00000000000E+00 -0.00000000000E+00 -0.11512441959E+01  0.11512441959E+01  0.00000000000E+00 0.  1.
          2    1    1    2  502    0 -0.78244692068E+01  0.23641555003E+02  0.87458314682E+03  0.87493761272E+03  0.00000000000E+00 0.  1.
         -2    1    1    2    0  502  0.78244692068E+01 -0.23641555003E+02  0.15819905843E+03  0.16014708092E+03  0.00000000000E+00 0.  1.
</event>
<event>
 4    1  0.5565417E+003  0.2089956E+02  0.7546771E-02  0.1520704E+00
          2   -1    0    0  501    0  0.00000000000E+00  0.00000000000E+00  0.51841742846E+00  0.51841742846E+00  0.00000000000E+00 0. -1.
         -2   -1    0    0    0  501 -0.00000000000E+00 -0.00000000000E+00 -0.17281738755E+04  0.17281738755E+04  0.00000000000E+00 0.  1.
          2    1    1    2  502    0 -0.16352280580E+02 -0.13015172936E+02 -0.24507230701E+03  0.24596184149E+03  0.00000000000E+00 0. -1.
         -2    1    1    2    0  502  0.16352280580E+02  0.13015172936E+02 -0.14825831511E+04  0.14827304515E+04  0.00000000000E+00 0.  1.
</event>
<event>
 4    1  0.5565417E+003  0.3030607E+02  0.7546771E-02  0.1416955E+00
          2   -1    0    0  501    0  0.00000000000E+00  0.00000000000E+00  0.27888771694E+03  0.27888771694E+03  0.00000000000E+00 0.  1.
         -2   -1    0    0    0  501 -0.00000000000E+00 -0.00000000000E+00 -0.13728775735E+02  0.13728775735E+02  0.00000000000E+00 0.  1.
          2    1    1    2  502    0 -0.30304902874E+02 -0.26544653871E+00  0.26013793235E+03  0.26189731088E+03  0.00000000000E+00 0.  1.
         -2    1    1    2    0  502  0.30304902874E+02  0.26544653871E+00  0.50210088547E+01  0.30719181793E+02  0.00000000000E+00 0.  1.
</event>
<event>
 4    1  0.5565417E+003  0.2986182E+02  0.7546771E-02  0.1420801E+00
          2   -1    0    0  501    0  0.00000000000E+00  0.00000000000E+00  0.91447547480E+03  0.91447547480E+03  0.00000000000E+00 0. -1.
         -2   -1    0    0    0  501 -0.00000000000E+00 -0.00000000000E+00 -0.14384798735E+02  0.14384798735E+02  0.00000000000E+00 0. -1.
          2    1    1    2  502    0  0.24484452753E+02  0.17095025421E+02  0.89845772030E+03  0.89895383835E+03  0.00000000000E+00 0. -1.
         -2    1    1    2    0  502 -0.24484452753E+02 -0.17095025421E+02  0.16329557646E+01  0.29906435183E+02  0.00000000000E+00 0. -1.
</event>
<event>
 4    1  0.5565417E+003  0.2881136E+02  0.7546771E-02  0.1430215E+00
          2   -1    0    0  501    0  0.00000000000E+00  0.00000000000E+00  0.10521260164E+04  0.10521260164E+04  0.00000000000E+00 0.  1.
         -2   -1    0    0    0  501 -0.00000000000E+00 -0.00000000000E+00 -0.30507892912E+02  0.30507892912E+02  0.00000000000E+00 0.  1.
          2    1    1    2  502    0  0.26127439730E+02 -0.12142955860E+02  0.10450806327E+04  0.10454777010E+04  0.00000000000E+00 0.  1.
         -2    1    1    2    0  502 -0.26127439730E+02  0.12142955860E+02 -0.23462509148E+02  0.37156208356E+02  0.00000000000E+00 0.  1.
</event>
<event>
 4    1  0.5565417E+003  0.2169118E+02  0.7546771E-02  0.1509621E+00
          2   -1    0    0  501    0  0.00000000000E+00  0.00000000000E+00  0.47471504139E+02  0.47471504139E+02  0.00000000000E+00 0. -1.
         -2   -1    0    0    0  501 -0.00000000000E+00 -0.00000000000E+00 -0.38304728251E+02  0.38304728251E+02  0.00000000000E+00 0.  1.
          2    1    1    2  502    0  0.54257359238E+01 -0.21001637973E+02  0.41508276805E+02  0.46834223076E+02  0.00000000000E+00 0. -1.
         -2    1    1    2    0  502 -0.54257359238E+01  0.21001637973E+02 -0.32341500916E+02  0.38942009313E+02  0.00000000000E+00 0.  1.
</event>
<event>
 4    1  0.5565417E+003  0.2113606E+02  0.7546771E-02  0.1517331E+00
          2   -1    0    0  501    0  0.00000000000E+00  0.00000000000E+00  0.49396231004E+02  0.49396231004E+02  0.00000000000E+00 0. -1.
         -2   -1    0    0    0  501 -0.00000000000E+00 -0.00000000000E+00 -0.14520391556E+02  0.14520391556E+02  0.00000000000E+00 0.  1.
          2    1    1    2  502    0 -0.18113239911E+02  0.10892370858E+02  0.37064605529E+02  0.42667530817E+02  0.00000000000E+00 0. -1.
         -2    1    1    2    0  502  0.18113239911E+02 -0.10892370858E+02 -0.21887660806E+01  0.21249091743E+02  0.00000000000E+00 0.  1.
</event>
<event>
 4    1  0.5565417E+003  0.3211576E+02  0.7546771E-02  0.1402059E+00
          2   -1    0    0  501    0  0.00000000000E+00  0.00000000000E+00  0.74968958544E+01  0.74968958544E+01  0.00000000000E+00 0. -1.
         -2   -1    0    0    0  501 -0.00000000000E+00 -0.00000000000E+00 -0.17648221306E+03  0.17648221306E+03  0.00000000000E+00 0. -1.
          2    1    1    2  502    0  0.19889936683E+02 -0.25215324049E+02 -0.41303396687E+02  0.52320098682E+02  0.00000000000E+00 0. -1.
         -2    1    1    2    0  502 -0.19889936683E+02  0.25215324049E+02 -0.12768192052E+03  0.13165901023E+03  0.00000000000E+00 0. -1.
</event>
<event>
 4    1  0.5565417E+003  0.4055554E+02  0.7546771E-02  0.1345261E+00
          2   -1    0    0  501    0  0.00000000000E+00  0.00000000000E+00  0.36849199258E+03  0.36849199258E+03  0.00000000000E+00 0. -1.
         -2   -1    0    0    0  501 -0.00000000000E+00 -0.00000000000E+00 -0.15449881480E+02  0.15449881480E+02  0.00000000000E+00 0.  1.
          2    1    1    2  502    0 -0.26789616923E+02  0.30447791870E+02  0.33840393155E+03  0.34082542818E+03  0.00000000000E+00 0. -1.
         -2    1    1    2    0  502  0.26789616923E+02 -0.30447791870E+02  0.14638179544E+02  0.43116445876E+02  0.00000000000E+00 0.  1.
</event>
<event>
 4    1  0.5565417E+003  0.2612616E+02  0.7546771E-02  0.1456589E+00
          2   -1    0    0  501    0  0.00000000000E+00  0.00000000000E+00  0.82355053458E+03  0.82355053458E+03  0.00000000000E+00 0.  1.
         -2   -1    0    0    0  501 -0.00000000000E+00 -0.00000000000E+00 -0.28679973355E+02  0.28679973355E+02  0.00000000000E+00 0. -1.
          2    1    1    2  502    0 -0.24834875126E+02 -0.81120511812E+01  0.81734825156E+03  0.81776570038E+03  0.00000000000E+00 0.  1.
         -2    1    1    2    0  502  0.24834875126E+02  0.81120511812E+01 -0.22477690333E+02  0.34464807552E+02  0.00000000000E+00 0. -1.
</event>
<event>
 4    1  0.5565417E+003  0.2968680E+02  0.7546771E-02  0.1422338E+00
          2   -1    0    0  501    0  0.00000000000E+00  0.00000000000E+00  0.42410383863E+01  0.42410383863E+01  0.00000000000E+00 0. -1.
         -2   -1    0    0    0  501 -0.00000000000E+00 -0.00000000000E+00 -0.23545672795E+03  0.23545672795E+03  0.00000000000E+00 0. -1.
          2    1    1    2  502    0  0.29645472535E+02  0.15656316196E+01 -0.15667990591E+03  0.15946754579E+03  0.00000000000E+00 0. -1.
         -2    1    1    2    0  502 -0.29645472535E+02 -0.15656316196E+01 -0.74535783662E+02  0.80230220555E+02  0.00000000000E+00 0. -1.
</event>
<event>
 4    1  0.5565417E+003  0.2132264E+02  0.7546771E-02  0.1514708E+00
          2   -1    0    0  501    0  0.00000000000E+00  0.00000000000E+00  0.50623886587E+01  0.50623886587E+01  0.00000000000E+00 0.  1.
         -2   -1    0    0    0  501 -0.00000000000E+00 -0.00000000000E+00 -0.13940121652E+03  0.13940121652E+03  0.00000000000E+00 0.  1.
          2    1    1    2  502    0 -0.23916350185E+01  0.21188091988E+02 -0.24087420290E+02  0.32169224056E+02  0.00000000000E+00 0.  1.
         -2    1    1    2    0  502  0.23916350185E+01 -0.21188091988E+02 -0.11025140757E+03  0.11229438112E+03  0.00000000000E+00 0.  1.
</event>
<event>
 4    1  0.5565417E+003  0.7318150E+02  0.7546771E-02  0.1220628E+00
          2   -1    0    0  501    0  0.00000000000E+00  0.00000000000E+00  0.33383814909E+03  0.33383814909E+03  0.00000000000E+00 0. -1.
         -2   -1    0    0    0  501 -0.00000000000E+00 -0.00000000000E+00 -0.13373401399E+03  0.13373401399E+03  0.00000000000E+00 0.  1.
          2    1    1    2  502    0  0.58662144363E+02 -0.43752538285E+02  0.31936823876E+03  0.32764554585E+03  0.00000000000E+00 0. -1.
         -2    1    1    2    0  502 -0.58662144363E+02  0.43752538285E+02 -0.11926410366E+03  0.13992661723E+03  0.00000000000E+00 0.  1.
</event>
<event>
 4    1  0.5565417E+003  0.2005965E+02  0.7546771E-02  0.1533126E+00
          2   -1    0    0  501    0  0.00000000000E+00  0.00000000000E+00  0.78617920828E+03  0.78617920828E+03  0.00000000000E+00 0. -1.
         -2   -1    0    0    0  501 -0.00000000000E+00 -0.00000000000E+00 -0.21857954038E+01  0.21857954038E+01  0.00000000000E+00 0. -1.
          2    1    1    2  502    0 -0.47486206638E+01  0.19489487251E+02  0.73695447054E+03  0.73722742838E+03  0.00000000000E+00 0. -1.
         -2    1    1    2    0  502  0.47486206638E+01 -0.19489487251E+02  0.47038942335E+02  0.51137575299E+02  0.00000000000E+00 0. -1.
</event>
<event>
 4    1  0.5565417E+003  0.2187373E+02  0.7546771E-02  0.1507147E+00
          2   -1    0    0  501    0  0.00000000000E+00  0.00000000000E+00  0.16086317354E+04  0.16086317354E+04  0.00000000000E+00 0.  1.
         -2   -1    0    0    0  501 -0.00000000000E+00 -0.00000000000E+00 -0.45344221949E+02  0.45344221949E+02  0.00000000000E+00 0. -1.
          2    1    1    2  502    0 -0.13330354420E+02 -0.17342483066E+02  0.16059149817E+04  0.16060639429E+04  0.00000000000E+00 0.  1.
         -2    1    1    2    0  502  0.13330354420E+02  0.17342483066E+02 -0.42627468339E+02  0.47912014410E+02  0.00000000000E+00 0. -1.
</event>
<event>
 4    1  0.5565417E+003  0.3343256E+02  0.7546771E-02  0.1391931E+00
          2   -1    0    0  501    0  0.00000000000E+00  0.00000000000E+00  0.18758796691E+02  0.18758796691E+02  0.00000000000E+00 0. -1.
         -2   -1    0    0    0  501 -0.00000000000E+00 -0.00000000000E+00 -0.90056760050E+02  0.90056760050E+02  0.00000000000E+00 0. -1.
          2    1    1    2  502    0  0.24692906215E+02 -0.22538777404E+02 -0.40004048584E+01  0.33671046067E+02  0.00000000000E+00 0. -1.
         -2    1    1    2    0  502 -0.24692906215E+02  0.22538777404E+02 -0.67297558502E+02  0.75144510674E+02  0.00000000000E+00 0. -1.
</event>
<event>
 4    1  0.5565417E+003  0.4712359E+02  0.7546771E-02  0.1311150E+00
          2   -1    0    0  501    0  0.00000000000E+00  0.00000000000E+00  0.14479500370E+04  0.14479500370E+04  0.00000000000E+00 0.  1.
         -2   -1    0    0    0  501 -0.00000000000E+00 -0.00000000000E+00 -0.50239105179E+02  0.50239105179E+02  0.00000000000E+00 0. -1.
          2    1    1    2  502    0 -0.27577362380E+02 -0.38211543120E+02  0.14364276896E+04  0.14372004524E+04  0.00000000000E+00 0.  1.
         -2    1    1    2    0  502  0.27577362380E+02  0.38211543120E+02 -0.38716757799E+02  0.60988689754E+02  0.00000000000E+00 0. -1.
</event>
<event>
 4    1  0.5565417E+003  0.2510376E+02  0.7546771E-02  0.1467646E+00
          2   -1    0    0  501    0  0.00000000000E+00  0.00000000000E+00  0.61727460122E+03  0.61727460122E+03  0.00000000000E+00 0. -1.
         -2   -1    0    0    0  501 -0.00000000000E+00 -0.00000000000E+00 -0.97964693128E+01  0.97964693128E+01  0.00000000000E+00 0.  1.
          2    1    1    2  502    0 -0.25098571908E+02  0.51047662573E+00  0.60048767816E+03  0.60101218833E+03  0.00000000000E+00 0. -1.
         -2    1    1    2    0  502  0.25098571908E+02 -0.51047662573E+00  0.69904537494E+01  0.26058882206E+02  0.00000000000E+00 0.  1.
</event>
<event>
 4    1  0.5565417E+003  0.2337197E+02  0.7546771E-02  0.1487879E+00
          2   -1    0    0  501    0  0.00000000000E+00  0.00000000000E+00  0.82561837221E+03  0.82561837221E+03  0.00000000000E+00 0.  1.
         -2   -1    0    0    0  501 -0.00000000000E+00 -0.00000000000E+00 -0.43378316068E+01  0.43378316068E+01  0.00000000000E+00 0.  1.
          2    1    1    2  502    0  0.17139926928E+02  0.15889366666E+02  0.79266268054E+03  0.79300717159E+03  0.00000000000E+00 0.  1.
         -2    1    1    2    0  502 -0.17139926928E+02 -0.15889366666E+02  0.28617860067E+02  0.36949032233E+02  0.00000000000E+00 0.  1.
</event>
<event>
 4    1  0.5565417E+003  0.2459820E+02  0.7546771E-02  0.1473349E+00
          2   -1    0    0  501    0  0.00000000000E+00  0.00000000000E+00  0.19917381012E+02  0.19917381012E+02  0.00000000000E+00 0.  1.
         -2   -1    0    0    0  501 -0.00000000000E+00 -0.00000000000E+00 -0.11589465116E+03  0.11589465116E+03  0.00000000000E+00 0. -1.
          2    1    1    2  502    0  0.15001288845E+02  0.19494426361E+02  0.10342335822E+02  0.26683988390E+02  0.00000000000E+00 0.  1.
         -2    1    1    2    0  502 -0.15001288845E+02 -0.19494426361E+02 -0.10631960597E+03  0.10912804378E+03  0.00000000000E+00 0. -1.
</event>
<event>
 4    1  0.5565417E+003  0.3255538E+02  0.7546771E-02  0.1398615E+00
          2   -1    0    0  501    0  0.00000000000E+00  0.00000000000E+00  0.26718709785E+04  0.26718709785E+04  0.00000000000E+00 0.  1.
         -2   -1    0    0    0  501 -0.00000000000E+00 -0.00000000000E+00 -0.39925193289E+00  0.39925193289E+00  0.00000000000E+00 0. -1.
          2    1    1    2  502    0  0.24448409160E+00  0.32554457972E+02  0.14431728554E+04  0.14435400039E+04  0.00000000000E+00 0.  1.
         -2    1    1    2    0  502 -0.24448409160E+00 -0.32554457972E+02  0.12282988712E+04  0.12287302265E+04  0.00000000000E+00 0. -1.
</event>
<event>
 4    1  0.5565417E+003  0.3225755E+02  0.7546771E-02  0.1400942E+00
          2   -1    0    0  501    0  0.00000000000E+00  0.00000000000E+00  0.60092683110E+03  0.60092683110E+03  0.00000000000E+00 0.  1.
         -2   -1    0    0    0  501 -0.00000000000E+00 -0.00000000000E+00 -0.24901699133E+01  0.24901699133E+01  0.00000000000E+00 0.  1.
          2    1    1    2  502    0 -0.32132854386E+02 -0.28336226834E+01  0.46574280830E+03  0.46685855806E+03  0.00000000000E+00 0.  1.
         -2    1    1    2    0  502  0.32132854386E+02  0.28336226834E+01  0.13269385289E+03  0.13655844296E+03  0.00000000000E+00 0.  1.
</event>
<event>
 4    1  0.5565417E+003  0.2478662E+02  0.7546771E-02  0.1471205E+00
          2   -1    0    0  501    0  0.00000000000E+00  0.00000000000E+00  0.94330002253E+03  0.94330002253E+03  0.00000000000E+00 0. -1.
         -2   -1    0    0    0  501 -0.00000000000E+00 -0.00000000000E+00 -0.67867454598E+00  0.67867454598E+00  0.00000000000E+00 0. -1.
          2    1    1    2  502    0  0.32685342572E+01  0.24570172415E+02  0.56609348825E+03  0.56663587438E+03  0.00000000000E+00 0. -1.
         -2    1    1    2    0  502 -0.32685342572E+01 -0.24570172415E+02  0.37652785973E+03  0.37734282270E+03  0.00000000000E+00 0. -1.
</event>
<event>
 4    1  0.5565417E+003  0.3256666E+02  0.7546771E-02  0.1398528E+00
          2   -1    0    0  501    0  0.00000000000E+00  0.00000000000E+00  0.10284471848E+03  0.10284471848E+03  0.00000000000E+00 0.  1.
         -2   -1    0    0    0  501 -0.00000000000E+00 -0.00000000000E+00 -0.12757144524E+02  0.12757144524E+02  0.00000000000E+00 0.  1.
          2    1    1    2  502    0  0.36437296239E+01 -0.32362163138E+02  0.19741150412E+02  0.38082796485E+02  0.00000000000E+00 0.  1.
         -2    1    1    2    0  502 -0.36437296239E+01  0.32362163138E+02  0.70346423542E+02  0.77519066518E+02  0.00000000000E+00 0.  1.
</event>
<event>
 4    1  0.5565417E+003  0.2167696E+02  0.7546771E-02  0.1509815E+00
          2   -1    0    0  501    0  0.00000000000E+00  0.00000000000E+00  0.51912996409E+03  0.51912996409E+03  0.00000000000E+00 0.  1.
         -2   -1    0    0    0  501 -0.00000000000E+00 -0.00000000000E+00 -0.90848858286E+00  0.90848858286E+00  0.00000000000E+00 0.  1.
          2    1    1    2  502    0  0.10501004237E+02 -0.18963623517E+02  0.24334644748E+03  0.24431001537E+03  0.00000000000E+00 0.  1.
         -2    1    1    2    0  502 -0.10501004237E+02  0.18963623517E+02  0.27487502802E+03  0.27572843730E+03  0.00000000000E+00 0.  1.
</event>
<event>
 4    1  0.5565417E+003  0.2819927E+02  0.7546771E-02  0.1435919E+00
          2   -1    0    0  501    0  0.00000000000E+00  0.00000000000E+00  0.71570995352E+03  0.71570995352E+03  0.00000000000E+00 0.  1.
         -2   -1    0    0    0  501 -0.00000000000E+00 -0.00000000000E+00 -0.69311556789E+01  0.69311556789E+01  0.00000000000E+00 0.  1.
          2    1    1    2  502    0 -0.25226473031E+02  0.12602533330E+02  0.68548605510E+03  0.68606583541E+03  0.00000000000E+00 0.  1.
         -2    1    1    2    0  502  0.25226473031E+02 -0.12602533330E+02  0.23292742742E+02  0.36575273784E+02  0.00000000000E+00 0.  1.
</event>
<event>
 4    1  0.5565417E+003  0.3234088E+02  0.7546771E-02  0.1400288E+00
          2   -1    0    0  501    0  0.00000000000E+00  0.00000000000E+00  0.57264856649E+03  0.57264856649E+03  0.00000000000E+00 0.  1.
         -2   -1    0    0    0  501 -0.00000000000E+00 -0.00000000000E+00 -0.36648334734E+01  0.36648334734E+01  0.00000000000E+00 0.  1.
          2    1    1    2  502    0  0.12565145981E+02  0.29800164181E+02  0.48857907930E+03  0.48964829154E+03  0.00000000000E+00 0.  1.
         -2    1    1    2    0  502 -0.12565145981E+02 -0.29800164181E+02  0.80404653722E+02  0.86665108429E+02  0.00000000000E+00 0.  1.
</event>
<event>
 4    1  0.5565417E+003  0.2377885E+02  0.7546771E-02  0.1482943E+00
          2   -1    0    0  501    0  0.00000000000E+00  0.00000000000E+00  0.52103686094E+03  0.52103686094E+03  0.00000000000E+00 0. -1.
         -2   -1    0    0    0  501 -0.00000000000E+00 -0.00000000000E+00 -0.11548711724E+01  0.11548711724E+01  0.00000000000E+00 0. -1.
          2    1    1    2  502    0 -0.12874091031E+02  0.19992273766E+02  0.19581476844E+03  0.19725328075E+03  0.00000000000E+00 0. -1.
         -2    1    1    2    0  502  0.12874091031E+02 -0.19992273766E+02  0.32406722133E+03  0.32493845135E+03  0.00000000000E+00 0. -1.
</event>
<event>
 4    1  0.5565417E+003  0.3095082E+02  0.7546771E-02  0.1411510E+00
          2   -1    0    0  501    0  0.00000000000E+00  0.00000000000E+00  0.84942540757E+02  0.84942540757E+02  0.00000000000E+00 0.  1.
         -2   -1    0    0    0  501 -0.00000000000E+00 -0.00000000000E+00 -0.31542193507E+02  0.31542193507E+02  0.00000000000E+00 0. -1.
          2    1    1    2  502    0 -0.22934043179E+02 -0.20784206150E+02  0.73383448872E+02  0.79643481405E+02  0.00000000000E+00 0.  1.
         -2    1    1    2    0  502  0.22934043179E+02  0.20784206150E+02 -0.19983101622E+02  0.36841252860E+02  0.00000000000E+00 0. -1.
</event>
<event>
 4    1  0.5565417E+003  0.2047780E+02  0.7546771E-02  0.1526853E+00
          2   -1    0    0  501    0  0.00000000000E+00  0.00000000000E+00  0.13819887533E+04  0.13819887533E+04  0.00000000000E+00 0.  1.
         -2   -1    0    0    0  501 -0.00000000000E+00 -0.00000000000E+00 -0.55737894851E+00  0.55737894851E+00  0.00000000000E+00 0.  1.
          2    1    1    2  502    0  0.14980184594E+02 -0.13961896599E+02  0.11573163081E+04  0.11574974633E+04  0.00000000000E+00 0.  1.
         -2    1    1    2    0  502 -0.14980184594E+02  0.13961896599E+02  0.22411506624E+03  0.22504866897E+03  0.00000000000E+00 0.  1.
</event>
<event>
 4    1  0.5565417E+003  0.2400451E+02  0.7546771E-02  0.1480255E+00
          2   -1    0    0  501    0  0.00000000000E+00  0.00000000000E+00  0.16060564410E+04  0.16060564410E+04  0.00000000000E+00 0.  1.
         -2   -1    0    0    0  501 -0.00000000000E+00 -0.00000000000E+00 -0.35878287438E+00  0.35878287438E+00  0.00000000000E+00 0.  1.
          2    1    1    2  502    0  0.55045416099E+01  0.23364845905E+02  0.79957999882E+03  0.79994024184E+03  0.00000000000E+00 0.  1.
         -2    1    1    2    0  502 -0.55045416099E+01 -0.23364845905E+02  0.80611765930E+03  0.80647498203E+03  0.00000000000E+00 0.  1.
</event>
<event>
 4    1  0.5565417E+003  0.2432920E+02  0.7546771E-02  0.1476449E+00
          2   -1    0    0  501    0  0.00000000000E+00  0.00000000000E+00  0.14908833695E+03  0.14908833695E+03  0.00000000000E+00 0.  1.
         -2   -1    0    0    0  501 -0.00000000000E+00 -0.00000000000E+00 -0.30440957739E+03  0.30440957739E+03  0.00000000000E+00 0. -1.
          2    1    1    2  502    0 -0.23462496604E+01  0.24215800014E+02  0.14760482204E+03  0.14959643494E+03  0.00000000000E+00 0.  1.
         -2    1    1    2    0  502  0.23462496604E+01 -0.24215800014E+02 -0.30292606247E+03  0.30390147940E+03  0.00000000000E+00 0. -1.
</event>
<event>
 4    1  0.5565417E+003  0.3270744E+02  0.7546771E-02  0.1397439E+00
          2   -1    0    0  501    0  0.00000000000E+00  0.00000000000E+00  0.12542905126E+03  0.12542905126E+03  0.00000000000E+00 0. -1.
         -2   -1    0    0    0  501 -0.00000000000E+00 -0.00000000000E+00 -0.18513891093E+03  0.18513891093E+03  0.00000000000E+00 0.  1.
          2    1    1    2  502    0  0.86835057523E+00 -0.32695914803E+02  0.12181008562E+03  0.12612483434E+03  0.00000000000E+00 0. -1.
         -2    1    1    2    0  502 -0.86835057523E+00  0.32695914803E+02 -0.18151994528E+03  0.18444312785E+03  0.00000000000E+00 0.  1.
</event>
<event>
 4    1  0.5565417E+003  0.2297023E+02  0.7546771E-02  0.1492872E+00
          2   -1    0    0  501    0  0.00000000000E+00  0.00000000000E+00  0.40342542431E+02  0.40342542431E+02  0.00000000000E+00 0.  1.
         -2   -1    0    0    0  501 -0.00000000000E+00 -0.00000000000E+00 -0.22091383041E+03  0.22091383041E+03  0.00000000000E+00 0.  1.
          2    1    1    2  502    0  0.13956981189E+02 -0.18243740601E+02  0.36416754403E+02  0.43055910120E+02  0.00000000000E+00 0.  1.
         -2    1    1    2    0  502 -0.13956981189E+02  0.18243740601E+02 -0.21698804238E+03  0.21820046272E+03  0.00000000000E+00 0.  1.
</event>
<event>
 4    1  0.5565417E+003  0.4870240E+02  0.7546771E-02  0.1303899E+00
          2   -1    0    0  501    0  0.00000000000E+00  0.00000000000E+00  0.28500578370E+03  0.28500578370E+03  0.00000000000E+00 0.  1.
         -2   -1    0    0    0  501 -0.00000000000E+00 -0.00000000000E+00 -0.27372842367E+02  0.27372842367E+02  0.00000000000E+00 0.  1.
          2    1    1    2  502    0 -0.42292740147E+02  0.24150534163E+02  0.25911641120E+03  0.26365363400E+03  0.00000000000E+00 0.  1.
         -2    1    1    2    0  502  0.42292740147E+02 -0.24150534163E+02 -0.14834698615E+01  0.48724992071E+02  0.00000000000E+00 0.  1.
</event>
<event>
 4    1  0.5565417E+003  0.7867377E+02  0.7546771E-02  0.1206960E+00
          2   -1    0    0  501    0  0.00000000000E+00  0.00000000000E+00  0.67271548946E+03  0.67271548946E+03  0.00000000000E+00 0.  1.
         -2   -1    0    0    0  501 -0.00000000000E+00 -0.00000000000E+00 -0.31846987675E+02  0.31846987675E+02  0.00000000000E+00 0. -1.
          2    1    1    2  502    0 -0.33504885548E+02 -0.71182760230E+02  0.61749979815E+03  0.62249141634E+03  0.00000000000E+00 0.  1.
         -2    1    1    2    0  502  0.33504885548E+02  0.71182760230E+02  0.23368703638E+02  0.82071060791E+02  0.00000000000E+00 0. -1.
</event>
<event>
 4    1  0.5565417E+003  0.2463352E+02  0.7546771E-02  0.1472945E+00
          2   -1    0    0  501    0  0.00000000000E+00  0.00000000000E+00  0.16626647606E+04  0.16626647606E+04  0.00000000000E+00 0. -1.
         -2   -1    0    0    0  501 -0.00000000000E+00 -0.00000000000E+00 -0.22682583869E+02  0.22682583869E+02  0.00000000000E+00 0. -1.
          2    1    1    2  502    0 -0.24537938982E+02 -0.21679533472E+01  0.16558579626E+04  0.16560411839E+04  0.00000000000E+00 0. -1.
         -2    1    1    2    0  502  0.24537938982E+02  0.21679533472E+01 -0.15875785859E+02  0.29306160578E+02  0.00000000000E+00 0. -1.
</event>
<event>
 4    1  0.5565417E+003  0.3425751E+02  0.7546771E-02  0.1385860E+00
          2   -1    0    0  501    0  0.00000000000E+00  0.00000000000E+00  0.11596718380E+04  0.11596718380E+04  0.00000000000E+00 0.  1.
         -2   -1    0    0    0  501 -0.00000000000E+00 -0.00000000000E+00 -0.58780880024E+01  0.58780880024E+01  0.00000000000E+00 0. -1.
          2    1    1    2  502    0  0.33841133642E+02  0.53249249721E+01  0.11071377906E+04  0.11076676688E+04  0.00000000000E+00 0.  1.
         -2    1    1    2    0  502 -0.33841133642E+02 -0.53249249721E+01  0.46655959476E+02  0.57882257271E+02  0.00000000000E+00 0. -1.
</event>
<event>
 4    1  0.5565417E+003  0.2210450E+02  0.7546771E-02  0.1504060E+00
          2   -1    0    0  501    0  0.00000000000E+00  0.00000000000E+00  0.12593147880E+04  0.12593147880E+04  0.00000000000E+00 0.  1.
         -2   -1    0    0    0  501 -0.00000000000E+00 -0.00000000000E+00 -0.77616694432E+01  0.77616694432E+01  0.00000000000E+00 0.  1.
          2    1    1    2  502    0  0.20265011330E+02  0.88282613490E+01  0.12432769117E+04  0.12434733966E+04  0.00000000000E+00 0.  1.
         -2    1    1    2    0  502 -0.20265011330E+02 -0.88282613490E+01  0.82762069011E+01  0.23603060889E+02  0.00000000000E+00 0.  1.
</event>
<event>
 4    1  0.5565417E+003  0.2021483E+02  0.7546771E-02  0.1530777E+00
          2   -1    0    0  501    0  0.00000000000E+00  0.00000000000E+00  0.11550581890E+02  0.11550581890E+02  0.00000000000E+00 0.  1.
         -2   -1    0    0    0  501 -0.00000000000E+00 -0.00000000000E+00 -0.43727416397E+02  0.43727416397E+02  0.00000000000E+00 0.  1.
          2    1    1    2  502    0  0.90037529658E+00  0.20194770544E+02 -0.40112014063E+01  0.20608958482E+02  0.00000000000E+00 0.  1.
         -2    1    1    2    0  502 -0.90037529658E+00 -0.20194770544E+02 -0.28165633101E+02  0.34669039805E+02  0.00000000000E+00 0.  1.
</event>
<event>
 4    1  0.5565417E+003  0.4176212E+02  0.7546771E-02  0.1338458E+00
          2   -1    0    0  501    0  0.00000000000E+00  0.00000000000E+00  0.97728772767E+02  0.97728772767E+02  0.00000000000E+00 0.  1.
         -2   -1    0    0    0  501 -0.00000000000E+00 -0.00000000000E+00 -0.32580264034E+03  0.32580264034E+03  0.00000000000E+00 0.  1.
          2    1    1    2  502    0  0.41698417212E+02  0.23058331043E+01  0.91847288635E+02  0.10089598255E+03  0.00000000000E+00 0.  1.
         -2    1    1    2    0  502 -0.41698417212E+02 -0.23058331043E+01 -0.31992115620E+03  0.32263543056E+03  0.00000000000E+00 0.  1.
</event>
<event>
 4    1  0.5565417E+003  0.2359706E+02  0.7546771E-02  0.1485134E+00
          2   -1    0    0  501    0  0.00000000000E+00  0.00000000000E+00  0.34249005705E+02  0.34249005705E+02  0.00000000000E+00 0.  1.
         -2   -1    0    0    0  501 -0.00000000000E+00 -0.00000000000E+00 -0.20535727504E+02  0.20535727504E+02  0.00000000000E+00 0.  1.
          2    1    1    2  502    0 -0.15252762912E+02  0.18004841329E+02  0.19358652239E+02  0.30521770987E+02  0.00000000000E+00 0.  1.
         -2    1    1    2    0  502  0.15252762912E+02 -0.18004841329E+02 -0.56453740380E+01  0.24262962221E+02  0.00000000000E+00 0.  1.
</event>
<event>
 4    1  0.5565417E+003  0.2529817E+02  0.7546771E-02  0.1465495E+00
          2   -1    0    0  501    0  0.00000000000E+00  0.00000000000E+00  0.34998850706E+03  0.34998850706E+03  0.00000000000E+00 0. -1.
         -2   -1    0    0    0  501 -0.00000000000E+00 -0.00000000000E+00 -0.11002751139E+03  0.11002751139E+03  0.00000000000E+00 0. -1.
          2    1    1    2  502    0  0.25289207955E+02 -0.67349181418E+00  0.34806916638E+03  0.34898730953E+03  0.00000000000E+00 0. -1.
         -2    1    1    2    0  502 -0.25289207955E+02  0.67349181418E+00 -0.10810817071E+03  0.11102870892E+03  0.00000000000E+00 0. -1.
</event>
<event>
 4    1  0.5565417E+003  0.2011080E+02  0.7546771E-02  0.1532349E+00
          2   -1    0    0  501    0  0.00000000000E+00  0.00000000000E+00  0.60008078268E+01  0.60008078268E+01  0.00000000000E+00 0. -1.
         -2   -1    0    0    0  501 -0.00000000000E+00 -0.00000000000E+00 -0.79227966705E+02  0.79227966705E+02  0.00000000000E+00 0.  1.
          2    1    1    2  502    0 -0.22422358624E+01  0.19985406179E+02 -0.20146986481E+02  0.28466561894E+02  0.00000000000E+00 0. -1.
         -2    1    1    2    0  502  0.22422358624E+01 -0.19985406179E+02 -0.53080172397E+02  0.56762212638E+02  0.00000000000E+00 0.  1.
</event>
<event>
 4    1  0.5565417E+003  0.2759660E+02  0.7546771E-02  0.1441705E+00
          2   -1    0    0  501    0  0.00000000000E+00  0.00000000000E+00  0.11044681252E+03  0.11044681252E+03  0.00000000000E+00 0. -1.
         -2   -1    0    0    0  501 -0.00000000000E+00 -0.00000000000E+00 -0.12878932289E+02  0.12878932289E+02  0.00000000000E+00 0.  1.
          2    1    1    2  502    0 -0.24185403024E+02 -0.13290542984E+02  0.90814340550E+02  0.94914786528E+02  0.00000000000E+00 0. -1.
         -2    1    1    2    0  502  0.24185403024E+02  0.13290542984E+02  0.67535396818E+01  0.28410958282E+02  0.00000000000E+00 0.  1.
</event>
<event>
 4    1  0.5565417E+003  0.2002785E+02  0.7546771E-02  0.1533610E+00
          2   -1    0    0  501    0  0.00000000000E+00  0.00000000000E+00  0.84227044669E+02  0.84227044669E+02  0.00000000000E+00 0.  1.
         -2   -1    0    0    0  501 -0.00000000000E+00 -0.00000000000E+00 -0.28001514283E+02  0.28001514283E+02  0.00000000000E+00 0.  1.
          2    1    1    2  502    0 -0.65352900315E+01  0.18931583007E+02  0.79233055104E+02  0.81725099401E+02  0.00000000000E+00 0.  1.
         -2    1    1    2    0  502  0.65352900315E+01 -0.18931583007E+02 -0.23007524719E+02  0.30503459551E+02  0.00000000000E+00 0.  1.
</event>
<event>
 4    1  0.5565417E+003  0.2580745E+02  0.7546771E-02  0.1459970E+00
          2   -1    0    0  501    0  0.00000000000E+00  0.00000000000E+00  0.35031293465E+03  0.35031293465E+03  0.00000000000E+00 0.  1.
         -2   -1    0    0    0  501 -0.00000000000E+00 -0.00000000000E+00 -0.44556352643E+01  0.44556352643E+01  0.00000000000E+00 0.  1.
          2    1    1    2  502    0 -0.15592782358E+02 -0.20564280061E+02  0.30723775764E+03  0.30831974344E+03  0.00000000000E+00 0.  1.
         -2    1    1    2    0  502  0.15592782358E+02  0.20564280061E+02  0.38619541747E+02  0.46448826474E+02  0.00000000000E+00 0.  1.
</event>
<event>
 4    1  0.5565417E+003  0.2392918E+02  0.7546771E-02  0.1481149E+00
          2   -1    0    0  501    0  0.00000000000E+00  0.00000000000E+00  0.22145487279E+04  0.22145487279E+04  0.00000000000E+00 0. -1.
         -2   -1    0    0    0  501 -0.00000000000E+00 -0.00000000000E+00 -0.28872990109E+00  0.28872990109E+00  0.00000000000E+00 0. -1.
          2    1    1    2  502    0  0.16086580551E+02  0.17715175999E+02  0.14650735331E+04  0.14652689388E+04  0.00000000000E+00 0. -1.
         -2    1    1    2    0  502 -0.16086580551E+02 -0.17715175999E+02  0.74918646489E+03  0.74956851902E+03  0.00000000000E+00 0. -1.
</event>
<event>
 4    1  0.5565417E+003  0.2220895E+02  0.7546771E-02  0.1502678E+00
          2   -1    0    0  501    0  0.00000000000E+00  0.00000000000E+00  0.89626229236E+03  0.89626229236E+03  0.00000000000E+00 0. -1.
         -2   -1    0    0    0  501 -0.00000000000E+00 -0.00000000000E+00 -0.13854389735E+01  0.13854389735E+01  0.00000000000E+00 0.  1.
          2    1    1    2  502    0 -0.18655535957E+02 -0.12050240697E+02  0.79589976603E+03  0.79620956719E+03  0.00000000000E+00 0. -1.
         -2    1    1    2    0  502  0.18655535957E+02  0.12050240697E+02  0.98977087359E+02  0.10143816414E+03  0.00000000000E+00 0.  1.
</event>
<event>
 4    1  0.5565417E+003  0.2307477E+02  0.7546771E-02  0.1491561E+00
          2   -1    0    0  501    0  0.00000000000E+00  0.00000000000E+00  0.36344432949E+03  0.36344432949E+03  0.00000000000E+00 0. -1.
         -2   -1    0    0    0  501 -0.00000000000E+00 -0.00000000000E+00 -0.41854092540E+01  0.41854092540E+01  0.00000000000E+00 0.  1.
          2    1    1    2  502    0  0.16600014465E+02 -0.16027618945E+02  0.32782290470E+03  0.32863399382E+03  0.00000000000E+00 0. -1.
         -2    1    1    2    0  502 -0.16600014465E+02  0.16027618945E+02  0.31436015537E+02  0.38995744923E+02  0.00000000000E+00 0.  1.
</event>
<event>
 4    1  0.5565417E+003  0.3190023E+02  0.7546771E-02  0.1403772E+00
          2   -1    0    0  501    0  0.00000000000E+00  0.00000000000E+00  0.30341814394E+03  0.30341814394E+03  0.00000000000E+00 0. -1.
         -2   -1    0    0    0  501 -0.00000000000E+00 -0.00000000000E+00 -0.10432701101E+02  0.10432701101E+02  0.00000000000E+00 0. -1.
          2    1    1    2  502    0  0.18612979834E+02 -0.25907176909E+02  0.27575616376E+03  0.27759518491E+03  0.00000000000E+00 0. -1.
         -2    1    1    2    0  502 -0.18612979834E+02  0.25907176909E+02  0.17229279074E+02  0.36255660126E+02  0.00000000000E+00 0. -1.
</event>
<event>
 4    1  0.5565417E+003  0.2063787E+02  0.7546771E-02  0.1524498E+00
          2   -1    0    0  501    0  0.00000000000E+00  0.00000000000E+00  0.27115545190E+01  0.27115545190E+01  0.00000000000E+00 0.  1.
         -2   -1    0    0    0  501 -0.00000000000E+00 -0.00000000000E+00 -0.51556236596E+03  0.51556236596E+03  0.00000000000E+00 0. -1.
          2    1    1    2  502    0  0.18959210312E+02 -0.81529220081E+01 -0.40340362256E+02  0.45312985113E+02  0.00000000000E+00 0.  1.
         -2    1    1    2    0  502 -0.18959210312E+02  0.81529220081E+01 -0.47251044919E+03  0.47296093537E+03  0.00000000000E+00 0. -1.
</event>
<event>
 4    1  0.5565417E+003  0.3015942E+02  0.7546771E-02  0.1418216E+00
          2   -1    0    0  501    0  0.00000000000E+00  0.00000000000E+00  0.10451839358E+04  0.10451839358E+04  0.00000000000E+00 0. -1.
         -2   -1    0    0    0  501 -0.00000000000E+00 -0.00000000000E+00 -0.53885893866E+01  0.53885893866E+01  0.00000000000E+00 0.  1.
          2    1    1    2  502    0  0.28350210664E+02  0.10288636533E+02  0.10008998488E+04  0.10013541321E+04  0.00000000000E+00 0. -1.
         -2    1    1    2    0  502 -0.28350210664E+02 -0.10288636533E+02  0.38895497616E+02  0.49218393119E+02  0.00000000000E+00 0.  1.
</event>
<event>
 4    1  0.5565417E+003  0.3078625E+02  0.7546771E-02  0.1412884E+00
          2   -1    0    0  501    0  0.00000000000E+00  0.00000000000E+00  0.71166948636E+03  0.71166948636E+03  0.00000000000E+00 0. -1.
         -2   -1    0    0    0  501 -0.00000000000E+00 -0.00000000000E+00 -0.84812071494E+03  0.84812071494E+03  0.00000000000E+00 0. -1.
          2    1    1    2  502    0  0.19749517429E+02  0.23616729786E+02  0.71105691817E+03  0.71172307413E+03  0.00000000000E+00 0. -1.
         -2    1    1    2    0  502 -0.19749517429E+02 -0.23616729786E+02 -0.84750814676E+03  0.84806712717E+03  0.00000000000E+00 0. -1.
</event>
<event>
 4    1  0.5674666E+003  0.3072143E+02  0.7546771E-02  0.1413429E+00
          2   -1    0    0  501    0  0.00000000000E+00  0.00000000000E+00  0.60843566192E+03  0.60843566192E+03  0.00000000000E+00 0.  1.
         -2   -1    0    0    0  501 -0.00000000000E+00 -0.00000000000E+00 -0.15167985109E+03  0.15167985109E+03  0.00000000000E+00 0.  1.
          2    1    1    2  502    0  0.23681783423E+02 -0.19569863997E+02  0.60648727757E+03  0.60726487161E+03  0.00000000000E+00 0.  1.
         -2    1    1    2    0  502 -0.23681783423E+02  0.19569863997E+02 -0.14973146674E+03  0.15285064140E+03  0.00000000000E+00 0.  1.
</event>
<event>
 4    1  0.5565417E+003  0.4027042E+02  0.7546771E-02  0.1346908E+00
          2   -1    0    0  501    0  0.00000000000E+00  0.00000000000E+00  0.55173607868E+03  0.55173607868E+03  0.00000000000E+00 0.  1.
         -2   -1    0    0    0  501 -0.00000000000E+00 -0.00000000000E+00 -0.30549778326E+01  0.30549778326E+01  0.00000000000E+00 0.  1.
          2    1    1    2  502    0  0.39922434849E+02 -0.52824509619E+01  0.22035669261E+03  0.22400619873E+03  0.00000000000E+00 0.  1.
         -2    1    1    2    0  502 -0.39922434849E+02  0.52824509619E+01  0.32832440823E+03  0.33078485778E+03  0.00000000000E+00 0.  1.
</event>
<event>
 4    1  0.5565417E+003  0.2361855E+02  0.7546771E-02  0.1484874E+00
          2   -1    0    0  501    0  0.00000000000E+00  0.00000000000E+00  0.11904961268E+04  0.11904961268E+04  0.00000000000E+00 0.  1.
         -2   -1    0    0    0  501 -0.00000000000E+00 -0.00000000000E+00 -0.11626758649E+02  0.11626758649E+02  0.00000000000E+00 0.  1.
          2    1    1    2  502    0 -0.11269969470E+02  0.20756294830E+02  0.11782597717E+04  0.11784964682E+04  0.00000000000E+00 0.  1.
         -2    1    1    2    0  502  0.11269969470E+02 -0.20756294830E+02  0.60959652570E+00  0.23626417309E+02  0.00000000000E+00 0.  1.
</event>
<event>
 4    1  0.5565417E+003  0.3359686E+02  0.7546771E-02  0.1390705E+00
          2   -1    0    0  501    0  0.00000000000E+00  0.00000000000E+00  0.21416403861E+02  0.21416403861E+02  0.00000000000E+00 0. -1.
         -2   -1    0    0    0  501 -0.00000000000E+00 -0.00000000000E+00 -0.59598764039E+02  0.59598764039E+02  0.00000000000E+00 0.  1.
          2    1    1    2  502    0  0.33132505676E+01  0.33433088182E+02 -0.53143382459E+01  0.34014573431E+02  0.00000000000E+00 0. -1.
         -2    1    1    2    0  502 -0.33132505676E+01 -0.33433088182E+02 -0.32868021931E+02  0.47000594469E+02  0.00000000000E+00 0.  1.
</event>
<event>
 4    1  0.5565417E+003  0.2108249E+02  0.7546771E-02  0.1518090E+00
          2   -1    0    0  501    0  0.00000000000E+00  0.00000000000E+00  0.15394072086E+04  0.15394072086E+04  0.00000000000E+00 0.  1.
         -2   -1    0    0    0  501 -0.00000000000E+00 -0.00000000000E+00 -0.95444776092E+00  0.95444776092E+00  0.00000000000E+00 0.  1.
          2    1    1    2  502    0  0.91103900397E+01 -0.19012426255E+02  0.14124500368E+04  0.14126073686E+04  0.00000000000E+00 0.  1.
         -2    1    1    2    0  502 -0.91103900397E+01  0.19012426255E+02  0.12600272407E+03  0.12775428772E+03  0.00000000000E+00 0.  1.
</event>
<event>
 4    1  0.5565417E+003  0.3688111E+02  0.7546771E-02  0.1367800E+00
          2   -1    0    0  501    0  0.00000000000E+00  0.00000000000E+00  0.20296049405E+04  0.20296049405E+04  0.00000000000E+00 0. -1.
         -2   -1    0    0    0  501 -0.00000000000E+00 -0.00000000000E+00 -0.26386774945E+01  0.26386774945E+01  0.00000000000E+00 0. -1.
          2    1    1    2  502    0  0.15079007832E+02 -0.33657681066E+02  0.18911288047E+04  0.18914884012E+04  0.00000000000E+00 0. -1.
         -2    1    1    2    0  502 -0.15079007832E+02  0.33657681066E+02  0.13583745838E+03  0.14075521685E+03  0.00000000000E+00 0. -1.
</event>
<event>
 4    1  0.5565417E+003  0.2587201E+02  0.7546771E-02  0.1459280E+00
          2   -1    0    0  501    0  0.00000000000E+00  0.00000000000E+00  0.30463693540E+03  0.30463693540E+03  0.00000000000E+00 0. -1.
         -2   -1    0    0    0  501 -0.00000000000E+00 -0.00000000000E+00 -0.67097913427E+02  0.67097913427E+02  0.00000000000E+00 0.  1.
          2    1    1    2  502    0  0.16884188402E+02 -0.19603192773E+02  0.30156832312E+03  0.30267608841E+03  0.00000000000E+00 0. -1.
         -2    1    1    2    0  502 -0.16884188402E+02  0.19603192773E+02 -0.64029301148E+02  0.69058760418E+02  0.00000000000E+00 0.  1.
</event>
<event>
 4    1  0.5565417E+003  0.3544625E+02  0.7546771E-02  0.1377453E+00
          2   -1    0    0  501    0  0.00000000000E+00  0.00000000000E+00  0.39012599588E+03  0.39012599588E+03  0.00000000000E+00 0. -1.
         -2   -1    0    0    0  501 -0.00000000000E+00 -0.00000000000E+00 -0.52962414558E+01  0.52962414558E+01  0.00000000000E+00 0. -1.
          2    1    1    2  502    0  0.33347520756E+02  0.12015814315E+02  0.31618736978E+03  0.31816802124E+03  0.00000000000E+00 0. -1.
         -2    1    1    2    0  502 -0.33347520756E+02 -0.12015814315E+02  0.68642384642E+02  0.77254216089E+02  0.00000000000E+00 0. -1.
</event>
<event>
 4    1  0.5565417E+003  0.3318007E+02  0.7546771E-02  0.1393830E+00
          2   -1    0    0  501    0  0.00000000000E+00  0.00000000000E+00  0.11409430334E+03  0.11409430334E+03  0.00000000000E+00 0. -1.
         -2   -1    0    0    0  501 -0.00000000000E+00 -0.00000000000E+00 -0.26074949482E+02  0.26074949482E+02  0.00000000000E+00 0. -1.
          2    1    1    2  502    0 -0.15814015587E+02 -0.29169063138E+02  0.99635158854E+02  0.10501467618E+03  0.00000000000E+00 0. -1.
         -2    1    1    2    0  502  0.15814015587E+02  0.29169063138E+02 -0.11615804994E+02  0.35154576644E+02  0.00000000000E+00 0. -1.
</event>
<event>
 4    1  0.5565417E+003  0.2198980E+02  0.7546771E-02  0.1505588E+00
          2   -1    0    0  501    0  0.00000000000E+00  0.00000000000E+00  0.10099287407E+03  0.10099287407E+03  0.00000000000E+00 0.  1.
         -2   -1    0    0    0  501 -0.00000000000E+00 -0.00000000000E+00 -0.62187513897E+03  0.62187513897E+03  0.00000000000E+00 0.  1.
          2    1    1    2  502    0  0.20818049440E+02 -0.70823779397E+01  0.99598799613E+02  0.10199741244E+03  0.00000000000E+00 0.  1.
         -2    1    1    2    0  502 -0.20818049440E+02  0.70823779397E+01 -0.62048106452E+03  0.62087060059E+03  0.00000000000E+00 0.  1.
</event>
<event>
 4    1  0.5565417E+003  0.2761127E+02  0.7546771E-02  0.1441563E+00
          2   -1    0    0  501    0  0.00000000000E+00  0.00000000000E+00  0.86850665648E+03  0.86850665648E+03  0.00000000000E+00 0. -1.
         -2   -1    0    0    0  501 -0.00000000000E+00 -0.00000000000E+00 -0.89143016455E+00  0.89143016455E+00  0.00000000000E+00 0. -1.
          2    1    1    2  502    0  0.27611256841E+02 -0.10151248303E-01  0.38007017472E+03  0.38107180336E+03  0.00000000000E+00 0. -1.
         -2    1    1    2    0  502 -0.27611256841E+02  0.10151248303E-01  0.48754505159E+03  0.48832628328E+03  0.00000000000E+00 0. -1.
</event>
<event>
 4    1  0.5565417E+003  0.4111775E+02  0.7546771E-02  0.1342057E+00
          2   -1    0    0  501    0  0.00000000000E+00  0.00000000000E+00  0.63990057715E+02  0.63990057715E+02  0.00000000000E+00 0.  1.
         -2   -1    0    0    0  501 -0.00000000000E+00 -0.00000000000E+00 -0.13255843707E+03  0.13255843707E+03  0.00000000000E+00 0. -1.
          2    1    1    2  502    0 -0.22300988433E+02  0.34544688880E+02  0.53652621196E+02  0.67596400615E+02  0.00000000000E+00 0.  1.
         -2    1    1    2    0  502  0.22300988433E+02 -0.34544688880E+02 -0.12222100055E+03  0.12895209417E+03  0.00000000000E+00 0. -1.
</event>
<event>
 4    1  0.5565417E+003  0.2086842E+02  0.7546771E-02  0.1521152E+00
          2   -1    0    0  501    0  0.00000000000E+00  0.00000000000E+00  0.87952852947E+03  0.87952852947E+03  0.00000000000E+00 0.  1.
         -2   -1    0    0    0  501 -0.00000000000E+00 -0.00000000000E+00 -0.96642708830E+01  0.96642708830E+01  0.00000000000E+00 0.  1.
          2    1    1    2  502    0 -0.95523423038E+00 -0.20846545716E+02  0.86798951407E+03  0.86824033969E+03  0.00000000000E+00 0.  1.
         -2    1    1    2    0  502  0.95523423038E+00  0.20846545716E+02  0.18747445214E+01  0.20952460661E+02  0.00000000000E+00 0.  1.
</event>
<event>
 4    1  0.5565417E+003  0.2064424E+02  0.7546771E-02  0.1524405E+00
          2   -1    0    0  501    0  0.00000000000E+00  0.00000000000E+00  0.12751475736E+04  0.12751475736E+04  0.00000000000E+00 0. -1.
         -2   -1    0    0    0  501 -0.00000000000E+00 -0.00000000000E+00 -0.54442815470E+00  0.54442815470E+00  0.00000000000E+00 0. -1.
          2    1    1    2  502    0 -0.72118608016E+01  0.19343569459E+02  0.10336402406E+04  0.10338463772E+04  0.00000000000E+00 0. -1.
         -2    1    1    2    0  502  0.72118608016E+01 -0.19343569459E+02  0.24096290486E+03  0.24184562459E+03  0.00000000000E+00 0. -1.
</event>
<event>
 4    1  0.5565417E+003  0.2116974E+02  0.7546771E-02  0.1516855E+00
          2   -1    0    0  501    0  0.00000000000E+00  0.00000000000E+00  0.11979666050E+02  0.11979666050E+02  0.00000000000E+00 0.  1.
         -2   -1    0    0    0  501 -0.00000000000E+00 -0.00000000000E+00 -0.20350856047E+03  0.20350856047E+03  0.00000000000E+00 0. -1.
          2    1    1    2  502    0 -0.18664055933E+02  0.99905314882E+01  0.15742029479E+01  0.21228184524E+02  0.00000000000E+00 0.  1.
         -2    1    1    2    0  502  0.18664055933E+02 -0.99905314882E+01 -0.19310309737E+03  0.19426004200E+03  0.00000000000E+00 0. -1.
</event>
<event>
 4    1  0.5565417E+003  0.3551168E+02  0.7546771E-02  0.1377001E+00
          2   -1    0    0  501    0  0.00000000000E+00  0.00000000000E+00  0.85406690220E+02  0.85406690220E+02  0.00000000000E+00 0.  1.
         -2   -1    0    0    0  501 -0.00000000000E+00 -0.00000000000E+00 -0.23194911643E+03  0.23194911643E+03  0.00000000000E+00 0.  1.
          2    1    1    2  502    0  0.35508342077E+02  0.48722432878E+00  0.80273029800E+02  0.87777212635E+02  0.00000000000E+00 0.  1.
         -2    1    1    2    0  502 -0.35508342077E+02 -0.48722432878E+00 -0.22681545601E+03  0.22957859402E+03  0.00000000000E+00 0.  1.
</event>
<event>
 4    1  0.5565417E+003  0.2480444E+02  0.7546771E-02  0.1471003E+00
          2   -1    0    0  501    0  0.00000000000E+00  0.00000000000E+00  0.66994973315E+02  0.66994973315E+02  0.00000000000E+00 0. -1.
         -2   -1    0    0    0  501 -0.00000000000E+00 -0.00000000000E+00 -0.58723776787E+03  0.58723776787E+03  0.00000000000E+00 0.  1.
          2    1    1    2  502    0  0.24470711664E+02 -0.40551622917E+01  0.64427045453E+02  0.69036977457E+02  0.00000000000E+00 0. -1.
         -2    1    1    2    0  502 -0.24470711664E+02  0.40551622917E+01 -0.58466984001E+03  0.58519576373E+03  0.00000000000E+00 0.  1.
</event>
<event>
 4    1  0.5565417E+003  0.2783974E+02  0.7546771E-02  0.1439350E+00
          2   -1    0    0  501    0  0.00000000000E+00  0.00000000000E+00  0.57030974276E+03  0.57030974276E+03  0.00000000000E+00 0. -1.
         -2   -1    0    0    0  501 -0.00000000000E+00 -0.00000000000E+00 -0.18737654884E+01  0.18737654884E+01  0.00000000000E+00 0. -1.
          2    1    1    2  502    0  0.13698216693E+02 -0.24236545439E+02  0.43416996227E+03  0.43506161336E+03  0.00000000000E+00 0. -1.
         -2    1    1    2    0  502 -0.13698216693E+02  0.24236545439E+02  0.13426601499E+03  0.13712189489E+03  0.00000000000E+00 0. -1.
</event>
<event>
 4    1  0.5565417E+003  0.3042271E+02  0.7546771E-02  0.1415958E+00
          2   -1    0    0  501    0  0.00000000000E+00  0.00000000000E+00  0.46933164886E+02  0.46933164886E+02  0.00000000000E+00 0.  1.
         -2   -1    0    0    0  501 -0.00000000000E+00 -0.00000000000E+00 -0.22694974427E+02  0.22694974427E+02  0.00000000000E+00 0. -1.
          2    1    1    2  502    0  0.27662670893E+02 -0.12661675770E+02  0.24722892735E+02  0.39201566543E+02  0.00000000000E+00 0.  1.
         -2    1    1    2    0  502 -0.27662670893E+02  0.12661675770E+02 -0.48470227619E+00  0.30426572770E+02  0.00000000000E+00 0. -1.
</event>
<event>
 4    1  0.5565417E+003  0.2465432E+02  0.7546771E-02  0.1472708E+00
          2   -1    0    0  501    0  0.00000000000E+00  0.00000000000E+00  0.12083396995E+03  0.12083396995E+03  0.00000000000E+00 0. -1.
         -2   -1    0    0    0  501 -0.00000000000E+00 -0.00000000000E+00 -0.49737283345E+02  0.49737283345E+02  0.00000000000E+00 0.  1.
          2    1    1    2  502    0  0.19828186269E+02  0.14651909636E+02  0.11640621851E+03  0.11898841597E+03  0.00000000000E+00 0. -1.
         -2    1    1    2    0  502 -0.19828186269E+02 -0.14651909636E+02 -0.45309531898E+02  0.51582837335E+02  0.00000000000E+00 0.  1.
</event>
<event>
 4    1  0.5565417E+003  0.2343465E+02  0.7546771E-02  0.1487111E+00
          2   -1    0    0  501    0  0.00000000000E+00  0.00000000000E+00  0.49548422403E+03  0.49548422403E+03  0.00000000000E+00 0.  1.
         -2   -1    0    0    0  501 -0.00000000000E+00 -0.00000000000E+00 -0.49990759577E+02  0.49990759577E+02  0.00000000000E+00 0.  1.
          2    1    1    2  502    0 -0.23084964516E+02 -0.40332892548E+01  0.49244375986E+03  0.49300105440E+03  0.00000000000E+00 0.  1.
         -2    1    1    2    0  502  0.23084964516E+02  0.40332892548E+01 -0.46950295403E+02  0.52473929216E+02  0.00000000000E+00 0.  1.
</event>
<event>
 4    1  0.5565417E+003  0.2090328E+02  0.7546771E-02  0.1520650E+00
          2   -1    0    0  501    0  0.00000000000E+00  0.00000000000E+00  0.14878253222E+02  0.14878253222E+02  0.00000000000E+00 0.  1.
         -2   -1    0    0    0  501 -0.00000000000E+00 -0.00000000000E+00 -0.28613288001E+03  0.28613288001E+03  0.00000000000E+00 0. -1.
          2    1    1    2  502    0  0.12045939383E+02 -0.17083399505E+02  0.69453752911E+01  0.22026925164E+02  0.00000000000E+00 0.  1.
         -2    1    1    2    0  502 -0.12045939383E+02  0.17083399505E+02 -0.27820000208E+03  0.27898420807E+03  0.00000000000E+00 0. -1.
</event>
<event>
 4    1  0.5565417E+003  0.2337846E+02  0.7546771E-02  0.1487800E+00
          2   -1    0    0  501    0  0.00000000000E+00  0.00000000000E+00  0.60520675857E+03  0.60520675857E+03  0.00000000000E+00 0.  1.
         -2   -1    0    0    0  501 -0.00000000000E+00 -0.00000000000E+00 -0.59689360454E+01  0.59689360454E+01  0.00000000000E+00 0.  1.
          2    1    1    2  502    0  0.17097535434E+02  0.15944484344E+02  0.58114191277E+03  0.58161196263E+03  0.00000000000E+00 0.  1.
         -2    1    1    2    0  502 -0.17097535434E+02 -0.15944484344E+02  0.18095909754E+02  0.29563731983E+02  0.00000000000E+00 0.  1.
</event>
<event>
 4    1  0.5565417E+003  0.2700729E+02  0.7546771E-02  0.1447535E+00
          2   -1    0    0  501    0  0.00000000000E+00  0.00000000000E+00  0.51373565924E+03  0.51373565924E+03  0.00000000000E+00 0. -1.
         -2   -1    0    0    0  501 -0.00000000000E+00 -0.00000000000E+00 -0.45291274937E+01  0.45291274937E+01  0.00000000000E+00 0.  1.
          2    1    1    2  502    0  0.15777146917E+02  0.21919743924E+02  0.46931155032E+03  0.47008799687E+03  0.00000000000E+00 0. -1.
         -2    1    1    2    0  502 -0.15777146917E+02 -0.21919743924E+02  0.39894981431E+02  0.48176789867E+02  0.00000000000E+00 0.  1.
</event>
<event>
 4    1  0.5565417E+003  0.2192716E+02  0.7546771E-02  0.1506428E+00
          2   -1    0    0  501    0  0.00000000000E+00  0.00000000000E+00  0.16267088789E+04  0.16267088789E+04  0.00000000000E+00 0.  1.
         -2   -1    0    0    0  501 -0.00000000000E+00 -0.00000000000E+00 -0.51336251430E+01  0.51336251430E+01  0.00000000000E+00 0.  1.
          2    1    1    2  502    0 -0.46194854679E+01  0.21435029542E+02  0.16028725499E+04  0.16030225237E+04  0.00000000000E+00 0.  1.
         -2    1    1    2    0  502  0.46194854679E+01 -0.21435029542E+02  0.18702703844E+02  0.28819980370E+02  0.00000000000E+00 0.  1.
</event>
<event>
 4    1  0.5565417E+003  0.2706927E+02  0.7546771E-02  0.1446914E+00
          2   -1    0    0  501    0  0.00000000000E+00  0.00000000000E+00  0.55483289023E+03  0.55483289023E+03  0.00000000000E+00 0.  1.
         -2   -1    0    0    0  501 -0.00000000000E+00 -0.00000000000E+00 -0.13714543804E+02  0.13714543804E+02  0.00000000000E+00 0. -1.
          2    1    1    2  502    0 -0.27055026952E+02 -0.87794391094E+00  0.54079924394E+03  0.54147628527E+03  0.00000000000E+00 0.  1.
         -2    1    1    2    0  502  0.27055026952E+02  0.87794391094E+00  0.31910248905E+00  0.27071148762E+02  0.00000000000E+00 0. -1.
</event>
<event>
 4    1  0.5565417E+003  0.2653942E+02  0.7546771E-02  0.1452290E+00
          2   -1    0    0  501    0  0.00000000000E+00  0.00000000000E+00  0.18426374835E+03  0.18426374835E+03  0.00000000000E+00 0.  1.
         -2   -1    0    0    0  501 -0.00000000000E+00 -0.00000000000E+00 -0.19924831450E+02  0.19924831450E+02  0.00000000000E+00 0. -1.
          2    1    1    2  502    0  0.25873732412E+02  0.59068526851E+01  0.17394966602E+03  0.17596257342E+03  0.00000000000E+00 0.  1.
         -2    1    1    2    0  502 -0.25873732412E+02 -0.59068526851E+01 -0.96107491159E+01  0.28226006380E+02  0.00000000000E+00 0. -1.
</event>
<event>
 4    1  0.5565417E+003  0.3405314E+02  0.7546771E-02  0.1387345E+00
          2   -1    0    0  501    0  0.00000000000E+00  0.00000000000E+00  0.10550792890E+03  0.10550792890E+03  0.00000000000E+00 0. -1.
         -2   -1    0    0    0  501 -0.00000000000E+00 -0.00000000000E+00 -0.21654409697E+02  0.21654409697E+02  0.00000000000E+00 0.  1.
          2    1    1    2  502    0 -0.46191465494E+01 -0.33738398904E+02  0.86544497402E+02  0.93003043531E+02  0.00000000000E+00 0. -1.
         -2    1    1    2    0  502  0.46191465494E+01  0.33738398904E+02 -0.26909782034E+01  0.34159295062E+02  0.00000000000E+00 0.  1.
</event>
<event>
 4    1  0.5565417E+003  0.8948151E+02  0.7546771E-02  0.1183399E+00
          2   -1    0    0  501    0  0.00000000000E+00  0.00000000000E+00  0.40511147626E+03  0.40511147626E+03  0.00000000000E+00 0.  1.
         -2   -1    0    0    0  501 -0.00000000000E+00 -0.00000000000E+00 -0.12725225401E+03  0.12725225401E+03  0.00000000000E+00 0.  1.
          2    1    1    2  502    0  0.42527665183E+02  0.78729525953E+02  0.38356802014E+03  0.39386719416E+03  0.00000000000E+00 0.  1.
         -2    1    1    2    0  502 -0.42527665183E+02 -0.78729525953E+02 -0.10570879789E+03  0.13849653611E+03  0.00000000000E+00 0.  1.
</event>
<event>
 4    1  0.5565417E+003  0.2777311E+02  0.7546771E-02  0.1439993E+00
          2   -1    0    0  501    0  0.00000000000E+00  0.00000000000E+00  0.27983820871E+03  0.27983820871E+03  0.00000000000E+00 0. -1.
         -2   -1    0    0    0  501 -0.00000000000E+00 -0.00000000000E+00 -0.35342817906E+01  0.35342817906E+01  0.00000000000E+00 0. -1.
          2    1    1    2  502    0  0.20405961977E+02 -0.18839912947E+02  0.20462328924E+03  0.20649948209E+03  0.00000000000E+00 0. -1.
         -2    1    1    2    0  502 -0.20405961977E+02  0.18839912947E+02  0.71680637682E+02  0.76873008414E+02  0.00000000000E+00 0. -1.
</event>
<event>
 4    1  0.5565417E+003  0.3057455E+02  0.7546771E-02  0.1414668E+00
          2   -1    0    0  501    0  0.00000000000E+00  0.00000000000E+00  0.11089590104E+04  0.11089590104E+04  0.00000000000E+00 0.  1.
         -2   -1    0    0    0  501 -0.00000000000E+00 -0.00000000000E+00 -0.47454309859E+02  0.47454309859E+02  0.00000000000E+00 0.  1.
          2    1    1    2  502    0  0.17723407696E+02 -0.24913531091E+02  0.11038005066E+04  0.11042238729E+04  0.00000000000E+00 0.  1.
         -2    1    1    2    0  502 -0.17723407696E+02  0.24913531091E+02 -0.42295806001E+02  0.52189447373E+02  0.00000000000E+00 0.  1.
</event>
<event>
 4    1  0.5565417E+003  0.3228675E+02  0.7546771E-02  0.1400712E+00
          2   -1    0    0  501    0  0.00000000000E+00  0.00000000000E+00  0.63600931495E+03  0.63600931495E+03  0.00000000000E+00 0.  1.
         -2   -1    0    0    0  501 -0.00000000000E+00 -0.00000000000E+00 -0.37621891549E+01  0.37621891549E+01  0.00000000000E+00 0.  1.
          2    1    1    2  502    0  0.30648386903E+02  0.10154291602E+02  0.75816421673E+02  0.82404872750E+02  0.00000000000E+00 0.  1.
         -2    1    1    2    0  502 -0.30648386903E+02 -0.10154291602E+02  0.55643070413E+03  0.55736663136E+03  0.00000000000E+00 0.  1.
</event>
<event>
 4    1  0.5565417E+003  0.2877965E+02  0.7546771E-02  0.1430506E+00
          2   -1    0    0  501    0  0.00000000000E+00  0.00000000000E+00  0.73638570071E+03  0.73638570071E+03  0.00000000000E+00 0.  1.
         -2   -1    0    0    0  501 -0.00000000000E+00 -0.00000000000E+00 -0.16215039493E+02  0.16215039493E+02  0.00000000000E+00 0.  1.
          2    1    1    2  502    0  0.76617689905E+01  0.27741043240E+02  0.72309990944E+03  0.72367240325E+03  0.00000000000E+00 0.  1.
         -2    1    1    2    0  502 -0.76617689905E+01 -0.27741043240E+02 -0.29292482216E+01  0.28928336960E+02  0.00000000000E+00 0.  1.
</event>
<event>
 4    1  0.5565417E+003  0.2406929E+02  0.7546771E-02  0.1479490E+00
          2   -1    0    0  501    0  0.00000000000E+00  0.00000000000E+00  0.27918124615E+03  0.27918124615E+03  0.00000000000E+00 0.  1.
         -2   -1    0    0    0  501 -0.00000000000E+00 -0.00000000000E+00 -0.13811320047E+02  0.13811320047E+02  0.00000000000E+00 0. -1.
          2    1    1    2  502    0 -0.37622902847E+01  0.23773431271E+02  0.26772825306E+03  0.26880801392E+03  0.00000000000E+00 0.  1.
         -2    1    1    2    0  502  0.37622902847E+01 -0.23773431271E+02 -0.23583269576E+01  0.24184552273E+02  0.00000000000E+00 0. -1.
</event>
<event>
 4    1  0.5565417E+003  0.5522148E+02  0.7546771E-02  0.1276994E+00
          2   -1    0    0  501    0  0.00000000000E+00  0.00000000000E+00  0.72819655031E+03  0.72819655031E+03  0.00000000000E+00 0. -1.
         -2   -1    0    0    0  501 -0.00000000000E+00 -0.00000000000E+00 -0.42016860203E+02  0.42016860203E+02  0.00000000000E+00 0.  1.
          2    1    1    2  502    0 -0.10872157211E+02  0.54140630950E+02  0.70850207759E+03  0.71065083246E+03  0.00000000000E+00 0. -1.
         -2    1    1    2    0  502  0.10872157211E+02 -0.54140630950E+02 -0.22322387480E+02  0.59562578058E+02  0.00000000000E+00 0.  1.
</event>
<event>
 4    1  0.5565417E+003  0.2124049E+02  0.7546771E-02  0.1515859E+00
          2   -1    0    0  501    0  0.00000000000E+00  0.00000000000E+00  0.80853307234E+03  0.80853307234E+03  0.00000000000E+00 0. -1.
         -2   -1    0    0    0  501 -0.00000000000E+00 -0.00000000000E+00 -0.60745554772E+00  0.60745554772E+00  0.00000000000E+00 0. -1.
          2    1    1    2  502    0  0.37161754839E+01 -0.20912874835E+02  0.51940415305E+03  0.51983827533E+03  0.00000000000E+00 0. -1.
         -2    1    1    2    0  502 -0.37161754839E+01  0.20912874835E+02  0.28852146374E+03  0.28930225256E+03  0.00000000000E+00 0. -1.
</event>
<event>
 4    1  0.5565417E+003  0.4496459E+02  0.7546771E-02  0.1321617E+00
          2   -1    0    0  501    0  0.00000000000E+00  0.00000000000E+00  0.12385293992E+03  0.12385293992E+03  0.00000000000E+00 0.  1.
         -2   -1    0    0    0  501 -0.00000000000E+00 -0.00000000000E+00 -0.52415495436E+03  0.52415495436E+03  0.00000000000E+00 0. -1.
          2    1    1    2  502    0 -0.26315772541E+02 -0.36459493805E+02  0.11876763234E+03  0.12699435052E+03  0.00000000000E+00 0.  1.
         -2    1    1    2    0  502  0.26315772541E+02  0.36459493805E+02 -0.51906964678E+03  0.52101354376E+03  0.00000000000E+00 0. -1.
</event>
<event>
 4    1  0.5565417E+003  0.4098569E+02  0.7546771E-02  0.1342805E+00
          2   -1    0    0  501    0  0.00000000000E+00  0.00000000000E+00  0.12200190869E+04  0.12200190869E+04  0.00000000000E+00 0.  1.
         -2   -1    0    0    0  501 -0.00000000000E+00 -0.00000000000E+00 -0.54440386047E+01  0.54440386047E+01  0.00000000000E+00 0.  1.
          2    1    1    2  502    0  0.40606083021E+02 -0.55653047193E+01  0.11368959848E+04  0.11376345225E+04  0.00000000000E+00 0.  1.
         -2    1    1    2    0  502 -0.40606083021E+02  0.55653047193E+01  0.77679063481E+02  0.87828602961E+02  0.00000000000E+00 0.  1.
</event>
<event>
 4    1  0.5565417E+003  0.2131119E+02  0.7546771E-02  0.1514868E+00
          2   -1    0    0  501    0  0.00000000000E+00  0.00000000000E+00  0.71568634169E+01  0.71568634169E+01  0.00000000000E+00 0.  1.
         -2   -1    0    0    0  501 -0.00000000000E+00 -0.00000000000E+00 -0.68172760543E+02  0.68172760543E+02  0.00000000000E+00 0.  1.
          2    1    1    2  502    0 -0.23646269778E+01 -0.21179590467E+02 -0.40412157695E+02  0.45687076977E+02  0.00000000000E+00 0.  1.
         -2    1    1    2    0  502  0.23646269778E+01  0.21179590467E+02 -0.20603739431E+02  0.29642546983E+02  0.00000000000E+00 0.  1.
</event>
<event>
 4    1  0.5565417E+003  0.2002013E+02  0.7546771E-02  0.1533728E+00
          2   -1    0    0  501    0  0.00000000000E+00  0.00000000000E+00  0.67649141112E+03  0.67649141112E+03  0.00000000000E+00 0. -1.
         -2   -1    0    0    0  501 -0.00000000000E+00 -0.00000000000E+00 -0.10784215407E+02  0.10784215407E+02  0.00000000000E+00 0.  1.
          2    1    1    2  502    0 -0.18168526386E+02 -0.84089316299E+01  0.66691846751E+03  0.66721889046E+03  0.00000000000E+00 0. -1.
         -2    1    1    2    0  502  0.18168526386E+02  0.84089316299E+01 -0.12112717989E+01  0.20056736065E+02  0.00000000000E+00 0.  1.
</event>
<event>
 4    1  0.5565417E+003  0.2131555E+02  0.7546771E-02  0.1514807E+00
          2   -1    0    0  501    0  0.00000000000E+00  0.00000000000E+00  0.37331575116E+03  0.37331575116E+03  0.00000000000E+00 0. -1.
         -2   -1    0    0    0  501 -0.00000000000E+00 -0.00000000000E+00 -0.13301388832E+03  0.13301388832E+03  0.00000000000E+00 0. -1.
          2    1    1    2  502    0 -0.20872333963E+02  0.43241550572E+01  0.37215486406E+03  0.37276479915E+03  0.00000000000E+00 0. -1.
         -2    1    1    2    0  502  0.20872333963E+02 -0.43241550572E+01 -0.13185300122E+03  0.13356484033E+03  0.00000000000E+00 0. -1.
</event>
<event>
 4    1  0.5565417E+003  0.2410764E+02  0.7546771E-02  0.1479039E+00
          2   -1    0    0  501    0  0.00000000000E+00  0.00000000000E+00  0.12873154893E+02  0.12873154893E+02  0.00000000000E+00 0. -1.
         -2   -1    0    0    0  501 -0.00000000000E+00 -0.00000000000E+00 -0.56303525850E+03  0.56303525850E+03  0.00000000000E+00 0.  1.
          2    1    1    2  502    0 -0.19442237086E+02 -0.14254042658E+02  0.10872691583E+01  0.24132145972E+02  0.00000000000E+00 0. -1.
         -2    1    1    2    0  502  0.19442237086E+02  0.14254042658E+02 -0.55124937276E+03  0.55177626742E+03  0.00000000000E+00 0.  1.
</event>
<event>
 4    1  0.5565417E+003  0.2284797E+02  0.7546771E-02  0.1494416E+00
          2   -1    0    0  501    0  0.00000000000E+00  0.00000000000E+00  0.79234070454E+03  0.79234070454E+03  0.00000000000E+00 0. -1.
         -2   -1    0    0    0  501 -0.00000000000E+00 -0.00000000000E+00 -0.18764212458E+01  0.18764212458E+01  0.00000000000E+00 0.  1.
          2    1    1    2  502    0 -0.19936049896E+02 -0.11161695917E+02  0.71511590943E+03  0.71548081279E+03  0.00000000000E+00 0. -1.
         -2    1    1    2    0  502  0.19936049896E+02  0.11161695917E+02  0.75348373861E+02  0.78736312999E+02  0.00000000000E+00 0.  1.
</event>
<event>
 4    1  0.5565417E+003  0.2534793E+02  0.7546771E-02  0.1464949E+00
          2   -1    0    0  501    0  0.00000000000E+00  0.00000000000E+00  0.16248584683E+04  0.16248584683E+04  0.00000000000E+00 0.  1.
         -2   -1    0    0    0  501 -0.00000000000E+00 -0.00000000000E+00 -0.21976226114E+01  0.21976226114E+01  0.00000000000E+00 0.  1.
          2    1    1    2  502    0 -0.11573090962E+02  0.22551738168E+02  0.15480404960E+04  0.15482480081E+04  0.00000000000E+00 0.  1.
         -2    1    1    2    0  502  0.11573090962E+02 -0.22551738168E+02  0.74620349686E+02  0.78808082809E+02  0.00000000000E+00 0.  1.
</event>
<event>
 4    1  0.5565417E+003  0.3139969E+02  0.7546771E-02  0.1407811E+00
          2   -1    0    0  501    0  0.00000000000E+00  0.00000000000E+00  0.24015417478E+01  0.24015417478E+01  0.00000000000E+00 0.  1.
         -2   -1    0    0    0  501 -0.00000000000E+00 -0.00000000000E+00 -0.47387027971E+03  0.47387027971E+03  0.00000000000E+00 0.  1.
          2    1    1    2  502    0  0.28499631308E+02  0.13179975906E+02 -0.14868131525E+03  0.15196076551E+03  0.00000000000E+00 0.  1.
         -2    1    1    2    0  502 -0.28499631308E+02 -0.13179975906E+02 -0.32278742271E+03  0.32431105594E+03  0.00000000000E+00 0.  1.
</event>
<event>
 4    1  0.5565417E+003  0.2272387E+02  0.7546771E-02  0.1495995E+00
          2   -1    0    0  501    0  0.00000000000E+00  0.00000000000E+00  0.14847931877E+04  0.14847931877E+04  0.00000000000E+00 0. -1.
         -2   -1    0    0    0  501 -0.00000000000E+00 -0.00000000000E+00 -0.22901397599E+01  0.22901397599E+01  0.00000000000E+00 0. -1.
          2    1    1    2  502    0 -0.15403512563E+02 -0.16706471170E+02  0.14260135660E+04  0.14261946097E+04  0.00000000000E+00 0. -1.
         -2    1    1    2    0  502  0.15403512563E+02  0.16706471170E+02  0.56489481951E+02  0.60888717751E+02  0.00000000000E+00 0. -1.
</event>
<event>
 4    1  0.5565417E+003  0.2193158E+02  0.7546771E-02  0.1506369E+00
          2   -1    0    0  501    0  0.00000000000E+00  0.00000000000E+00  0.56361890135E+03  0.56361890135E+03  0.00000000000E+00 0. -1.
         -2   -1    0    0    0  501 -0.00000000000E+00 -0.00000000000E+00 -0.48026473844E+01  0.48026473844E+01  0.00000000000E+00 0.  1.
          2    1    1    2  502    0  0.19467149885E+02  0.10100698178E+02  0.53713351079E+03  0.53758106593E+03  0.00000000000E+00 0. -1.
         -2    1    1    2    0  502 -0.19467149885E+02 -0.10100698178E+02  0.21682743180E+02  0.30840482813E+02  0.00000000000E+00 0.  1.
</event>
<event>
 4    1  0.5565417E+003  0.2264305E+02  0.7546771E-02  0.1497030E+00
          2   -1    0    0  501    0  0.00000000000E+00  0.00000000000E+00  0.89951575650E+02  0.89951575650E+02  0.00000000000E+00 0.  1.
         -2   -1    0    0    0  501 -0.00000000000E+00 -0.00000000000E+00 -0.60602291366E+01  0.60602291366E+01  0.00000000000E+00 0.  1.
          2    1    1    2  502    0 -0.21705324023E+02 -0.64487536314E+01  0.53652787519E+02  0.58235119326E+02  0.00000000000E+00 0.  1.
         -2    1    1    2    0  502  0.21705324023E+02  0.64487536314E+01  0.30238558994E+02  0.37776685461E+02  0.00000000000E+00 0.  1.
</event>
<event>
 4    1  0.5565417E+003  0.2067579E+02  0.7546771E-02  0.1523944E+00
          2   -1    0    0  501    0  0.00000000000E+00  0.00000000000E+00  0.17564614373E+03  0.17564614373E+03  0.00000000000E+00 0. -1.
         -2   -1    0    0    0  501 -0.00000000000E+00 -0.00000000000E+00 -0.31055436581E+01  0.31055436581E+01  0.00000000000E+00 0.  1.
          2    1    1    2  502    0 -0.18920408416E+02 -0.83370584394E+01  0.12783758181E+03  0.12949878656E+03  0.00000000000E+00 0. -1.
         -2    1    1    2    0  502  0.18920408416E+02  0.83370584394E+01  0.44703018266E+02  0.49252900829E+02  0.00000000000E+00 0.  1.
</event>
<event>
 4    1  0.5565417E+003  0.2790542E+02  0.7546771E-02  0.1438719E+00
          2   -1    0    0  501    0  0.00000000000E+00  0.00000000000E+00  0.13991690384E+04  0.13991690384E+04  0.00000000000E+00 0.  1.
         -2   -1    0    0    0  501 -0.00000000000E+00 -0.00000000000E+00 -0.34365341174E+02  0.34365341174E+02  0.00000000000E+00 0. -1.
          2    1    1    2  502    0  0.27130473644E+02 -0.65306740111E+01  0.13933412542E+04  0.13936206668E+04  0.00000000000E+00 0.  1.
         -2    1    1    2    0  502 -0.27130473644E+02  0.65306740111E+01 -0.28537557014E+02  0.39913712725E+02  0.00000000000E+00 0. -1.
</event>
<event>
 4    1  0.5565417E+003  0.2626337E+02  0.7546771E-02  0.1455151E+00
          2   -1    0    0  501    0  0.00000000000E+00  0.00000000000E+00  0.96468134825E+03  0.96468134825E+03  0.00000000000E+00 0. -1.
         -2   -1    0    0    0  501 -0.00000000000E+00 -0.00000000000E+00 -0.74072351478E+00  0.74072351478E+00  0.00000000000E+00 0.  1.
          2    1    1    2  502    0 -0.13633828601E+02 -0.22447334604E+02  0.39204624341E+03  0.39292495605E+03  0.00000000000E+00 0. -1.
         -2    1    1    2    0  502  0.13633828601E+02  0.22447334604E+02  0.57189438133E+03  0.57249711572E+03  0.00000000000E+00 0.  1.
</event>
<event>
 4    1  0.5565417E+003  0.3149670E+02  0.7546771E-02  0.1407021E+00
          2   -1    0    0  501    0  0.00000000000E+00  0.00000000000E+00  0.10105028978E+04  0.10105028978E+04  0.00000000000E+00 0. -1.
         -2   -1    0    0    0  501 -0.00000000000E+00 -0.00000000000E+00 -0.18761490372E+01  0.18761490372E+01  0.00000000000E+00 0. -1.
          2    1    1    2  502    0  0.30235036608E+02 -0.88252127213E+01  0.85381548916E+03  0.85439623791E+03  0.00000000000E+00 0. -1.
         -2    1    1    2    0  502 -0.30235036608E+02  0.88252127213E+01  0.15481125964E+03  0.15798280897E+03  0.00000000000E+00 0. -1.
</event>
<event>
 4    1  0.5565417E+003  0.2059673E+02  0.7546771E-02  0.1525101E+00
          2   -1    0    0  501    0  0.00000000000E+00  0.00000000000E+00  0.10706501979E+04  0.10706501979E+04  0.00000000000E+00 0.  1.
         -2   -1    0    0    0  501 -0.00000000000E+00 -0.00000000000E+00 -0.38949251164E+02  0.38949251164E+02  0.00000000000E+00 0. -1.
          2    1    1    2  502    0 -0.20562832465E+02  0.11811088215E+01  0.10678209914E+04  0.10680196135E+04  0.00000000000E+00 0.  1.
         -2    1    1    2    0  502  0.20562832465E+02 -0.11811088215E+01 -0.36120044690E+02  0.41579835562E+02  0.00000000000E+00 0. -1.
</event>
<event>
 4    1  0.5565417E+003  0.3779082E+02  0.7546771E-02  0.1361941E+00
          2   -1    0    0  501    0  0.00000000000E+00  0.00000000000E+00  0.52024635092E+01  0.52024635092E+01  0.00000000000E+00 0.  1.
         -2   -1    0    0    0  501 -0.00000000000E+00 -0.00000000000E+00 -0.13012130780E+04  0.13012130780E+04  0.00000000000E+00 0.  1.
          2    1    1    2  502    0  0.37763041715E+02  0.14486621538E+01 -0.67777089157E+02  0.77600771621E+02  0.00000000000E+00 0.  1.
         -2    1    1    2    0  502 -0.37763041715E+02 -0.14486621538E+01 -0.12282335253E+04  0.12288147698E+04  0.00000000000E+00 0.  1.
</event>
<event>
 4    1  0.5565417E+003  0.2086181E+02  0.7546771E-02  0.1521247E+00
          2   -1    0    0  501    0  0.00000000000E+00  0.00000000000E+00  0.12195075020E+02  0.12195075020E+02  0.00000000000E+00 0. -1.
         -2   -1    0    0    0  501 -0.00000000000E+00 -0.00000000000E+00 -0.43681560778E+02  0.43681560778E+02  0.00000000000E+00 0.  1.
          2    1    1    2  502    0  0.17626479434E+00  0.20861061487E+02 -0.37915963448E+01  0.21203564759E+02  0.00000000000E+00 0. -1.
         -2    1    1    2    0  502 -0.17626479434E+00 -0.20861061487E+02 -0.27694889414E+02  0.34673071039E+02  0.00000000000E+00 0.  1.
</event>
<event>
 4    1  0.5565417E+003  0.3234971E+02  0.7546771E-02  0.1400219E+00
          2   -1    0    0  501    0  0.00000000000E+00  0.00000000000E+00  0.66533733179E+03  0.66533733179E+03  0.00000000000E+00 0. -1.
         -2   -1    0    0    0  501 -0.00000000000E+00 -0.00000000000E+00 -0.22670292610E+01  0.22670292610E+01  0.00000000000E+00 0.  1.
          2    1    1    2  502    0 -0.32167302109E+02  0.34305441850E+01  0.51624208345E+03  0.51725466908E+03  0.00000000000E+00 0. -1.
         -2    1    1    2    0  502  0.32167302109E+02 -0.34305441850E+01  0.14682821908E+03  0.15034969197E+03  0.00000000000E+00 0.  1.
</event>
<event>
 4    1  0.5565417E+003  0.2101288E+02  0.7546771E-02  0.1519081E+00
          2   -1    0    0  501    0  0.00000000000E+00  0.00000000000E+00  0.60659031098E+02  0.60659031098E+02  0.00000000000E+00 0.  1.
         -2   -1    0    0    0  501 -0.00000000000E+00 -0.00000000000E+00 -0.30504201925E+02  0.30504201925E+02  0.00000000000E+00 0.  1.
          2    1    1    2  502    0 -0.20753459215E+02 -0.32916489331E+01  0.54850477045E+02  0.58737686830E+02  0.00000000000E+00 0.  1.
         -2    1    1    2    0  502  0.20753459215E+02  0.32916489331E+01 -0.24695647872E+02  0.32425546193E+02  0.00000000000E+00 0.  1.
</event>
<event>
 4    1  0.5565417E+003  0.6070250E+02  0.7546771E-02  0.1257464E+00
          2   -1    0    0  501    0  0.00000000000E+00  0.00000000000E+00  0.24193737465E+04  0.24193737465E+04  0.00000000000E+00 0.  1.
         -2   -1    0    0    0  501 -0.00000000000E+00 -0.00000000000E+00 -0.98851886975E+01  0.98851886975E+01  0.00000000000E+00 0.  1.
          2    1    1    2  502    0 -0.11893108033E+01 -0.60690848556E+02  0.23218914122E+04  0.23226847663E+04  0.00000000000E+00 0.  1.
         -2    1    1    2    0  502  0.11893108033E+01  0.60690848556E+02  0.87597145612E+02  0.10657416891E+03  0.00000000000E+00 0.  1.
</event>
<event>
 4    1  0.5565417E+003  0.3364310E+02  0.7546771E-02  0.1390362E+00
          2   -1    0    0  501    0  0.00000000000E+00  0.00000000000E+00  0.89892338833E+03  0.89892338833E+03  0.00000000000E+00 0. -1.
         -2   -1    0    0    0  501 -0.00000000000E+00 -0.00000000000E+00 -0.10737303218E+02  0.10737303218E+02  0.00000000000E+00 0. -1.
          2    1    1    2  502    0  0.23423982838E+02 -0.24149025901E+02  0.87142386680E+03  0.87207305546E+03  0.00000000000E+00 0. -1.
         -2    1    1    2    0  502 -0.23423982838E+02  0.24149025901E+02  0.16762218306E+02  0.37587636085E+02  0.00000000000E+00 0. -1.
</event>
<event>
 4    1  0.5565417E+003  0.2237238E+02  0.7546771E-02  0.1500533E+00
          2   -1    0    0  501    0  0.00000000000E+00  0.00000000000E+00  0.44165601988E+02  0.44165601988E+02  0.00000000000E+00 0.  1.
         -2   -1    0    0    0  501 -0.00000000000E+00 -0.00000000000E+00 -0.49898561136E+03  0.49898561136E+03  0.00000000000E+00 0.  1.
          2    1    1    2  502    0  0.77225847421E+00 -0.22359050198E+02  0.41063898747E+02  0.46762883671E+02  0.00000000000E+00 0.  1.
         -2    1    1    2    0  502 -0.77225847421E+00  0.22359050198E+02 -0.49588390812E+03  0.49638832967E+03  0.00000000000E+00 0.  1.
</event>
<event>
 4    1  0.5565417E+003  0.2543649E+02  0.7546771E-02  0.1463979E+00
          2   -1    0    0  501    0  0.00000000000E+00  0.00000000000E+00  0.96651900242E+03  0.96651900242E+03  0.00000000000E+00 0.  1.
         -2   -1    0    0    0  501 -0.00000000000E+00 -0.00000000000E+00 -0.16266362177E+01  0.16266362177E+01  0.00000000000E+00 0. -1.
          2    1    1    2  502    0  0.23887237248E+02 -0.87415733817E+01  0.85378351405E+03  0.85416234059E+03  0.00000000000E+00 0.  1.
         -2    1    1    2    0  502 -0.23887237248E+02  0.87415733817E+01  0.11110885214E+03  0.11398329804E+03  0.00000000000E+00 0. -1.
</event>
<event>
 4    1  0.5565417E+003  0.2630280E+02  0.7546771E-02  0.1454740E+00
          2   -1    0    0  501    0  0.00000000000E+00  0.00000000000E+00  0.68143995660E+03  0.68143995660E+03  0.00000000000E+00 0. -1.
         -2   -1    0    0    0  501 -0.00000000000E+00 -0.00000000000E+00 -0.35598166574E+02  0.35598166574E+02  0.00000000000E+00 0. -1.
          2    1    1    2  502    0  0.58610566205E+01  0.25641475535E+02  0.67629050313E+03  0.67680180399E+03  0.00000000000E+00 0. -1.
         -2    1    1    2    0  502 -0.58610566205E+01 -0.25641475535E+02 -0.30448713104E+02  0.40236319190E+02  0.00000000000E+00 0. -1.
</event>
<event>
 4    1  0.5565417E+003  0.2225898E+02  0.7546771E-02  0.1502019E+00
          2   -1    0    0  501    0  0.00000000000E+00  0.00000000000E+00  0.23498775900E+02  0.23498775900E+02  0.00000000000E+00 0.  1.
         -2   -1    0    0    0  501 -0.00000000000E+00 -0.00000000000E+00 -0.22111065068E+02  0.22111065068E+02  0.00000000000E+00 0.  1.
          2    1    1    2  502    0  0.87749258864E+01  0.20456361094E+02  0.56074365338E+01  0.22954419575E+02  0.00000000000E+00 0.  1.
         -2    1    1    2    0  502 -0.87749258864E+01 -0.20456361094E+02 -0.42197257013E+01  0.22655421393E+02  0.00000000000E+00 0.  1.
</event>
<event>
 4    1  0.5565417E+003  0.2565419E+02  0.7546771E-02  0.1461616E+00
          2   -1    0    0  501    0  0.00000000000E+00  0.00000000000E+00  0.18428691583E+04  0.18428691583E+04  0.00000000000E+00 0.  1.
         -2   -1    0    0    0  501 -0.00000000000E+00 -0.00000000000E+00 -0.19083450738E+01  0.19083450738E+01  0.00000000000E+00 0. -1.
          2    1    1    2  502    0 -0.20412948984E+02 -0.15538630592E+02  0.17520948692E+04  0.17522826736E+04  0.00000000000E+00 0.  1.
         -2    1    1    2    0  502  0.20412948984E+02  0.15538630592E+02  0.88865944017E+02  0.92494829763E+02  0.00000000000E+00 0. -1.
</event>
<event>
 4    1  0.5565417E+003  0.2441259E+02  0.7546771E-02  0.1475483E+00
          2   -1    0    0  501    0  0.00000000000E+00  0.00000000000E+00  0.29195038330E+03  0.29195038330E+03  0.00000000000E+00 0.  1.
         -2   -1    0    0    0  501 -0.00000000000E+00 -0.00000000000E+00 -0.77407482042E+02  0.77407482042E+02  0.00000000000E+00 0.  1.
          2    1    1    2  502    0  0.22870359064E+02 -0.85394014090E+01  0.28949897762E+03  0.29052647512E+03  0.00000000000E+00 0.  1.
         -2    1    1    2    0  502 -0.22870359064E+02  0.85394014090E+01 -0.74956076366E+02  0.78831390222E+02  0.00000000000E+00 0.  1.
</event>
<event>
 4    1  0.5565417E+003  0.3281288E+02  0.7546771E-02  0.1396628E+00
          2   -1    0    0  501    0  0.00000000000E+00  0.00000000000E+00  0.64508010749E+02  0.64508010749E+02  0.00000000000E+00 0. -1.
         -2   -1    0    0    0  501 -0.00000000000E+00 -0.00000000000E+00 -0.37683493084E+02  0.37683493084E+02  0.00000000000E+00 0.  1.
          2    1    1    2  502    0 -0.32245724722E+02 -0.60744246057E+01  0.51549044260E+02  0.61106377419E+02  0.00000000000E+00 0. -1.
         -2    1    1    2    0  502  0.32245724722E+02  0.60744246057E+01 -0.24724526595E+02  0.41085126415E+02  0.00000000000E+00 0.  1.
</event>
<event>
 4    1  0.5565417E+003  0.3753954E+02  0.7546771E-02  0.1363540E+00
          2   -1    0    0  501    0  0.00000000000E+00  0.00000000000E+00  0.20629748059E+04  0.20629748059E+04  0.00000000000E+00 0.  1.
         -2   -1    0    0    0  501 -0.00000000000E+00 -0.00000000000E+00 -0.12884351571E+01  0.12884351571E+01  0.00000000000E+00 0. -1.
          2    1    1    2  502    0  0.11650423879E+02 -0.35685912062E+02  0.17383033507E+04  0.17387086460E+04  0.00000000000E+00 0.  1.
         -2    1    1    2    0  502 -0.11650423879E+02  0.35685912062E+02  0.32338301997E+03  0.32555459497E+03  0.00000000000E+00 0. -1.
</event>
<event>
 4    1  0.5565417E+003  0.2270204E+02  0.7546771E-02  0.1496274E+00
          2   -1    0    0  501    0  0.00000000000E+00  0.00000000000E+00  0.12114244267E+04  0.12114244267E+04  0.00000000000E+00 0. -1.
         -2   -1    0    0    0  501 -0.00000000000E+00 -0.00000000000E+00 -0.76844068302E+01  0.76844068302E+01  0.00000000000E+00 0.  1.
          2    1    1    2  502    0  0.41749860212E+01 -0.22314842190E+02  0.11943106670E+04  0.11945264133E+04  0.00000000000E+00 0. -1.
         -2    1    1    2    0  502 -0.41749860212E+01  0.22314842190E+02  0.94293528687E+01  0.24582420259E+02  0.00000000000E+00 0.  1.
</event>
<event>
 4    1  0.5565417E+003  0.3156525E+02  0.7546771E-02  0.1406465E+00
          2   -1    0    0  501    0  0.00000000000E+00  0.00000000000E+00  0.88986785574E+03  0.88986785574E+03  0.00000000000E+00 0. -1.
         -2   -1    0    0    0  501 -0.00000000000E+00 -0.00000000000E+00 -0.32339359939E+01  0.32339359939E+01  0.00000000000E+00 0. -1.
          2    1    1    2  502    0  0.31513051213E+02 -0.18145999220E+01  0.80438103478E+03  0.80500013309E+03  0.00000000000E+00 0. -1.
         -2    1    1    2    0  502 -0.31513051213E+02  0.18145999220E+01  0.82252884964E+02  0.88101658637E+02  0.00000000000E+00 0. -1.
</event>
<event>
 4    1  0.6609600E+003  0.2655853E+02  0.7546771E-02  0.1452094E+00
          2   -1    0    0  501    0  0.00000000000E+00  0.00000000000E+00  0.10271583782E+04  0.10271583782E+04  0.00000000000E+00 0.  1.
         -2   -1    0    0    0  501 -0.00000000000E+00 -0.00000000000E+00 -0.15943084663E+03  0.15943084663E+03  0.00000000000E+00 0.  1.
          2    1    1    2  502    0  0.18224670901E+02  0.19318819617E+02  0.10258792707E+04  0.10262229940E+04  0.00000000000E+00 0.  1.
         -2    1    1    2    0  502 -0.18224670901E+02 -0.19318819617E+02 -0.15815173908E+03  0.16036623084E+03  0.00000000000E+00 0.  1.
</event>
<event>
 4    1  0.5565417E+003  0.3714869E+02  0.7546771E-02  0.1366056E+00
          2   -1    0    0  501    0  0.00000000000E+00  0.00000000000E+00  0.13046659975E+04  0.13046659975E+04  0.00000000000E+00 0. -1.
         -2   -1    0    0    0  501 -0.00000000000E+00 -0.00000000000E+00 -0.17115090825E+01  0.17115090825E+01  0.00000000000E+00 0.  1.
          2    1    1    2  502    0  0.32610614310E+02  0.17792488548E+02  0.10551731150E+04  0.10558268454E+04  0.00000000000E+00 0. -1.
         -2    1    1    2    0  502 -0.32610614310E+02 -0.17792488548E+02  0.24778137341E+03  0.25055066119E+03  0.00000000000E+00 0.  1.
</event>
<event>
 4    1  0.5565417E+003  0.2564887E+02  0.7546771E-02  0.1461674E+00
          2   -1    0    0  501    0  0.00000000000E+00  0.00000000000E+00  0.35955240271E+02  0.35955240271E+02  0.00000000000E+00 0. -1.
         -2   -1    0    0    0  501 -0.00000000000E+00 -0.00000000000E+00 -0.41902883734E+02  0.41902883734E+02  0.00000000000E+00 0.  1.
          2    1    1    2  502    0 -0.21192766557E+02  0.14447527140E+02  0.26245109412E+02  0.36697004821E+02  0.00000000000E+00 0. -1.
         -2    1    1    2    0  502  0.21192766557E+02 -0.14447527140E+02 -0.32192752875E+02  0.41161119183E+02  0.00000000000E+00 0.  1.
</event>
<event>
 4    1  0.5565417E+003  0.3939315E+02  0.7546771E-02  0.1352079E+00
          2   -1    0    0  501    0  0.00000000000E+00  0.00000000000E+00  0.11506466324E+03  0.11506466324E+03  0.00000000000E+00 0.  1.
         -2   -1    0    0    0  501 -0.00000000000E+00 -0.00000000000E+00 -0.41115099153E+02  0.41115099153E+02  0.00000000000E+00 0. -1.
          2    1    1    2  502    0  0.37655883058E+02  0.11569568407E+02  0.10098856088E+03  0.10839976877E+03  0.00000000000E+00 0.  1.
         -2    1    1    2    0  502 -0.37655883058E+02 -0.11569568407E+02 -0.27038996796E+02  0.47779993614E+02  0.00000000000E+00 0. -1.
</event>
<event>
 4    1  0.5565417E+003  0.2985040E+02  0.7546771E-02  0.1420901E+00
          2   -1    0    0  501    0  0.00000000000E+00  0.00000000000E+00  0.20287864860E+02  0.20287864860E+02  0.00000000000E+00 0. -1.
         -2   -1    0    0    0  501 -0.00000000000E+00 -0.00000000000E+00 -0.45113946203E+02  0.45113946203E+02  0.00000000000E+00 0. -1.
          2    1    1    2  502    0 -0.27016456907E+02 -0.12694786449E+02 -0.70936097620E+01  0.30681685844E+02  0.00000000000E+00 0. -1.
         -2    1    1    2    0  502  0.27016456907E+02  0.12694786449E+02 -0.17732471581E+02  0.34720125218E+02  0.00000000000E+00 0. -1.
</event>
<event>
 4    1  0.5565417E+003  0.2774775E+02  0.7546771E-02  0.1440238E+00
          2   -1    0    0  501    0  0.00000000000E+00  0.00000000000E+00  0.24817971198E+01  0.24817971198E+01  0.00000000000E+00 0. -1.
         -2   -1    0    0    0  501 -0.00000000000E+00 -0.00000000000E+00 -0.42840110339E+03  0.42840110339E+03  0.00000000000E+00 0. -1.
          2    1    1    2  502    0 -0.13795014267E+02 -0.24075609748E+02 -0.99810164014E+02  0.10359539683E+03  0.00000000000E+00 0. -1.
         -2    1    1    2    0  502  0.13795014267E+02  0.24075609748E+02 -0.32610914225E+03  0.32728750368E+03  0.00000000000E+00 0. -1.
</event>
<event>
 4    1  0.5565417E+003  0.2267116E+02  0.7546771E-02  0.1496669E+00
          2   -1    0    0  501    0  0.00000000000E+00  0.00000000000E+00  0.36779127964E+02  0.36779127964E+02  0.00000000000E+00 0.  1.
         -2   -1    0    0    0  501 -0.00000000000E+00 -0.00000000000E+00 -0.13992848424E+02  0.13992848424E+02  0.00000000000E+00 0.  1.
          2    1    1    2  502    0 -0.15514447122E+02 -0.16531275502E+02  0.10481546349E+02  0.24976868360E+02  0.00000000000E+00 0.  1.
         -2    1    1    2    0  502  0.15514447122E+02  0.16531275502E+02  0.12304733191E+02  0.25795108027E+02  0.00000000000E+00 0.  1.
</event>
<event>
 4    1  0.5565417E+003  0.2018110E+02  0.7546771E-02  0.1531285E+00
          2   -1    0    0  501    0  0.00000000000E+00  0.00000000000E+00  0.16147888167E+04  0.16147888167E+04  0.00000000000E+00 0. -1.
         -2   -1    0    0    0  501 -0.00000000000E+00 -0.00000000000E+00 -0.25264452415E+00  0.25264452415E+00  0.00000000000E+00 0. -1.
          2    1    1    2  502    0  0.13926477920E+02  0.14605821620E+02  0.84049561836E+03  0.84073786717E+03  0.00000000000E+00 0. -1.
         -2    1    1    2    0  502 -0.13926477920E+02 -0.14605821620E+02  0.77404055381E+03  0.77430359404E+03  0.00000000000E+00 0. -1.
</event>
<event>
 4    1  0.5565417E+003  0.2791855E+02  0.7546771E-02  0.1438593E+00
          2   -1    0    0  501    0  0.00000000000E+00  0.00000000000E+00  0.80311935403E+03  0.80311935403E+03  0.00000000000E+00 0.  1.
         -2   -1    0    0    0  501 -0.00000000000E+00 -0.00000000000E+00 -0.16033756042E+01  0.16033756042E+01  0.00000000000E+00 0.  1.
          2    1    1    2  502    0  0.23683185895E+02  0.14783500774E+02  0.65354234074E+03  0.65413839234E+03  0.00000000000E+00 0.  1.
         -2    1    1    2    0  502 -0.23683185895E+02 -0.14783500774E+02  0.14797363769E+03  0.15058433730E+03  0.00000000000E+00 0.  1.
</event>
<event>
 4    1  0.5565417E+003  0.2275610E+02  0.7546771E-02  0.1495584E+00
          2   -1    0    0  501    0  0.00000000000E+00  0.00000000000E+00  0.11102553607E+02  0.11102553607E+02  0.00000000000E+00 0. -1.
         -2   -1    0    0    0  501 -0.00000000000E+00 -0.00000000000E+00 -0.11225459422E+03  0.11225459422E+03  0.00000000000E+00 0. -1.
          2    1    1    2  502    0  0.14683944507E+02 -0.17384525032E+02 -0.34210509971E+01  0.23011812767E+02  0.00000000000E+00 0. -1.
         -2    1    1    2    0  502 -0.14683944507E+02  0.17384525032E+02 -0.97730989616E+02  0.10034533506E+03  0.00000000000E+00 0. -1.
</event>
<event>
 4    1  0.1065338E+004  0.2972649E+02  0.7546771E-02  0.1421988E+00
          2   -1    0    0  501    0  0.00000000000E+00  0.00000000000E+00  0.16751944960E+04  0.16751944960E+04  0.00000000000E+00 0.  1.
         -2   -1    0    0    0  501 -0.00000000000E+00 -0.00000000000E+00 -0.22234743520E+03  0.22234743520E+03  0.00000000000E+00 0.  1.
          2    1    1    2  502    0  0.23641223020E+01  0.29632333713E+02  0.16740683904E+04  0.16743322967E+04  0.00000000000E+00 0.  1.
         -2    1    1    2    0  502 -0.23641223020E+01 -0.29632333713E+02 -0.22122132956E+03  0.22320963448E+03  0.00000000000E+00 0.  1.
</event>
<event>
 4    1  0.5565417E+003  0.2303906E+02  0.7546771E-02  0.1492008E+00
          2   -1    0    0  501    0  0.00000000000E+00  0.00000000000E+00  0.24167807846E+03  0.24167807846E+03  0.00000000000E+00 0.  1.
         -2   -1    0    0    0  501 -0.00000000000E+00 -0.00000000000E+00 -0.21973745034E+01  0.21973745034E+01  0.00000000000E+00 0. -1.
          2    1    1    2  502    0 -0.73204816245E+01  0.21845096252E+02  0.11704452839E+03  0.11929048289E+03  0.00000000000E+00 0.  1.
         -2    1    1    2    0  502  0.73204816245E+01 -0.21845096252E+02  0.12243617557E+03  0.12458497008E+03  0.00000000000E+00 0. -1.
</event>
<event>
 4    1  0.5565417E+003  0.2024523E+02  0.7546771E-02  0.1530319E+00
          2   -1    0    0  501    0  0.00000000000E+00  0.00000000000E+00  0.21753040758E+03  0.21753040758E+03  0.00000000000E+00 0.  1.
         -2   -1    0    0    0  501 -0.00000000000E+00 -0.00000000000E+00 -0.13293551413E+02  0.13293551413E+02  0.00000000000E+00 0.  1.
          2    1    1    2  502    0  0.92640342817E+01 -0.18001310251E+02  0.20903892577E+03  0.21001700404E+03  0.00000000000E+00 0.  1.
         -2    1    1    2    0  502 -0.92640342817E+01  0.18001310251E+02 -0.48020695982E+01  0.20806954951E+02  0.00000000000E+00 0.  1.
</event>
<event>
 4    1  0.5565417E+003  0.2035245E+02  0.7546771E-02  0.1528714E+00
          2   -1    0    0  501    0  0.00000000000E+00  0.00000000000E+00  0.48269749945E+02  0.48269749945E+02  0.00000000000E+00 0.  1.
         -2   -1    0    0    0  501 -0.00000000000E+00 -0.00000000000E+00 -0.50838071560E+02  0.50838071560E+02  0.00000000000E+00 0. -1.
          2    1    1    2  502    0 -0.19162898363E+02  0.68560623339E+01  0.43894257111E+02  0.48383138300E+02  0.00000000000E+00 0.  1.
         -2    1    1    2    0  502  0.19162898363E+02 -0.68560623339E+01 -0.46462578726E+02  0.50724683205E+02  0.00000000000E+00 0. -1.
</event>
<event>
 4    1  0.5565417E+003  0.3974534E+02  0.7546771E-02  0.1349985E+00
          2   -1    0    0  501    0  0.00000000000E+00  0.00000000000E+00  0.48747364266E+03  0.48747364266E+03  0.00000000000E+00 0. -1.
         -2   -1    0    0    0  501 -0.00000000000E+00 -0.00000000000E+00 -0.33161726432E+01  0.33161726432E+01  0.00000000000E+00 0. -1.
          2    1    1    2  502    0  0.20640404453E+02 -0.33965661146E+02  0.27913107508E+03  0.28194653661E+03  0.00000000000E+00 0. -1.
         -2    1    1    2    0  502 -0.20640404453E+02  0.33965661146E+02  0.20502639494E+03  0.20884327869E+03  0.00000000000E+00 0. -1.
</event>
<event>
 4    1  0.5565417E+003  0.2886443E+02  0.7546771E-02  0.1429728E+00
          2   -1    0    0  501    0  0.00000000000E+00  0.00000000000E+00  0.14603977564E+04  0.14603977564E+04  0.00000000000E+00 0. -1.
         -2   -1    0    0    0  501 -0.00000000000E+00 -0.00000000000E+00 -0.43954114163E+01  0.43954114163E+01  0.00000000000E+00 0. -1.
          2    1    1    2  502    0  0.26200087475E+02 -0.12112411984E+02  0.14112160348E+04  0.14115111945E+04  0.00000000000E+00 0. -1.
         -2    1    1    2    0  502 -0.26200087475E+02  0.12112411984E+02  0.44786310130E+02  0.53281973338E+02  0.00000000000E+00 0. -1.
</event>
<event>
 4    1  0.5565417E+003  0.2113110E+02  0.7546771E-02  0.1517401E+00
          2   -1    0    0  501    0  0.00000000000E+00  0.00000000000E+00  0.26278635663E+01  0.26278635663E+01  0.00000000000E+00 0. -1.
         -2   -1    0    0    0  501 -0.00000000000E+00 -0.00000000000E+00 -0.53040433232E+03  0.53040433232E+03  0.00000000000E+00 0. -1.
          2    1    1    2  502    0 -0.18129969511E+02  0.10854844139E+02 -0.44171147754E+02  0.48965434029E+02  0.00000000000E+00 0. -1.
         -2    1    1    2    0  502  0.18129969511E+02 -0.10854844139E+02 -0.48360532100E+03  0.48406676185E+03  0.00000000000E+00 0. -1.
</event>
<event>
 4    1  0.5565417E+003  0.2409117E+02  0.7546771E-02  0.1479233E+00
          2   -1    0    0  501    0  0.00000000000E+00  0.00000000000E+00  0.25683438537E+01  0.25683438537E+01  0.00000000000E+00 0. -1.
         -2   -1    0    0    0  501 -0.00000000000E+00 -0.00000000000E+00 -0.24261544924E+03  0.24261544924E+03  0.00000000000E+00 0. -1.
          2    1    1    2  502    0  0.23613610651E+02  0.47730186223E+01 -0.87918693370E+02  0.91159645450E+02  0.00000000000E+00 0. -1.
         -2    1    1    2    0  502 -0.23613610651E+02 -0.47730186223E+01 -0.15212841202E+03  0.15402414765E+03  0.00000000000E+00 0. -1.
</event>
<event>
 4    1  0.5565417E+003  0.3157737E+02  0.7546771E-02  0.1406367E+00
          2   -1    0    0  501    0  0.00000000000E+00  0.00000000000E+00  0.31194408238E+02  0.31194408238E+02  0.00000000000E+00 0. -1.
         -2   -1    0    0    0  501 -0.00000000000E+00 -0.00000000000E+00 -0.97628621828E+02  0.97628621828E+02  0.00000000000E+00 0.  1.
          2    1    1    2  502    0  0.10050922695E+02 -0.29935081186E+02  0.19607619959E+02  0.37169730872E+02  0.00000000000E+00 0. -1.
         -2    1    1    2    0  502 -0.10050922695E+02  0.29935081186E+02 -0.86041833550E+02  0.91653299194E+02  0.00000000000E+00 0.  1.
</event>
<event>
 4    1  0.5565417E+003  0.2242438E+02  0.7546771E-02  0.1499856E+00
          2   -1    0    0  501    0  0.00000000000E+00  0.00000000000E+00  0.63098100727E+03  0.63098100727E+03  0.00000000000E+00 0. -1.
         -2   -1    0    0    0  501 -0.00000000000E+00 -0.00000000000E+00 -0.82494336722E+00  0.82494336722E+00  0.00000000000E+00 0. -1.
          2    1    1    2  502    0  0.10189415298E+02  0.19975695859E+02  0.37328351751E+03  0.37395646411E+03  0.00000000000E+00 0. -1.
         -2    1    1    2    0  502 -0.10189415298E+02 -0.19975695859E+02  0.25687254639E+03  0.25784948652E+03  0.00000000000E+00 0. -1.
</event>
<event>
 4    1  0.5565417E+003  0.2060645E+02  0.7546771E-02  0.1524959E+00
          2   -1    0    0  501    0  0.00000000000E+00  0.00000000000E+00  0.43390521900E+01  0.43390521900E+01  0.00000000000E+00 0.  1.
         -2   -1    0    0    0  501 -0.00000000000E+00 -0.00000000000E+00 -0.13614159906E+03  0.13614159906E+03  0.00000000000E+00 0.  1.
          2    1    1    2  502    0  0.75452025571E+01 -0.19175389159E+02 -0.28655387816E+02  0.35295281298E+02  0.00000000000E+00 0.  1.
         -2    1    1    2    0  502 -0.75452025571E+01  0.19175389159E+02 -0.10314715905E+03  0.10518536995E+03  0.00000000000E+00 0.  1.
</event>
<event>
 4    1  0.5565417E+003  0.2253939E+02  0.7546771E-02  0.1498365E+00
          2   -1    0    0  501    0  0.00000000000E+00  0.00000000000E+00  0.17190050099E+02  0.17190050099E+02  0.00000000000E+00 0. -1.
         -2   -1    0    0    0  501 -0.00000000000E+00 -0.00000000000E+00 -0.28678797138E+03  0.28678797138E+03  0.00000000000E+00 0. -1.
          2    1    1    2  502    0  0.62525070523E+01  0.21654794144E+02  0.91459828016E+01  0.24324328465E+02  0.00000000000E+00 0. -1.
         -2    1    1    2    0  502 -0.62525070523E+01 -0.21654794144E+02 -0.27874390408E+03  0.27965369302E+03  0.00000000000E+00 0. -1.
</event>
<event>
 4    1  0.5565417E+003  0.2833365E+02  0.7546771E-02  0.1434652E+00
          2   -1    0    0  501    0  0.00000000000E+00  0.00000000000E+00  0.36117391931E+03  0.36117391931E+03  0.00000000000E+00 0. -1.
         -2   -1    0    0    0  501 -0.00000000000E+00 -0.00000000000E+00 -0.14512253909E+03  0.14512253909E+03  0.00000000000E+00 0. -1.
          2    1    1    2  502    0 -0.50819106649E+01 -0.27874183554E+02  0.35922779138E+03  0.36034345009E+03  0.00000000000E+00 0. -1.
         -2    1    1    2    0  502  0.50819106649E+01  0.27874183554E+02 -0.14317641116E+03  0.14595300832E+03  0.00000000000E+00 0. -1.
</event>
<event>
 4    1  0.5565417E+003  0.3006605E+02  0.7546771E-02  0.1419023E+00
          2   -1    0    0  501    0  0.00000000000E+00  0.00000000000E+00  0.16638191973E+04  0.16638191973E+04  0.00000000000E+00 0. -1.
         -2   -1    0    0    0  501 -0.00000000000E+00 -0.00000000000E+00 -0.27693375290E+02  0.27693375290E+02  0.00000000000E+00 0. -1.
          2    1    1    2  502    0 -0.18144353844E+02 -0.23973935102E+02  0.16554817753E+04  0.16557547752E+04  0.00000000000E+00 0. -1.
         -2    1    1    2    0  502  0.18144353844E+02  0.23973935102E+02 -0.19355953362E+02  0.35757797349E+02  0.00000000000E+00 0. -1.
</event>
<event>
 4    1  0.5565417E+003  0.2779363E+02  0.7546771E-02  0.1439795E+00
          2   -1    0    0  501    0  0.00000000000E+00  0.00000000000E+00  0.92923163225E+03  0.92923163225E+03  0.00000000000E+00 0. -1.
         -2   -1    0    0    0  501 -0.00000000000E+00 -0.00000000000E+00 -0.27226172567E+01  0.27226172567E+01  0.00000000000E+00 0. -1.
          2    1    1    2  502    0 -0.72802268963E+01 -0.26823199681E+02  0.85162978776E+03  0.85208320084E+03  0.00000000000E+00 0. -1.
         -2    1    1    2    0  502  0.72802268963E+01  0.26823199681E+02  0.74879227227E+02  0.79871048666E+02  0.00000000000E+00 0. -1.
</event>
<event>
 4    1  0.5565417E+003  0.3667128E+02  0.7546771E-02  0.1369179E+00
          2   -1    0    0  501    0  0.00000000000E+00  0.00000000000E+00  0.90676588328E+02  0.90676588328E+02  0.00000000000E+00 0. -1.
         -2   -1    0    0    0  501 -0.00000000000E+00 -0.00000000000E+00 -0.22246257473E+02  0.22246257473E+02  0.00000000000E+00 0.  1.
          2    1    1    2  502    0 -0.27803080494E+02 -0.23911740380E+02  0.66813842638E+02  0.76215957522E+02  0.00000000000E+00 0. -1.
         -2    1    1    2    0  502  0.27803080494E+02  0.23911740380E+02  0.16164882170E+01  0.36706888279E+02  0.00000000000E+00 0.  1.
</event>
<event>
 4    1  0.5565417E+003  0.2063724E+02  0.7546771E-02  0.1524508E+00
          2   -1    0    0  501    0  0.00000000000E+00  0.00000000000E+00  0.77397825611E+03  0.77397825611E+03  0.00000000000E+00 0.  1.
         -2   -1    0    0    0  501 -0.00000000000E+00 -0.00000000000E+00 -0.83643206893E+00  0.83643206893E+00  0.00000000000E+00 0. -1.
          2    1    1    2  502    0  0.16606497765E+02  0.12252339514E+02  0.61317093041E+03  0.61351812157E+03  0.00000000000E+00 0.  1.
         -2    1    1    2    0  502 -0.16606497765E+02 -0.12252339514E+02  0.15997089363E+03  0.16129656661E+03  0.00000000000E+00 0. -1.
</event>
<event>
 4    1  0.5565417E+003  0.2232238E+02  0.7546771E-02  0.1501187E+00
          2   -1    0    0  501    0  0.00000000000E+00  0.00000000000E+00  0.46681423178E+01  0.46681423178E+01  0.00000000000E+00 0. -1.
         -2   -1    0    0    0  501 -0.00000000000E+00 -0.00000000000E+00 -0.40365799058E+03  0.40365799058E+03  0.00000000000E+00 0.  1.
          2    1    1    2  502    0  0.17860748703E+02  0.13389640204E+02 -0.24394624435E+02  0.33066395485E+02  0.00000000000E+00 0. -1.
         -2    1    1    2    0  502 -0.17860748703E+02 -0.13389640204E+02 -0.37459522383E+03  0.37525973741E+03  0.00000000000E+00 0.  1.
</event>
<event>
 4    1  0.5565417E+003  0.2819670E+02  0.7546771E-02  0.1435944E+00
          2   -1    0    0  501    0  0.00000000000E+00  0.00000000000E+00  0.71655196799E+03  0.71655196799E+03  0.00000000000E+00 0. -1.
         -2   -1    0    0    0  501 -0.00000000000E+00 -0.00000000000E+00 -0.15457634438E+01  0.15457634438E+01  0.00000000000E+00 0. -1.
          2    1    1    2  502    0 -0.17187800307E+02 -0.22352476471E+02  0.54823756521E+03  0.54896218593E+03  0.00000000000E+00 0. -1.
         -2    1    1    2    0  502  0.17187800307E+02  0.22352476471E+02  0.16676863934E+03  0.16913554550E+03  0.00000000000E+00 0. -1.
</event>
<event>
 4    1  0.5565417E+003  0.4014266E+02  0.7546771E-02  0.1347652E+00
          2   -1    0    0  501    0  0.00000000000E+00  0.00000000000E+00  0.13013313720E+03  0.13013313720E+03  0.00000000000E+00 0.  1.
         -2   -1    0    0    0  501 -0.00000000000E+00 -0.00000000000E+00 -0.12443653390E+03  0.12443653390E+03  0.00000000000E+00 0. -1.
          2    1    1    2  502    0 -0.37440489649E+02  0.14479041914E+02  0.12363401735E+03  0.12998770390E+03  0.00000000000E+00 0.  1.
         -2    1    1    2    0  502  0.37440489649E+02 -0.14479041914E+02 -0.11793741404E+03  0.12458196720E+03  0.00000000000E+00 0. -1.
</event>
<event>
 4    1  0.5565417E+003  0.2039422E+02  0.7546771E-02  0.1528092E+00
          2   -1    0    0  501    0  0.00000000000E+00  0.00000000000E+00  0.11895472618E+04  0.11895472618E+04  0.00000000000E+00 0. -1.
         -2   -1    0    0    0  501 -0.00000000000E+00 -0.00000000000E+00 -0.11305374857E+01  0.11305374857E+01  0.00000000000E+00 0.  1.
          2    1    1    2  502    0 -0.86687710541E+01  0.18460130475E+02  0.10889930909E+04  0.10891840414E+04  0.00000000000E+00 0. -1.
         -2    1    1    2    0  502  0.86687710541E+01 -0.18460130475E+02  0.99423633400E+02  0.10149375787E+03  0.00000000000E+00 0.  1.
</event>
<event>
 4    1  0.5565417E+003  0.3266832E+02  0.7546771E-02  0.1397741E+00
          2   -1    0    0  501    0  0.00000000000E+00  0.00000000000E+00  0.94051897620E+02  0.94051897620E+02  0.00000000000E+00 0.  1.
         -2   -1    0    0    0  501 -0.00000000000E+00 -0.00000000000E+00 -0.35883530061E+02  0.35883530061E+02  0.00000000000E+00 0.  1.
          2    1    1    2  502    0 -0.22132173515E+02 -0.24028856630E+02  0.82806586912E+02  0.89017694260E+02  0.00000000000E+00 0.  1.
         -2    1    1    2    0  502  0.22132173515E+02  0.24028856630E+02 -0.24638219353E+02  0.40917733421E+02  0.00000000000E+00 0.  1.
</event>
<event>
 4    1  0.5565417E+003  0.7463467E+02  0.7546771E-02  0.1216883E+00
          2   -1    0    0  501    0  0.00000000000E+00  0.00000000000E+00  0.53752956650E+03  0.53752956650E+03  0.00000000000E+00 0. -1.
         -2   -1    0    0    0  501 -0.00000000000E+00 -0.00000000000E+00 -0.12715284183E+02  0.12715284183E+02  0.00000000000E+00 0. -1.
          2    1    1    2  502    0  0.70166149163E+02 -0.25437079267E+02  0.38074467577E+03  0.38799077517E+03  0.00000000000E+00 0. -1.
         -2    1    1    2    0  502 -0.70166149163E+02  0.25437079267E+02  0.14406960655E+03  0.16225407551E+03  0.00000000000E+00 0. -1.
</event>
<event>
 4    1  0.5565417E+003  0.1394502E+03  0.7546771E-02  0.1108950E+00
          2   -1    0    0  501    0  0.00000000000E+00  0.00000000000E+00  0.17233264755E+04  0.17233264755E+04  0.00000000000E+00 0. -1.
         -2   -1    0    0    0  501 -0.00000000000E+00 -0.00000000000E+00 -0.12130094416E+02  0.12130094416E+02  0.00000000000E+00 0.  1.
          2    1    1    2  502    0  0.11009809976E+03  0.85584922171E+02  0.10847420765E+04  0.10936689367E+04  0.00000000000E+00 0. -1.
         -2    1    1    2    0  502 -0.11009809976E+03 -0.85584922171E+02  0.62645430452E+03  0.64178763320E+03  0.00000000000E+00 0.  1.
</event>
<event>
 4    1  0.5565417E+003  0.2380808E+02  0.7546771E-02  0.1482593E+00
          2   -1    0    0  501    0  0.00000000000E+00  0.00000000000E+00  0.72863296819E+03  0.72863296819E+03  0.00000000000E+00 0.  1.
         -2   -1    0    0    0  501 -0.00000000000E+00 -0.00000000000E+00 -0.22264097265E+02  0.22264097265E+02  0.00000000000E+00 0. -1.
          2    1    1    2  502    0 -0.18545073712E+02  0.14929996032E+02  0.72201538342E+03  0.72240780618E+03  0.00000000000E+00 0.  1.
         -2    1    1    2    0  502  0.18545073712E+02 -0.14929996032E+02 -0.15646512496E+02  0.28489259271E+02  0.00000000000E+00 0. -1.
</event>
<event>
 4    1  0.5565417E+003  0.2052063E+02  0.7546771E-02  0.1526220E+00
          2   -1    0    0  501    0  0.00000000000E+00  0.00000000000E+00  0.12167282076E+04  0.12167282076E+04  0.00000000000E+00 0.  1.
         -2   -1    0    0    0  501 -0.00000000000E+00 -0.00000000000E+00 -0.62395380933E+02  0.62395380933E+02  0.00000000000E+00 0. -1.
          2    1    1    2  502    0  0.20147911284E+02  0.38933092801E+01  0.12149520099E+04  0.12151252950E+04  0.00000000000E+00 0.  1.
         -2    1    1    2    0  502 -0.20147911284E+02 -0.38933092801E+01 -0.60619183286E+02  0.63998293481E+02  0.00000000000E+00 0. -1.
</event>
<event>
 4    1  0.5565417E+003  0.2271884E+02  0.7546771E-02  0.1496059E+00
          2   -1    0    0  501    0  0.00000000000E+00  0.00000000000E+00  0.64372795671E+02  0.64372795671E+02  0.00000000000E+00 0.  1.
         -2   -1    0    0    0  501 -0.00000000000E+00 -0.00000000000E+00 -0.66291371758E+02  0.66291371758E+02  0.00000000000E+00 0. -1.
          2    1    1    2  502    0  0.22053666737E+01  0.22611544085E+02  0.60294481558E+02  0.64432678622E+02  0.00000000000E+00 0.  1.
         -2    1    1    2    0  502 -0.22053666737E+01 -0.22611544085E+02 -0.62213057645E+02  0.66231488807E+02  0.00000000000E+00 0. -1.
</event>
<event>
 4    1  0.5565417E+003  0.2439553E+02  0.7546771E-02  0.1475680E+00
          2   -1    0    0  501    0  0.00000000000E+00  0.00000000000E+00  0.56397780538E+03  0.56397780538E+03  0.00000000000E+00 0. -1.
         -2   -1    0    0    0  501 -0.00000000000E+00 -0.00000000000E+00 -0.11322301587E+02  0.11322301587E+02  0.00000000000E+00 0. -1.
          2    1    1    2  502    0  0.20589983512E+02  0.13084128502E+02  0.55024527253E+03  0.55078580391E+03  0.00000000000E+00 0. -1.
         -2    1    1    2    0  502 -0.20589983512E+02 -0.13084128502E+02  0.24102312564E+01  0.24514303057E+02  0.00000000000E+00 0. -1.
</event>
<event>
 4    1  0.5565417E+003  0.2332747E+02  0.7546771E-02  0.1488427E+00
          2   -1    0    0  501    0  0.00000000000E+00  0.00000000000E+00  0.40250248255E+03  0.40250248255E+03  0.00000000000E+00 0. -1.
         -2   -1    0    0    0  501 -0.00000000000E+00 -0.00000000000E+00 -0.47242316235E+01  0.47242316235E+01  0.00000000000E+00 0. -1.
          2    1    1    2  502    0  0.17494923648E+02  0.15430434037E+02  0.37091802242E+03  0.37165084421E+03  0.00000000000E+00 0. -1.
         -2    1    1    2    0  502 -0.17494923648E+02 -0.15430434037E+02  0.26860228505E+02  0.35575869959E+02  0.00000000000E+00 0. -1.
</event>
<event>
 4    1  0.5565417E+003  0.3300036E+02  0.7546771E-02  0.1395194E+00
          2   -1    0    0  501    0  0.00000000000E+00  0.00000000000E+00  0.20978500656E+02  0.20978500656E+02  0.00000000000E+00 0. -1.
         -2   -1    0    0    0  501 -0.00000000000E+00 -0.00000000000E+00 -0.10660349854E+03  0.10660349854E+03  0.00000000000E+00 0.  1.
          2    1    1    2  502    0 -0.32402435271E+02 -0.62534658862E+01  0.28790535048E+01  0.33125708991E+02  0.00000000000E+00 0. -1.
         -2    1    1    2    0  502  0.32402435271E+02  0.62534658862E+01 -0.88504051389E+02  0.94456290206E+02  0.00000000000E+00 0.  1.
</event>
<event>
 4    1  0.5565417E+003  0.4593936E+02  0.7546771E-02  0.1316808E+00
          2   -1    0    0  501    0  0.00000000000E+00  0.00000000000E+00  0.24225330137E+03  0.24225330137E+03  0.00000000000E+00 0.  1.
         -2   -1    0    0    0  501 -0.00000000000E+00 -0.00000000000E+00 -0.18892966050E+02  0.18892966050E+02  0.00000000000E+00 0.  1.
          2    1    1    2  502    0  0.41978484855E+02  0.18660968937E+02  0.20753318852E+03  0.21255693188E+03  0.00000000000E+00 0.  1.
         -2    1    1    2    0  502 -0.41978484855E+02 -0.18660968937E+02  0.15827146796E+02  0.48589335539E+02  0.00000000000E+00 0.  1.
</event>
<event>
 4    1  0.5565417E+003  0.2087738E+02  0.7546771E-02  0.1521023E+00
          2   -1    0    0  501    0  0.00000000000E+00  0.00000000000E+00  0.14060432751E+03  0.14060432751E+03  0.00000000000E+00 0.  1.
         -2   -1    0    0    0  501 -0.00000000000E+00 -0.00000000000E+00 -0.11691979628E+02  0.11691979628E+02  0.00000000000E+00 0.  1.
          2    1    1    2  502    0 -0.17384636930E+02 -0.11560250305E+02  0.12973366984E+03  0.13140277804E+03  0.00000000000E+00 0.  1.
         -2    1    1    2    0  502  0.17384636930E+02  0.11560250305E+02 -0.82132195353E+00  0.20893529095E+02  0.00000000000E+00 0.  1.
</event>
<event>
 4    1  0.5565417E+003  0.2096077E+02  0.7546771E-02  0.1519826E+00
          2   -1    0    0  501    0  0.00000000000E+00  0.00000000000E+00  0.28378089882E+03  0.28378089882E+03  0.00000000000E+00 0.  1.
         -2   -1    0    0    0  501 -0.00000000000E+00 -0.00000000000E+00 -0.31612867553E+03  0.31612867553E+03  0.00000000000E+00 0. -1.
          2    1    1    2  502    0  0.19048887443E+02  0.87460761255E+01  0.28304549479E+03  0.28382055260E+03  0.00000000000E+00 0.  1.
         -2    1    1    2    0  502 -0.19048887443E+02 -0.87460761255E+01 -0.31539327150E+03  0.31608902174E+03  0.00000000000E+00 0. -1.
</event>
<event>
 4    1  0.5565417E+003  0.2472873E+02  0.7546771E-02  0.1471861E+00
          2   -1    0    0  501    0  0.00000000000E+00  0.00000000000E+00  0.29370431007E+02  0.29370431007E+02  0.00000000000E+00 0. -1.
         -2   -1    0    0    0  501 -0.00000000000E+00 -0.00000000000E+00 -0.53737194309E+02  0.53737194309E+02  0.00000000000E+00 0. -1.
          2    1    1    2  502    0  0.21490299881E+02  0.12234253335E+02  0.20338887737E+02  0.32018436846E+02  0.00000000000E+00 0. -1.
         -2    1    1    2    0  502 -0.21490299881E+02 -0.12234253335E+02 -0.44705651039E+02  0.51089188470E+02  0.00000000000E+00 0. -1.
</event>
<event>
 4    1  0.5565417E+003  0.2165076E+02  0.7546771E-02  0.1510173E+00
          2   -1    0    0  501    0  0.00000000000E+00  0.00000000000E+00  0.12639175106E+04  0.12639175106E+04  0.00000000000E+00 0. -1.
         -2   -1    0    0    0  501 -0.00000000000E+00 -0.00000000000E+00 -0.15047828750E+02  0.15047828750E+02  0.00000000000E+00 0. -1.
          2    1    1    2  502    0 -0.11270559940E+02  0.18485935017E+02  0.12559878711E+04  0.12561744654E+04  0.00000000000E+00 0. -1.
         -2    1    1    2    0  502  0.11270559940E+02 -0.18485935017E+02 -0.71181892473E+01  0.22790873897E+02  0.00000000000E+00 0. -1.
</event>
<event>
 4    1  0.5565417E+003  0.2756954E+02  0.7546771E-02  0.1441969E+00
          2   -1    0    0  501    0  0.00000000000E+00  0.00000000000E+00  0.11633575774E+03  0.11633575774E+03  0.00000000000E+00 0. -1.
         -2   -1    0    0    0  501 -0.00000000000E+00 -0.00000000000E+00 -0.15370801242E+02  0.15370801242E+02  0.00000000000E+00 0. -1.
          2    1    1    2  502    0 -0.73714522868E+01  0.26565795075E+02  0.10041562801E+03  0.10413154241E+03  0.00000000000E+00 0. -1.
         -2    1    1    2    0  502  0.73714522868E+01 -0.26565795075E+02  0.54932848427E+00  0.27575016565E+02  0.00000000000E+00 0. -1.
</event>
<event>
 4    1  0.5565417E+003  0.4277639E+02  0.7546771E-02  0.1332942E+00
          2   -1    0    0  501    0  0.00000000000E+00  0.00000000000E+00  0.17813846942E+02  0.17813846942E+02  0.00000000000E+00 0. -1.
         -2   -1    0    0    0  501 -0.00000000000E+00 -0.00000000000E+00 -0.11119493484E+04  0.11119493484E+04  0.00000000000E+00 0. -1.
          2    1    1    2  502    0 -0.15913010821E+02 -0.39706366476E+02 -0.89093940894E+01  0.43694356102E+02  0.00000000000E+00 0. -1.
         -2    1    1    2    0  502  0.15913010821E+02  0.39706366476E+02 -0.10852261073E+04  0.10860688392E+04  0.00000000000E+00 0. -1.
</event>
<event>
 4    1  0.5565417E+003  0.2594298E+02  0.7546771E-02  0.1458525E+00
          2   -1    0    0  501    0  0.00000000000E+00  0.00000000000E+00  0.34300826615E+02  0.34300826615E+02  0.00000000000E+00 0. -1.
         -2   -1    0    0    0  501 -0.00000000000E+00 -0.00000000000E+00 -0.48171518676E+02  0.48171518676E+02  0.00000000000E+00 0. -1.
          2    1    1    2  502    0 -0.11201125100E+02  0.23400279308E+02  0.24810386815E+02  0.35896985515E+02  0.00000000000E+00 0. -1.
         -2    1    1    2    0  502  0.11201125100E+02 -0.23400279308E+02 -0.38681078876E+02  0.46575359776E+02  0.00000000000E+00 0. -1.
</event>
<event>
 4    1  0.5565417E+003  0.2110001E+02  0.7546771E-02  0.1517842E+00
          2   -1    0    0  501    0  0.00000000000E+00  0.00000000000E+00  0.46243513406E+03  0.46243513406E+03  0.00000000000E+00 0.  1.
         -2   -1    0    0    0  501 -0.00000000000E+00 -0.00000000000E+00 -0.11278364966E+03  0.11278364966E+03  0.00000000000E+00 0. -1.
          2    1    1    2  502    0 -0.57097968375E+01 -0.20312766051E+02  0.46120494731E+03  0.46168735489E+03  0.00000000000E+00 0.  1.
         -2    1    1    2    0  502  0.57097968375E+01  0.20312766051E+02 -0.11155346291E+03  0.11353142883E+03  0.00000000000E+00 0. -1.
</event>
<event>
 4    1  0.5565417E+003  0.2277370E+02  0.7546771E-02  0.1495360E+00
          2   -1    0    0  501    0  0.00000000000E+00  0.00000000000E+00  0.17252102730E+03  0.17252102730E+03  0.00000000000E+00 0. -1.
         -2   -1    0    0    0  501 -0.00000000000E+00 -0.00000000000E+00 -0.16108562609E+02  0.16108562609E+02  0.00000000000E+00 0.  1.
          2    1    1    2  502    0  0.15594582736E+02 -0.16596694154E+02  0.16326623963E+03  0.16484691768E+03  0.00000000000E+00 0. -1.
         -2    1    1    2    0  502 -0.15594582736E+02  0.16596694154E+02 -0.68537749329E+01  0.23782672230E+02  0.00000000000E+00 0.  1.
</event>
<event>
 4    1  0.5565417E+003  0.6034736E+02  0.7546771E-02  0.1258657E+00
          2   -1    0    0  501    0  0.00000000000E+00  0.00000000000E+00  0.67076829171E+02  0.67076829171E+02  0.00000000000E+00 0.  1.
         -2   -1    0    0    0  501 -0.00000000000E+00 -0.00000000000E+00 -0.82188521728E+02  0.82188521728E+02  0.00000000000E+00 0. -1.
          2    1    1    2  502    0  0.12292583850E+01  0.60334839531E+02  0.35924248148E+02  0.70230730756E+02  0.00000000000E+00 0.  1.
         -2    1    1    2    0  502 -0.12292583850E+01 -0.60334839531E+02 -0.51035940705E+02  0.79034620143E+02  0.00000000000E+00 0. -1.
</event>
<event>
 4    1  0.5565417E+003  0.2476914E+02  0.7546771E-02  0.1471403E+00
          2   -1    0    0  501    0  0.00000000000E+00  0.00000000000E+00  0.34178432462E+02  0.34178432462E+02  0.00000000000E+00 0. -1.
         -2   -1    0    0    0  501 -0.00000000000E+00 -0.00000000000E+00 -0.27955057652E+02  0.27955057652E+02  0.00000000000E+00 0.  1.
          2    1    1    2  502    0  0.12773929551E+02 -0.21221142693E+02  0.21697036058E+02  0.32928278836E+02  0.00000000000E+00 0. -1.
         -2    1    1    2    0  502 -0.12773929551E+02  0.21221142693E+02 -0.15473661248E+02  0.29205211278E+02  0.00000000000E+00 0.  1.
</event>
<event>
 4    1  0.5565417E+003  0.3436799E+02  0.7546771E-02  0.1385062E+00
          2   -1    0    0  501    0  0.00000000000E+00  0.00000000000E+00  0.54864032241E+03  0.54864032241E+03  0.00000000000E+00 0.  1.
         -2   -1    0    0    0  501 -0.00000000000E+00 -0.00000000000E+00 -0.33991743528E+01  0.33991743528E+01  0.00000000000E+00 0. -1.
          2    1    1    2  502    0 -0.43574132357E+00 -0.34365226162E+02  0.43975393900E+03  0.44109487132E+03  0.00000000000E+00 0.  1.
         -2    1    1    2    0  502  0.43574132357E+00  0.34365226162E+02  0.10548720906E+03  0.11094462544E+03  0.00000000000E+00 0. -1.
</event>
<event>
 4    1  0.5565417E+003  0.2877122E+02  0.7546771E-02  0.1430584E+00
          2   -1    0    0  501    0  0.00000000000E+00  0.00000000000E+00  0.13953410632E+02  0.13953410632E+02  0.00000000000E+00 0.  1.
         -2   -1    0    0    0  501 -0.00000000000E+00 -0.00000000000E+00 -0.80919681438E+02  0.80919681438E+02  0.00000000000E+00 0.  1.
          2    1    1    2  502    0 -0.24645675403E+02 -0.14844991407E+02 -0.89777498395E+01  0.30139394123E+02  0.00000000000E+00 0.  1.
         -2    1    1    2    0  502  0.24645675403E+02  0.14844991407E+02 -0.57988520967E+02  0.64733697947E+02  0.00000000000E+00 0.  1.
</event>
<event>
 4    1  0.5565417E+003  0.2130861E+02  0.7546771E-02  0.1514904E+00
          2   -1    0    0  501    0  0.00000000000E+00  0.00000000000E+00  0.30584227988E+03  0.30584227988E+03  0.00000000000E+00 0.  1.
         -2   -1    0    0    0  501 -0.00000000000E+00 -0.00000000000E+00 -0.52950832307E+01  0.52950832307E+01  0.00000000000E+00 0.  1.
          2    1    1    2  502    0 -0.13225460180E+02 -0.16707610954E+02  0.28224357196E+03  0.28304679997E+03  0.00000000000E+00 0.  1.
         -2    1    1    2    0  502  0.13225460180E+02  0.16707610954E+02  0.18303624688E+02  0.28090563139E+02  0.00000000000E+00 0.  1.
</event>
<event>
 4    1  0.5565417E+003  0.2500680E+02  0.7546771E-02  0.1468727E+00
          2   -1    0    0  501    0  0.00000000000E+00  0.00000000000E+00  0.13594726245E+04  0.13594726245E+04  0.00000000000E+00 0. -1.
         -2   -1    0    0    0  501 -0.00000000000E+00 -0.00000000000E+00 -0.88569453102E+00  0.88569453102E+00  0.00000000000E+00 0.  1.
          2    1    1    2  502    0 -0.18039613528E+02  0.17317974466E+02  0.11508534504E+04  0.11511251036E+04  0.00000000000E+00 0. -1.
         -2    1    1    2    0  502  0.18039613528E+02 -0.17317974466E+02  0.20773347961E+03  0.20923321545E+03  0.00000000000E+00 0.  1.
</event>
<event>
 4    1  0.5565417E+003  0.2058289E+02  0.7546771E-02  0.1525304E+00
          2   -1    0    0  501    0  0.00000000000E+00  0.00000000000E+00  0.44744387417E+03  0.44744387417E+03  0.00000000000E+00 0. -1.
         -2   -1    0    0    0  501 -0.00000000000E+00 -0.00000000000E+00 -0.27728389627E+01  0.27728389627E+01  0.00000000000E+00 0.  1.
          2    1    1    2  502    0  0.20526755464E+02 -0.15190757371E+01  0.40501097984E+03  0.40553365960E+03  0.00000000000E+00 0. -1.
         -2    1    1    2    0  502 -0.20526755464E+02  0.15190757371E+01  0.39660055374E+02  0.44683053536E+02  0.00000000000E+00 0.  1.
</event>
<event>
 4    1  0.5565417E+003  0.2176935E+02  0.7546771E-02  0.1508558E+00
          2   -1    0    0  501    0  0.00000000000E+00  0.00000000000E+00  0.26535127128E+03  0.26535127128E+03  0.00000000000E+00 0.  1.
         -2   -1    0    0    0  501 -0.00000000000E+00 -0.00000000000E+00 -0.17616078664E+03  0.17616078664E+03  0.00000000000E+00 0. -1.
          2    1    1    2  502    0 -0.40597889512E+01 -0.21387439141E+02  0.26422938744E+03  0.26512463791E+03  0.00000000000E+00 0.  1.
         -2    1    1    2    0  502  0.40597889512E+01  0.21387439141E+02 -0.17503890281E+03  0.17638742000E+03  0.00000000000E+00 0. -1.
</event>
<event>
 4    1  0.5565417E+003  0.4345811E+02  0.7546771E-02  0.1329332E+00
          2   -1    0    0  501    0  0.00000000000E+00  0.00000000000E+00  0.64506738444E+03  0.64506738444E+03  0.00000000000E+00 0.  1.
         -2   -1    0    0    0  501 -0.00000000000E+00 -0.00000000000E+00 -0.58160307269E+02  0.58160307269E+02  0.00000000000E+00 0.  1.
          2    1    1    2  502    0 -0.39275212258E+02  0.18602828840E+02  0.63610305868E+03  0.63758584426E+03  0.00000000000E+00 0.  1.
         -2    1    1    2    0  502  0.39275212258E+02 -0.18602828840E+02 -0.49195981514E+02  0.65641847444E+02  0.00000000000E+00 0.  1.
</event>
<event>
 4    1  0.5565417E+003  0.3707697E+02  0.7546771E-02  0.1366522E+00
          2   -1    0    0  501    0  0.00000000000E+00  0.00000000000E+00  0.17550916719E+04  0.17550916719E+04  0.00000000000E+00 0.  1.
         -2   -1    0    0    0  501 -0.00000000000E+00 -0.00000000000E+00 -0.14315097662E+02  0.14315097662E+02  0.00000000000E+00 0.  1.
          2    1    1    2  502    0 -0.36091736592E+02  0.84904587085E+01  0.17305475003E+04  0.17309446416E+04  0.00000000000E+00 0.  1.
         -2    1    1    2    0  502  0.36091736592E+02 -0.84904587085E+01  0.10229073978E+02  0.38462128044E+02  0.00000000000E+00 0.  1.
</event>
<event>
 4    1  0.5565417E+003  0.2360975E+02  0.7546771E-02  0.1484980E+00
          2   -1    0    0  501    0  0.00000000000E+00  0.00000000000E+00  0.40093026523E+03  0.40093026523E+03  0.00000000000E+00 0. -1.
         -2   -1    0    0    0  501 -0.00000000000E+00 -0.00000000000E+00 -0.37920991055E+02  0.37920991055E+02  0.00000000000E+00 0.  1.
          2    1    1    2  502    0  0.20304558217E+02  0.12047616574E+02  0.39687024627E+03  0.39757189605E+03  0.00000000000E+00 0. -1.
         -2    1    1    2    0  502 -0.20304558217E+02 -0.12047616574E+02 -0.33860972103E+02  0.41279360233E+02  0.00000000000E+00 0.  1.
</event>
<event>
 4    1  0.5565417E+003  0.2652685E+02  0.7546771E-02  0.1452420E+00
          2   -1    0    0  501    0  0.00000000000E+00  0.00000000000E+00  0.11008025956E+02  0.11008025956E+02  0.00000000000E+00 0. -1.
         -2   -1    0    0    0  501 -0.00000000000E+00 -0.00000000000E+00 -0.14500337591E+03  0.14500337591E+03  0.00000000000E+00 0. -1.
          2    1    1    2  502    0 -0.26269239042E+02  0.36879223853E+01 -0.86674968136E+01  0.27906973902E+02  0.00000000000E+00 0. -1.
         -2    1    1    2    0  502  0.26269239042E+02 -0.36879223853E+01 -0.12532785314E+03  0.12810442797E+03  0.00000000000E+00 0. -1.
</event>
<event>
 4    1  0.5565417E+003  0.2127745E+02  0.7546771E-02  0.1515340E+00
          2   -1    0    0  501    0  0.00000000000E+00  0.00000000000E+00  0.21414725454E+02  0.21414725454E+02  0.00000000000E+00 0.  1.
         -2   -1    0    0    0  501 -0.00000000000E+00 -0.00000000000E+00 -0.24946087021E+02  0.24946087021E+02  0.00000000000E+00 0. -1.
          2    1    1    2  502    0 -0.15230048920E+02  0.14858509349E+02  0.72874649826E+01  0.22490816705E+02  0.00000000000E+00 0.  1.
         -2    1    1    2    0  502  0.15230048920E+02 -0.14858509349E+02 -0.10818826550E+02  0.23869995771E+02  0.00000000000E+00 0. -1.
</event>
<event>
 4    1  0.5565417E+003  0.2497280E+02  0.7546771E-02  0.1469108E+00
          2   -1    0    0  501    0  0.00000000000E+00  0.00000000000E+00  0.17462232387E+02  0.17462232387E+02  0.00000000000E+00 0.  1.
         -2   -1    0    0    0  501 -0.00000000000E+00 -0.00000000000E+00 -0.36241288870E+02  0.36241288870E+02  0.00000000000E+00 0. -1.
          2    1    1    2  502    0 -0.18520413983E+02  0.16752167082E+02 -0.61497077434E+01  0.25718859644E+02  0.00000000000E+00 0.  1.
         -2    1    1    2    0  502  0.18520413983E+02 -0.16752167082E+02 -0.12629348739E+02  0.27984661613E+02  0.00000000000E+00 0. -1.
</event>
<event>
 4    1  0.5565417E+003  0.2124203E+02  0.7546771E-02  0.1515837E+00
          2   -1    0    0  501    0  0.00000000000E+00  0.00000000000E+00  0.51163737337E+03  0.51163737337E+03  0.00000000000E+00 0.  1.
         -2   -1    0    0    0  501 -0.00000000000E+00 -0.00000000000E+00 -0.27149989088E+01  0.27149989088E+01  0.00000000000E+00 0. -1.
          2    1    1    2  502    0 -0.19356019063E+02  0.87503283107E+01  0.46577913741E+03  0.46626326101E+03  0.00000000000E+00 0.  1.
         -2    1    1    2    0  502  0.19356019063E+02 -0.87503283107E+01  0.43143237046E+02  0.48089111266E+02  0.00000000000E+00 0. -1.
</event>
<event>
 4    1  0.5565417E+003  0.3252881E+02  0.7546771E-02  0.1398822E+00
          2   -1    0    0  501    0  0.00000000000E+00  0.00000000000E+00  0.59064000222E+03  0.59064000222E+03  0.00000000000E+00 0. -1.
         -2   -1    0    0    0  501 -0.00000000000E+00 -0.00000000000E+00 -0.34806858528E+01  0.34806858528E+01  0.00000000000E+00 0.  1.
          2    1    1    2  502    0 -0.25308423833E+02  0.20435433471E+02  0.50052363526E+03  0.50157953777E+03  0.00000000000E+00 0. -1.
         -2    1    1    2    0  502  0.25308423833E+02 -0.20435433471E+02  0.86635681112E+02  0.92541150305E+02  0.00000000000E+00 0.  1.
</event>
<event>
 4    1  0.5565417E+003  0.2611857E+02  0.7546771E-02  0.1456669E+00
          2   -1    0    0  501    0  0.00000000000E+00  0.00000000000E+00  0.66885980405E+03  0.66885980405E+03  0.00000000000E+00 0.  1.
         -2   -1    0    0    0  501 -0.00000000000E+00 -0.00000000000E+00 -0.58495860287E+01  0.58495860287E+01  0.00000000000E+00 0.  1.
          2    1    1    2  502    0 -0.14378160244E+02 -0.21804770120E+02  0.63804218576E+03  0.63857655008E+03  0.00000000000E+00 0.  1.
         -2    1    1    2    0  502  0.14378160244E+02  0.21804770120E+02  0.24968032261E+02  0.36132840007E+02  0.00000000000E+00 0.  1.
</event>
<event>
 4    1  0.5565417E+003  0.2245202E+02  0.7546771E-02  0.1499496E+00
          2   -1    0    0  501    0  0.00000000000E+00  0.00000000000E+00  0.23114130914E+04  0.23114130914E+04  0.00000000000E+00 0. -1.
         -2   -1    0    0    0  501 -0.00000000000E+00 -0.00000000000E+00 -0.22211116060E+00  0.22211116060E+00  0.00000000000E+00 0. -1.
          2    1    1    2  502    0  0.11282820349E+02  0.19411091472E+02  0.10000478940E+04  0.10002998964E+04  0.00000000000E+00 0. -1.
         -2    1    1    2    0  502 -0.11282820349E+02 -0.19411091472E+02  0.13111430863E+04  0.13113353062E+04  0.00000000000E+00 0. -1.
</event>
<event>
 4    1  0.5565417E+003  0.2114991E+02  0.7546771E-02  0.1517135E+00
          2   -1    0    0  501    0  0.00000000000E+00  0.00000000000E+00  0.63671674497E+03  0.63671674497E+03  0.00000000000E+00 0. -1.
         -2   -1    0    0    0  501 -0.00000000000E+00 -0.00000000000E+00 -0.39157476431E+01  0.39157476431E+01  0.00000000000E+00 0. -1.
          2    1    1    2  502    0 -0.13165233026E+02 -0.16552801221E+02  0.60656284622E+03  0.60693146648E+03  0.00000000000E+00 0. -1.
         -2    1    1    2    0  502  0.13165233026E+02  0.16552801221E+02  0.26238151104E+02  0.33701026130E+02  0.00000000000E+00 0. -1.
</event>
<event>
 4    1  0.5565417E+003  0.2461091E+02  0.7546771E-02  0.1473203E+00
          2   -1    0    0  501    0  0.00000000000E+00  0.00000000000E+00  0.64465929103E+03  0.64465929103E+03  0.00000000000E+00 0.  1.
         -2   -1    0    0    0  501 -0.00000000000E+00 -0.00000000000E+00 -0.89366941565E+01  0.89366941565E+01  0.00000000000E+00 0. -1.
          2    1    1    2  502    0 -0.13274803819E+02 -0.20723810735E+02  0.62700335760E+03  0.62748618087E+03  0.00000000000E+00 0.  1.
         -2    1    1    2    0  502  0.13274803819E+02  0.20723810735E+02  0.87192392782E+01  0.26109804316E+02  0.00000000000E+00 0. -1.
</event>
<event>
 4    1  0.5565417E+003  0.2427156E+02  0.7546771E-02  0.1477120E+00
          2   -1    0    0  501    0  0.00000000000E+00  0.00000000000E+00  0.16279788008E+04  0.16279788008E+04  0.00000000000E+00 0.  1.
         -2   -1    0    0    0  501 -0.00000000000E+00 -0.00000000000E+00 -0.19952888869E+01  0.19952888869E+01  0.00000000000E+00 0.  1.
          2    1    1    2  502    0 -0.10339247815E+02 -0.21959247932E+02  0.15503817821E+04  0.15505717587E+04  0.00000000000E+00 0.  1.
         -2    1    1    2    0  502  0.10339247815E+02  0.21959247932E+02  0.75601729806E+02  0.79402330979E+02  0.00000000000E+00 0.  1.
</event>
<event>
 4    1  0.5565417E+003  0.2683025E+02  0.7546771E-02  0.1449321E+00
          2   -1    0    0  501    0  0.00000000000E+00  0.00000000000E+00  0.33467086330E+03  0.33467086330E+03  0.00000000000E+00 0. -1.
         -2   -1    0    0    0  501 -0.00000000000E+00 -0.00000000000E+00 -0.67636218389E+01  0.67636218389E+01  0.00000000000E+00 0. -1.
          2    1    1    2  502    0 -0.21828872552E+02 -0.15600081785E+02  0.30493564290E+03  0.30611371832E+03  0.00000000000E+00 0. -1.
         -2    1    1    2    0  502  0.21828872552E+02  0.15600081785E+02  0.22971598556E+02  0.35320766821E+02  0.00000000000E+00 0. -1.
</event>
<event>
 4    1  0.5565417E+003  0.3697069E+02  0.7546771E-02  0.1367214E+00
          2   -1    0    0  501    0  0.00000000000E+00  0.00000000000E+00  0.16156780902E+03  0.16156780902E+03  0.00000000000E+00 0.  1.
         -2   -1    0    0    0  501 -0.00000000000E+00 -0.00000000000E+00 -0.12229061053E+03  0.12229061053E+03  0.00000000000E+00 0.  1.
          2    1    1    2  502    0  0.18554627202E+02  0.31977458239E+02  0.15657065691E+03  0.16087635821E+03  0.00000000000E+00 0.  1.
         -2    1    1    2    0  502 -0.18554627202E+02 -0.31977458239E+02 -0.11729345842E+03  0.12298206135E+03  0.00000000000E+00 0.  1.
</event>
<event>
 4    1  0.5565417E+003  0.2232422E+02  0.7546771E-02  0.1501163E+00
          2   -1    0    0  501    0  0.00000000000E+00  0.00000000000E+00  0.84192304814E+03  0.84192304814E+03  0.00000000000E+00 0. -1.
         -2   -1    0    0    0  501 -0.00000000000E+00 -0.00000000000E+00 -0.15957571836E+02  0.15957571836E+02  0.00000000000E+00 0.  1.
          2    1    1    2  502    0  0.87341402082E+00  0.22307125256E+02  0.83389213593E+03  0.83419090444E+03  0.00000000000E+00 0. -1.
         -2    1    1    2    0  502 -0.87341402082E+00 -0.22307125256E+02 -0.79266596257E+01  0.23689715534E+02  0.00000000000E+00 0.  1.
</event>
<event>
 4    1  0.5565417E+003  0.3767521E+02  0.7546771E-02  0.1362675E+00
          2   -1    0    0  501    0  0.00000000000E+00  0.00000000000E+00  0.17549130130E+03  0.17549130130E+03  0.00000000000E+00 0. -1.
         -2   -1    0    0    0  501 -0.00000000000E+00 -0.00000000000E+00 -0.22612017795E+02  0.22612017795E+02  0.00000000000E+00 0. -1.
          2    1    1    2  502    0  0.20552871871E+02  0.31575323135E+02  0.15582335323E+03  0.16031325268E+03  0.00000000000E+00 0. -1.
         -2    1    1    2    0  502 -0.20552871871E+02 -0.31575323135E+02 -0.29440697242E+01  0.37790066416E+02  0.00000000000E+00 0. -1.
</event>
<event>
 4    1  0.5565417E+003  0.2195804E+02  0.7546771E-02  0.1506014E+00
          2   -1    0    0  501    0  0.00000000000E+00  0.00000000000E+00  0.28913591887E+03  0.28913591887E+03  0.00000000000E+00 0. -1.
         -2   -1    0    0    0  501 -0.00000000000E+00 -0.00000000000E+00 -0.12130344838E+02  0.12130344838E+02  0.00000000000E+00 0.  1.
          2    1    1    2  502    0  0.16047235126E+02 -0.14988053949E+02  0.27839942918E+03  0.27926402863E+03  0.00000000000E+00 0. -1.
         -2    1    1    2    0  502 -0.16047235126E+02  0.14988053949E+02 -0.13938551488E+01  0.22002235081E+02  0.00000000000E+00 0.  1.
</event>
<event>
 4    1  0.5565417E+003  0.3386495E+02  0.7546771E-02  0.1388723E+00
          2   -1    0    0  501    0  0.00000000000E+00  0.00000000000E+00  0.96494585128E+03  0.96494585128E+03  0.00000000000E+00 0. -1.
         -2   -1    0    0    0  501 -0.00000000000E+00 -0.00000000000E+00 -0.10587384678E+02  0.10587384678E+02  0.00000000000E+00 0. -1.
          2    1    1    2  502    0 -0.29157962070E+02  0.17223478324E+02  0.93675377722E+03  0.93736570990E+03  0.00000000000E+00 0. -1.
         -2    1    1    2    0  502  0.29157962070E+02 -0.17223478324E+02  0.17604689390E+02  0.38167526068E+02  0.00000000000E+00 0. -1.
</event>
<event>
 4    1  0.5565417E+003  0.2691678E+02  0.7546771E-02  0.1448446E+00
          2   -1    0    0  501    0  0.00000000000E+00  0.00000000000E+00  0.12863568530E+04  0.12863568530E+04  0.00000000000E+00 0.  1.
         -2   -1    0    0    0  501 -0.00000000000E+00 -0.00000000000E+00 -0.33466361366E+01  0.33466361366E+01  0.00000000000E+00 0. -1.
          2    1    1    2  502    0  0.24551908386E+02 -0.11032546219E+02  0.12295954021E+04  0.12298899813E+04  0.00000000000E+00 0.  1.
         -2    1    1    2    0  502 -0.24551908386E+02  0.11032546219E+02  0.53414814772E+02  0.59813507827E+02  0.00000000000E+00 0. -1.
</event>
<event>
 4    1  0.5565417E+003  0.2780678E+02  0.7546771E-02  0.1439668E+00
          2   -1    0    0  501    0  0.00000000000E+00  0.00000000000E+00  0.17798941654E+04  0.17798941654E+04  0.00000000000E+00 0.  1.
         -2   -1    0    0    0  501 -0.00000000000E+00 -0.00000000000E+00 -0.11946659448E+02  0.11946659448E+02  0.00000000000E+00 0.  1.
          2    1    1    2  502    0  0.87008503501E+01 -0.26410454508E+02  0.17634541154E+04  0.17636733354E+04  0.00000000000E+00 0.  1.
         -2    1    1    2    0  502 -0.87008503501E+01  0.26410454508E+02  0.44933905818E+01  0.28167489470E+02  0.00000000000E+00 0.  1.
</event>
<event>
 4    1  0.5565417E+003  0.2080100E+02  0.7546771E-02  0.1522125E+00
          2   -1    0    0  501    0  0.00000000000E+00  0.00000000000E+00  0.69081021924E+03  0.69081021924E+03  0.00000000000E+00 0.  1.
         -2   -1    0    0    0  501 -0.00000000000E+00 -0.00000000000E+00 -0.52870682612E+01  0.52870682612E+01  0.00000000000E+00 0. -1.
          2    1    1    2  502    0  0.16101577675E+02 -0.13168939837E+02  0.66954453226E+03  0.66986757084E+03  0.00000000000E+00 0.  1.
         -2    1    1    2    0  502 -0.16101577675E+02  0.13168939837E+02  0.15978618716E+02  0.26229716662E+02  0.00000000000E+00 0. -1.
</event>
<event>
 4    1  0.5565417E+003  0.2030795E+02  0.7546771E-02  0.1529379E+00
          2   -1    0    0  501    0  0.00000000000E+00  0.00000000000E+00  0.12989862975E+04  0.12989862975E+04  0.00000000000E+00 0.  1.
         -2   -1    0    0    0  501 -0.00000000000E+00 -0.00000000000E+00 -0.21464595932E+01  0.21464595932E+01  0.00000000000E+00 0. -1.
          2    1    1    2  502    0  0.15983234582E+02 -0.12527938567E+02  0.12489485164E+04  0.12491136096E+04  0.00000000000E+00 0.  1.
         -2    1    1    2    0  502 -0.15983234582E+02  0.12527938567E+02  0.47891321582E+02  0.52019147584E+02  0.00000000000E+00 0. -1.
</event>
<event>
 4    1  0.5565417E+003  0.3360812E+02  0.7546771E-02  0.1390622E+00
          2   -1    0    0  501    0  0.00000000000E+00  0.00000000000E+00  0.51861848167E+02  0.51861848167E+02  0.00000000000E+00 0.  1.
         -2   -1    0    0    0  501 -0.00000000000E+00 -0.00000000000E+00 -0.56428456686E+02  0.56428456686E+02  0.00000000000E+00 0.  1.
          2    1    1    2  502    0 -0.33392119897E+02  0.38042210865E+01  0.40145218787E+02  0.52355939116E+02  0.00000000000E+00 0.  1.
         -2    1    1    2    0  502  0.33392119897E+02 -0.38042210865E+01 -0.44711827305E+02  0.55934365736E+02  0.00000000000E+00 0.  1.
</event>
<event>
 4    1  0.5565417E+003  0.2017664E+02  0.7546771E-02  0.1531352E+00
          2   -1    0    0  501    0  0.00000000000E+00  0.00000000000E+00  0.12240300294E+03  0.12240300294E+03  0.00000000000E+00 0.  1.
         -2   -1    0    0    0  501 -0.00000000000E+00 -0.00000000000E+00 -0.33258720174E+01  0.33258720174E+01  0.00000000000E+00 0.  1.
          2    1    1    2  502    0 -0.72593438709E+01  0.18825466502E+02  0.59471751019E+02  0.62801157886E+02  0.00000000000E+00 0.  1.
         -2    1    1    2    0  502  0.72593438709E+01 -0.18825466502E+02  0.59605379904E+02  0.62927717073E+02  0.00000000000E+00 0.  1.
</event>
<event>
 4    1  0.5565417E+003  0.7147270E+02  0.7546771E-02  0.1225160E+00
          2   -1    0    0  501    0  0.00000000000E+00  0.00000000000E+00  0.19153711881E+03  0.19153711881E+03  0.00000000000E+00 0. -1.
         -2   -1    0    0    0  501 -0.00000000000E+00 -0.00000000000E+00 -0.49842109075E+02  0.49842109075E+02  0.00000000000E+00 0. -1.
          2    1    1    2  502    0  0.97070601549E+01 -0.70810447776E+02  0.15313843124E+03  0.16899622970E+03  0.00000000000E+00 0. -1.
         -2    1    1    2    0  502 -0.97070601549E+01  0.70810447776E+02 -0.11443421498E+02  0.72382998188E+02  0.00000000000E+00 0. -1.
</event>
<event>
 4    1  0.5565417E+003  0.2595634E+02  0.7546771E-02  0.1458383E+00
          2   -1    0    0  501    0  0.00000000000E+00  0.00000000000E+00  0.68922255264E+03  0.68922255264E+03  0.00000000000E+00 0. -1.
         -2   -1    0    0    0  501 -0.00000000000E+00 -0.00000000000E+00 -0.73730506852E+01  0.73730506852E+01  0.00000000000E+00 0. -1.
          2    1    1    2  502    0 -0.23511055917E+02 -0.10998267353E+02  0.66531312357E+03  0.66581925778E+03  0.00000000000E+00 0. -1.
         -2    1    1    2    0  502  0.23511055917E+02  0.10998267353E+02  0.16536378386E+02  0.30776345548E+02  0.00000000000E+00 0. -1.
</event>
<event>
 4    1  0.5565417E+003  0.2286654E+02  0.7546771E-02  0.1494181E+00
          2   -1    0    0  501    0  0.00000000000E+00  0.00000000000E+00  0.40330801937E+03  0.40330801937E+03  0.00000000000E+00 0. -1.
         -2   -1    0    0    0  501 -0.00000000000E+00 -0.00000000000E+00 -0.25540782986E+01  0.25540782986E+01  0.00000000000E+00 0.  1.
          2    1    1    2  502    0 -0.21873097225E+02 -0.66668155722E+01  0.34277474770E+03  0.34353661592E+03  0.00000000000E+00 0. -1.
         -2    1    1    2    0  502  0.21873097225E+02  0.66668155722E+01  0.57979193370E+02  0.62325481755E+02  0.00000000000E+00 0.  1.
</event>
<event>
 4    1  0.5565417E+003  0.5691430E+02  0.7546771E-02  0.1270693E+00
          2   -1    0    0  501    0  0.00000000000E+00  0.00000000000E+00  0.39201039238E+03  0.39201039238E+03  0.00000000000E+00 0. -1.
         -2   -1    0    0    0  501 -0.00000000000E+00 -0.00000000000E+00 -0.34972155926E+02  0.34972155926E+02  0.00000000000E+00 0.  1.
          2    1    1    2  502    0 -0.37166476730E+02 -0.43103258207E+02  0.36509171092E+03  0.36950127908E+03  0.00000000000E+00 0. -1.
         -2    1    1    2    0  502  0.37166476730E+02  0.43103258207E+02 -0.80534744664E+01  0.57481269224E+02  0.00000000000E+00 0.  1.
</event>
<event>
 4    1  0.5565417E+003  0.2249846E+02  0.7546771E-02  0.1498894E+00
          2   -1    0    0  501    0  0.00000000000E+00  0.00000000000E+00  0.16033684819E+04  0.16033684819E+04  0.00000000000E+00 0.  1.
         -2   -1    0    0    0  501 -0.00000000000E+00 -0.00000000000E+00 -0.10940306501E+01  0.10940306501E+01  0.00000000000E+00 0. -1.
          2    1    1    2  502    0  0.18141352031E+02  0.13306840183E+02  0.14777923647E+04  0.14779636172E+04  0.00000000000E+00 0.  1.
         -2    1    1    2    0  502 -0.18141352031E+02 -0.13306840183E+02  0.12448208661E+03  0.12649889540E+03  0.00000000000E+00 0. -1.
</event>
<event>
 4    1  0.5565417E+003  0.2659722E+02  0.7546771E-02  0.1451697E+00
          2   -1    0    0  501    0  0.00000000000E+00  0.00000000000E+00  0.60207205802E+03  0.60207205802E+03  0.00000000000E+00 0. -1.
         -2   -1    0    0    0  501 -0.00000000000E+00 -0.00000000000E+00 -0.38248779587E+02  0.38248779587E+02  0.00000000000E+00 0. -1.
          2    1    1    2  502    0 -0.15458151311E+01  0.26552259490E+02  0.59711620535E+03  0.59770826891E+03  0.00000000000E+00 0. -1.
         -2    1    1    2    0  502  0.15458151311E+01 -0.26552259490E+02 -0.33292926917E+02  0.42612568699E+02  0.00000000000E+00 0. -1.
</event>
<event>
 4    1  0.5565417E+003  0.3313858E+02  0.7546771E-02  0.1394144E+00
          2   -1    0    0  501    0  0.00000000000E+00  0.00000000000E+00  0.12327418104E+03  0.12327418104E+03  0.00000000000E+00 0.  1.
         -2   -1    0    0    0  501 -0.00000000000E+00 -0.00000000000E+00 -0.29426243790E+02  0.29426243790E+02  0.00000000000E+00 0.  1.
          2    1    1    2  502    0 -0.33110682240E+02  0.13595337445E+01  0.11067828046E+03  0.11553288439E+03  0.00000000000E+00 0.  1.
         -2    1    1    2    0  502  0.33110682240E+02 -0.13595337445E+01 -0.16830343204E+02  0.37167540445E+02  0.00000000000E+00 0.  1.
</event>
<event>
 4    1  0.5565417E+003  0.2046226E+02  0.7546771E-02  0.1527083E+00
          2   -1    0    0  501    0  0.00000000000E+00  0.00000000000E+00  0.15223205320E+04  0.15223205320E+04  0.00000000000E+00 0. -1.
         -2   -1    0    0    0  501 -0.00000000000E+00 -0.00000000000E+00 -0.51236024061E+01  0.51236024061E+01  0.00000000000E+00 0. -1.
          2    1    1    2  502    0 -0.18759770628E+02  0.81716004530E+01  0.15015388669E+04  0.15016782854E+04  0.00000000000E+00 0. -1.
         -2    1    1    2    0  502  0.18759770628E+02 -0.81716004530E+01  0.15658062723E+02  0.25765849029E+02  0.00000000000E+00 0. -1.
</event>
<event>
 4    1  0.5565417E+003  0.2322300E+02  0.7546771E-02  0.1489717E+00
          2   -1    0    0  501    0  0.00000000000E+00  0.00000000000E+00  0.93271187903E+01  0.93271187903E+01  0.00000000000E+00 0. -1.
         -2   -1    0    0    0  501 -0.00000000000E+00 -0.00000000000E+00 -0.90055233196E+02  0.90055233196E+02  0.00000000000E+00 0.  1.
          2    1    1    2  502    0 -0.21810803180E+02  0.79747434339E+01 -0.10635054549E+02  0.25542358024E+02  0.00000000000E+00 0. -1.
         -2    1    1    2    0  502  0.21810803180E+02 -0.79747434339E+01 -0.70093059857E+02  0.73839993962E+02  0.00000000000E+00 0.  1.
</event>
<event>
 4    1  0.5565417E+003  0.2186835E+02  0.7546771E-02  0.1507219E+00
          2   -1    0    0  501    0  0.00000000000E+00  0.00000000000E+00  0.27870654221E+03  0.27870654221E+03  0.00000000000E+00 0.  1.
         -2   -1    0    0    0  501 -0.00000000000E+00 -0.00000000000E+00 -0.48311806284E+01  0.48311806284E+01  0.00000000000E+00 0.  1.
          2    1    1    2  502    0 -0.74723213067E+01  0.20552107628E+02  0.25078026940E+03  0.25173193726E+03  0.00000000000E+00 0.  1.
         -2    1    1    2    0  502  0.74723213067E+01 -0.20552107628E+02  0.23095092177E+02  0.31805785579E+02  0.00000000000E+00 0.  1.
</event>
<event>
 4    1  0.5565417E+003  0.3264261E+02  0.7546771E-02  0.1397940E+00
          2   -1    0    0  501    0  0.00000000000E+00  0.00000000000E+00  0.37416916296E+02  0.37416916296E+02  0.00000000000E+00 0. -1.
         -2   -1    0    0    0  501 -0.00000000000E+00 -0.00000000000E+00 -0.75163720055E+02  0.75163720055E+02  0.00000000000E+00 0.  1.
          2    1    1    2  502    0 -0.31207445982E+02 -0.95726439876E+01  0.25489907021E+02  0.41415885329E+02  0.00000000000E+00 0. -1.
         -2    1    1    2    0  502  0.31207445982E+02  0.95726439876E+01 -0.63236710780E+02  0.71164751022E+02  0.00000000000E+00 0.  1.
</event>
<event>
 4    1  0.5565417E+003  0.4770066E+02  0.7546771E-02  0.1308462E+00
          2   -1    0    0  501    0  0.00000000000E+00  0.00000000000E+00  0.30914218033E+04  0.30914218033E+04  0.00000000000E+00 0. -1.
         -2   -1    0    0    0  501 -0.00000000000E+00 -0.00000000000E+00 -0.79037990010E+00  0.79037990010E+00  0.00000000000E+00 0. -1.
          2    1    1    2  502    0 -0.46299975129E+02 -0.11474463459E+02  0.11398471924E+04  0.11408448506E+04  0.00000000000E+00 0. -1.
         -2    1    1    2    0  502  0.46299975129E+02  0.11474463459E+02  0.19507842310E+04  0.19513673326E+04  0.00000000000E+00 0. -1.
</event>
<event>
 4    1  0.5565417E+003  0.4632671E+02  0.7546771E-02  0.1314936E+00
          2   -1    0    0  501    0  0.00000000000E+00  0.00000000000E+00  0.29762844594E+03  0.29762844594E+03  0.00000000000E+00 0. -1.
         -2   -1    0    0    0  501 -0.00000000000E+00 -0.00000000000E+00 -0.28302340568E+02  0.28302340568E+02  0.00000000000E+00 0.  1.
          2    1    1    2  502    0 -0.39119679891E+02  0.24815611954E+02  0.27534472030E+03  0.27921475417E+03  0.00000000000E+00 0. -1.
         -2    1    1    2    0  502  0.39119679891E+02 -0.24815611954E+02 -0.60186149267E+01  0.46716032334E+02  0.00000000000E+00 0.  1.
</event>
<event>
 4    1  0.5565417E+003  0.3698341E+02  0.7546771E-02  0.1367131E+00
          2   -1    0    0  501    0  0.00000000000E+00  0.00000000000E+00  0.45195972223E+03  0.45195972223E+03  0.00000000000E+00 0.  1.
         -2   -1    0    0    0  501 -0.00000000000E+00 -0.00000000000E+00 -0.61312693741E+01  0.61312693741E+01  0.00000000000E+00 0. -1.
          2    1    1    2  502    0 -0.26735563841E+01 -0.36886643697E+02  0.38590918957E+03  0.38767728200E+03  0.00000000000E+00 0.  1.
         -2    1    1    2    0  502  0.26735563841E+01  0.36886643697E+02  0.59919263283E+02  0.70413709598E+02  0.00000000000E+00 0. -1.
</event>
<event>
 4    1  0.5565417E+003  0.2726097E+02  0.7546771E-02  0.1445004E+00
          2   -1    0    0  501    0  0.00000000000E+00  0.00000000000E+00  0.12037220730E+04  0.12037220730E+04  0.00000000000E+00 0.  1.
         -2   -1    0    0    0  501 -0.00000000000E+00 -0.00000000000E+00 -0.72129033006E+00  0.72129033006E+00  0.00000000000E+00 0.  1.
          2    1    1    2  502    0 -0.20787397720E+02  0.17636452284E+02  0.83007056016E+03  0.83051808842E+03  0.00000000000E+00 0.  1.
         -2    1    1    2    0  502  0.20787397720E+02 -0.17636452284E+02  0.37293022251E+03  0.37392527491E+03  0.00000000000E+00 0.  1.
</event>
<event>
 4    1  0.5565417E+003  0.2425113E+02  0.7546771E-02  0.1477358E+00
          2   -1    0    0  501    0  0.00000000000E+00  0.00000000000E+00  0.94705113563E+02  0.94705113563E+02  0.00000000000E+00 0.  1.
         -2   -1    0    0    0  501 -0.00000000000E+00 -0.00000000000E+00 -0.45367455673E+03  0.45367455673E+03  0.00000000000E+00 0.  1.
          2    1    1    2  502    0  0.14670665534E+02  0.19310326986E+02  0.92822066331E+02  0.95937756662E+02  0.00000000000E+00 0.  1.
         -2    1    1    2    0  502 -0.14670665534E+02 -0.19310326986E+02 -0.45179150949E+03  0.45244191363E+03  0.00000000000E+00 0.  1.
</event>
<event>
 4    1  0.5565417E+003  0.2280040E+02  0.7546771E-02  0.1495020E+00
          2   -1    0    0  501    0  0.00000000000E+00  0.00000000000E+00  0.35508802307E+02  0.35508802307E+02  0.00000000000E+00 0.  1.
         -2   -1    0    0    0  501 -0.00000000000E+00 -0.00000000000E+00 -0.83485463712E+02  0.83485463712E+02  0.00000000000E+00 0.  1.
          2    1    1    2  502    0 -0.18083581204E+02 -0.13886772472E+02  0.30040731383E+02  0.37713444564E+02  0.00000000000E+00 0.  1.
         -2    1    1    2    0  502  0.18083581204E+02  0.13886772472E+02 -0.78017392789E+02  0.81280821455E+02  0.00000000000E+00 0.  1.
</event>
<event>
 4    1  0.5565417E+003  0.2160234E+02  0.7546771E-02  0.1510836E+00
          2   -1    0    0  501    0  0.00000000000E+00  0.00000000000E+00  0.54139021678E+03  0.54139021678E+03  0.00000000000E+00 0. -1.
         -2   -1    0    0    0  501 -0.00000000000E+00 -0.00000000000E+00 -0.66954447705E+02  0.66954447705E+02  0.00000000000E+00 0. -1.
          2    1    1    2  502    0 -0.20785957118E+02 -0.58825994864E+01  0.53942592525E+03  0.53985830532E+03  0.00000000000E+00 0. -1.
         -2    1    1    2    0  502  0.20785957118E+02  0.58825994864E+01 -0.64990156183E+02  0.68486359158E+02  0.00000000000E+00 0. -1.
</event>
<event>
 4    1  0.5565417E+003  0.2320801E+02  0.7546771E-02  0.1489902E+00
          2   -1    0    0  501    0  0.00000000000E+00  0.00000000000E+00  0.85800060827E+02  0.85800060827E+02  0.00000000000E+00 0. -1.
         -2   -1    0    0    0  501 -0.00000000000E+00 -0.00000000000E+00 -0.25945186917E+02  0.25945186917E+02  0.00000000000E+00 0. -1.
          2    1    1    2  502    0 -0.18897411015E+02  0.13472184657E+02  0.78573427185E+02  0.81929209456E+02  0.00000000000E+00 0. -1.
         -2    1    1    2    0  502  0.18897411015E+02 -0.13472184657E+02 -0.18718553274E+02  0.29816038288E+02  0.00000000000E+00 0. -1.
</event>
<event>
 4    1  0.7533237E+003  0.2299261E+02  0.7546771E-02  0.1492591E+00
          2   -1    0    0  501    0  0.00000000000E+00  0.00000000000E+00  0.96348600714E+03  0.96348600714E+03  0.00000000000E+00 0.  1.
         -2   -1    0    0    0  501 -0.00000000000E+00 -0.00000000000E+00 -0.30622728011E+03  0.30622728011E+03  0.00000000000E+00 0. -1.
          2    1    1    2  502    0  0.11481667723E+02  0.19920622556E+02  0.96291698728E+03  0.96319145776E+03  0.00000000000E+00 0.  1.
         -2    1    1    2    0  502 -0.11481667723E+02 -0.19920622556E+02 -0.30565826025E+03  0.30652182950E+03  0.00000000000E+00 0. -1.
</event>
<event>
 4    1  0.5565417E+003  0.2173998E+02  0.7546771E-02  0.1508957E+00
          2   -1    0    0  501    0  0.00000000000E+00  0.00000000000E+00  0.74806068499E+02  0.74806068499E+02  0.00000000000E+00 0.  1.
         -2   -1    0    0    0  501 -0.00000000000E+00 -0.00000000000E+00 -0.24890419718E+02  0.24890419718E+02  0.00000000000E+00 0.  1.
          2    1    1    2  502    0  0.21242853442E+02  0.46225472274E+01  0.68017195586E+02  0.71407042094E+02  0.00000000000E+00 0.  1.
         -2    1    1    2    0  502 -0.21242853442E+02 -0.46225472274E+01 -0.18101546805E+02  0.28289446123E+02  0.00000000000E+00 0.  1.
</event>
<event>
 4    1  0.5565417E+003  0.3027414E+02  0.7546771E-02  0.1417229E+00
          2   -1    0    0  501    0  0.00000000000E+00  0.00000000000E+00  0.11422547990E+02  0.11422547990E+02  0.00000000000E+00 0.  1.
         -2   -1    0    0    0  501 -0.00000000000E+00 -0.00000000000E+00 -0.10097569424E+03  0.10097569424E+03  0.00000000000E+00 0. -1.
          2    1    1    2  502    0  0.27678123474E+02  0.12265613578E+02 -0.19308267123E+02  0.35907283033E+02  0.00000000000E+00 0.  1.
         -2    1    1    2    0  502 -0.27678123474E+02 -0.12265613578E+02 -0.70244879123E+02  0.76490959194E+02  0.00000000000E+00 0. -1.
</event>
<event>
 4    1  0.5565417E+003  0.3993842E+02  0.7546771E-02  0.1348847E+00
          2   -1    0    0  501    0  0.00000000000E+00  0.00000000000E+00  0.18251101535E+04  0.18251101535E+04  0.00000000000E+00 0.  1.
         -2   -1    0    0    0  501 -0.00000000000E+00 -0.00000000000E+00 -0.10376995388E+01  0.10376995388E+01  0.00000000000E+00 0.  1.
          2    1    1    2  502    0  0.39720072482E+02  0.41705070703E+01  0.12747332507E+04  0.12753587486E+04  0.00000000000E+00 0.  1.
         -2    1    1    2    0  502 -0.39720072482E+02 -0.41705070703E+01  0.54933920333E+03  0.55078910447E+03  0.00000000000E+00 0.  1.
</event>
<event>
 4    1  0.5565417E+003  0.2608663E+02  0.7546771E-02  0.1457005E+00
          2   -1    0    0  501    0  0.00000000000E+00  0.00000000000E+00  0.17001863278E+03  0.17001863278E+03  0.00000000000E+00 0. -1.
         -2   -1    0    0    0  501 -0.00000000000E+00 -0.00000000000E+00 -0.19878186142E+03  0.19878186142E+03  0.00000000000E+00 0.  1.
          2    1    1    2  502    0 -0.10132163409E+02 -0.24038547386E+02  0.16815269475E+03  0.17016415970E+03  0.00000000000E+00 0. -1.
         -2    1    1    2    0  502  0.10132163409E+02  0.24038547386E+02 -0.19691592339E+03  0.19863633450E+03  0.00000000000E+00 0.  1.
</event>
<event>
 4    1  0.5565417E+003  0.3140131E+02  0.7546771E-02  0.1407798E+00
          2   -1    0    0  501    0  0.00000000000E+00  0.00000000000E+00  0.14168022224E+04  0.14168022224E+04  0.00000000000E+00 0. -1.
         -2   -1    0    0    0  501 -0.00000000000E+00 -0.00000000000E+00 -0.19958228585E+01  0.19958228585E+01  0.00000000000E+00 0. -1.
          2    1    1    2  502    0  0.15550420798E+02  0.27280523700E+02  0.12799062184E+04  0.12802913615E+04  0.00000000000E+00 0. -1.
         -2    1    1    2    0  502 -0.15550420798E+02 -0.27280523700E+02  0.13490018119E+03  0.13850668376E+03  0.00000000000E+00 0. -1.
</event>
<event>
 4    1  0.5565417E+003  0.3126912E+02  0.7546771E-02  0.1408879E+00
          2   -1    0    0  501    0  0.00000000000E+00  0.00000000000E+00  0.13930197970E+04  0.13930197970E+04  0.00000000000E+00 0.  1.
         -2   -1    0    0    0  501 -0.00000000000E+00 -0.00000000000E+00 -0.15716720073E+01  0.15716720073E+01  0.00000000000E+00 0.  1.
          2    1    1    2  502    0 -0.22616611016E+02  0.21592753672E+02  0.12144514867E+04  0.12148539713E+04  0.00000000000E+00 0.  1.
         -2    1    1    2    0  502  0.22616611016E+02 -0.21592753672E+02  0.17699663831E+03  0.17973749769E+03  0.00000000000E+00 0.  1.
</event>
<event>
 4    1  0.5565417E+003  0.2072774E+02  0.7546771E-02  0.1523188E+00
          2   -1    0    0  501    0  0.00000000000E+00  0.00000000000E+00  0.12923951111E+03  0.12923951111E+03  0.00000000000E+00 0. -1.
         -2   -1    0    0    0  501 -0.00000000000E+00 -0.00000000000E+00 -0.24041139785E+02  0.24041139785E+02  0.00000000000E+00 0. -1.
          2    1    1    2  502    0 -0.14375847295E+02 -0.14932326523E+02  0.12374361194E+03  0.12546760880E+03  0.00000000000E+00 0. -1.
         -2    1    1    2    0  502  0.14375847295E+02  0.14932326523E+02 -0.18545240621E+02  0.27813042094E+02  0.00000000000E+00 0. -1.
</event>
<event>
 4    1  0.5565417E+003  0.2470660E+02  0.7546771E-02  0.1472113E+00
          2   -1    0    0  501    0  0.00000000000E+00  0.00000000000E+00  0.11188068202E+02  0.11188068202E+02  0.00000000000E+00 0. -1.
         -2   -1    0    0    0  501 -0.00000000000E+00 -0.00000000000E+00 -0.12976783368E+04  0.12976783368E+04  0.00000000000E+00 0. -1.
          2    1    1    2  502    0 -0.20611198751E+02  0.13623306461E+02 -0.27171446243E+01  0.24855560098E+02  0.00000000000E+00 0. -1.
         -2    1    1    2    0  502  0.20611198751E+02 -0.13623306461E+02 -0.12837731239E+04  0.12840108449E+04  0.00000000000E+00 0. -1.
</event>
<event>
 4    1  0.5565417E+003  0.2124183E+02  0.7546771E-02  0.1515840E+00
          2   -1    0    0  501    0  0.00000000000E+00  0.00000000000E+00  0.42735655013E+02  0.42735655013E+02  0.00000000000E+00 0.  1.
         -2   -1    0    0    0  501 -0.00000000000E+00 -0.00000000000E+00 -0.39842921449E+02  0.39842921449E+02  0.00000000000E+00 0.  1.
          2    1    1    2  502    0  0.14050106265E+02  0.15931415354E+02  0.36844607866E+02  0.42529291201E+02  0.00000000000E+00 0.  1.
         -2    1    1    2    0  502 -0.14050106265E+02 -0.15931415354E+02 -0.33951874302E+02  0.40049285260E+02  0.00000000000E+00 0.  1.
</event>
<event>
 4    1  0.5565417E+003  0.2957616E+02  0.7546771E-02  0.1423316E+00
          2   -1    0    0  501    0  0.00000000000E+00  0.00000000000E+00  0.20668088468E+02  0.20668088468E+02  0.00000000000E+00 0. -1.
         -2   -1    0    0    0  501 -0.00000000000E+00 -0.00000000000E+00 -0.27848192495E+03  0.27848192495E+03  0.00000000000E+00 0. -1.
          2    1    1    2  502    0 -0.17037460458E+02  0.24175899628E+02  0.88337222516E+01  0.30867196674E+02  0.00000000000E+00 0. -1.
         -2    1    1    2    0  502  0.17037460458E+02 -0.24175899628E+02 -0.26664755873E+03  0.26828281674E+03  0.00000000000E+00 0. -1.
</event>
<event>
 4    1  0.5565417E+003  0.3130189E+02  0.7546771E-02  0.1408611E+00
          2   -1    0    0  501    0  0.00000000000E+00  0.00000000000E+00  0.51469213716E+03  0.51469213716E+03  0.00000000000E+00 0.  1.
         -2   -1    0    0    0  501 -0.00000000000E+00 -0.00000000000E+00 -0.19956980755E+01  0.19956980755E+01  0.00000000000E+00 0. -1.
          2    1    1    2  502    0 -0.11262662039E+02 -0.29205489528E+02  0.31182251098E+03  0.31338967202E+03  0.00000000000E+00 0.  1.
         -2    1    1    2    0  502  0.11262662039E+02  0.29205489528E+02  0.20087392811E+03  0.20329816322E+03  0.00000000000E+00 0. -1.
</event>
<event>
 4    1  0.6139584E+003  0.2599019E+02  0.7546771E-02  0.1458024E+00
          2   -1    0    0  501    0  0.00000000000E+00  0.00000000000E+00  0.15582414912E+04  0.15582414912E+04  0.00000000000E+00 0. -1.
         -2   -1    0    0    0  501 -0.00000000000E+00 -0.00000000000E+00 -0.64173908782E+02  0.64173908782E+02  0.00000000000E+00 0.  1.
          2    1    1    2  502    0 -0.24582027808E+02  0.84388183990E+01  0.15554969936E+04  0.15557141083E+04  0.00000000000E+00 0. -1.
         -2    1    1    2    0  502  0.24582027808E+02 -0.84388183990E+01 -0.61429411195E+02  0.66701291643E+02  0.00000000000E+00 0.  1.
</event>
<event>
 4    1  0.5565417E+003  0.2204281E+02  0.7546771E-02  0.1504881E+00
          2   -1    0    0  501    0  0.00000000000E+00  0.00000000000E+00  0.12231926084E+04  0.12231926084E+04  0.00000000000E+00 0.  1.
         -2   -1    0    0    0  501 -0.00000000000E+00 -0.00000000000E+00 -0.24966520675E+01  0.24966520675E+01  0.00000000000E+00 0. -1.
          2    1    1    2  502    0  0.20173077690E+02  0.88843803410E+01  0.11723288714E+04  0.11725360838E+04  0.00000000000E+00 0.  1.
         -2    1    1    2    0  502 -0.20173077690E+02 -0.88843803410E+01  0.48367085018E+02  0.53153176675E+02  0.00000000000E+00 0. -1.
</event>
<event>
 4    1  0.5565417E+003  0.2060932E+02  0.7546771E-02  0.1524916E+00
          2   -1    0    0  501    0  0.00000000000E+00  0.00000000000E+00  0.14920143687E+04  0.14920143687E+04  0.00000000000E+00 0.  1.
         -2   -1    0    0    0  501 -0.00000000000E+00 -0.00000000000E+00 -0.31953553575E+00  0.31953553575E+00  0.00000000000E+00 0. -1.
          2    1    1    2  502    0 -0.10238087243E+02 -0.17886466740E+02  0.99229403513E+03  0.99250803336E+03  0.00000000000E+00 0.  1.
         -2    1    1    2    0  502  0.10238087243E+02  0.17886466740E+02  0.49940079801E+03  0.49982587086E+03  0.00000000000E+00 0. -1.
</event>
<event>
 4    1  0.5565417E+003  0.2299740E+02  0.7546771E-02  0.1492531E+00
          2   -1    0    0  501    0  0.00000000000E+00  0.00000000000E+00  0.86467119983E+03  0.86467119983E+03  0.00000000000E+00 0.  1.
         -2   -1    0    0    0  501 -0.00000000000E+00 -0.00000000000E+00 -0.77849460671E+01  0.77849460671E+01  0.00000000000E+00 0. -1.
          2    1    1    2  502    0  0.18767851279E+02  0.13290901849E+02  0.84718369550E+03  0.84749577830E+03  0.00000000000E+00 0.  1.
         -2    1    1    2    0  502 -0.18767851279E+02 -0.13290901849E+02  0.97025582556E+01  0.24960367591E+02  0.00000000000E+00 0. -1.
</event>
<event>
 4    1  0.5565417E+003  0.2162295E+02  0.7546771E-02  0.1510554E+00
          2   -1    0    0  501    0  0.00000000000E+00  0.00000000000E+00  0.98908468147E+01  0.98908468147E+01  0.00000000000E+00 0.  1.
         -2   -1    0    0    0  501 -0.00000000000E+00 -0.00000000000E+00 -0.46814752019E+03  0.46814752019E+03  0.00000000000E+00 0.  1.
          2    1    1    2  502    0 -0.20309992167E+02  0.74199849707E+01 -0.24976820915E+01  0.21766726318E+02  0.00000000000E+00 0.  1.
         -2    1    1    2    0  502  0.20309992167E+02 -0.74199849707E+01 -0.45575899129E+03  0.45627164069E+03  0.00000000000E+00 0.  1.
</event>
<event>
 4    1  0.5565417E+003  0.2447689E+02  0.7546771E-02  0.1474741E+00
          2   -1    0    0  501    0  0.00000000000E+00  0.00000000000E+00  0.80442953373E+02  0.80442953373E+02  0.00000000000E+00 0. -1.
         -2   -1    0    0    0  501 -0.00000000000E+00 -0.00000000000E+00 -0.75608433774E+01  0.75608433774E+01  0.00000000000E+00 0. -1.
          2    1    1    2  502    0 -0.20611641075E+02 -0.13201458737E+02  0.41822794480E+02  0.48458893907E+02  0.00000000000E+00 0. -1.
         -2    1    1    2    0  502  0.20611641075E+02  0.13201458737E+02  0.31059315516E+02  0.39544902843E+02  0.00000000000E+00 0. -1.
</event>
<event>
 4    1  0.5565417E+003  0.2452985E+02  0.7546771E-02  0.1474132E+00
          2   -1    0    0  501    0  0.00000000000E+00  0.00000000000E+00  0.44059414270E+03  0.44059414270E+03  0.00000000000E+00 0.  1.
         -2   -1    0    0    0  501 -0.00000000000E+00 -0.00000000000E+00 -0.30559995935E+01  0.30559995935E+01  0.00000000000E+00 0. -1.
          2    1    1    2  502    0  0.24404488641E+02 -0.24767746263E+01  0.38374385218E+03  0.38452705700E+03  0.00000000000E+00 0.  1.
         -2    1    1    2    0  502 -0.24404488641E+02  0.24767746263E+01  0.53794290920E+02  0.59123085288E+02  0.00000000000E+00 0. -1.
</event>
<event>
 4    1  0.5565417E+003  0.2218437E+02  0.7546771E-02  0.1503002E+00
          2   -1    0    0  501    0  0.00000000000E+00  0.00000000000E+00  0.73226775601E+02  0.73226775601E+02  0.00000000000E+00 0. -1.
         -2   -1    0    0    0  501 -0.00000000000E+00 -0.00000000000E+00 -0.11881412883E+02  0.11881412883E+02  0.00000000000E+00 0. -1.
          2    1    1    2  502    0 -0.24261721604E+01  0.22051299251E+02  0.58717709587E+02  0.62768746436E+02  0.00000000000E+00 0. -1.
         -2    1    1    2    0  502  0.24261721604E+01 -0.22051299251E+02  0.26276531313E+01  0.22339442048E+02  0.00000000000E+00 0. -1.
</event>
<event>
 4    1  0.5565417E+003  0.3794772E+02  0.7546771E-02  0.1360951E+00
          2   -1    0    0  501    0  0.00000000000E+00  0.00000000000E+00  0.21906447309E+03  0.21906447309E+03  0.00000000000E+00 0.  1.
         -2   -1    0    0    0  501 -0.00000000000E+00 -0.00000000000E+00 -0.77818808582E+01  0.77818808582E+01  0.00000000000E+00 0.  1.
          2    1    1    2  502    0 -0.29559690473E+02  0.23796102039E+02  0.15033575440E+03  0.15505118130E+03  0.00000000000E+00 0.  1.
         -2    1    1    2    0  502  0.29559690473E+02 -0.23796102039E+02  0.60946837830E+02  0.71795172641E+02  0.00000000000E+00 0.  1.
</event>
<event>
 4    1  0.5565417E+003  0.3057901E+02  0.7546771E-02  0.1414630E+00
          2   -1    0    0  501    0  0.00000000000E+00  0.00000000000E+00  0.33785817399E+02  0.33785817399E+02  0.00000000000E+00 0.  1.
         -2   -1    0    0    0  501 -0.00000000000E+00 -0.00000000000E+00 -0.54820145230E+02  0.54820145230E+02  0.00000000000E+00 0. -1.
          2    1    1    2  502    0 -0.30563048841E+02  0.98778204837E+00  0.20657110689E+02  0.36902464550E+02  0.00000000000E+00 0.  1.
         -2    1    1    2    0  502  0.30563048841E+02 -0.98778204837E+00 -0.41691438520E+02  0.51703498079E+02  0.00000000000E+00 0. -1.
</event>
<event>
 4    1  0.5565417E+003  0.2200283E+02  0.7546771E-02  0.1505414E+00
          2   -1    0    0  501    0  0.00000000000E+00  0.00000000000E+00  0.28023344026E+04  0.28023344026E+04  0.00000000000E+00 0.  1.
         -2   -1    0    0    0  501 -0.00000000000E+00 -0.00000000000E+00 -0.17383370596E+00  0.17383370596E+00  0.00000000000E+00 0.  1.
          2    1    1    2  502    0 -0.13307910560E+02  0.17522100518E+02  0.15113313711E+04  0.15114915275E+04  0.00000000000E+00 0.  1.
         -2    1    1    2    0  502  0.13307910560E+02 -0.17522100518E+02  0.12908291977E+04  0.12910167087E+04  0.00000000000E+00 0.  1.
</event>
<event>
 4    1  0.5565417E+003  0.4114273E+02  0.7546771E-02  0.1341916E+00
          2   -1    0    0  501    0  0.00000000000E+00  0.00000000000E+00  0.16334225971E+04  0.16334225971E+04  0.00000000000E+00 0.  1.
         -2   -1    0    0    0  501 -0.00000000000E+00 -0.00000000000E+00 -0.28763020129E+01  0.28763020129E+01  0.00000000000E+00 0.  1.
          2    1    1    2  502    0  0.40396065202E+02 -0.78027150524E+01  0.14696439708E+04  0.14702197541E+04  0.00000000000E+00 0.  1.
         -2    1    1    2    0  502 -0.40396065202E+02  0.78027150524E+01  0.16090232426E+03  0.16607914498E+03  0.00000000000E+00 0.  1.
</event>
<event>
 4    1  0.5565417E+003  0.2230315E+02  0.7546771E-02  0.1501439E+00
          2   -1    0    0  501    0  0.00000000000E+00  0.00000000000E+00  0.11868961112E+04  0.11868961112E+04  0.00000000000E+00 0.  1.
         -2   -1    0    0    0  501 -0.00000000000E+00 -0.00000000000E+00 -0.20469125474E+02  0.20469125474E+02  0.00000000000E+00 0. -1.
          2    1    1    2  502    0  0.14923636992E+02  0.16574551129E+02  0.11806839953E+04  0.11808946301E+04  0.00000000000E+00 0.  1.
         -2    1    1    2    0  502 -0.14923636992E+02 -0.16574551129E+02 -0.14257009613E+02  0.26470606516E+02  0.00000000000E+00 0. -1.
</event>
<event>
 4    1  0.5565417E+003  0.9065686E+02  0.7546771E-02  0.1181063E+00
          2   -1    0    0  501    0  0.00000000000E+00  0.00000000000E+00  0.15285829345E+04  0.15285829345E+04  0.00000000000E+00 0.  1.
         -2   -1    0    0    0  501 -0.00000000000E+00 -0.00000000000E+00 -0.66023646546E+02  0.66023646546E+02  0.00000000000E+00 0. -1.
          2    1    1    2  502    0  0.72958017081E+02 -0.53812576328E+02  0.14954293106E+04  0.14981747190E+04  0.00000000000E+00 0.  1.
         -2    1    1    2    0  502 -0.72958017081E+02  0.53812576328E+02 -0.32870022657E+02  0.96431862042E+02  0.00000000000E+00 0. -1.
</event>
<event>
 4    1  0.5565417E+003  0.2697914E+02  0.7546771E-02  0.1447818E+00
          2   -1    0    0  501    0  0.00000000000E+00  0.00000000000E+00  0.97087847493E+03  0.97087847493E+03  0.00000000000E+00 0. -1.
         -2   -1    0    0    0  501 -0.00000000000E+00 -0.00000000000E+00 -0.14182222077E+01  0.14182222077E+01  0.00000000000E+00 0. -1.
          2    1    1    2  502    0 -0.30151095375E+01 -0.26810126618E+02  0.81850414298E+03  0.81894865886E+03  0.00000000000E+00 0. -1.
         -2    1    1    2    0  502  0.30151095375E+01  0.26810126618E+02  0.15095610974E+03  0.15334803828E+03  0.00000000000E+00 0. -1.
</event>
<event>
 4    1  0.5565417E+003  0.2665364E+02  0.7546771E-02  0.1451119E+00
          2   -1    0    0  501    0  0.00000000000E+00  0.00000000000E+00  0.58629624885E+02  0.58629624885E+02  0.00000000000E+00 0. -1.
         -2   -1    0    0    0  501 -0.00000000000E+00 -0.00000000000E+00 -0.12564474853E+02  0.12564474853E+02  0.00000000000E+00 0. -1.
          2    1    1    2  502    0  0.26638657249E+02 -0.89305341264E+00  0.16314845489E+02  0.31250436601E+02  0.00000000000E+00 0. -1.
         -2    1    1    2    0  502 -0.26638657249E+02  0.89305341264E+00  0.29750304543E+02  0.39943663137E+02  0.00000000000E+00 0. -1.
</event>
<event>
 4    1  0.5565417E+003  0.2078230E+02  0.7546771E-02  0.1522396E+00
          2   -1    0    0  501    0  0.00000000000E+00  0.00000000000E+00  0.18758820690E+02  0.18758820690E+02  0.00000000000E+00 0.  1.
         -2   -1    0    0    0  501 -0.00000000000E+00 -0.00000000000E+00 -0.23766987207E+02  0.23766987207E+02  0.00000000000E+00 0. -1.
          2    1    1    2  502    0  0.20692336223E+02 -0.19315510040E+01 -0.62634711745E+01  0.21705638411E+02  0.00000000000E+00 0.  1.
         -2    1    1    2    0  502 -0.20692336223E+02  0.19315510040E+01  0.12553046577E+01  0.20820169486E+02  0.00000000000E+00 0. -1.
</event>
<event>
 4    1  0.5565417E+003  0.2064920E+02  0.7546771E-02  0.1524333E+00
          2   -1    0    0  501    0  0.00000000000E+00  0.00000000000E+00  0.61746326380E+02  0.61746326380E+02  0.00000000000E+00 0.  1.
         -2   -1    0    0    0  501 -0.00000000000E+00 -0.00000000000E+00 -0.90360977883E+01  0.90360977883E+01  0.00000000000E+00 0. -1.
          2    1    1    2  502    0  0.13903211100E+02 -0.15267296865E+02  0.43540334110E+02  0.48188695011E+02  0.00000000000E+00 0.  1.
         -2    1    1    2    0  502 -0.13903211100E+02  0.15267296865E+02  0.91698944822E+01  0.22593729158E+02  0.00000000000E+00 0. -1.
</event>
<event>
 4    1  0.5565417E+003  0.2267260E+02  0.7546771E-02  0.1496651E+00
          2   -1    0    0  501    0  0.00000000000E+00  0.00000000000E+00  0.20334310986E+01  0.20334310986E+01  0.00000000000E+00 0. -1.
         -2   -1    0    0    0  501 -0.00000000000E+00 -0.00000000000E+00 -0.39076961194E+03  0.39076961194E+03  0.00000000000E+00 0. -1.
          2    1    1    2  502    0 -0.15689014532E+02  0.16367700559E+02 -0.77665707241E+02  0.80907409301E+02  0.00000000000E+00 0. -1.
         -2    1    1    2    0  502  0.15689014532E+02 -0.16367700559E+02 -0.31107047360E+03  0.31189563374E+03  0.00000000000E+00 0. -1.
</event>
<event>
 4    1  0.5565417E+003  0.2345424E+02  0.7546771E-02  0.1486872E+00
          2   -1    0    0  501    0  0.00000000000E+00  0.00000000000E+00  0.69813804262E+02  0.69813804262E+02  0.00000000000E+00 0.  1.
         -2   -1    0    0    0  501 -0.00000000000E+00 -0.00000000000E+00 -0.30306920553E+02  0.30306920553E+02  0.00000000000E+00 0. -1.
          2    1    1    2  502    0  0.14139520501E+02 -0.18712972976E+02  0.62817232787E+02  0.67053009870E+02  0.00000000000E+00 0.  1.
         -2    1    1    2    0  502 -0.14139520501E+02  0.18712972976E+02 -0.23310349078E+02  0.33067714945E+02  0.00000000000E+00 0. -1.
</event>
<event>
 4    1  0.5565417E+003  0.4001812E+02  0.7546771E-02  0.1348380E+00
          2   -1    0    0  501    0  0.00000000000E+00  0.00000000000E+00  0.14366726905E+04  0.14366726905E+04  0.00000000000E+00 0. -1.
         -2   -1    0    0    0  501 -0.00000000000E+00 -0.00000000000E+00 -0.43388087653E+02  0.43388087653E+02  0.00000000000E+00 0.  1.
          2    1    1    2  502    0  0.20662557055E+02 -0.34271100236E+02  0.14271046912E+04  0.14276656644E+04  0.00000000000E+00 0. -1.
         -2    1    1    2    0  502 -0.20662557055E+02  0.34271100236E+02 -0.33820088335E+02  0.52395113803E+02  0.00000000000E+00 0.  1.
</event>
<event>
 4    1  0.5565417E+003  0.2534738E+02  0.7546771E-02  0.1464954E+00
          2   -1    0    0  501    0  0.00000000000E+00  0.00000000000E+00  0.63093589490E+03  0.63093589490E+03  0.00000000000E+00 0.  1.
         -2   -1    0    0    0  501 -0.00000000000E+00 -0.00000000000E+00 -0.58946117470E+01  0.58946117470E+01  0.00000000000E+00 0.  1.
          2    1    1    2  502    0 -0.43834365632E+01  0.24965482901E+02  0.60212923209E+03  0.60266251085E+03  0.00000000000E+00 0.  1.
         -2    1    1    2    0  502  0.43834365632E+01 -0.24965482901E+02  0.22912051065E+02  0.34167995794E+02  0.00000000000E+00 0.  1.
</event>
<event>
 4    1  0.5565417E+003  0.2004261E+02  0.7546771E-02  0.1533385E+00
          2   -1    0    0  501    0  0.00000000000E+00  0.00000000000E+00  0.75933997639E+02  0.75933997639E+02  0.00000000000E+00 0.  1.
         -2   -1    0    0    0  501 -0.00000000000E+00 -0.00000000000E+00 -0.69690602752E+02  0.69690602752E+02  0.00000000000E+00 0. -1.
          2    1    1    2  502    0  0.17761772540E+02  0.92857819497E+01  0.73115875833E+02  0.75813175696E+02  0.00000000000E+00 0.  1.
         -2    1    1    2    0  502 -0.17761772540E+02 -0.92857819497E+01 -0.66872480947E+02  0.69811424696E+02  0.00000000000E+00 0. -1.
</event>
<event>
 4    1  0.5565417E+003  0.2924019E+02  0.7546771E-02  0.1426316E+00
          2   -1    0    0  501    0  0.00000000000E+00  0.00000000000E+00  0.49020107108E+02  0.49020107108E+02  0.00000000000E+00 0. -1.
         -2   -1    0    0    0  501 -0.00000000000E+00 -0.00000000000E+00 -0.10193460725E+03  0.10193460725E+03  0.00000000000E+00 0.  1.
          2    1    1    2  502    0  0.28049635882E+02  0.82587195819E+01  0.42260079216E+02  0.51389715096E+02  0.00000000000E+00 0. -1.
         -2    1    1    2    0  502 -0.28049635882E+02 -0.82587195819E+01 -0.95174579360E+02  0.99564999265E+02  0.00000000000E+00 0.  1.
</event>
<event>
 4    1  0.5565417E+003  0.2912134E+02  0.7546771E-02  0.1427389E+00
          2   -1    0    0  501    0  0.00000000000E+00  0.00000000000E+00  0.83265873673E+03  0.83265873673E+03  0.00000000000E+00 0.  1.
         -2   -1    0    0    0  501 -0.00000000000E+00 -0.00000000000E+00 -0.33940290262E+02  0.33940290262E+02  0.00000000000E+00 0. -1.
          2    1    1    2  502    0  0.14260879963E+02  0.25390542188E+02  0.82610794716E+03  0.82662106959E+03  0.00000000000E+00 0.  1.
         -2    1    1    2    0  502 -0.14260879963E+02 -0.25390542188E+02 -0.27389500691E+02  0.39977957402E+02  0.00000000000E+00 0. -1.
</event>
<event>
 4    1  0.5565417E+003  0.3225861E+02  0.7546771E-02  0.1400933E+00
          2   -1    0    0  501    0  0.00000000000E+00  0.00000000000E+00  0.95565442679E+03  0.95565442679E+03  0.00000000000E+00 0. -1.
         -2   -1    0    0    0  501 -0.00000000000E+00 -0.00000000000E+00 -0.19784779792E+02  0.19784779792E+02  0.00000000000E+00 0.  1.
          2    1    1    2  502    0 -0.25626011622E+02  0.19594023739E+02  0.94204303840E+03  0.94259519648E+03  0.00000000000E+00 0. -1.
         -2    1    1    2    0  502  0.25626011622E+02 -0.19594023739E+02 -0.61733914011E+01  0.32844010098E+02  0.00000000000E+00 0.  1.
</event>
<event>
 4    1  0.5565417E+003  0.2411518E+02  0.7546771E-02  0.1478950E+00
          2   -1    0    0  501    0  0.00000000000E+00  0.00000000000E+00  0.41016845876E+03  0.41016845876E+03  0.00000000000E+00 0. -1.
         -2   -1    0    0    0  501 -0.00000000000E+00 -0.00000000000E+00 -0.48422900847E+01  0.48422900847E+01  0.00000000000E+00 0. -1.
          2    1    1    2  502    0  0.20625601385E+02 -0.12495063314E+02  0.37716536238E+03  0.37793551383E+03  0.00000000000E+00 0. -1.
         -2    1    1    2    0  502 -0.20625601385E+02  0.12495063314E+02  0.28160806297E+02  0.37075235010E+02  0.00000000000E+00 0. -1.
</event>
<event>
 4    1  0.5565417E+003  0.2064677E+02  0.7546771E-02  0.1524368E+00
          2   -1    0    0  501    0  0.00000000000E+00  0.00000000000E+00  0.11694954813E+04  0.11694954813E+04  0.00000000000E+00 0.  1.
         -2   -1    0    0    0  501 -0.00000000000E+00 -0.00000000000E+00 -0.49965597073E+00  0.49965597073E+00  0.00000000000E+00 0.  1.
          2    1    1    2  502    0 -0.18334794783E+02 -0.94933834026E+01  0.88874417419E+03  0.88898396847E+03  0.00000000000E+00 0.  1.
         -2    1    1    2    0  502  0.18334794783E+02  0.94933834026E+01  0.28025165112E+03  0.28101116879E+03  0.00000000000E+00 0.  1.
</event>
<event>
 4    1  0.5565417E+003  0.3578636E+02  0.7546771E-02  0.1375118E+00
          2   -1    0    0  501    0  0.00000000000E+00  0.00000000000E+00  0.61848429777E+03  0.61848429777E+03  0.00000000000E+00 0.  1.
         -2   -1    0    0    0  501 -0.00000000000E+00 -0.00000000000E+00 -0.27694629109E+01  0.27694629109E+01  0.00000000000E+00 0. -1.
          2    1    1    2  502    0  0.70244719285E+01 -0.35090176559E+02  0.46389245418E+03  0.46527075208E+03  0.00000000000E+00 0.  1.
         -2    1    1    2    0  502 -0.70244719285E+01  0.35090176559E+02  0.15182238068E+03  0.15598300860E+03  0.00000000000E+00 0. -1.
</event>
<event>
 4    1  0.5565417E+003  0.2776922E+02  0.7546771E-02  0.1440030E+00
          2   -1    0    0  501    0  0.00000000000E+00  0.00000000000E+00  0.16397218502E+03  0.16397218502E+03  0.00000000000E+00 0.  1.
         -2   -1    0    0    0  501 -0.00000000000E+00 -0.00000000000E+00 -0.24292008142E+03  0.24292008142E+03  0.00000000000E+00 0. -1.
          2    1    1    2  502    0 -0.15901144839E+02  0.22765834643E+02  0.16199325429E+03  0.16435615009E+03  0.00000000000E+00 0.  1.
         -2    1    1    2    0  502  0.15901144839E+02 -0.22765834643E+02 -0.24094115070E+03  0.24253611635E+03  0.00000000000E+00 0. -1.
</event>
<event>
 4    1  0.5565417E+003  0.3206640E+02  0.7546771E-02  0.1402450E+00
          2   -1    0    0  501    0  0.00000000000E+00  0.00000000000E+00  0.49769562748E+01  0.49769562748E+01  0.00000000000E+00 0.  1.
         -2   -1    0    0    0  501 -0.00000000000E+00 -0.00000000000E+00 -0.11331551629E+04  0.11331551629E+04  0.00000000000E+00 0.  1.
          2    1    1    2  502    0 -0.28361839643E+02  0.14961950924E+02 -0.49509060925E+02  0.58986447910E+02  0.00000000000E+00 0.  1.
         -2    1    1    2    0  502  0.28361839643E+02 -0.14961950924E+02 -0.10786691457E+04  0.10791456712E+04  0.00000000000E+00 0.  1.
</event>
<event>
 4    1  0.5565417E+003  0.3371195E+02  0.7546771E-02  0.1389852E+00
          2   -1    0    0  501    0  0.00000000000E+00  0.00000000000E+00  0.35549823317E+02  0.35549823317E+02  0.00000000000E+00 0. -1.
         -2   -1    0    0    0  501 -0.00000000000E+00 -0.00000000000E+00 -0.23590017027E+03  0.23590017027E+03  0.00000000000E+00 0.  1.
          2    1    1    2  502    0  0.25952049368E+02  0.21517120535E+02  0.26018454894E+02  0.42584684307E+02  0.00000000000E+00 0. -1.
         -2    1    1    2    0  502 -0.25952049368E+02 -0.21517120535E+02 -0.22636880185E+03  0.22886530928E+03  0.00000000000E+00 0.  1.
</event>
<event>
 4    1  0.5565417E+003  0.2767671E+02  0.7546771E-02  0.1440926E+00
          2   -1    0    0  501    0  0.00000000000E+00  0.00000000000E+00  0.61083956067E+03  0.61083956067E+03  0.00000000000E+00 0.  1.
         -2   -1    0    0    0  501 -0.00000000000E+00 -0.00000000000E+00 -0.23264886391E+01  0.23264886391E+01  0.00000000000E+00 0.  1.
          2    1    1    2  502    0 -0.12872938428E+02 -0.24500774772E+02  0.51241373472E+03  0.51316063375E+03  0.00000000000E+00 0.  1.
         -2    1    1    2    0  502  0.12872938428E+02  0.24500774772E+02  0.96099337313E+02  0.10000541555E+03  0.00000000000E+00 0.  1.
</event>
<event>
 4    1  0.5565417E+003  0.2481460E+02  0.7546771E-02  0.1470888E+00
          2   -1    0    0  501    0  0.00000000000E+00  0.00000000000E+00  0.60132576470E+02  0.60132576470E+02  0.00000000000E+00 0.  1.
         -2   -1    0    0    0  501 -0.00000000000E+00 -0.00000000000E+00 -0.14061342067E+02  0.14061342067E+02  0.00000000000E+00 0.  1.
          2    1    1    2  502    0 -0.17069768474E+02 -0.18010759231E+02  0.42374278211E+02  0.49105436540E+02  0.00000000000E+00 0.  1.
         -2    1    1    2    0  502  0.17069768474E+02  0.18010759231E+02  0.36969561919E+01  0.25088481997E+02  0.00000000000E+00 0.  1.
</event>
<event>
 4    1  0.5565417E+003  0.4658952E+02  0.7546771E-02  0.1313677E+00
          2   -1    0    0  501    0  0.00000000000E+00  0.00000000000E+00  0.83449470238E+03  0.83449470238E+03  0.00000000000E+00 0. -1.
         -2   -1    0    0    0  501 -0.00000000000E+00 -0.00000000000E+00 -0.11670223954E+04  0.11670223954E+04  0.00000000000E+00 0.  1.
          2    1    1    2  502    0  0.19974183650E+02 -0.42090565441E+02  0.83337882809E+03  0.83468009130E+03  0.00000000000E+00 0. -1.
         -2    1    1    2    0  502 -0.19974183650E+02  0.42090565441E+02 -0.11659065211E+04  0.11668370065E+04  0.00000000000E+00 0.  1.
</event>
<event>
 4    1  0.5565417E+003  0.4255728E+02  0.7546771E-02  0.1334118E+00
          2   -1    0    0  501    0  0.00000000000E+00  0.00000000000E+00  0.11983139188E+01  0.11983139188E+01  0.00000000000E+00 0. -1.
         -2   -1    0    0    0  501 -0.00000000000E+00 -0.00000000000E+00 -0.17374495898E+04  0.17374495898E+04  0.00000000000E+00 0. -1.
          2    1    1    2  502    0 -0.27036722312E+02 -0.32865445239E+02 -0.55455508844E+03  0.55618564163E+03  0.00000000000E+00 0. -1.
         -2    1    1    2    0  502  0.27036722312E+02  0.32865445239E+02 -0.11816961875E+04  0.11824622621E+04  0.00000000000E+00 0. -1.
</event>
<event>
 4    1  0.5565417E+003  0.5048559E+02  0.7546771E-02  0.1296081E+00
          2   -1    0    0  501    0  0.00000000000E+00  0.00000000000E+00  0.61545725272E+03  0.61545725272E+03  0.00000000000E+00 0. -1.
         -2   -1    0    0    0  501 -0.00000000000E+00 -0.00000000000E+00 -0.68927079822E+01  0.68927079822E+01  0.00000000000E+00 0.  1.
          2    1    1    2  502    0 -0.16354857747E+02  0.47763098767E+02  0.50088384598E+03  0.50342171401E+03  0.00000000000E+00 0. -1.
         -2    1    1    2    0  502  0.16354857747E+02 -0.47763098767E+02  0.10768069876E+03  0.11892824669E+03  0.00000000000E+00 0.  1.
</event>
<event>
 4    1  0.5565417E+003  0.3202809E+02  0.7546771E-02  0.1402754E+00
          2   -1    0    0  501    0  0.00000000000E+00  0.00000000000E+00  0.40203687938E+03  0.40203687938E+03  0.00000000000E+00 0. -1.
         -2   -1    0    0    0  501 -0.00000000000E+00 -0.00000000000E+00 -0.32158679331E+01  0.32158679331E+01  0.00000000000E+00 0. -1.
          2    1    1    2  502    0  0.27620593015E+02  0.16214234029E+02  0.29150846882E+03  0.29326265691E+03  0.00000000000E+00 0. -1.
         -2    1    1    2    0  502 -0.27620593015E+02 -0.16214234029E+02  0.10731254263E+03  0.11199009041E+03  0.00000000000E+00 0. -1.
</event>
<event>
 4    1  0.5565417E+003  0.1029622E+03  0.7546771E-02  0.1158772E+00
          2   -1    0    0  501    0  0.00000000000E+00  0.00000000000E+00  0.56555204722E+03  0.56555204722E+03  0.00000000000E+00 0. -1.
         -2   -1    0    0    0  501 -0.00000000000E+00 -0.00000000000E+00 -0.17796539222E+03  0.17796539222E+03  0.00000000000E+00 0. -1.
          2    1    1    2  502    0 -0.20225231012E+02 -0.10095622867E+03  0.54542894476E+03  0.55506211712E+03  0.00000000000E+00 0. -1.
         -2    1    1    2    0  502  0.20225231012E+02  0.10095622867E+03 -0.15784228976E+03  0.18845532232E+03  0.00000000000E+00 0. -1.
</event>
<event>
 4    1  0.5565417E+003  0.3078205E+02  0.7546771E-02  0.1412920E+00
          2   -1    0    0  501    0  0.00000000000E+00  0.00000000000E+00  0.18502581014E+04  0.18502581014E+04  0.00000000000E+00 0.  1.
         -2   -1    0    0    0  501 -0.00000000000E+00 -0.00000000000E+00 -0.55021920859E+01  0.55021920859E+01  0.00000000000E+00 0. -1.
          2    1    1    2  502    0 -0.94590185517E+01 -0.29292687484E+02  0.18060230665E+04  0.18062853738E+04  0.00000000000E+00 0.  1.
         -2    1    1    2    0  502  0.94590185517E+01  0.29292687484E+02  0.38732842735E+02  0.49474919690E+02  0.00000000000E+00 0. -1.
</event>
<event>
 4    1  0.5565417E+003  0.2241556E+02  0.7546771E-02  0.1499970E+00
          2   -1    0    0  501    0  0.00000000000E+00  0.00000000000E+00  0.12701462847E+04  0.12701462847E+04  0.00000000000E+00 0. -1.
         -2   -1    0    0    0  501 -0.00000000000E+00 -0.00000000000E+00 -0.80876135096E+01  0.80876135096E+01  0.00000000000E+00 0.  1.
          2    1    1    2  502    0  0.21262749075E+02 -0.70959778403E+01  0.12543197341E+04  0.12545200089E+04  0.00000000000E+00 0. -1.
         -2    1    1    2    0  502 -0.21262749075E+02  0.70959778403E+01  0.77389371302E+01  0.23713889341E+02  0.00000000000E+00 0.  1.
</event>
<event>
 4    1  0.5565417E+003  0.2113059E+02  0.7546771E-02  0.1517408E+00
          2   -1    0    0  501    0  0.00000000000E+00  0.00000000000E+00  0.23636114169E+02  0.23636114169E+02  0.00000000000E+00 0.  1.
         -2   -1    0    0    0  501 -0.00000000000E+00 -0.00000000000E+00 -0.31210741585E+02  0.31210741585E+02  0.00000000000E+00 0. -1.
          2    1    1    2  502    0 -0.88224025525E+01  0.19200705366E+02  0.13442335304E+02  0.25043926445E+02  0.00000000000E+00 0.  1.
         -2    1    1    2    0  502  0.88224025525E+01 -0.19200705366E+02 -0.21016962721E+02  0.29802929309E+02  0.00000000000E+00 0. -1.
</event>
<event>
 4    1  0.5565417E+003  0.3190774E+02  0.7546771E-02  0.1403712E+00
          2   -1    0    0  501    0  0.00000000000E+00  0.00000000000E+00  0.47154308769E+02  0.47154308769E+02  0.00000000000E+00 0. -1.
         -2   -1    0    0    0  501 -0.00000000000E+00 -0.00000000000E+00 -0.49519960819E+02  0.49519960819E+02  0.00000000000E+00 0. -1.
          2    1    1    2  502    0 -0.11567584579E+02 -0.29737097996E+02  0.35118201323E+02  0.47448836386E+02  0.00000000000E+00 0. -1.
         -2    1    1    2    0  502  0.11567584579E+02  0.29737097996E+02 -0.37483853373E+02  0.49225433202E+02  0.00000000000E+00 0. -1.
</event>
<event>
 4    1  0.5565417E+003  0.2296118E+02  0.7546771E-02  0.1492986E+00
          2   -1    0    0  501    0  0.00000000000E+00  0.00000000000E+00  0.45753380210E+01  0.45753380210E+01  0.00000000000E+00 0.  1.
         -2   -1    0    0    0  501 -0.00000000000E+00 -0.00000000000E+00 -0.15671626329E+03  0.15671626329E+03  0.00000000000E+00 0.  1.
          2    1    1    2  502    0  0.75572140442E+01 -0.21681886119E+02 -0.34577209033E+02  0.41506614584E+02  0.00000000000E+00 0.  1.
         -2    1    1    2    0  502 -0.75572140442E+01  0.21681886119E+02 -0.11756371624E+03  0.11978498673E+03  0.00000000000E+00 0.  1.
</event>
<event>
 4    1  0.5565417E+003  0.2348127E+02  0.7546771E-02  0.1486542E+00
          2   -1    0    0  501    0  0.00000000000E+00  0.00000000000E+00  0.20257923289E+03  0.20257923289E+03  0.00000000000E+00 0. -1.
         -2   -1    0    0    0  501 -0.00000000000E+00 -0.00000000000E+00 -0.89130244988E+01  0.89130244988E+01  0.00000000000E+00 0.  1.
          2    1    1    2  502    0 -0.17075069709E+02  0.16118683866E+02  0.18496679664E+03  0.18645129615E+03  0.00000000000E+00 0. -1.
         -2    1    1    2    0  502  0.17075069709E+02 -0.16118683866E+02  0.86994117503E+01  0.25040961242E+02  0.00000000000E+00 0.  1.
</event>
<event>
 4    1  0.5565417E+003  0.5794459E+02  0.7546771E-02  0.1266981E+00
          2   -1    0    0  501    0  0.00000000000E+00  0.00000000000E+00  0.17624993117E+04  0.17624993117E+04  0.00000000000E+00 0.  1.
         -2   -1    0    0    0  501 -0.00000000000E+00 -0.00000000000E+00 -0.47074562368E+01  0.47074562368E+01  0.00000000000E+00 0. -1.
          2    1    1    2  502    0 -0.11140485907E+02 -0.56863570242E+02  0.15606582423E+04  0.15617335641E+04  0.00000000000E+00 0.  1.
         -2    1    1    2    0  502  0.11140485907E+02  0.56863570242E+02  0.19713361316E+03  0.20547320381E+03  0.00000000000E+00 0. -1.
</event>
<event>
 4    1  0.5565417E+003  0.2037541E+02  0.7546771E-02  0.1528372E+00
          2   -1    0    0  501    0  0.00000000000E+00  0.00000000000E+00  0.43861356608E+02  0.43861356608E+02  0.00000000000E+00 0. -1.
         -2   -1    0    0    0  501 -0.00000000000E+00 -0.00000000000E+00 -0.19011217882E+02  0.19011217882E+02  0.00000000000E+00 0. -1.
          2    1    1    2  502    0  0.74319066723E+01  0.18971663846E+02  0.34701059142E+02  0.40240784926E+02  0.00000000000E+00 0. -1.
         -2    1    1    2    0  502 -0.74319066723E+01 -0.18971663846E+02 -0.98509204159E+01  0.22631789565E+02  0.00000000000E+00 0. -1.
</event>
<event>
 4    1  0.5565417E+003  0.2705488E+02  0.7546771E-02  0.1447058E+00
          2   -1    0    0  501    0  0.00000000000E+00  0.00000000000E+00  0.19291274415E+02  0.19291274415E+02  0.00000000000E+00 0.  1.
         -2   -1    0    0    0  501 -0.00000000000E+00 -0.00000000000E+00 -0.49996856519E+03  0.49996856519E+03  0.00000000000E+00 0.  1.
          2    1    1    2  502    0 -0.57687259498E+01 -0.26432715904E+02  0.92451849081E+01  0.28590909624E+02  0.00000000000E+00 0.  1.
         -2    1    1    2    0  502  0.57687259498E+01  0.26432715904E+02 -0.48992247568E+03  0.49066892998E+03  0.00000000000E+00 0.  1.
</event>
<event>
 4    1  0.5565417E+003  0.4215266E+02  0.7546771E-02  0.1336313E+00
          2   -1    0    0  501    0  0.00000000000E+00  0.00000000000E+00  0.77319548470E+02  0.77319548470E+02  0.00000000000E+00 0. -1.
         -2   -1    0    0    0  501 -0.00000000000E+00 -0.00000000000E+00 -0.41834749229E+02  0.41834749229E+02  0.00000000000E+00 0.  1.
          2    1    1    2  502    0  0.27113268947E+01  0.42065372668E+02  0.57738256850E+02  0.71488133108E+02  0.00000000000E+00 0. -1.
         -2    1    1    2    0  502 -0.27113268947E+01 -0.42065372668E+02 -0.22253457609E+02  0.47666164591E+02  0.00000000000E+00 0.  1.
</event>
<event>
 4    1  0.5565417E+003  0.2596667E+02  0.7546771E-02  0.1458274E+00
          2   -1    0    0  501    0  0.00000000000E+00  0.00000000000E+00  0.10845802905E+04  0.10845802905E+04  0.00000000000E+00 0. -1.
         -2   -1    0    0    0  501 -0.00000000000E+00 -0.00000000000E+00 -0.36970628333E+02  0.36970628333E+02  0.00000000000E+00 0.  1.
          2    1    1    2  502    0  0.25475150962E+02  0.50283788669E+01  0.10798453959E+04  0.10801575565E+04  0.00000000000E+00 0. -1.
         -2    1    1    2    0  502 -0.25475150962E+02 -0.50283788669E+01 -0.32235733745E+02  0.41393362278E+02  0.00000000000E+00 0.  1.
</event>
<event>
 4    1  0.5565417E+003  0.3648681E+02  0.7546771E-02  0.1370401E+00
          2   -1    0    0  501    0  0.00000000000E+00  0.00000000000E+00  0.65828623041E+02  0.65828623041E+02  0.00000000000E+00 0. -1.
         -2   -1    0    0    0  501 -0.00000000000E+00 -0.00000000000E+00 -0.33145218652E+02  0.33145218652E+02  0.00000000000E+00 0.  1.
          2    1    1    2  502    0 -0.32451131184E+02 -0.16679667186E+02  0.47240359235E+02  0.59690357289E+02  0.00000000000E+00 0. -1.
         -2    1    1    2    0  502  0.32451131184E+02  0.16679667186E+02 -0.14556954847E+02  0.39283484405E+02  0.00000000000E+00 0.  1.
</event>
<event>
 4    1  0.5565417E+003  0.2570082E+02  0.7546771E-02  0.1461114E+00
          2   -1    0    0  501    0  0.00000000000E+00  0.00000000000E+00  0.18970510983E+04  0.18970510983E+04  0.00000000000E+00 0. -1.
         -2   -1    0    0    0  501 -0.00000000000E+00 -0.00000000000E+00 -0.30042260213E+02  0.30042260213E+02  0.00000000000E+00 0. -1.
          2    1    1    2  502    0 -0.11985594744E+02 -0.22734949108E+02  0.18914510842E+04  0.18916256861E+04  0.00000000000E+00 0. -1.
         -2    1    1    2    0  502  0.11985594744E+02  0.22734949108E+02 -0.24442246105E+02  0.35467672421E+02  0.00000000000E+00 0. -1.
</event>
<event>
 4    1  0.5565417E+003  0.2362769E+02  0.7546771E-02  0.1484763E+00
          2   -1    0    0  501    0  0.00000000000E+00  0.00000000000E+00  0.32410691478E+03  0.32410691478E+03  0.00000000000E+00 0. -1.
         -2   -1    0    0    0  501 -0.00000000000E+00 -0.00000000000E+00 -0.58213440713E+03  0.58213440713E+03  0.00000000000E+00 0. -1.
          2    1    1    2  502    0  0.85975449583E+01 -0.22007951283E+02  0.32343604780E+03  0.32429792585E+03  0.00000000000E+00 0. -1.
         -2    1    1    2    0  502 -0.85975449583E+01  0.22007951283E+02 -0.58146354015E+03  0.58194339606E+03  0.00000000000E+00 0. -1.
</event>
<event>
 4    1  0.5565417E+003  0.2704786E+02  0.7546771E-02  0.1447128E+00
          2   -1    0    0  501    0  0.00000000000E+00  0.00000000000E+00  0.20188062025E+02  0.20188062025E+02  0.00000000000E+00 0. -1.
         -2   -1    0    0    0  501 -0.00000000000E+00 -0.00000000000E+00 -0.53609739753E+02  0.53609739753E+02  0.00000000000E+00 0.  1.
          2    1    1    2  502    0 -0.21937405600E+02  0.15822034925E+02  0.42933579340E+01  0.27386483454E+02  0.00000000000E+00 0. -1.
         -2    1    1    2    0  502  0.21937405600E+02 -0.15822034925E+02 -0.37715035662E+02  0.46411318324E+02  0.00000000000E+00 0.  1.
</event>
<event>
 4    1  0.5565417E+003  0.2786244E+02  0.7546771E-02  0.1439132E+00
          2   -1    0    0  501    0  0.00000000000E+00  0.00000000000E+00  0.36826481233E+03  0.36826481233E+03  0.00000000000E+00 0.  1.
         -2   -1    0    0    0  501 -0.00000000000E+00 -0.00000000000E+00 -0.12890879650E+03  0.12890879650E+03  0.00000000000E+00 0. -1.
          2    1    1    2  502    0  0.26470783975E+02  0.86955711354E+01  0.36622387363E+03  0.36728223613E+03  0.00000000000E+00 0.  1.
         -2    1    1    2    0  502 -0.26470783975E+02 -0.86955711354E+01 -0.12686785779E+03  0.12989137270E+03  0.00000000000E+00 0. -1.
</event>
<event>
 4    1  0.5565417E+003  0.2060703E+02  0.7546771E-02  0.1524950E+00
          2   -1    0    0  501    0  0.00000000000E+00  0.00000000000E+00  0.60254741187E+03  0.60254741187E+03  0.00000000000E+00 0. -1.
         -2   -1    0    0    0  501 -0.00000000000E+00 -0.00000000000E+00 -0.12743786554E+01  0.12743786554E+01  0.00000000000E+00 0.  1.
          2    1    1    2  502    0 -0.20277116611E+02 -0.36726053160E+01  0.50248374901E+03  0.50290612197E+03  0.00000000000E+00 0. -1.
         -2    1    1    2    0  502  0.20277116611E+02  0.36726053160E+01  0.98789284203E+02  0.10091566856E+03  0.00000000000E+00 0.  1.
</event>
<event>
 4    1  0.5565417E+003  0.2177586E+02  0.7546771E-02  0.1508470E+00
          2   -1    0    0  501    0  0.00000000000E+00  0.00000000000E+00  0.21334849009E+01  0.21334849009E+01  0.00000000000E+00 0.  1.
         -2   -1    0    0    0  501 -0.00000000000E+00 -0.00000000000E+00 -0.23856010547E+03  0.23856010547E+03  0.00000000000E+00 0. -1.
          2    1    1    2  502    0 -0.14961287309E+02  0.15822391755E+02 -0.86755260344E+02  0.89446427521E+02  0.00000000000E+00 0.  1.
         -2    1    1    2    0  502  0.14961287309E+02 -0.15822391755E+02 -0.14967136023E+03  0.15124716285E+03  0.00000000000E+00 0. -1.
</event>
<event>
 4    1  0.5565417E+003  0.2376099E+02  0.7546771E-02  0.1483157E+00
          2   -1    0    0  501    0  0.00000000000E+00  0.00000000000E+00  0.77214498409E+03  0.77214498409E+03  0.00000000000E+00 0. -1.
         -2   -1    0    0    0  501 -0.00000000000E+00 -0.00000000000E+00 -0.55245002577E+02  0.55245002577E+02  0.00000000000E+00 0.  1.
          2    1    1    2  502    0  0.79176776306E+01  0.22403012397E+02  0.76939815503E+03  0.76976496774E+03  0.00000000000E+00 0. -1.
         -2    1    1    2    0  502 -0.79176776306E+01 -0.22403012397E+02 -0.52498173522E+02  0.57625018930E+02  0.00000000000E+00 0.  1.
</event>
<event>
 4    1  0.5565417E+003  0.2377076E+02  0.7546771E-02  0.1483040E+00
          2   -1    0    0  501    0  0.00000000000E+00  0.00000000000E+00  0.10134651425E+04  0.10134651425E+04  0.00000000000E+00 0. -1.
         -2   -1    0    0    0  501 -0.00000000000E+00 -0.00000000000E+00 -0.16831441951E+02  0.16831441951E+02  0.00000000000E+00 0. -1.
          2    1    1    2  502    0  0.16134810746E+02  0.17456140954E+02  0.10048611458E+04  0.10051422642E+04  0.00000000000E+00 0. -1.
         -2    1    1    2    0  502 -0.16134810746E+02 -0.17456140954E+02 -0.82274451953E+01  0.25154320290E+02  0.00000000000E+00 0. -1.
</event>
<event>
 4    1  0.5565417E+003  0.2706104E+02  0.7546771E-02  0.1446996E+00
          2   -1    0    0  501    0  0.00000000000E+00  0.00000000000E+00  0.35654351550E+02  0.35654351550E+02  0.00000000000E+00 0.  1.
         -2   -1    0    0    0  501 -0.00000000000E+00 -0.00000000000E+00 -0.20539264807E+02  0.20539264807E+02  0.00000000000E+00 0.  1.
          2    1    1    2  502    0 -0.19727752223E+02  0.18523362125E+02  0.74303153467E+01  0.28062586095E+02  0.00000000000E+00 0.  1.
         -2    1    1    2    0  502  0.19727752223E+02 -0.18523362125E+02  0.76847713962E+01  0.28131030262E+02  0.00000000000E+00 0.  1.
</event>
<event>
 4    1  0.5565417E+003  0.2148424E+02  0.7546771E-02  0.1512462E+00
          2   -1    0    0  501    0  0.00000000000E+00  0.00000000000E+00  0.14127857948E+04  0.14127857948E+04  0.00000000000E+00 0.  1.
         -2   -1    0    0    0  501 -0.00000000000E+00 -0.00000000000E+00 -0.33398979600E+00  0.33398979600E+00  0.00000000000E+00 0.  1.
          2    1    1    2  502    0 -0.54262289008E+01 -0.20787701173E+02  0.81053350176E+03  0.81081818551E+03  0.00000000000E+00 0.  1.
         -2    1    1    2    0  502  0.54262289008E+01  0.20787701173E+02  0.60191830326E+03  0.60230159911E+03  0.00000000000E+00 0.  1.
</event>
<event>
 4    1  0.5565417E+003  0.3042862E+02  0.7546771E-02  0.1415908E+00
          2   -1    0    0  501    0  0.00000000000E+00  0.00000000000E+00  0.24699664916E+03  0.24699664916E+03  0.00000000000E+00 0. -1.
         -2   -1    0    0    0  501 -0.00000000000E+00 -0.00000000000E+00 -0.30946828098E+03  0.30946828098E+03  0.00000000000E+00 0.  1.
          2    1    1    2  502    0 -0.27159067735E+02  0.13721732614E+02  0.24530637833E+03  0.24718640771E+03  0.00000000000E+00 0. -1.
         -2    1    1    2    0  502  0.27159067735E+02 -0.13721732614E+02 -0.30777801015E+03  0.30927852243E+03  0.00000000000E+00 0.  1.
</event>
<event>
 4    1  0.5565417E+003  0.2759627E+02  0.7546771E-02  0.1441709E+00
          2   -1    0    0  501    0  0.00000000000E+00  0.00000000000E+00  0.56002930738E+03  0.56002930738E+03  0.00000000000E+00 0.  1.
         -2   -1    0    0    0  501 -0.00000000000E+00 -0.00000000000E+00 -0.13651224801E+02  0.13651224801E+02  0.00000000000E+00 0. -1.
          2    1    1    2  502    0 -0.90506826476E+01 -0.26069890610E+02  0.54536802943E+03  0.54606578503E+03  0.00000000000E+00 0.  1.
         -2    1    1    2    0  502  0.90506826476E+01  0.26069890610E+02  0.10100531449E+01  0.27614747150E+02  0.00000000000E+00 0. -1.
</event>
<event>
 4    1  0.5565417E+003  0.3583011E+02  0.7546771E-02  0.1374819E+00
          2   -1    0    0  501    0  0.00000000000E+00  0.00000000000E+00  0.22912379796E+03  0.22912379796E+03  0.00000000000E+00 0. -1.
         -2   -1    0    0    0  501 -0.00000000000E+00 -0.00000000000E+00 -0.18135750023E+02  0.18135750023E+02  0.00000000000E+00 0. -1.
          2    1    1    2  502    0  0.34793141771E+02  0.85576872153E+01  0.20826661059E+03  0.21132623550E+03  0.00000000000E+00 0. -1.
         -2    1    1    2    0  502 -0.34793141771E+02 -0.85576872153E+01  0.27214373495E+01  0.35933312484E+02  0.00000000000E+00 0. -1.
</event>
<event>
 4    1  0.5565417E+003  0.2982920E+02  0.7546771E-02  0.1421087E+00
          2   -1    0    0  501    0  0.00000000000E+00  0.00000000000E+00  0.11838013113E+04  0.11838013113E+04  0.00000000000E+00 0.  1.
         -2   -1    0    0    0  501 -0.00000000000E+00 -0.00000000000E+00 -0.78672295643E+00  0.78672295643E+00  0.00000000000E+00 0.  1.
          2    1    1    2  502    0  0.28830653225E+02 -0.76534088337E+01  0.71660029245E+03  0.71722085885E+03  0.00000000000E+00 0.  1.
         -2    1    1    2    0  502 -0.28830653225E+02  0.76534088337E+01  0.46641429592E+03  0.46736717543E+03  0.00000000000E+00 0.  1.
</event>
<event>
 4    1  0.5565417E+003  0.6144118E+02  0.7546771E-02  0.1255013E+00
          2   -1    0    0  501    0  0.00000000000E+00  0.00000000000E+00  0.71434006585E+03  0.71434006585E+03  0.00000000000E+00 0. -1.
         -2   -1    0    0    0  501 -0.00000000000E+00 -0.00000000000E+00 -0.27561640580E+02  0.27561640580E+02  0.00000000000E+00 0.  1.
          2    1    1    2  502    0 -0.38616542435E+02  0.47788928027E+02  0.67688653498E+03  0.67966933154E+03  0.00000000000E+00 0. -1.
         -2    1    1    2    0  502  0.38616542435E+02 -0.47788928027E+02  0.98918902902E+01  0.62232374896E+02  0.00000000000E+00 0.  1.
</event>
<event>
 4    1  0.5565417E+003  0.2335340E+02  0.7546771E-02  0.1488108E+00
          2   -1    0    0  501    0  0.00000000000E+00  0.00000000000E+00  0.14318216084E+02  0.14318216084E+02  0.00000000000E+00 0.  1.
         -2   -1    0    0    0  501 -0.00000000000E+00 -0.00000000000E+00 -0.33209264637E+03  0.33209264637E+03  0.00000000000E+00 0.  1.
          2    1    1    2  502    0  0.32639955029E+01 -0.23124177094E+02  0.40827139961E+01  0.23707589217E+02  0.00000000000E+00 0.  1.
         -2    1    1    2    0  502 -0.32639955029E+01  0.23124177094E+02 -0.32185714428E+03  0.32270327323E+03  0.00000000000E+00 0.  1.
</event>
<event>
 4    1  0.5565417E+003  0.2046498E+02  0.7546771E-02  0.1527042E+00
          2   -1    0    0  501    0  0.00000000000E+00  0.00000000000E+00  0.12362865861E+04  0.12362865861E+04  0.00000000000E+00 0.  1.
         -2   -1    0    0    0  501 -0.00000000000E+00 -0.00000000000E+00 -0.19330623780E+01  0.19330623780E+01  0.00000000000E+00 0.  1.
          2    1    1    2  502    0  0.10883362436E+02  0.17331121042E+02  0.11794260426E+04  0.11796035797E+04  0.00000000000E+00 0.  1.
         -2    1    1    2    0  502 -0.10883362436E+02 -0.17331121042E+02  0.54927481216E+02  0.58616068848E+02  0.00000000000E+00 0.  1.
</event>
<event>
 4    1  0.5565417E+003  0.2267585E+02  0.7546771E-02  0.1496609E+00
          2   -1    0    0  501    0  0.00000000000E+00  0.00000000000E+00  0.34180654337E+02  0.34180654337E+02  0.00000000000E+00 0.  1.
         -2   -1    0    0    0  501 -0.00000000000E+00 -0.00000000000E+00 -0.23866575891E+02  0.23866575891E+02  0.00000000000E+00 0.  1.
          2    1    1    2  502    0  0.22232271207E+02  0.44632273271E+01  0.22803929209E+02  0.32159189489E+02  0.00000000000E+00 0.  1.
         -2    1    1    2    0  502 -0.22232271207E+02 -0.44632273271E+01 -0.12489850764E+02  0.25888040739E+02  0.00000000000E+00 0.  1.
</event>
<event>
 4    1  0.5565417E+003  0.2756621E+02  0.7546771E-02  0.1442002E+00
          2   -1    0    0  501    0  0.00000000000E+00  0.00000000000E+00  0.28250376104E+01  0.28250376104E+01  0.00000000000E+00 0. -1.
         -2   -1    0    0    0  501 -0.00000000000E+00 -0.00000000000E+00 -0.85084860280E+03  0.85084860280E+03  0.00000000000E+00 0. -1.
          2    1    1    2  502    0  0.25607963262E+02  0.10204314777E+02 -0.71035179152E+02  0.76196407393E+02  0.00000000000E+00 0. -1.
         -2    1    1    2    0  502 -0.25607963262E+02 -0.10204314777E+02 -0.77698838604E+03  0.77747723302E+03  0.00000000000E+00 0. -1.
</event>
<event>
 4    1  0.5565417E+003  0.3508452E+02  0.7546771E-02  0.1379970E+00
          2   -1    0    0  501    0  0.00000000000E+00  0.00000000000E+00  0.76176236902E+03  0.76176236902E+03  0.00000000000E+00 0. -1.
         -2   -1    0    0    0  501 -0.00000000000E+00 -0.00000000000E+00 -0.13382976603E+02  0.13382976603E+02  0.00000000000E+00 0.  1.
          2    1    1    2  502    0  0.14004035976E+02  0.32168469228E+02  0.73761175296E+03  0.73844567947E+03  0.00000000000E+00 0. -1.
         -2    1    1    2    0  502 -0.14004035976E+02 -0.32168469228E+02  0.10767639465E+02  0.36699666153E+02  0.00000000000E+00 0.  1.
</event>
<event>
 4    1  0.5565417E+003  0.2503515E+02  0.7546771E-02  0.1468411E+00
          2   -1    0    0  501    0  0.00000000000E+00  0.00000000000E+00  0.44680166344E+03  0.44680166344E+03  0.00000000000E+00 0.  1.
         -2   -1    0    0    0  501 -0.00000000000E+00 -0.00000000000E+00 -0.10362592774E+03  0.10362592774E+03  0.00000000000E+00 0.  1.
          2    1    1    2  502    0  0.17084290726E+02 -0.18299886593E+02  0.44493255405E+03  0.44563632762E+03  0.00000000000E+00 0.  1.
         -2    1    1    2    0  502 -0.17084290726E+02  0.18299886593E+02 -0.10175681835E+03  0.10479126356E+03  0.00000000000E+00 0.  1.
</event>
<event>
 4    1  0.5565417E+003  0.2057776E+02  0.7546771E-02  0.1525380E+00
          2   -1    0    0  501    0  0.00000000000E+00  0.00000000000E+00  0.15958028671E+03  0.15958028671E+03  0.00000000000E+00 0.  1.
         -2   -1    0    0    0  501 -0.00000000000E+00 -0.00000000000E+00 -0.13275224036E+02  0.13275224036E+02  0.00000000000E+00 0. -1.
          2    1    1    2  502    0 -0.85819778304E+01  0.18702779194E+02  0.15046153341E+03  0.15186216556E+03  0.00000000000E+00 0.  1.
         -2    1    1    2    0  502  0.85819778304E+01 -0.18702779194E+02 -0.41564707353E+01  0.20993345184E+02  0.00000000000E+00 0. -1.
</event>
<event>
 4    1  0.5565417E+003  0.2294798E+02  0.7546771E-02  0.1493152E+00
          2   -1    0    0  501    0  0.00000000000E+00  0.00000000000E+00  0.16190360092E+04  0.16190360092E+04  0.00000000000E+00 0.  1.
         -2   -1    0    0    0  501 -0.00000000000E+00 -0.00000000000E+00 -0.24611991344E+01  0.24611991344E+01  0.00000000000E+00 0.  1.
          2    1    1    2  502    0  0.98521749610E+00  0.22926823599E+02  0.15635659161E+04  0.15637343074E+04  0.00000000000E+00 0.  1.
         -2    1    1    2    0  502 -0.98521749610E+00 -0.22926823599E+02  0.53008893912E+02  0.57762900963E+02  0.00000000000E+00 0.  1.
</event>
<event>
 4    1  0.5565417E+003  0.2162896E+02  0.7546771E-02  0.1510471E+00
          2   -1    0    0  501    0  0.00000000000E+00  0.00000000000E+00  0.10935909386E+03  0.10935909386E+03  0.00000000000E+00 0.  1.
         -2   -1    0    0    0  501 -0.00000000000E+00 -0.00000000000E+00 -0.34384826113E+02  0.34384826113E+02  0.00000000000E+00 0. -1.
          2    1    1    2  502    0 -0.12346154231E+02  0.17759060487E+02  0.10473992356E+03  0.10694981692E+03  0.00000000000E+00 0.  1.
         -2    1    1    2    0  502  0.12346154231E+02 -0.17759060487E+02 -0.29765655807E+02  0.36794103051E+02  0.00000000000E+00 0. -1.
</event>
<event>
 4    1  0.5565417E+003  0.2049625E+02  0.7546771E-02  0.1526580E+00
          2   -1    0    0  501    0  0.00000000000E+00  0.00000000000E+00  0.97930397236E+02  0.97930397236E+02  0.00000000000E+00 0. -1.
         -2   -1    0    0    0  501 -0.00000000000E+00 -0.00000000000E+00 -0.86837187165E+01  0.86837187165E+01  0.00000000000E+00 0. -1.
          2    1    1    2  502    0  0.19651582744E+02  0.58233635790E+01  0.82542668897E+02  0.85049329547E+02  0.00000000000E+00 0. -1.
         -2    1    1    2    0  502 -0.19651582744E+02 -0.58233635790E+01  0.67040096223E+01  0.21564786406E+02  0.00000000000E+00 0. -1.
</event>
<event>
 4    1  0.5565417E+003  0.2015793E+02  0.7546771E-02  0.1531635E+00
          2   -1    0    0  501    0  0.00000000000E+00  0.00000000000E+00  0.10337601296E+04  0.10337601296E+04  0.00000000000E+00 0. -1.
         -2   -1    0    0    0  501 -0.00000000000E+00 -0.00000000000E+00 -0.26610897480E+02  0.26610897480E+02  0.00000000000E+00 0.  1.
          2    1    1    2  502    0  0.20143918410E+02 -0.75154066716E+00  0.10298298516E+04  0.10300271188E+04  0.00000000000E+00 0. -1.
         -2    1    1    2    0  502 -0.20143918410E+02  0.75154066716E+00 -0.22680619537E+02  0.30343908200E+02  0.00000000000E+00 0.  1.
</event>
<event>
 4    1  0.5565417E+003  0.2355867E+02  0.7546771E-02  0.1485600E+00
          2   -1    0    0  501    0  0.00000000000E+00  0.00000000000E+00  0.66121074758E+03  0.66121074758E+03  0.00000000000E+00 0. -1.
         -2   -1    0    0    0  501 -0.00000000000E+00 -0.00000000000E+00 -0.11620892558E+01  0.11620892558E+01  0.00000000000E+00 0. -1.
          2    1    1    2  502    0 -0.14087313876E+02 -0.18882759590E+02  0.50454805344E+03  0.50509776207E+03  0.00000000000E+00 0. -1.
         -2    1    1    2    0  502  0.14087313876E+02  0.18882759590E+02  0.15550060489E+03  0.15727507476E+03  0.00000000000E+00 0. -1.
</event>
<event>
 4    1  0.5565417E+003  0.2626410E+02  0.7546771E-02  0.1455144E+00
          2   -1    0    0  501    0  0.00000000000E+00  0.00000000000E+00  0.58335017529E+02  0.58335017529E+02  0.00000000000E+00 0. -1.
         -2   -1    0    0    0  501 -0.00000000000E+00 -0.00000000000E+00 -0.10108033440E+03  0.10108033440E+03  0.00000000000E+00 0.  1.
          2    1    1    2  502    0 -0.23821873806E+02 -0.11059905313E+02  0.53527761540E+02  0.59624025633E+02  0.00000000000E+00 0. -1.
         -2    1    1    2    0  502  0.23821873806E+02  0.11059905313E+02 -0.96273078408E+02  0.99791326294E+02  0.00000000000E+00 0.  1.
</event>
<event>
 4    1  0.5565417E+003  0.2666820E+02  0.7546771E-02  0.1450970E+00
          2   -1    0    0  501    0  0.00000000000E+00  0.00000000000E+00  0.18597337478E+02  0.18597337478E+02  0.00000000000E+00 0.  1.
         -2   -1    0    0    0  501 -0.00000000000E+00 -0.00000000000E+00 -0.95926131114E+02  0.95926131114E+02  0.00000000000E+00 0.  1.
          2    1    1    2  502    0 -0.18683190277E+02 -0.19029745508E+02  0.57399555051E+01  0.27278927806E+02  0.00000000000E+00 0.  1.
         -2    1    1    2    0  502  0.18683190277E+02  0.19029745508E+02 -0.83068749142E+02  0.87244540786E+02  0.00000000000E+00 0.  1.
</event>
<event>
 4    1  0.5565417E+003  0.2214635E+02  0.7546771E-02  0.1503505E+00
          2   -1    0    0  501    0  0.00000000000E+00  0.00000000000E+00  0.10191935760E+04  0.10191935760E+04  0.00000000000E+00 0. -1.
         -2   -1    0    0    0  501 -0.00000000000E+00 -0.00000000000E+00 -0.10117312676E+01  0.10117312676E+01  0.00000000000E+00 0.  1.
          2    1    1    2  502    0 -0.21682224999E+02  0.45101941554E+01  0.87846850605E+03  0.87874761841E+03  0.00000000000E+00 0. -1.
         -2    1    1    2    0  502  0.21682224999E+02 -0.45101941554E+01  0.13971333865E+03  0.14145768883E+03  0.00000000000E+00 0.  1.
</event>
<event>
 4    1  0.5565417E+003  0.2920256E+02  0.7546771E-02  0.1426655E+00
          2   -1    0    0  501    0  0.00000000000E+00  0.00000000000E+00  0.13171602950E+04  0.13171602950E+04  0.00000000000E+00 0.  1.
         -2   -1    0    0    0  501 -0.00000000000E+00 -0.00000000000E+00 -0.30619830786E+01  0.30619830786E+01  0.00000000000E+00 0.  1.
          2    1    1    2  502    0  0.27713233704E+02 -0.92068472795E+01  0.12432314047E+04  0.12435743303E+04  0.00000000000E+00 0.  1.
         -2    1    1    2    0  502 -0.27713233704E+02  0.92068472795E+01  0.70866907242E+02  0.76647947795E+02  0.00000000000E+00 0.  1.
</event>
<event>
 4    1  0.5565417E+003  0.2497069E+02  0.7546771E-02  0.1469132E+00
          2   -1    0    0  501    0  0.00000000000E+00  0.00000000000E+00  0.52031086651E+03  0.52031086651E+03  0.00000000000E+00 0.  1.
         -2   -1    0    0    0  501 -0.00000000000E+00 -0.00000000000E+00 -0.28697956254E+02  0.28697956254E+02  0.00000000000E+00 0.  1.
          2    1    1    2  502    0  0.17155014951E+02  0.18144994410E+02  0.51451827181E+03  0.51512385636E+03  0.00000000000E+00 0.  1.
         -2    1    1    2    0  502 -0.17155014951E+02 -0.18144994410E+02 -0.22905361559E+02  0.33884966405E+02  0.00000000000E+00 0.  1.
</event>
<event>
 4    1  0.5565417E+003  0.2619260E+02  0.7546771E-02  0.1455892E+00
          2   -1    0    0  501    0  0.00000000000E+00  0.00000000000E+00  0.41428019682E+02  0.41428019682E+02  0.00000000000E+00 0.  1.
         -2   -1    0    0    0  501 -0.00000000000E+00 -0.00000000000E+00 -0.14908487352E+03  0.14908487352E+03  0.00000000000E+00 0.  1.
          2    1    1    2  502    0  0.26151224878E+02  0.14716395162E+01  0.35981866673E+02  0.44505584085E+02  0.00000000000E+00 0.  1.
         -2    1    1    2    0  502 -0.26151224878E+02 -0.14716395162E+01 -0.14363872051E+03  0.14600730912E+03  0.00000000000E+00 0.  1.
</event>
<event>
 4    1  0.5565417E+003  0.2373510E+02  0.7546771E-02  0.1483468E+00
          2   -1    0    0  501    0  0.00000000000E+00  0.00000000000E+00  0.93862274545E+02  0.93862274545E+02  0.00000000000E+00 0.  1.
         -2   -1    0    0    0  501 -0.00000000000E+00 -0.00000000000E+00 -0.20773327909E+02  0.20773327909E+02  0.00000000000E+00 0. -1.
          2    1    1    2  502    0  0.83525839230E+01  0.22216869670E+02  0.84877863482E+02  0.88134026717E+02  0.00000000000E+00 0.  1.
         -2    1    1    2    0  502 -0.83525839230E+01 -0.22216869670E+02 -0.11788916846E+02  0.26501575736E+02  0.00000000000E+00 0. -1.
</event>
<event>
 4    1  0.5565417E+003  0.2151604E+02  0.7546771E-02  0.1512023E+00
          2   -1    0    0  501    0  0.00000000000E+00  0.00000000000E+00  0.10553118450E+02  0.10553118450E+02  0.00000000000E+00 0. -1.
         -2   -1    0    0    0  501 -0.00000000000E+00 -0.00000000000E+00 -0.50500515273E+03  0.50500515273E+03  0.00000000000E+00 0. -1.
          2    1    1    2  502    0  0.10422227865E+01  0.21490781258E+02 -0.89726502641E+00  0.21534739189E+02  0.00000000000E+00 0. -1.
         -2    1    1    2    0  502 -0.10422227865E+01 -0.21490781258E+02 -0.49355476925E+03  0.49402353199E+03  0.00000000000E+00 0. -1.
</event>
<event>
 4    1  0.5565417E+003  0.2428706E+02  0.7546771E-02  0.1476939E+00
          2   -1    0    0  501    0  0.00000000000E+00  0.00000000000E+00  0.26368543179E+03  0.26368543179E+03  0.00000000000E+00 0. -1.
         -2   -1    0    0    0  501 -0.00000000000E+00 -0.00000000000E+00 -0.20586187566E+02  0.20586187566E+02  0.00000000000E+00 0.  1.
          2    1    1    2  502    0  0.88474776240E+01 -0.22618214230E+02  0.25574083936E+03  0.25689149148E+03  0.00000000000E+00 0. -1.
         -2    1    1    2    0  502 -0.88474776240E+01  0.22618214230E+02 -0.12641595136E+02  0.27380127882E+02  0.00000000000E+00 0.  1.
</event>
<event>
 4    1  0.5565417E+003  0.3838933E+02  0.7546771E-02  0.1358192E+00
          2   -1    0    0  501    0  0.00000000000E+00  0.00000000000E+00  0.10097804859E+02  0.10097804859E+02  0.00000000000E+00 0. -1.
         -2   -1    0    0    0  501 -0.00000000000E+00 -0.00000000000E+00 -0.24925181326E+03  0.24925181326E+03  0.00000000000E+00 0.  1.
          2    1    1    2  502    0  0.31250802178E+02 -0.22296372422E+02 -0.36094118251E+02  0.52692753128E+02  0.00000000000E+00 0. -1.
         -2    1    1    2    0  502 -0.31250802178E+02  0.22296372422E+02 -0.20305989015E+03  0.20665686499E+03  0.00000000000E+00 0.  1.
</event>
<event>
 4    1  0.5565417E+003  0.2408937E+02  0.7546771E-02  0.1479254E+00
          2   -1    0    0  501    0  0.00000000000E+00  0.00000000000E+00  0.35439194016E+03  0.35439194016E+03  0.00000000000E+00 0.  1.
         -2   -1    0    0    0  501 -0.00000000000E+00 -0.00000000000E+00 -0.17053955126E+03  0.17053955126E+03  0.00000000000E+00 0.  1.
          2    1    1    2  502    0  0.20678311481E+01  0.24000457155E+02  0.35312886001E+03  0.35394955805E+03  0.00000000000E+00 0.  1.
         -2    1    1    2    0  502 -0.20678311481E+01 -0.24000457155E+02 -0.16927647111E+03  0.17098193338E+03  0.00000000000E+00 0.  1.
</event>
<event>
 4    1  0.5565417E+003  0.3014220E+02  0.7546771E-02  0.1418365E+00
          2   -1    0    0  501    0  0.00000000000E+00  0.00000000000E+00  0.38931000500E+03  0.38931000500E+03  0.00000000000E+00 0.  1.
         -2   -1    0    0    0  501 -0.00000000000E+00 -0.00000000000E+00 -0.15166204545E+02  0.15166204545E+02  0.00000000000E+00 0. -1.
          2    1    1    2  502    0  0.50643552326E+00 -0.30137949113E+02  0.37310035967E+03  0.37431595055E+03  0.00000000000E+00 0.  1.
         -2    1    1    2    0  502 -0.50643552326E+00  0.30137949113E+02  0.10434407844E+01  0.30160258990E+02  0.00000000000E+00 0. -1.
</event>
<event>
 4    1  0.5565417E+003  0.2896516E+02  0.7546771E-02  0.1428807E+00
          2   -1    0    0  501    0  0.00000000000E+00  0.00000000000E+00  0.21572948746E+03  0.21572948746E+03  0.00000000000E+00 0.  1.
         -2   -1    0    0    0  501 -0.00000000000E+00 -0.00000000000E+00 -0.60252538609E+03  0.60252538609E+03  0.00000000000E+00 0.  1.
          2    1    1    2  502    0 -0.92915656641E+01  0.27434416913E+02  0.21440698018E+03  0.21635464768E+03  0.00000000000E+00 0.  1.
         -2    1    1    2    0  502  0.92915656641E+01 -0.27434416913E+02 -0.60120287880E+03  0.60190022587E+03  0.00000000000E+00 0.  1.
</event>
<event>
 4    1  0.5565417E+003  0.3955423E+02  0.7546771E-02  0.1351118E+00
          2   -1    0    0  501    0  0.00000000000E+00  0.00000000000E+00  0.67718283684E+02  0.67718283684E+02  0.00000000000E+00 0. -1.
         -2   -1    0    0    0  501 -0.00000000000E+00 -0.00000000000E+00 -0.37759257610E+03  0.37759257610E+03  0.00000000000E+00 0. -1.
          2    1    1    2  502    0  0.37525211741E+02 -0.12505810704E+02  0.60799005784E+02  0.72533136716E+02  0.00000000000E+00 0. -1.
         -2    1    1    2    0  502 -0.37525211741E+02  0.12505810704E+02 -0.37067329820E+03  0.37277772307E+03  0.00000000000E+00 0. -1.
</event>
<event>
 4    1  0.5565417E+003  0.2288366E+02  0.7546771E-02  0.1493964E+00
          2   -1    0    0  501    0  0.00000000000E+00  0.00000000000E+00  0.82465120271E+02  0.82465120271E+02  0.00000000000E+00 0.  1.
         -2   -1    0    0    0  501 -0.00000000000E+00 -0.00000000000E+00 -0.27297186699E+02  0.27297186699E+02  0.00000000000E+00 0. -1.
          2    1    1    2  502    0  0.22786369242E+02  0.21079149004E+01  0.75659718062E+02  0.79044638438E+02  0.00000000000E+00 0.  1.
         -2    1    1    2    0  502 -0.22786369242E+02 -0.21079149004E+01 -0.20491784490E+02  0.30717668532E+02  0.00000000000E+00 0. -1.
</event>
<event>
 4    1  0.5565417E+003  0.3160009E+02  0.7546771E-02  0.1406183E+00
          2   -1    0    0  501    0  0.00000000000E+00  0.00000000000E+00  0.26414744060E+04  0.26414744060E+04  0.00000000000E+00 0.  1.
         -2   -1    0    0    0  501 -0.00000000000E+00 -0.00000000000E+00 -0.85754227451E+00  0.85754227451E+00  0.00000000000E+00 0.  1.
          2    1    1    2  502    0 -0.60789745406E+01 -0.31009865941E+02  0.23082423746E+04  0.23084586689E+04  0.00000000000E+00 0.  1.
         -2    1    1    2    0  502  0.60789745406E+01  0.31009865941E+02  0.33237448912E+03  0.33387327945E+03  0.00000000000E+00 0.  1.
</event>
<event>
 4    1  0.5565417E+003  0.2043128E+02  0.7546771E-02  0.1527542E+00
          2   -1    0    0  501    0  0.00000000000E+00  0.00000000000E+00  0.19986917643E+03  0.19986917643E+03  0.00000000000E+00 0.  1.
         -2   -1    0    0    0  501 -0.00000000000E+00 -0.00000000000E+00 -0.35412585490E+02  0.35412585490E+02  0.00000000000E+00 0. -1.
          2    1    1    2  502    0 -0.18762774879E+02 -0.80867368318E+01  0.19634736858E+03  0.19740751299E+03  0.00000000000E+00 0.  1.
         -2    1    1    2    0  502  0.18762774879E+02  0.80867368318E+01 -0.31890777642E+02  0.37874248935E+02  0.00000000000E+00 0. -1.
</event>
<event>
 4    1  0.5565417E+003  0.2013502E+02  0.7546771E-02  0.1531982E+00
          2   -1    0    0  501    0  0.00000000000E+00  0.00000000000E+00  0.16322195458E+04  0.16322195458E+04  0.00000000000E+00 0. -1.
         -2   -1    0    0    0  501 -0.00000000000E+00 -0.00000000000E+00 -0.66675647610E+00  0.66675647610E+00  0.00000000000E+00 0.  1.
          2    1    1    2  502    0 -0.32074666145E+00  0.20132462517E+02  0.14625068892E+04  0.14626454868E+04  0.00000000000E+00 0. -1.
         -2    1    1    2    0  502  0.32074666145E+00 -0.20132462517E+02  0.16904590009E+03  0.17024081551E+03  0.00000000000E+00 0.  1.
</event>
<event>
 4    1  0.5565417E+003  0.3277565E+02  0.7546771E-02  0.1396914E+00
          2   -1    0    0  501    0  0.00000000000E+00  0.00000000000E+00  0.27240798446E+04  0.27240798446E+04  0.00000000000E+00 0.  1.
         -2   -1    0    0    0  501 -0.00000000000E+00 -0.00000000000E+00 -0.62512120147E+00  0.62512120147E+00  0.00000000000E+00 0.  1.
          2    1    1    2  502    0  0.85410755161E+01 -0.31643220216E+02  0.21894738096E+04  0.21897191158E+04  0.00000000000E+00 0.  1.
         -2    1    1    2    0  502 -0.85410755161E+01  0.31643220216E+02  0.53398091389E+03  0.53498585005E+03  0.00000000000E+00 0.  1.
</event>
<event>
 4    1  0.5565417E+003  0.3527848E+02  0.7546771E-02  0.1378616E+00
          2   -1    0    0  501    0  0.00000000000E+00  0.00000000000E+00  0.15461284330E+03  0.15461284330E+03  0.00000000000E+00 0. -1.
         -2   -1    0    0    0  501 -0.00000000000E+00 -0.00000000000E+00 -0.10661323342E+02  0.10661323342E+02  0.00000000000E+00 0. -1.
          2    1    1    2  502    0 -0.35085676972E+02 -0.36833025510E+01  0.11287667842E+03  0.11826121925E+03  0.00000000000E+00 0. -1.
         -2    1    1    2    0  502  0.35085676972E+02  0.36833025510E+01  0.31074841537E+02  0.47012947396E+02  0.00000000000E+00 0. -1.
</event>
<event>
 4    1  0.5565417E+003  0.2946568E+02  0.7546771E-02  0.1424297E+00
          2   -1    0    0  501    0  0.00000000000E+00  0.00000000000E+00  0.18232553672E+03  0.18232553672E+03  0.00000000000E+00 0.  1.
         -2   -1    0    0    0  501 -0.00000000000E+00 -0.00000000000E+00 -0.22723105056E+02  0.22723105056E+02  0.00000000000E+00 0.  1.
          2    1    1    2  502    0 -0.71236140555E+01 -0.28591614231E+02  0.17095193826E+03  0.17347273986E+03  0.00000000000E+00 0.  1.
         -2    1    1    2    0  502  0.71236140555E+01  0.28591614231E+02 -0.11349506596E+02  0.31575901911E+02  0.00000000000E+00 0.  1.
</event>
<event>
 4    1  0.5565417E+003  0.2147896E+02  0.7546771E-02  0.1512535E+00
          2   -1    0    0  501    0  0.00000000000E+00  0.00000000000E+00  0.11561772837E+04  0.11561772837E+04  0.00000000000E+00 0. -1.
         -2   -1    0    0    0  501 -0.00000000000E+00 -0.00000000000E+00 -0.55585855000E+00  0.55585855000E+00  0.00000000000E+00 0. -1.
          2    1    1    2  502    0 -0.70679157071E+00  0.21467332787E+02  0.88502243374E+03  0.88528303618E+03  0.00000000000E+00 0. -1.
         -2    1    1    2    0  502  0.70679157071E+00 -0.21467332787E+02  0.27059899139E+03  0.27145010604E+03  0.00000000000E+00 0. -1.
</event>
<event>
 4    1  0.5565417E+003  0.2229017E+02  0.7546771E-02  0.1501609E+00
          2   -1    0    0  501    0  0.00000000000E+00  0.00000000000E+00  0.38956762866E+03  0.38956762866E+03  0.00000000000E+00 0. -1.
         -2   -1    0    0    0  501 -0.00000000000E+00 -0.00000000000E+00 -0.13446631202E+01  0.13446631202E+01  0.00000000000E+00 0. -1.
          2    1    1    2  502    0  0.66414116526E+01 -0.21277757213E+02  0.14974859728E+03  0.15139845999E+03  0.00000000000E+00 0. -1.
         -2    1    1    2    0  502 -0.66414116526E+01  0.21277757213E+02  0.23847436827E+03  0.23951383180E+03  0.00000000000E+00 0. -1.
</event>
<event>
 4    1  0.5565417E+003  0.2162192E+02  0.7546771E-02  0.1510568E+00
          2   -1    0    0  501    0  0.00000000000E+00  0.00000000000E+00  0.72940281491E+03  0.72940281491E+03  0.00000000000E+00 0. -1.
         -2   -1    0    0    0  501 -0.00000000000E+00 -0.00000000000E+00 -0.11372484925E+02  0.11372484925E+02  0.00000000000E+00 0. -1.
          2    1    1    2  502    0  0.16305051740E+02 -0.14200450414E+02  0.71881405866E+03  0.71913917877E+03  0.00000000000E+00 0. -1.
         -2    1    1    2    0  502 -0.16305051740E+02  0.14200450414E+02 -0.78372867906E+00  0.21636121068E+02  0.00000000000E+00 0. -1.
</event>
<event>
 4    1  0.5565417E+003  0.2022266E+02  0.7546771E-02  0.1530659E+00
          2   -1    0    0  501    0  0.00000000000E+00  0.00000000000E+00  0.44811331782E+03  0.44811331782E+03  0.00000000000E+00 0.  1.
         -2   -1    0    0    0  501 -0.00000000000E+00 -0.00000000000E+00 -0.21000960917E+03  0.21000960917E+03  0.00000000000E+00 0.  1.
          2    1    1    2  502    0 -0.19736778756E+02  0.44063208674E+01  0.44739755474E+03  0.44785436036E+03  0.00000000000E+00 0.  1.
         -2    1    1    2    0  502  0.19736778756E+02 -0.44063208674E+01 -0.20929384610E+03  0.21026856663E+03  0.00000000000E+00 0.  1.
</event>
<event>
 4    1  0.5565417E+003  0.2212637E+02  0.7546771E-02  0.1503770E+00
          2   -1    0    0  501    0  0.00000000000E+00  0.00000000000E+00  0.20443863878E+03  0.20443863878E+03  0.00000000000E+00 0. -1.
         -2   -1    0    0    0  501 -0.00000000000E+00 -0.00000000000E+00 -0.24020688363E+01  0.24020688363E+01  0.00000000000E+00 0.  1.
          2    1    1    2  502    0 -0.18999507298E+02 -0.11339968326E+02  0.10673318329E+03  0.10900251636E+03  0.00000000000E+00 0. -1.
         -2    1    1    2    0  502  0.18999507298E+02  0.11339968326E+02  0.95303386659E+02  0.97838191254E+02  0.00000000000E+00 0.  1.
</event>
<event>
 4    1  0.5565417E+003  0.2120130E+02  0.7546771E-02  0.1516410E+00
          2   -1    0    0  501    0  0.00000000000E+00  0.00000000000E+00  0.44436327347E+03  0.44436327347E+03  0.00000000000E+00 0.  1.
         -2   -1    0    0    0  501 -0.00000000000E+00 -0.00000000000E+00 -0.26073509669E+01  0.26073509669E+01  0.00000000000E+00 0. -1.
          2    1    1    2  502    0  0.17904904312E+02 -0.11353827677E+02  0.39571715914E+03  0.39628470200E+03  0.00000000000E+00 0.  1.
         -2    1    1    2    0  502 -0.17904904312E+02  0.11353827677E+02  0.46038763368E+02  0.50685922442E+02  0.00000000000E+00 0. -1.
</event>
<event>
 4    1  0.5565417E+003  0.2029368E+02  0.7546771E-02  0.1529593E+00
          2   -1    0    0  501    0  0.00000000000E+00  0.00000000000E+00  0.32591814024E+01  0.32591814024E+01  0.00000000000E+00 0. -1.
         -2   -1    0    0    0  501 -0.00000000000E+00 -0.00000000000E+00 -0.16516563817E+03  0.16516563817E+03  0.00000000000E+00 0. -1.
          2    1    1    2  502    0 -0.13621174040E+02  0.15043171443E+02 -0.40134627072E+02  0.44973566453E+02  0.00000000000E+00 0. -1.
         -2    1    1    2    0  502  0.13621174040E+02 -0.15043171443E+02 -0.12177182970E+03  0.12345125312E+03  0.00000000000E+00 0. -1.
</event>
<event>
 4    1  0.5565417E+003  0.2102530E+02  0.7546771E-02  0.1518904E+00
          2   -1    0    0  501    0  0.00000000000E+00  0.00000000000E+00  0.10023395992E+04  0.10023395992E+04  0.00000000000E+00 0.  1.
         -2   -1    0    0    0  501 -0.00000000000E+00 -0.00000000000E+00 -0.47068099398E+00  0.47068099398E+00  0.00000000000E+00 0.  1.
          2    1    1    2  502    0  0.34503766859E+01  0.20740256837E+02  0.62677888293E+03  0.62713143076E+03  0.00000000000E+00 0.  1.
         -2    1    1    2    0  502 -0.34503766859E+01 -0.20740256837E+02  0.37509003527E+03  0.37567884944E+03  0.00000000000E+00 0.  1.
</event>
<event>
 4    1  0.5565417E+003  0.5135867E+02  0.7546771E-02  0.1292387E+00
          2   -1    0    0  501    0  0.00000000000E+00  0.00000000000E+00  0.94196582007E+03  0.94196582007E+03  0.00000000000E+00 0. -1.
         -2   -1    0    0    0  501 -0.00000000000E+00 -0.00000000000E+00 -0.57147776448E+01  0.57147776448E+01  0.00000000000E+00 0.  1.
          2    1    1    2  502    0 -0.23295318329E+02 -0.45771616262E+02  0.80651632818E+03  0.80814992441E+03  0.00000000000E+00 0. -1.
         -2    1    1    2    0  502  0.23295318329E+02  0.45771616262E+02  0.12973471425E+03  0.13953067330E+03  0.00000000000E+00 0.  1.
</event>
<event>
 4    1  0.5565417E+003  0.2718936E+02  0.7546771E-02  0.1445715E+00
          2   -1    0    0  501    0  0.00000000000E+00  0.00000000000E+00  0.14982664777E+02  0.14982664777E+02  0.00000000000E+00 0. -1.
         -2   -1    0    0    0  501 -0.00000000000E+00 -0.00000000000E+00 -0.85747958434E+03  0.85747958434E+03  0.00000000000E+00 0. -1.
          2    1    1    2  502    0 -0.11503612411E+01  0.27165013579E+02  0.22459153246E+01  0.27281961611E+02  0.00000000000E+00 0. -1.
         -2    1    1    2    0  502  0.11503612411E+01 -0.27165013579E+02 -0.84474283489E+03  0.84518028751E+03  0.00000000000E+00 0. -1.
</event>
<event>
 4    1  0.5565417E+003  0.3014110E+02  0.7546771E-02  0.1418374E+00
          2   -1    0    0  501    0  0.00000000000E+00  0.00000000000E+00  0.42246657723E+03  0.42246657723E+03  0.00000000000E+00 0.  1.
         -2   -1    0    0    0  501 -0.00000000000E+00 -0.00000000000E+00 -0.30782062464E+01  0.30782062464E+01  0.00000000000E+00 0.  1.
          2    1    1    2  502    0 -0.25926999059E+02  0.15371296615E+02  0.32650615772E+03  0.32789442976E+03  0.00000000000E+00 0.  1.
         -2    1    1    2    0  502  0.25926999059E+02 -0.15371296615E+02  0.92882213263E+02  0.97650353714E+02  0.00000000000E+00 0.  1.
</event>
<event>
 4    1  0.5565417E+003  0.2522676E+02  0.7546771E-02  0.1466283E+00
          2   -1    0    0  501    0  0.00000000000E+00  0.00000000000E+00  0.30314846790E+02  0.30314846790E+02  0.00000000000E+00 0. -1.
         -2   -1    0    0    0  501 -0.00000000000E+00 -0.00000000000E+00 -0.13874696397E+03  0.13874696397E+03  0.00000000000E+00 0.  1.
          2    1    1    2  502    0 -0.14869152050E+02  0.20378855446E+02  0.23657883760E+02  0.34584460325E+02  0.00000000000E+00 0. -1.
         -2    1    1    2    0  502  0.14869152050E+02 -0.20378855446E+02 -0.13209000094E+03  0.13447735044E+03  0.00000000000E+00 0.  1.
</event>
<event>
 4    1  0.5565417E+003  0.2074030E+02  0.7546771E-02  0.1523005E+00
          2   -1    0    0  501    0  0.00000000000E+00  0.00000000000E+00  0.18634328027E+02  0.18634328027E+02  0.00000000000E+00 0. -1.
         -2   -1    0    0    0  501 -0.00000000000E+00 -0.00000000000E+00 -0.89986604387E+02  0.89986604387E+02  0.00000000000E+00 0.  1.
          2    1    1    2  502    0  0.19529805464E+02  0.69818917211E+01  0.11152894868E+02  0.23548825393E+02  0.00000000000E+00 0. -1.
         -2    1    1    2    0  502 -0.19529805464E+02 -0.69818917211E+01 -0.82505171228E+02  0.85072107020E+02  0.00000000000E+00 0.  1.
</event>
<event>
 4    1  0.5565417E+003  0.2424185E+02  0.7546771E-02  0.1477466E+00
          2   -1    0    0  501    0  0.00000000000E+00  0.00000000000E+00  0.94781202454E+02  0.94781202454E+02  0.00000000000E+00 0. -1.
         -2   -1    0    0    0  501 -0.00000000000E+00 -0.00000000000E+00 -0.11693546874E+02  0.11693546874E+02  0.00000000000E+00 0. -1.
          2    1    1    2  502    0  0.14701631179E+02 -0.19275099000E+02  0.78032657185E+02  0.81711461792E+02  0.00000000000E+00 0. -1.
         -2    1    1    2    0  502 -0.14701631179E+02  0.19275099000E+02  0.50549983943E+01  0.24763287535E+02  0.00000000000E+00 0. -1.
</event>
<event>
 4    1  0.5565417E+003  0.2508083E+02  0.7546771E-02  0.1467901E+00
          2   -1    0    0  501    0  0.00000000000E+00  0.00000000000E+00  0.54819839256E+03  0.54819839256E+03  0.00000000000E+00 0. -1.
         -2   -1    0    0    0  501 -0.00000000000E+00 -0.00000000000E+00 -0.13060568947E+02  0.13060568947E+02  0.00000000000E+00 0.  1.
          2    1    1    2  502    0  0.15438124632E+02  0.19766441648E+02  0.53558717982E+03  0.53617410893E+03  0.00000000000E+00 0. -1.
         -2    1    1    2    0  502 -0.15438124632E+02 -0.19766441648E+02 -0.44935620459E+00  0.25084852572E+02  0.00000000000E+00 0.  1.
</event>
<event>
 4    1  0.5565417E+003  0.3053132E+02  0.7546771E-02  0.1415034E+00
          2   -1    0    0  501    0  0.00000000000E+00  0.00000000000E+00  0.17624307243E+04  0.17624307243E+04  0.00000000000E+00 0. -1.
         -2   -1    0    0    0  501 -0.00000000000E+00 -0.00000000000E+00 -0.69060286248E+01  0.69060286248E+01  0.00000000000E+00 0. -1.
          2    1    1    2  502    0  0.22807465755E+02 -0.20297316052E+02  0.17278792952E+04  0.17281490157E+04  0.00000000000E+00 0. -1.
         -2    1    1    2    0  502 -0.22807465755E+02  0.20297316052E+02  0.27645400446E+02  0.41187737239E+02  0.00000000000E+00 0. -1.
</event>
<event>
 4    1  0.5565417E+003  0.1214039E+03  0.7546771E-02  0.1131155E+00
          2   -1    0    0  501    0  0.00000000000E+00  0.00000000000E+00  0.21273303735E+03  0.21273303735E+03  0.00000000000E+00 0. -1.
         -2   -1    0    0    0  501 -0.00000000000E+00 -0.00000000000E+00 -0.82909998858E+02  0.82909998858E+02  0.00000000000E+00 0. -1.
          2    1    1    2  502    0 -0.10949804651E+03  0.52431664674E+02  0.12483891809E+03  0.17413689189E+03  0.00000000000E+00 0. -1.
         -2    1    1    2    0  502  0.10949804651E+03 -0.52431664674E+02  0.49841204049E+01  0.12150614431E+03  0.00000000000E+00 0. -1.
</event>
<event>
 4    1  0.5565417E+003  0.2296190E+02  0.7546771E-02  0.1492977E+00
          2   -1    0    0  501    0  0.00000000000E+00  0.00000000000E+00  0.16732113074E+02  0.16732113074E+02  0.00000000000E+00 0.  1.
         -2   -1    0    0    0  501 -0.00000000000E+00 -0.00000000000E+00 -0.12572975036E+03  0.12572975036E+03  0.00000000000E+00 0. -1.
          2    1    1    2  502    0  0.22562418457E+02  0.42644990668E+01  0.71632153489E+01  0.24053281128E+02  0.00000000000E+00 0.  1.
         -2    1    1    2    0  502 -0.22562418457E+02 -0.42644990668E+01 -0.11616085263E+03  0.11840858231E+03  0.00000000000E+00 0. -1.
</event>
<event>
 4    1  0.5565417E+003  0.2834980E+02  0.7546771E-02  0.1434501E+00
          2   -1    0    0  501    0  0.00000000000E+00  0.00000000000E+00  0.71083632619E+02  0.71083632619E+02  0.00000000000E+00 0. -1.
         -2   -1    0    0    0  501 -0.00000000000E+00 -0.00000000000E+00 -0.16512351580E+02  0.16512351580E+02  0.00000000000E+00 0. -1.
          2    1    1    2  502    0  0.23127916430E+02 -0.16395446875E+02  0.51877604834E+02  0.59118500319E+02  0.00000000000E+00 0. -1.
         -2    1    1    2    0  502 -0.23127916430E+02  0.16395446875E+02  0.26936762048E+01  0.28477483880E+02  0.00000000000E+00 0. -1.
</event>
<event>
 4    1  0.5565417E+003  0.2119154E+02  0.7546771E-02  0.1516548E+00
          2   -1    0    0  501    0  0.00000000000E+00  0.00000000000E+00  0.85107127498E+03  0.85107127498E+03  0.00000000000E+00 0.  1.
         -2   -1    0    0    0  501 -0.00000000000E+00 -0.00000000000E+00 -0.67093633120E+00  0.67093633120E+00  0.00000000000E+00 0.  1.
          2    1    1    2  502    0  0.21088944896E+02 -0.20827221253E+01  0.62199592911E+03  0.62235682463E+03  0.00000000000E+00 0.  1.
         -2    1    1    2    0  502 -0.21088944896E+02  0.20827221253E+01  0.22840440954E+03  0.22938538669E+03  0.00000000000E+00 0.  1.
</event>
<event>
 4    1  0.5565417E+003  0.2306370E+02  0.7546771E-02  0.1491700E+00
          2   -1    0    0  501    0  0.00000000000E+00  0.00000000000E+00  0.87238365632E+02  0.87238365632E+02  0.00000000000E+00 0.  1.
         -2   -1    0    0    0  501 -0.00000000000E+00 -0.00000000000E+00 -0.82859498040E+01  0.82859498040E+01  0.00000000000E+00 0.  1.
          2    1    1    2  502    0  0.19378969031E+02  0.12505593025E+02  0.64022333163E+02  0.68049933440E+02  0.00000000000E+00 0.  1.
         -2    1    1    2    0  502 -0.19378969031E+02 -0.12505593025E+02  0.14930082665E+02  0.27474381995E+02  0.00000000000E+00 0.  1.
</event>
<event>
 4    1  0.5565417E+003  0.2557570E+02  0.7546771E-02  0.1462465E+00
          2   -1    0    0  501    0  0.00000000000E+00  0.00000000000E+00  0.18402981857E+04  0.18402981857E+04  0.00000000000E+00 0. -1.
         -2   -1    0    0    0  501 -0.00000000000E+00 -0.00000000000E+00 -0.42120728373E+00  0.42120728373E+00  0.00000000000E+00 0. -1.
          2    1    1    2  502    0 -0.79894563562E+01  0.24295779023E+02  0.12836134036E+04  0.12838681732E+04  0.00000000000E+00 0. -1.
         -2    1    1    2    0  502  0.79894563562E+01 -0.24295779023E+02  0.55626357481E+03  0.55685121976E+03  0.00000000000E+00 0. -1.
</event>
<event>
 4    1  0.5565417E+003  0.3907557E+02  0.7546771E-02  0.1353990E+00
          2   -1    0    0  501    0  0.00000000000E+00  0.00000000000E+00  0.13356448770E+04  0.13356448770E+04  0.00000000000E+00 0. -1.
         -2   -1    0    0    0  501 -0.00000000000E+00 -0.00000000000E+00 -0.11994487955E+01  0.11994487955E+01  0.00000000000E+00 0. -1.
          2    1    1    2  502    0  0.35389108312E+02 -0.16568379750E+02  0.81198075371E+03  0.81292044173E+03  0.00000000000E+00 0. -1.
         -2    1    1    2    0  502 -0.35389108312E+02  0.16568379750E+02  0.52246467450E+03  0.52392388407E+03  0.00000000000E+00 0. -1.
</event>
<event>
 4    1  0.5565417E+003  0.2525958E+02  0.7546771E-02  0.1465920E+00
          2   -1    0    0  501    0  0.00000000000E+00  0.00000000000E+00  0.65776661883E+03  0.65776661883E+03  0.00000000000E+00 0.  1.
         -2   -1    0    0    0  501 -0.00000000000E+00 -0.00000000000E+00 -0.34256531823E+01  0.34256531823E+01  0.00000000000E+00 0. -1.
          2    1    1    2  502    0 -0.16147935766E+02 -0.19423967931E+02  0.60707369317E+03  0.60759897572E+03  0.00000000000E+00 0.  1.
         -2    1    1    2    0  502  0.16147935766E+02  0.19423967931E+02  0.47267272474E+02  0.53593296286E+02  0.00000000000E+00 0. -1.
</event>
<event>
 4    1  0.5565417E+003  0.2041822E+02  0.7546771E-02  0.1527736E+00
          2   -1    0    0  501    0  0.00000000000E+00  0.00000000000E+00  0.17346494921E+04  0.17346494921E+04  0.00000000000E+00 0.  1.
         -2   -1    0    0    0  501 -0.00000000000E+00 -0.00000000000E+00 -0.31743362232E+00  0.31743362232E+00  0.00000000000E+00 0.  1.
          2    1    1    2  502    0 -0.12742583170E+01  0.20378420274E+02  0.12946768112E+04  0.12948378081E+04  0.00000000000E+00 0.  1.
         -2    1    1    2    0  502  0.12742583170E+01 -0.20378420274E+02  0.43965524728E+03  0.44012911766E+03  0.00000000000E+00 0.  1.
</event>
<event>
 4    1  0.5565417E+003  0.2206416E+02  0.7546771E-02  0.1504596E+00
          2   -1    0    0  501    0  0.00000000000E+00  0.00000000000E+00  0.27409340321E+03  0.27409340321E+03  0.00000000000E+00 0. -1.
         -2   -1    0    0    0  501 -0.00000000000E+00 -0.00000000000E+00 -0.28655478416E+01  0.28655478416E+01  0.00000000000E+00 0. -1.
          2    1    1    2  502    0 -0.19671593741E+02  0.99927672909E+01  0.22099817259E+03  0.22209686915E+03  0.00000000000E+00 0. -1.
         -2    1    1    2    0  502  0.19671593741E+02 -0.99927672909E+01  0.50229682775E+02  0.54862081898E+02  0.00000000000E+00 0. -1.
</event>
<event>
 4    1  0.5565417E+003  0.2159018E+02  0.7546771E-02  0.1511003E+00
          2   -1    0    0  501    0  0.00000000000E+00  0.00000000000E+00  0.25407597624E+03  0.25407597624E+03  0.00000000000E+00 0. -1.
         -2   -1    0    0    0  501 -0.00000000000E+00 -0.00000000000E+00 -0.17203577301E+02  0.17203577301E+02  0.00000000000E+00 0.  1.
          2    1    1    2  502    0  0.18650512241E+02  0.10876318027E+02  0.24663965117E+03  0.24758282135E+03  0.00000000000E+00 0. -1.
         -2    1    1    2    0  502 -0.18650512241E+02 -0.10876318027E+02 -0.97672522236E+01  0.23696732194E+02  0.00000000000E+00 0.  1.
</event>
<event>
 4    1  0.5565417E+003  0.2196772E+02  0.7546771E-02  0.1505884E+00
          2   -1    0    0  501    0  0.00000000000E+00  0.00000000000E+00  0.77212444864E+00  0.77212444864E+00  0.00000000000E+00 0.  1.
         -2   -1    0    0    0  501 -0.00000000000E+00 -0.00000000000E+00 -0.65260573247E+03  0.65260573247E+03  0.00000000000E+00 0.  1.
          2    1    1    2  502    0 -0.14486140966E+02 -0.16514593164E+02 -0.39310381350E+03  0.39371714244E+03  0.00000000000E+00 0.  1.
         -2    1    1    2    0  502  0.14486140966E+02  0.16514593164E+02 -0.25872979452E+03  0.25966071447E+03  0.00000000000E+00 0.  1.
</event>
<event>
 4    1  0.6766172E+003  0.2432462E+02  0.7546771E-02  0.1476503E+00
          2   -1    0    0  501    0  0.00000000000E+00  0.00000000000E+00  0.16258744394E+04  0.16258744394E+04  0.00000000000E+00 0. -1.
         -2   -1    0    0    0  501 -0.00000000000E+00 -0.00000000000E+00 -0.11913438003E+03  0.11913438003E+03  0.00000000000E+00 0. -1.
          2    1    1    2  502    0 -0.18340860707E+02 -0.15978113732E+02  0.16245408019E+04  0.16247229008E+04  0.00000000000E+00 0. -1.
         -2    1    1    2    0  502  0.18340860707E+02  0.15978113732E+02 -0.11780074251E+03  0.12028591866E+03  0.00000000000E+00 0. -1.
</event>
<event>
 4    1  0.5565417E+003  0.3453733E+02  0.7546771E-02  0.1383845E+00
          2   -1    0    0  501    0  0.00000000000E+00  0.00000000000E+00  0.16777257153E+04  0.16777257153E+04  0.00000000000E+00 0. -1.
         -2   -1    0    0    0  501 -0.00000000000E+00 -0.00000000000E+00 -0.50589198259E+01  0.50589198259E+01  0.00000000000E+00 0. -1.
          2    1    1    2  502    0 -0.56644113991E+01 -0.34069658101E+02  0.16163636995E+04  0.16167326421E+04  0.00000000000E+00 0. -1.
         -2    1    1    2    0  502  0.56644113991E+01  0.34069658101E+02  0.56303096020E+02  0.66051993013E+02  0.00000000000E+00 0. -1.
</event>
<event>
 4    1  0.5565417E+003  0.2762722E+02  0.7546771E-02  0.1441407E+00
          2   -1    0    0  501    0  0.00000000000E+00  0.00000000000E+00  0.15987823228E+04  0.15987823228E+04  0.00000000000E+00 0. -1.
         -2   -1    0    0    0  501 -0.00000000000E+00 -0.00000000000E+00 -0.24388448457E+01  0.24388448457E+01  0.00000000000E+00 0.  1.
          2    1    1    2  502    0  0.94308407130E+00  0.27611117102E+02  0.15161593965E+04  0.15164110850E+04  0.00000000000E+00 0. -1.
         -2    1    1    2    0  502 -0.94308407130E+00 -0.27611117102E+02  0.80184081448E+02  0.84810082614E+02  0.00000000000E+00 0.  1.
</event>
<event>
 4    1  0.5565417E+003  0.2044611E+02  0.7546771E-02  0.1527322E+00
          2   -1    0    0  501    0  0.00000000000E+00  0.00000000000E+00  0.51794283148E+03  0.51794283148E+03  0.00000000000E+00 0.  1.
         -2   -1    0    0    0  501 -0.00000000000E+00 -0.00000000000E+00 -0.14394018229E+02  0.14394018229E+02  0.00000000000E+00 0.  1.
          2    1    1    2  502    0 -0.33029093611E+01 -0.20177562755E+02  0.51037268758E+03  0.51078207043E+03  0.00000000000E+00 0.  1.
         -2    1    1    2    0  502  0.33029093611E+01  0.20177562755E+02 -0.68238743259E+01  0.21554779279E+02  0.00000000000E+00 0.  1.
</event>
<event>
 4    1  0.5565417E+003  0.3947962E+02  0.7546771E-02  0.1351562E+00
          2   -1    0    0  501    0  0.00000000000E+00  0.00000000000E+00  0.17861845157E+04  0.17861845157E+04  0.00000000000E+00 0. -1.
         -2   -1    0    0    0  501 -0.00000000000E+00 -0.00000000000E+00 -0.15694706413E+02  0.15694706413E+02  0.00000000000E+00 0.  1.
          2    1    1    2  502    0 -0.36023693914E+02 -0.16153440475E+02  0.17607807263E+04  0.17612232698E+04  0.00000000000E+00 0. -1.
         -2    1    1    2    0  502  0.36023693914E+02  0.16153440475E+02  0.97090829986E+01  0.40655952271E+02  0.00000000000E+00 0.  1.
</event>
<event>
 4    1  0.5565417E+003  0.2023078E+02  0.7546771E-02  0.1530537E+00
          2   -1    0    0  501    0  0.00000000000E+00  0.00000000000E+00  0.26590757873E+03  0.26590757873E+03  0.00000000000E+00 0.  1.
         -2   -1    0    0    0  501 -0.00000000000E+00 -0.00000000000E+00 -0.13536898727E+02  0.13536898727E+02  0.00000000000E+00 0. -1.
          2    1    1    2  502    0 -0.16952659405E+02 -0.11040453871E+02  0.25772447053E+03  0.25851728568E+03  0.00000000000E+00 0.  1.
         -2    1    1    2    0  502  0.16952659405E+02  0.11040453871E+02 -0.53537905317E+01  0.20927191777E+02  0.00000000000E+00 0. -1.
</event>
<event>
 4    1  0.5565417E+003  0.2017116E+02  0.7546771E-02  0.1531435E+00
          2   -1    0    0  501    0  0.00000000000E+00  0.00000000000E+00  0.26856701925E+03  0.26856701925E+03  0.00000000000E+00 0.  1.
         -2   -1    0    0    0  501 -0.00000000000E+00 -0.00000000000E+00 -0.15595376986E+01  0.15595376986E+01  0.00000000000E+00 0.  1.
          2    1    1    2  502    0 -0.17604270829E+02 -0.98470992585E+01  0.15633151029E+03  0.15762746216E+03  0.00000000000E+00 0.  1.
         -2    1    1    2    0  502  0.17604270829E+02  0.98470992585E+01  0.11067597126E+03  0.11249909479E+03  0.00000000000E+00 0.  1.
</event>
<event>
 4    1  0.5565417E+003  0.2808875E+02  0.7546771E-02  0.1436968E+00
          2   -1    0    0  501    0  0.00000000000E+00  0.00000000000E+00  0.74450462493E+03  0.74450462493E+03  0.00000000000E+00 0.  1.
         -2   -1    0    0    0  501 -0.00000000000E+00 -0.00000000000E+00 -0.10321068882E+02  0.10321068882E+02  0.00000000000E+00 0. -1.
          2    1    1    2  502    0 -0.27080083130E+02  0.74597036138E+01  0.72460416751E+03  0.72514838320E+03  0.00000000000E+00 0.  1.
         -2    1    1    2    0  502  0.27080083130E+02 -0.74597036138E+01  0.95793885333E+01  0.29677310609E+02  0.00000000000E+00 0. -1.
</event>
<event>
 4    1  0.5565417E+003  0.2631536E+02  0.7546771E-02  0.1454609E+00
          2   -1    0    0  501    0  0.00000000000E+00  0.00000000000E+00  0.21706981719E+04  0.21706981719E+04  0.00000000000E+00 0.  1.
         -2   -1    0    0    0  501 -0.00000000000E+00 -0.00000000000E+00 -0.57830245569E+00  0.57830245569E+00  0.00000000000E+00 0. -1.
          2    1    1    2  502    0 -0.10633411991E+02 -0.24071327909E+02  0.18119912033E+04  0.18121822808E+04  0.00000000000E+00 0.  1.
         -2    1    1    2    0  502  0.10633411991E+02  0.24071327909E+02  0.35812866619E+03  0.35909419352E+03  0.00000000000E+00 0. -1.
</event>
<event>
 4    1  0.5565417E+003  0.3074968E+02  0.7546771E-02  0.1413191E+00
          2   -1    0    0  501    0  0.00000000000E+00  0.00000000000E+00  0.86023092706E+02  0.86023092706E+02  0.00000000000E+00 0.  1.
         -2   -1    0    0    0  501 -0.00000000000E+00 -0.00000000000E+00 -0.18014538159E+02  0.18014538159E+02  0.00000000000E+00 0.  1.
          2    1    1    2  502    0  0.10186729122E+02 -0.29013326999E+02  0.66483400721E+02  0.73250154711E+02  0.00000000000E+00 0.  1.
         -2    1    1    2    0  502 -0.10186729122E+02  0.29013326999E+02  0.15251538264E+01  0.30787476154E+02  0.00000000000E+00 0.  1.
</event>
<event>
 4    1  0.5565417E+003  0.4034949E+02  0.7546771E-02  0.1346450E+00
          2   -1    0    0  501    0  0.00000000000E+00  0.00000000000E+00  0.15971928174E+04  0.15971928174E+04  0.00000000000E+00 0. -1.
         -2   -1    0    0    0  501 -0.00000000000E+00 -0.00000000000E+00 -0.35827623975E+01  0.35827623975E+01  0.00000000000E+00 0.  1.
          2    1    1    2  502    0  0.12441313096E+02  0.38383522881E+02  0.14738252075E+04  0.14743774358E+04  0.00000000000E+00 0. -1.
         -2    1    1    2    0  502 -0.12441313096E+02 -0.38383522881E+02  0.11978484749E+03  0.12639814393E+03  0.00000000000E+00 0.  1.
</event>
<event>
 4    1  0.5565417E+003  0.3264437E+02  0.7546771E-02  0.1397926E+00
          2   -1    0    0  501    0  0.00000000000E+00  0.00000000000E+00  0.44224319159E+02  0.44224319159E+02  0.00000000000E+00 0.  1.
         -2   -1    0    0    0  501 -0.00000000000E+00 -0.00000000000E+00 -0.23032392928E+03  0.23032392928E+03  0.00000000000E+00 0. -1.
          2    1    1    2  502    0 -0.14282058685E+02 -0.29354346884E+02  0.36845148856E+02  0.49226211264E+02  0.00000000000E+00 0.  1.
         -2    1    1    2    0  502  0.14282058685E+02  0.29354346884E+02 -0.22294475898E+03  0.22532203717E+03  0.00000000000E+00 0. -1.
</event>
<event>
 4    1  0.5565417E+003  0.2262665E+02  0.7546771E-02  0.1497240E+00
          2   -1    0    0  501    0  0.00000000000E+00  0.00000000000E+00  0.24230998499E+01  0.24230998499E+01  0.00000000000E+00 0.  1.
         -2   -1    0    0    0  501 -0.00000000000E+00 -0.00000000000E+00 -0.27416962075E+03  0.27416962075E+03  0.00000000000E+00 0.  1.
          2    1    1    2  502    0  0.22359862105E+02 -0.34643642766E+01 -0.69640561792E+02  0.73224129219E+02  0.00000000000E+00 0.  1.
         -2    1    1    2    0  502 -0.22359862105E+02  0.34643642766E+01 -0.20210595911E+03  0.20336859138E+03  0.00000000000E+00 0.  1.
</event>
<event>
 4    1  0.5565417E+003  0.2140670E+02  0.7546771E-02  0.1513537E+00
          2   -1    0    0  501    0  0.00000000000E+00  0.00000000000E+00  0.86919334681E+03  0.86919334681E+03  0.00000000000E+00 0. -1.
         -2   -1    0    0    0  501 -0.00000000000E+00 -0.00000000000E+00 -0.18113138154E+01  0.18113138154E+01  0.00000000000E+00 0. -1.
          2    1    1    2  502    0  0.11791998916E+02  0.17866045048E+02  0.80037658864E+03  0.80066280696E+03  0.00000000000E+00 0. -1.
         -2    1    1    2    0  502 -0.11791998916E+02 -0.17866045048E+02  0.67005444352E+02  0.70341853664E+02  0.00000000000E+00 0. -1.
</event>
<event>
 4    1  0.5565417E+003  0.2375737E+02  0.7546771E-02  0.1483201E+00
          2   -1    0    0  501    0  0.00000000000E+00  0.00000000000E+00  0.44146921068E+03  0.44146921068E+03  0.00000000000E+00 0.  1.
         -2   -1    0    0    0  501 -0.00000000000E+00 -0.00000000000E+00 -0.25973876779E+01  0.25973876779E+01  0.00000000000E+00 0. -1.
          2    1    1    2  502    0  0.33272659704E+01  0.23523217987E+02  0.37765388982E+03  0.37840041356E+03  0.00000000000E+00 0.  1.
         -2    1    1    2    0  502 -0.33272659704E+01 -0.23523217987E+02  0.61217933180E+02  0.65666184799E+02  0.00000000000E+00 0. -1.
</event>
<event>
 4    1  0.5565417E+003  0.2672879E+02  0.7546771E-02  0.1450352E+00
          2   -1    0    0  501    0  0.00000000000E+00  0.00000000000E+00  0.39565606061E+02  0.39565606061E+02  0.00000000000E+00 0.  1.
         -2   -1    0    0    0  501 -0.00000000000E+00 -0.00000000000E+00 -0.58188898131E+03  0.58188898131E+03  0.00000000000E+00 0.  1.
          2    1    1    2  502    0  0.58801093396E+01  0.26073983109E+02  0.34706468753E+02  0.43806018472E+02  0.00000000000E+00 0.  1.
         -2    1    1    2    0  502 -0.58801093396E+01 -0.26073983109E+02 -0.57702984400E+03  0.57764856890E+03  0.00000000000E+00 0.  1.
</event>
<event>
 4    1  0.5565417E+003  0.2044275E+02  0.7546771E-02  0.1527372E+00
          2   -1    0    0  501    0  0.00000000000E+00  0.00000000000E+00  0.74724871075E+03  0.74724871075E+03  0.00000000000E+00 0.  1.
         -2   -1    0    0    0  501 -0.00000000000E+00 -0.00000000000E+00 -0.50857067770E+01  0.50857067770E+01  0.00000000000E+00 0. -1.
          2    1    1    2  502    0 -0.19520965244E+02 -0.60694315881E+01  0.72596352489E+03  0.72625129643E+03  0.00000000000E+00 0.  1.
         -2    1    1    2    0  502  0.19520965244E+02  0.60694315881E+01  0.16199479075E+02  0.26083121097E+02  0.00000000000E+00 0. -1.
</event>
<event>
 4    1  0.5565417E+003  0.2576510E+02  0.7546771E-02  0.1460423E+00
          2   -1    0    0  501    0  0.00000000000E+00  0.00000000000E+00  0.17916833857E+04  0.17916833857E+04  0.00000000000E+00 0.  1.
         -2   -1    0    0    0  501 -0.00000000000E+00 -0.00000000000E+00 -0.44285821422E+00  0.44285821422E+00  0.00000000000E+00 0.  1.
          2    1    1    2  502    0  0.20180617839E+02  0.16018210010E+02  0.12577913973E+04  0.12580552609E+04  0.00000000000E+00 0.  1.
         -2    1    1    2    0  502 -0.20180617839E+02 -0.16018210010E+02  0.53344913021E+03  0.53407098303E+03  0.00000000000E+00 0.  1.
</event>
<event>
 4    1  0.5565417E+003  0.2029713E+02  0.7546771E-02  0.1529541E+00
          2   -1    0    0  501    0  0.00000000000E+00  0.00000000000E+00  0.14199582286E+03  0.14199582286E+03  0.00000000000E+00 0. -1.
         -2   -1    0    0    0  501 -0.00000000000E+00 -0.00000000000E+00 -0.29017567650E+01  0.29017567650E+01  0.00000000000E+00 0.  1.
          2    1    1    2  502    0 -0.20205878450E+02 -0.19224727356E+01  0.70449355389E+02  0.73314971869E+02  0.00000000000E+00 0. -1.
         -2    1    1    2    0  502  0.20205878450E+02  0.19224727356E+01  0.68644710710E+02  0.71582607761E+02  0.00000000000E+00 0.  1.
</event>
<event>
 4    1  0.5565417E+003  0.2579146E+02  0.7546771E-02  0.1460141E+00
          2   -1    0    0  501    0  0.00000000000E+00  0.00000000000E+00  0.74441456143E+03  0.74441456143E+03  0.00000000000E+00 0. -1.
         -2   -1    0    0    0  501 -0.00000000000E+00 -0.00000000000E+00 -0.19035283766E+02  0.19035283766E+02  0.00000000000E+00 0. -1.
          2    1    1    2  502    0 -0.16690616518E+02 -0.19662728902E+02  0.73534706761E+03  0.73579923175E+03  0.00000000000E+00 0. -1.
         -2    1    1    2    0  502  0.16690616518E+02  0.19662728902E+02 -0.99677899513E+01  0.27650613449E+02  0.00000000000E+00 0. -1.
</event>
<event>
 4    1  0.5565417E+003  0.2245891E+02  0.7546771E-02  0.1499407E+00
          2   -1    0    0  501    0  0.00000000000E+00  0.00000000000E+00  0.16148485797E+03  0.16148485797E+03  0.00000000000E+00 0.  1.
         -2   -1    0    0    0  501 -0.00000000000E+00 -0.00000000000E+00 -0.38545011709E+01  0.38545011709E+01  0.00000000000E+00 0.  1.
          2    1    1    2  502    0  0.22435727310E+02 -0.10201572682E+01  0.11481602288E+03  0.11699197276E+03  0.00000000000E+00 0.  1.
         -2    1    1    2    0  502 -0.22435727310E+02  0.10201572682E+01  0.42814333923E+02  0.48347386383E+02  0.00000000000E+00 0.  1.
</event>
<event>
 4    1  0.5565417E+003  0.2081982E+02  0.7546771E-02  0.1521853E+00
          2   -1    0    0  501    0  0.00000000000E+00  0.00000000000E+00  0.98222388289E+03  0.98222388289E+03  0.00000000000E+00 0.  1.
         -2   -1    0    0    0  501 -0.00000000000E+00 -0.00000000000E+00 -0.19741350161E+02  0.19741350161E+02  0.00000000000E+00 0.  1.
          2    1    1    2  502    0  0.18640101785E+02 -0.92742381195E+01  0.97659260494E+03  0.97681450691E+03  0.00000000000E+00 0.  1.
         -2    1    1    2    0  502 -0.18640101785E+02  0.92742381195E+01 -0.14110072215E+02  0.25150726136E+02  0.00000000000E+00 0.  1.
</event>
<event>
 4    1  0.5565417E+003  0.2680124E+02  0.7546771E-02  0.1449615E+00
          2   -1    0    0  501    0  0.00000000000E+00  0.00000000000E+00  0.51331305260E+02  0.51331305260E+02  0.00000000000E+00 0. -1.
         -2   -1    0    0    0  501 -0.00000000000E+00 -0.00000000000E+00 -0.19601153008E+02  0.19601153008E+02  0.00000000000E+00 0. -1.
          2    1    1    2  502    0  0.25463980205E+00 -0.26800026387E+02  0.34834910474E+02  0.43951987936E+02  0.00000000000E+00 0. -1.
         -2    1    1    2    0  502 -0.25463980205E+00  0.26800026387E+02 -0.31047582220E+01  0.26980470333E+02  0.00000000000E+00 0. -1.
</event>
<event>
 4    1  0.5565417E+003  0.2360279E+02  0.7546771E-02  0.1485065E+00
          2   -1    0    0  501    0  0.00000000000E+00  0.00000000000E+00  0.18571651526E+02  0.18571651526E+02  0.00000000000E+00 0. -1.
         -2   -1    0    0    0  501 -0.00000000000E+00 -0.00000000000E+00 -0.53034758362E+02  0.53034758362E+02  0.00000000000E+00 0. -1.
          2    1    1    2  502    0 -0.11930591663E+02 -0.20365473935E+02  0.63657771371E+01  0.24446158483E+02  0.00000000000E+00 0. -1.
         -2    1    1    2    0  502  0.11930591663E+02  0.20365473935E+02 -0.40828883973E+02  0.47160251405E+02  0.00000000000E+00 0. -1.
</event>
<event>
 4    1  0.5565417E+003  0.2018027E+02  0.7546771E-02  0.1531298E+00
          2   -1    0    0  501    0  0.00000000000E+00  0.00000000000E+00  0.75813777491E+03  0.75813777491E+03  0.00000000000E+00 0. -1.
         -2   -1    0    0    0  501 -0.00000000000E+00 -0.00000000000E+00 -0.79964676520E+00  0.79964676520E+00  0.00000000000E+00 0.  1.
          2    1    1    2  502    0  0.86676337471E+01  0.18224038739E+02  0.59607841073E+03  0.59641991516E+03  0.00000000000E+00 0. -1.
         -2    1    1    2    0  502 -0.86676337471E+01 -0.18224038739E+02  0.16125971741E+03  0.16251750651E+03  0.00000000000E+00 0.  1.
</event>
<event>
 4    1  0.5565417E+003  0.4291208E+02  0.7546771E-02  0.1332217E+00
          2   -1    0    0  501    0  0.00000000000E+00  0.00000000000E+00  0.45938417711E+03  0.45938417711E+03  0.00000000000E+00 0. -1.
         -2   -1    0    0    0  501 -0.00000000000E+00 -0.00000000000E+00 -0.65179093629E+01  0.65179093629E+01  0.00000000000E+00 0.  1.
          2    1    1    2  502    0  0.33882825732E+02  0.26332496747E+02  0.37097556528E+03  0.37344921515E+03  0.00000000000E+00 0. -1.
         -2    1    1    2    0  502 -0.33882825732E+02 -0.26332496747E+02  0.81890702466E+02  0.92452871317E+02  0.00000000000E+00 0.  1.
</event>
<event>
 4    1  0.5565417E+003  0.2307289E+02  0.7546771E-02  0.1491585E+00
          2   -1    0    0  501    0  0.00000000000E+00  0.00000000000E+00  0.13032539269E+02  0.13032539269E+02  0.00000000000E+00 0. -1.
         -2   -1    0    0    0  501 -0.00000000000E+00 -0.00000000000E+00 -0.11216088325E+03  0.11216088325E+03  0.00000000000E+00 0.  1.
          2    1    1    2  502    0  0.10929348231E+02 -0.20320131090E+02  0.34881785869E+00  0.23075529337E+02  0.00000000000E+00 0. -1.
         -2    1    1    2    0  502 -0.10929348231E+02  0.20320131090E+02 -0.99477161840E+02  0.10211789318E+03  0.00000000000E+00 0.  1.
</event>
<event>
 4    1  0.5565417E+003  0.2010508E+02  0.7546771E-02  0.1532435E+00
          2   -1    0    0  501    0  0.00000000000E+00  0.00000000000E+00  0.44020078050E+01  0.44020078050E+01  0.00000000000E+00 0. -1.
         -2   -1    0    0    0  501 -0.00000000000E+00 -0.00000000000E+00 -0.56678319164E+03  0.56678319164E+03  0.00000000000E+00 0.  1.
          2    1    1    2  502    0  0.18965962812E+02  0.66713290952E+01 -0.19754129281E+02  0.28185812050E+02  0.00000000000E+00 0. -1.
         -2    1    1    2    0  502 -0.18965962812E+02 -0.66713290952E+01 -0.54262705455E+03  0.54299938740E+03  0.00000000000E+00 0.  1.
</event>
<event>
 4    1  0.5565417E+003  0.2194389E+02  0.7546771E-02  0.1506203E+00
          2   -1    0    0  501    0  0.00000000000E+00  0.00000000000E+00  0.10014145542E+04  0.10014145542E+04  0.00000000000E+00 0. -1.
         -2   -1    0    0    0  501 -0.00000000000E+00 -0.00000000000E+00 -0.68778036259E+00  0.68778036259E+00  0.00000000000E+00 0. -1.
          2    1    1    2  502    0 -0.21934428413E+02 -0.64444992479E+00  0.77519381837E+03  0.77550434590E+03  0.00000000000E+00 0. -1.
         -2    1    1    2    0  502  0.21934428413E+02  0.64444992479E+00  0.22553295542E+03  0.22659798862E+03  0.00000000000E+00 0. -1.
</event>
<event>
 4    1  0.5565417E+003  0.4151084E+02  0.7546771E-02  0.1339853E+00
          2   -1    0    0  501    0  0.00000000000E+00  0.00000000000E+00  0.14111849028E+04  0.14111849028E+04  0.00000000000E+00 0.  1.
         -2   -1    0    0    0  501 -0.00000000000E+00 -0.00000000000E+00 -0.14686320159E+02  0.14686320159E+02  0.00000000000E+00 0.  1.
          2    1    1    2  502    0 -0.19032261235E+02  0.36890685243E+02  0.13809040053E+04  0.13815277853E+04  0.00000000000E+00 0.  1.
         -2    1    1    2    0  502  0.19032261235E+02 -0.36890685243E+02  0.15594577376E+02  0.44343437721E+02  0.00000000000E+00 0.  1.
</event>
<event>
 4    1  0.5565417E+003  0.2247425E+02  0.7546771E-02  0.1499208E+00
          2   -1    0    0  501    0  0.00000000000E+00  0.00000000000E+00  0.49093340566E+01  0.49093340566E+01  0.00000000000E+00 0.  1.
         -2   -1    0    0    0  501 -0.00000000000E+00 -0.00000000000E+00 -0.10503025916E+03  0.10503025916E+03  0.00000000000E+00 0. -1.
          2    1    1    2  502    0  0.22402537204E+02 -0.17939794357E+01 -0.42202576646E+02  0.47813695851E+02  0.00000000000E+00 0.  1.
         -2    1    1    2    0  502 -0.22402537204E+02  0.17939794357E+01 -0.57918348459E+02  0.62125897367E+02  0.00000000000E+00 0. -1.
</event>
<event>
 4    1  0.5565417E+003  0.3595566E+02  0.7546771E-02  0.1373966E+00
          2   -1    0    0  501    0  0.00000000000E+00  0.00000000000E+00  0.22114075227E+02  0.22114075227E+02  0.00000000000E+00 0. -1.
         -2   -1    0    0    0  501 -0.00000000000E+00 -0.00000000000E+00 -0.15275798293E+03  0.15275798293E+03  0.00000000000E+00 0.  1.
          2    1    1    2  502    0 -0.27163567184E+02 -0.23557381027E+02  0.33750046631E+01  0.36113712624E+02  0.00000000000E+00 0. -1.
         -2    1    1    2    0  502  0.27163567184E+02  0.23557381027E+02 -0.13401891236E+03  0.13875834553E+03  0.00000000000E+00 0.  1.
</event>
<event>
 4    1  0.5565417E+003  0.5732386E+02  0.7546771E-02  0.1269207E+00
          2   -1    0    0  501    0  0.00000000000E+00  0.00000000000E+00  0.38962436297E+03  0.38962436297E+03  0.00000000000E+00 0.  1.
         -2   -1    0    0    0  501 -0.00000000000E+00 -0.00000000000E+00 -0.13421975230E+02  0.13421975230E+02  0.00000000000E+00 0.  1.
          2    1    1    2  502    0  0.64379589011E+01 -0.56961190429E+02  0.31095438351E+03  0.31619401189E+03  0.00000000000E+00 0.  1.
         -2    1    1    2    0  502 -0.64379589011E+01  0.56961190429E+02  0.65248004231E+02  0.86852326313E+02  0.00000000000E+00 0.  1.
</event>
<event>
 4    1  0.5565417E+003  0.4568335E+02  0.7546771E-02  0.1318057E+00
          2   -1    0    0  501    0  0.00000000000E+00  0.00000000000E+00  0.14585264114E+04  0.14585264114E+04  0.00000000000E+00 0. -1.
         -2   -1    0    0    0  501 -0.00000000000E+00 -0.00000000000E+00 -0.23161951927E+02  0.23161951927E+02  0.00000000000E+00 0.  1.
          2    1    1    2  502    0 -0.35126389815E+01  0.45548106527E+02  0.14352780879E+04  0.14360049298E+04  0.00000000000E+00 0. -1.
         -2    1    1    2    0  502  0.35126389815E+01 -0.45548106527E+02  0.86371538988E-01  0.45683433549E+02  0.00000000000E+00 0.  1.
</event>
<event>
 4    1  0.5565417E+003  0.3345362E+02  0.7546771E-02  0.1391773E+00
          2   -1    0    0  501    0  0.00000000000E+00  0.00000000000E+00  0.46327595165E+03  0.46327595165E+03  0.00000000000E+00 0. -1.
         -2   -1    0    0    0  501 -0.00000000000E+00 -0.00000000000E+00 -0.14703081948E+02  0.14703081948E+02  0.00000000000E+00 0. -1.
          2    1    1    2  502    0  0.33291772408E+02 -0.32867411788E+01  0.44276256562E+03  0.44402458748E+03  0.00000000000E+00 0. -1.
         -2    1    1    2    0  502 -0.33291772408E+02  0.32867411788E+01  0.58103040888E+01  0.33954446119E+02  0.00000000000E+00 0. -1.
</event>
<event>
 4    1  0.5565417E+003  0.2414350E+02  0.7546771E-02  0.1478618E+00
          2   -1    0    0  501    0  0.00000000000E+00  0.00000000000E+00  0.15950905311E+04  0.15950905311E+04  0.00000000000E+00 0. -1.
         -2   -1    0    0    0  501 -0.00000000000E+00 -0.00000000000E+00 -0.16296559594E+01  0.16296559594E+01  0.00000000000E+00 0.  1.
          2    1    1    2  502    0  0.17689639403E+02  0.16431230068E+02  0.14999025225E+04  0.15000968254E+04  0.00000000000E+00 0. -1.
         -2    1    1    2    0  502 -0.17689639403E+02 -0.16431230068E+02  0.93558352650E+02  0.96623361638E+02  0.00000000000E+00 0.  1.
</event>
<event>
 4    1  0.5565417E+003  0.2097067E+02  0.7546771E-02  0.1519684E+00
          2   -1    0    0  501    0  0.00000000000E+00  0.00000000000E+00  0.14743779857E+03  0.14743779857E+03  0.00000000000E+00 0.  1.
         -2   -1    0    0    0  501 -0.00000000000E+00 -0.00000000000E+00 -0.30049020391E+01  0.30049020391E+01  0.00000000000E+00 0. -1.
          2    1    1    2  502    0 -0.61536748844E+00 -0.20961638102E+02  0.78676097084E+02  0.81422952547E+02  0.00000000000E+00 0.  1.
         -2    1    1    2    0  502  0.61536748844E+00  0.20961638102E+02  0.65756799445E+02  0.69019748060E+02  0.00000000000E+00 0. -1.
</event>
<event>
 4    1  0.5565417E+003  0.2334182E+02  0.7546771E-02  0.1488250E+00
          2   -1    0    0  501    0  0.00000000000E+00  0.00000000000E+00  0.39359915114E+02  0.39359915114E+02  0.00000000000E+00 0.  1.
         -2   -1    0    0    0  501 -0.00000000000E+00 -0.00000000000E+00 -0.33924171691E+02  0.33924171691E+02  0.00000000000E+00 0. -1.
          2    1    1    2  502    0 -0.17572780666E+02 -0.15363525353E+02  0.30909797323E+02  0.38733139586E+02  0.00000000000E+00 0.  1.
         -2    1    1    2    0  502  0.17572780666E+02  0.15363525353E+02 -0.25474053900E+02  0.34550947219E+02  0.00000000000E+00 0. -1.
</event>
<event>
 4    1  0.5565417E+003  0.2091203E+02  0.7546771E-02  0.1520525E+00
          2   -1    0    0  501    0  0.00000000000E+00  0.00000000000E+00  0.22515394532E+02  0.22515394532E+02  0.00000000000E+00 0.  1.
         -2   -1    0    0    0  501 -0.00000000000E+00 -0.00000000000E+00 -0.82049416388E+02  0.82049416388E+02  0.00000000000E+00 0. -1.
          2    1    1    2  502    0 -0.73853294018E+01  0.19564505628E+02  0.15909943388E+02  0.26276211094E+02  0.00000000000E+00 0.  1.
         -2    1    1    2    0  502  0.73853294018E+01 -0.19564505628E+02 -0.75443965245E+02  0.78288599826E+02  0.00000000000E+00 0. -1.
</event>
<event>
 4    1  0.5565417E+003  0.3784966E+02  0.7546771E-02  0.1361569E+00
          2   -1    0    0  501    0  0.00000000000E+00  0.00000000000E+00  0.13235517010E+04  0.13235517010E+04  0.00000000000E+00 0.  1.
         -2   -1    0    0    0  501 -0.00000000000E+00 -0.00000000000E+00 -0.13294142177E+02  0.13294142177E+02  0.00000000000E+00 0. -1.
          2    1    1    2  502    0  0.10807630238E+01  0.37834230002E+02  0.12957630897E+04  0.12963157723E+04  0.00000000000E+00 0.  1.
         -2    1    1    2    0  502 -0.10807630238E+01 -0.37834230002E+02  0.14494469166E+02  0.40530070873E+02  0.00000000000E+00 0. -1.
</event>
<event>
 4    1  0.5565417E+003  0.2260796E+02  0.7546771E-02  0.1497481E+00
          2   -1    0    0  501    0  0.00000000000E+00  0.00000000000E+00  0.10209508289E+04  0.10209508289E+04  0.00000000000E+00 0. -1.
         -2   -1    0    0    0  501 -0.00000000000E+00 -0.00000000000E+00 -0.60871686439E+00  0.60871686439E+00  0.00000000000E+00 0. -1.
          2    1    1    2  502    0  0.97620277983E+01 -0.20391715951E+02  0.29493689669E+03  0.29580211679E+03  0.00000000000E+00 0. -1.
         -2    1    1    2    0  502 -0.97620277983E+01  0.20391715951E+02  0.72540521530E+03  0.72575742894E+03  0.00000000000E+00 0. -1.
</event>
<event>
 4    1  0.5565417E+003  0.2250594E+02  0.7546771E-02  0.1498797E+00
          2   -1    0    0  501    0  0.00000000000E+00  0.00000000000E+00  0.71636989256E+02  0.71636989256E+02  0.00000000000E+00 0. -1.
         -2   -1    0    0    0  501 -0.00000000000E+00 -0.00000000000E+00 -0.35014094645E+02  0.35014094645E+02  0.00000000000E+00 0.  1.
          2    1    1    2  502    0  0.19060933257E+02  0.11966538106E+02  0.65949511902E+02  0.69683967532E+02  0.00000000000E+00 0. -1.
         -2    1    1    2    0  502 -0.19060933257E+02 -0.11966538106E+02 -0.29326617292E+02  0.36967116369E+02  0.00000000000E+00 0.  1.
</event>
<event>
 4    1  0.5565417E+003  0.3402245E+02  0.7546771E-02  0.1387569E+00
          2   -1    0    0  501    0  0.00000000000E+00  0.00000000000E+00  0.10938912232E+04  0.10938912232E+04  0.00000000000E+00 0.  1.
         -2   -1    0    0    0  501 -0.00000000000E+00 -0.00000000000E+00 -0.69034911308E+01  0.69034911308E+01  0.00000000000E+00 0. -1.
          2    1    1    2  502    0  0.21047185545E+02 -0.26730943561E+02  0.10499548444E+04  0.10505059270E+04  0.00000000000E+00 0.  1.
         -2    1    1    2    0  502 -0.21047185545E+02  0.26730943561E+02  0.37032887667E+02  0.50288787339E+02  0.00000000000E+00 0. -1.
</event>
<event>
 4    1  0.5565417E+003  0.2276172E+02  0.7546771E-02  0.1495512E+00
          2   -1    0    0  501    0  0.00000000000E+00  0.00000000000E+00  0.71484501777E+03  0.71484501777E+03  0.00000000000E+00 0.  1.
         -2   -1    0    0    0  501 -0.00000000000E+00 -0.00000000000E+00 -0.10522264659E+01  0.10522264659E+01  0.00000000000E+00 0. -1.
          2    1    1    2  502    0  0.13902953567E+02  0.18022317649E+02  0.55658113909E+03  0.55704637189E+03  0.00000000000E+00 0.  1.
         -2    1    1    2    0  502 -0.13902953567E+02 -0.18022317649E+02  0.15721165221E+03  0.15885087234E+03  0.00000000000E+00 0. -1.
</event>
<event>
 4    1  0.5565417E+003  0.6192893E+02  0.7546771E-02  0.1253416E+00
          2   -1    0    0  501    0  0.00000000000E+00  0.00000000000E+00  0.54108834095E+03  0.54108834095E+03  0.00000000000E+00 0.  1.
         -2   -1    0    0    0  501 -0.00000000000E+00 -0.00000000000E+00 -0.74803470779E+01  0.74803470779E+01  0.00000000000E+00 0. -1.
          2    1    1    2  502    0 -0.49900603766E+02  0.36675855989E+02  0.20398053244E+03  0.21317421580E+03  0.00000000000E+00 0.  1.
         -2    1    1    2    0  502  0.49900603766E+02 -0.36675855989E+02  0.32962746143E+03  0.33539447222E+03  0.00000000000E+00 0. -1.
</event>
<event>
 4    1  0.5565417E+003  0.2790571E+02  0.7546771E-02  0.1438716E+00
          2   -1    0    0  501    0  0.00000000000E+00  0.00000000000E+00  0.80569362757E+03  0.80569362757E+03  0.00000000000E+00 0. -1.
         -2   -1    0    0    0  501 -0.00000000000E+00 -0.00000000000E+00 -0.19512818525E+01  0.19512818525E+01  0.00000000000E+00 0.  1.
          2    1    1    2  502    0  0.25457921745E+02 -0.11429045848E+02  0.68874661380E+03  0.68931170517E+03  0.00000000000E+00 0. -1.
         -2    1    1    2    0  502 -0.25457921745E+02  0.11429045848E+02  0.11499573193E+03  0.11833320426E+03  0.00000000000E+00 0.  1.
</event>
<event>
 4    1  0.5565417E+003  0.2554604E+02  0.7546771E-02  0.1462787E+00
          2   -1    0    0  501    0  0.00000000000E+00  0.00000000000E+00  0.81357123846E+03  0.81357123846E+03  0.00000000000E+00 0. -1.
         -2   -1    0    0    0  501 -0.00000000000E+00 -0.00000000000E+00 -0.40705844274E+01  0.40705844274E+01  0.00000000000E+00 0. -1.
          2    1    1    2  502    0  0.25328476888E+02 -0.33269540749E+01  0.77108251586E+03  0.77150557135E+03  0.00000000000E+00 0. -1.
         -2    1    1    2    0  502 -0.25328476888E+02  0.33269540749E+01  0.38418138170E+02  0.46136251531E+02  0.00000000000E+00 0. -1.
</event>
<event>
 4    1  0.5565417E+003  0.2475423E+02  0.7546771E-02  0.1471572E+00
          2   -1    0    0  501    0  0.00000000000E+00  0.00000000000E+00  0.31723719827E+01  0.31723719827E+01  0.00000000000E+00 0.  1.
         -2   -1    0    0    0  501 -0.00000000000E+00 -0.00000000000E+00 -0.60231441583E+03  0.60231441583E+03  0.00000000000E+00 0. -1.
          2    1    1    2  502    0 -0.10657132702E+02 -0.22342726792E+02 -0.50049939550E+02  0.55836980281E+02  0.00000000000E+00 0.  1.
         -2    1    1    2    0  502  0.10657132702E+02  0.22342726792E+02 -0.54909210430E+03  0.54964980753E+03  0.00000000000E+00 0. -1.
</event>
<event>
 4    1  0.5565417E+003  0.2801047E+02  0.7546771E-02  0.1437713E+00
          2   -1    0    0  501    0  0.00000000000E+00  0.00000000000E+00  0.47067637236E+03  0.47067637236E+03  0.00000000000E+00 0. -1.
         -2   -1    0    0    0  501 -0.00000000000E+00 -0.00000000000E+00 -0.33817352313E+01  0.33817352313E+01  0.00000000000E+00 0.  1.
          2    1    1    2  502    0 -0.13223402353E+02  0.24692676922E+02  0.40243417208E+03  0.40340779556E+03  0.00000000000E+00 0. -1.
         -2    1    1    2    0  502  0.13223402353E+02 -0.24692676922E+02  0.64860465048E+02  0.70650312028E+02  0.00000000000E+00 0.  1.
</event>
<event>
 4    1  0.5565417E+003  0.2932924E+02  0.7546771E-02  0.1425516E+00
          2   -1    0    0  501    0  0.00000000000E+00  0.00000000000E+00  0.13823056830E+04  0.13823056830E+04  0.00000000000E+00 0. -1.
         -2   -1    0    0    0  501 -0.00000000000E+00 -0.00000000000E+00 -0.83273072171E+00  0.83273072171E+00  0.00000000000E+00 0.  1.
          2    1    1    2  502    0  0.20000874378E+02 -0.21451559118E+02  0.10383856943E+04  0.10387998145E+04  0.00000000000E+00 0. -1.
         -2    1    1    2    0  502 -0.20000874378E+02  0.21451559118E+02  0.34308725788E+03  0.34433859918E+03  0.00000000000E+00 0.  1.
</event>
<event>
 4    1  0.5565417E+003  0.2463148E+02  0.7546771E-02  0.1472968E+00
          2   -1    0    0  501    0  0.00000000000E+00  0.00000000000E+00  0.52415972065E+02  0.52415972065E+02  0.00000000000E+00 0.  1.
         -2   -1    0    0    0  501 -0.00000000000E+00 -0.00000000000E+00 -0.19309882472E+03  0.19309882472E+03  0.00000000000E+00 0.  1.
          2    1    1    2  502    0  0.16780725708E+02 -0.18031006117E+02  0.48679901244E+02  0.54556784381E+02  0.00000000000E+00 0.  1.
         -2    1    1    2    0  502 -0.16780725708E+02  0.18031006117E+02 -0.18936275389E+03  0.19095801240E+03  0.00000000000E+00 0.  1.
</event>
<event>
 4    1  0.5565417E+003  0.2884965E+02  0.7546771E-02  0.1429863E+00
          2   -1    0    0  501    0  0.00000000000E+00  0.00000000000E+00  0.10843854588E+04  0.10843854588E+04  0.00000000000E+00 0. -1.
         -2   -1    0    0    0  501 -0.00000000000E+00 -0.00000000000E+00 -0.89491506678E+00  0.89491506678E+00  0.00000000000E+00 0. -1.
          2    1    1    2  502    0 -0.28827203549E+02  0.11377378606E+01  0.74647194198E+03  0.74702922451E+03  0.00000000000E+00 0. -1.
         -2    1    1    2    0  502  0.28827203549E+02 -0.11377378606E+01  0.33701860173E+03  0.33825114933E+03  0.00000000000E+00 0. -1.
</event>
<event>
 4    1  0.5565417E+003  0.2958608E+02  0.7546771E-02  0.1423228E+00
          2   -1    0    0  501    0  0.00000000000E+00  0.00000000000E+00  0.14338352907E+04  0.14338352907E+04  0.00000000000E+00 0. -1.
         -2   -1    0    0    0  501 -0.00000000000E+00 -0.00000000000E+00 -0.61515377555E+00  0.61515377555E+00  0.00000000000E+00 0.  1.
          2    1    1    2  502    0  0.70343603382E+01 -0.28737677644E+02  0.77908699370E+03  0.77964856191E+03  0.00000000000E+00 0. -1.
         -2    1    1    2    0  502 -0.70343603382E+01  0.28737677644E+02  0.65413314325E+03  0.65480188259E+03  0.00000000000E+00 0.  1.
</event>
<event>
 4    1  0.5565417E+003  0.3456544E+02  0.7546771E-02  0.1383644E+00
          2   -1    0    0  501    0  0.00000000000E+00  0.00000000000E+00  0.16394039389E+04  0.16394039389E+04  0.00000000000E+00 0. -1.
         -2   -1    0    0    0  501 -0.00000000000E+00 -0.00000000000E+00 -0.78438703811E+00  0.78438703811E+00  0.00000000000E+00 0. -1.
          2    1    1    2  502    0  0.34565169914E+02  0.13691576117E+00  0.10376590195E+04  0.10382345642E+04  0.00000000000E+00 0. -1.
         -2    1    1    2    0  502 -0.34565169914E+02 -0.13691576117E+00  0.60096053245E+03  0.60195376174E+03  0.00000000000E+00 0. -1.
</event>
<event>
 4    1  0.5565417E+003  0.3092924E+02  0.7546771E-02  0.1411689E+00
          2   -1    0    0  501    0  0.00000000000E+00  0.00000000000E+00  0.11200977008E+04  0.11200977008E+04  0.00000000000E+00 0. -1.
         -2   -1    0    0    0  501 -0.00000000000E+00 -0.00000000000E+00 -0.39739343218E+02  0.39739343218E+02  0.00000000000E+00 0. -1.
          2    1    1    2  502    0  0.28748346415E+02  0.11408358331E+02  0.11138322635E+04  0.11142616072E+04  0.00000000000E+00 0. -1.
         -2    1    1    2    0  502 -0.28748346415E+02 -0.11408358331E+02 -0.33473905934E+02  0.45575436804E+02  0.00000000000E+00 0. -1.
</event>
<event>
 4    1  0.5565417E+003  0.3014749E+02  0.7546771E-02  0.1418319E+00
          2   -1    0    0  501    0  0.00000000000E+00  0.00000000000E+00  0.15576630094E+02  0.15576630094E+02  0.00000000000E+00 0.  1.
         -2   -1    0    0    0  501 -0.00000000000E+00 -0.00000000000E+00 -0.11418780552E+03  0.11418780552E+03  0.00000000000E+00 0. -1.
          2    1    1    2  502    0 -0.11642265422E+02 -0.27808787260E+02 -0.39337543237E+01  0.30403049454E+02  0.00000000000E+00 0.  1.
         -2    1    1    2    0  502  0.11642265422E+02  0.27808787260E+02 -0.94677421105E+02  0.99361386163E+02  0.00000000000E+00 0. -1.
</event>
<event>
 4    1  0.5565417E+003  0.4330657E+02  0.7546771E-02  0.1330128E+00
          2   -1    0    0  501    0  0.00000000000E+00  0.00000000000E+00  0.14820619212E+03  0.14820619212E+03  0.00000000000E+00 0. -1.
         -2   -1    0    0    0  501 -0.00000000000E+00 -0.00000000000E+00 -0.32449509869E+02  0.32449509869E+02  0.00000000000E+00 0.  1.
          2    1    1    2  502    0 -0.30767952869E+02 -0.30476093508E+02  0.12842828250E+03  0.13553332780E+03  0.00000000000E+00 0. -1.
         -2    1    1    2    0  502  0.30767952869E+02  0.30476093508E+02 -0.12671600249E+02  0.45122374186E+02  0.00000000000E+00 0.  1.
</event>
<event>
 4    1  0.5565417E+003  0.8021962E+02  0.7546771E-02  0.1203339E+00
          2   -1    0    0  501    0  0.00000000000E+00  0.00000000000E+00  0.70468945639E+03  0.70468945639E+03  0.00000000000E+00 0.  1.
         -2   -1    0    0    0  501 -0.00000000000E+00 -0.00000000000E+00 -0.25999059166E+02  0.25999059166E+02  0.00000000000E+00 0.  1.
          2    1    1    2  502    0  0.37291535712E+02 -0.71024851972E+02  0.63361372155E+03  0.63867169686E+03  0.00000000000E+00 0.  1.
         -2    1    1    2    0  502 -0.37291535712E+02  0.71024851972E+02  0.45076675678E+02  0.92016818699E+02  0.00000000000E+00 0.  1.
</event>
<event>
 4    1  0.5565417E+003  0.2202583E+02  0.7546771E-02  0.1505107E+00
          2   -1    0    0  501    0  0.00000000000E+00  0.00000000000E+00  0.77552053545E+02  0.77552053545E+02  0.00000000000E+00 0.  1.
         -2   -1    0    0    0  501 -0.00000000000E+00 -0.00000000000E+00 -0.18661789661E+02  0.18661789661E+02  0.00000000000E+00 0.  1.
          2    1    1    2  502    0  0.11272188881E+02 -0.18922869817E+02  0.68668920499E+02  0.72114893654E+02  0.00000000000E+00 0.  1.
         -2    1    1    2    0  502 -0.11272188881E+02  0.18922869817E+02 -0.97786566150E+01  0.24098949551E+02  0.00000000000E+00 0.  1.
</event>
<event>
 4    1  0.5565417E+003  0.2641812E+02  0.7546771E-02  0.1453542E+00
          2   -1    0    0  501    0  0.00000000000E+00  0.00000000000E+00  0.50451303675E+03  0.50451303675E+03  0.00000000000E+00 0. -1.
         -2   -1    0    0    0  501 -0.00000000000E+00 -0.00000000000E+00 -0.88818552276E+02  0.88818552276E+02  0.00000000000E+00 0.  1.
          2    1    1    2  502    0  0.14468789240E+02  0.22103650194E+02  0.50219368668E+03  0.50288807518E+03  0.00000000000E+00 0. -1.
         -2    1    1    2    0  502 -0.14468789240E+02 -0.22103650194E+02 -0.86499202209E+02  0.90443513846E+02  0.00000000000E+00 0.  1.
</event>
<event>
 4    1  0.5565417E+003  0.2230627E+02  0.7546771E-02  0.1501398E+00
          2   -1    0    0  501    0  0.00000000000E+00  0.00000000000E+00  0.84639072111E+03  0.84639072111E+03  0.00000000000E+00 0.  1.
         -2   -1    0    0    0  501 -0.00000000000E+00 -0.00000000000E+00 -0.83403904567E+00  0.83403904567E+00  0.00000000000E+00 0.  1.
          2    1    1    2  502    0 -0.21872239659E+02 -0.43788251700E+01  0.19263900497E+03  0.19392615918E+03  0.00000000000E+00 0.  1.
         -2    1    1    2    0  502  0.21872239659E+02  0.43788251700E+01  0.65291767709E+03  0.65329860098E+03  0.00000000000E+00 0.  1.
</event>
<event>
 4    1  0.5565417E+003  0.2733996E+02  0.7546771E-02  0.1444223E+00
          2   -1    0    0  501    0  0.00000000000E+00  0.00000000000E+00  0.33192367084E+03  0.33192367084E+03  0.00000000000E+00 0. -1.
         -2   -1    0    0    0  501 -0.00000000000E+00 -0.00000000000E+00 -0.59247251778E+01  0.59247251778E+01  0.00000000000E+00 0.  1.
          2    1    1    2  502    0 -0.12558237874E+02 -0.24285063621E+02  0.29600058229E+03  0.29726052273E+03  0.00000000000E+00 0. -1.
         -2    1    1    2    0  502  0.12558237874E+02  0.24285063621E+02  0.29998363372E+02  0.40587873294E+02  0.00000000000E+00 0.  1.
</event>
<event>
 4    1  0.5565417E+003  0.2796787E+02  0.7546771E-02  0.1438121E+00
          2   -1    0    0  501    0  0.00000000000E+00  0.00000000000E+00  0.40703027826E+03  0.40703027826E+03  0.00000000000E+00 0. -1.
         -2   -1    0    0    0  501 -0.00000000000E+00 -0.00000000000E+00 -0.15324110058E+02  0.15324110058E+02  0.00000000000E+00 0.  1.
          2    1    1    2  502    0  0.18014995616E+02  0.21393022452E+02  0.39334548127E+03  0.39433852096E+03  0.00000000000E+00 0. -1.
         -2    1    1    2    0  502 -0.18014995616E+02 -0.21393022452E+02 -0.16393130663E+01  0.28015867361E+02  0.00000000000E+00 0.  1.
</event>
<event>
 4    1  0.5565417E+003  0.3107692E+02  0.7546771E-02  0.1410463E+00
          2   -1    0    0  501    0  0.00000000000E+00  0.00000000000E+00  0.14634907968E+03  0.14634907968E+03  0.00000000000E+00 0.  1.
         -2   -1    0    0    0  501 -0.00000000000E+00 -0.00000000000E+00 -0.11592356816E+03  0.11592356816E+03  0.00000000000E+00 0.  1.
          2    1    1    2  502    0 -0.21858607571E+02  0.22090186198E+02  0.14256182731E+03  0.14590973119E+03  0.00000000000E+00 0.  1.
         -2    1    1    2    0  502  0.21858607571E+02 -0.22090186198E+02 -0.11213631579E+03  0.11636291664E+03  0.00000000000E+00 0.  1.
</event>
<event>
 4    1  0.5565417E+003  0.2296251E+02  0.7546771E-02  0.1492969E+00
          2   -1    0    0  501    0  0.00000000000E+00  0.00000000000E+00  0.19259299741E+03  0.19259299741E+03  0.00000000000E+00 0.  1.
         -2   -1    0    0    0  501 -0.00000000000E+00 -0.00000000000E+00 -0.18680184906E+02  0.18680184906E+02  0.00000000000E+00 0.  1.
          2    1    1    2  502    0  0.11486676099E+01 -0.22933763358E+02  0.18454537595E+03  0.18596847239E+03  0.00000000000E+00 0.  1.
         -2    1    1    2    0  502 -0.11486676099E+01  0.22933763358E+02 -0.10632563445E+02  0.25304709926E+02  0.00000000000E+00 0.  1.
</event>
<event>
 4    1  0.5565417E+003  0.4132776E+02  0.7546771E-02  0.1340876E+00
          2   -1    0    0  501    0  0.00000000000E+00  0.00000000000E+00  0.14240126454E+04  0.14240126454E+04  0.00000000000E+00 0. -1.
         -2   -1    0    0    0  501 -0.00000000000E+00 -0.00000000000E+00 -0.10300073284E+02  0.10300073284E+02  0.00000000000E+00 0.  1.
          2    1    1    2  502    0 -0.40873883965E+02 -0.61081497112E+01  0.13809652014E+04  0.13815834652E+04  0.00000000000E+00 0. -1.
         -2    1    1    2    0  502  0.40873883965E+02  0.61081497112E+01  0.32747370740E+02  0.52729253491E+02  0.00000000000E+00 0.  1.
</event>
<event>
 4    1  0.5565417E+003  0.2303368E+02  0.7546771E-02  0.1492076E+00
          2   -1    0    0  501    0  0.00000000000E+00  0.00000000000E+00  0.14750963489E+04  0.14750963489E+04  0.00000000000E+00 0.  1.
         -2   -1    0    0    0  501 -0.00000000000E+00 -0.00000000000E+00 -0.80293575954E+01  0.80293575954E+01  0.00000000000E+00 0.  1.
          2    1    1    2  502    0 -0.10660184671E+02  0.20418396492E+02  0.14582970648E+04  0.14584789610E+04  0.00000000000E+00 0.  1.
         -2    1    1    2    0  502  0.10660184671E+02 -0.20418396492E+02  0.87699264899E+01  0.24646745488E+02  0.00000000000E+00 0.  1.
</event>
<event>
 4    1  0.5565417E+003  0.2082170E+02  0.7546771E-02  0.1521826E+00
          2   -1    0    0  501    0  0.00000000000E+00  0.00000000000E+00  0.31805599170E+02  0.31805599170E+02  0.00000000000E+00 0.  1.
         -2   -1    0    0    0  501 -0.00000000000E+00 -0.00000000000E+00 -0.43656692253E+02  0.43656692253E+02  0.00000000000E+00 0.  1.
          2    1    1    2  502    0 -0.13677903209E+02 -0.15698979860E+02  0.25365557960E+02  0.32816985472E+02  0.00000000000E+00 0.  1.
         -2    1    1    2    0  502  0.13677903209E+02  0.15698979860E+02 -0.37216651043E+02  0.42645305952E+02  0.00000000000E+00 0.  1.
</event>
<event>
 4    1  0.5565417E+003  0.2232631E+02  0.7546771E-02  0.1501136E+00
          2   -1    0    0  501    0  0.00000000000E+00  0.00000000000E+00  0.37390582762E+03  0.37390582762E+03  0.00000000000E+00 0.  1.
         -2   -1    0    0    0  501 -0.00000000000E+00 -0.00000000000E+00 -0.13151300427E+02  0.13151300427E+02  0.00000000000E+00 0. -1.
          2    1    1    2  502    0 -0.78830055154E+01 -0.20888328437E+02  0.36383494476E+03  0.36451931508E+03  0.00000000000E+00 0.  1.
         -2    1    1    2    0  502  0.78830055154E+01  0.20888328437E+02 -0.30804175658E+01  0.22537812964E+02  0.00000000000E+00 0. -1.
</event>
<event>
 4    1  0.5565417E+003  0.2269388E+02  0.7546771E-02  0.1496378E+00
          2   -1    0    0  501    0  0.00000000000E+00  0.00000000000E+00  0.15454640298E+02  0.15454640298E+02  0.00000000000E+00 0.  1.
         -2   -1    0    0    0  501 -0.00000000000E+00 -0.00000000000E+00 -0.21830721836E+03  0.21830721836E+03  0.00000000000E+00 0. -1.
          2    1    1    2  502    0  0.18886184594E+02 -0.12582697123E+02  0.61646348311E+01  0.23516270070E+02  0.00000000000E+00 0.  1.
         -2    1    1    2    0  502 -0.18886184594E+02  0.12582697123E+02 -0.20901721289E+03  0.21024558859E+03  0.00000000000E+00 0. -1.
</event>
<event>
 4    1  0.5565417E+003  0.2004063E+02  0.7546771E-02  0.1533415E+00
          2   -1    0    0  501    0  0.00000000000E+00  0.00000000000E+00  0.10986255552E+03  0.10986255552E+03  0.00000000000E+00 0. -1.
         -2   -1    0    0    0  501 -0.00000000000E+00 -0.00000000000E+00 -0.41652562349E+01  0.41652562349E+01  0.00000000000E+00 0.  1.
          2    1    1    2  502    0 -0.40374868294E+01 -0.19629710427E+02  0.72789658250E+02  0.75498087258E+02  0.00000000000E+00 0. -1.
         -2    1    1    2    0  502  0.40374868294E+01  0.19629710427E+02  0.32907641034E+02  0.38529724497E+02  0.00000000000E+00 0.  1.
</event>
<event>
 4    1  0.5565417E+003  0.2658644E+02  0.7546771E-02  0.1451807E+00
          2   -1    0    0  501    0  0.00000000000E+00  0.00000000000E+00  0.86280111120E+03  0.86280111120E+03  0.00000000000E+00 0. -1.
         -2   -1    0    0    0  501 -0.00000000000E+00 -0.00000000000E+00 -0.75691421649E+01  0.75691421649E+01  0.00000000000E+00 0.  1.
          2    1    1    2  502    0 -0.25159681122E+02  0.85923849535E+01  0.83857597910E+03  0.83899732500E+03  0.00000000000E+00 0. -1.
         -2    1    1    2    0  502  0.25159681122E+02 -0.85923849535E+01  0.16655989931E+02  0.31372928361E+02  0.00000000000E+00 0.  1.
</event>
<event>
 4    1  0.5565417E+003  0.2126034E+02  0.7546771E-02  0.1515580E+00
          2   -1    0    0  501    0  0.00000000000E+00  0.00000000000E+00  0.54707649599E+03  0.54707649599E+03  0.00000000000E+00 0. -1.
         -2   -1    0    0    0  501 -0.00000000000E+00 -0.00000000000E+00 -0.97021092586E+01  0.97021092586E+01  0.00000000000E+00 0.  1.
          2    1    1    2  502    0  0.18744131856E+02  0.10032925158E+02  0.53495922721E+03  0.53538152457E+03  0.00000000000E+00 0. -1.
         -2    1    1    2    0  502 -0.18744131856E+02 -0.10032925158E+02  0.24151595187E+01  0.21397080683E+02  0.00000000000E+00 0.  1.
</event>
<event>
 4    1  0.5565417E+003  0.2354641E+02  0.7546771E-02  0.1485748E+00
          2   -1    0    0  501    0  0.00000000000E+00  0.00000000000E+00  0.34512406995E+03  0.34512406995E+03  0.00000000000E+00 0. -1.
         -2   -1    0    0    0  501 -0.00000000000E+00 -0.00000000000E+00 -0.16945062270E+01  0.16945062270E+01  0.00000000000E+00 0. -1.
          2    1    1    2  502    0 -0.11389835885E+02 -0.20608374568E+02  0.21123935545E+03  0.21254763879E+03  0.00000000000E+00 0. -1.
         -2    1    1    2    0  502  0.11389835885E+02  0.20608374568E+02  0.13219020827E+03  0.13427093739E+03  0.00000000000E+00 0. -1.
</event>
<event>
 4    1  0.5565417E+003  0.3725949E+02  0.7546771E-02  0.1365339E+00
          2   -1    0    0  501    0  0.00000000000E+00  0.00000000000E+00  0.35390809630E+03  0.35390809630E+03  0.00000000000E+00 0. -1.
         -2   -1    0    0    0  501 -0.00000000000E+00 -0.00000000000E+00 -0.34501100551E+02  0.34501100551E+02  0.00000000000E+00 0.  1.
          2    1    1    2  502    0  0.30524072307E+02 -0.21367046357E+02  0.34253479067E+03  0.34455529670E+03  0.00000000000E+00 0. -1.
         -2    1    1    2    0  502 -0.30524072307E+02  0.21367046357E+02 -0.23127794928E+02  0.43853900151E+02  0.00000000000E+00 0.  1.
</event>
<event>
 4    1  0.5565417E+003  0.3965185E+02  0.7546771E-02  0.1350538E+00
          2   -1    0    0  501    0  0.00000000000E+00  0.00000000000E+00  0.34208975258E+03  0.34208975258E+03  0.00000000000E+00 0. -1.
         -2   -1    0    0    0  501 -0.00000000000E+00 -0.00000000000E+00 -0.46596709921E+01  0.46596709921E+01  0.00000000000E+00 0.  1.
          2    1    1    2  502    0  0.10577991759E+02  0.38214855661E+02  0.18897010137E+03  0.19308539126E+03  0.00000000000E+00 0. -1.
         -2    1    1    2    0  502 -0.10577991759E+02 -0.38214855661E+02  0.14845998022E+03  0.15366403232E+03  0.00000000000E+00 0.  1.
</event>
<event>
 4    1  0.5565417E+003  0.2569532E+02  0.7546771E-02  0.1461173E+00
          2   -1    0    0  501    0  0.00000000000E+00  0.00000000000E+00  0.20090009843E+01  0.20090009843E+01  0.00000000000E+00 0. -1.
         -2   -1    0    0    0  501 -0.00000000000E+00 -0.00000000000E+00 -0.93782314413E+03  0.93782314413E+03  0.00000000000E+00 0.  1.
          2    1    1    2  502    0 -0.22060633280E+02 -0.13174890383E+02 -0.89175265226E+02  0.92803433155E+02  0.00000000000E+00 0. -1.
         -2    1    1    2    0  502  0.22060633280E+02  0.13174890383E+02 -0.84663887792E+03  0.84702871196E+03  0.00000000000E+00 0.  1.
</event>
<event>
 4    1  0.5565417E+003  0.2974178E+02  0.7546771E-02  0.1421854E+00
          2   -1    0    0  501    0  0.00000000000E+00  0.00000000000E+00  0.81631360198E+02  0.81631360198E+02  0.00000000000E+00 0. -1.
         -2   -1    0    0    0  501 -0.00000000000E+00 -0.00000000000E+00 -0.31451417451E+03  0.31451417451E+03  0.00000000000E+00 0.  1.
          2    1    1    2  502    0  0.19657557653E+02  0.22319366170E+02  0.78189275293E+02  0.83654865070E+02  0.00000000000E+00 0. -1.
         -2    1    1    2    0  502 -0.19657557653E+02 -0.22319366170E+02 -0.31107208960E+03  0.31249066963E+03  0.00000000000E+00 0.  1.
</event>
<event>
 4    1  0.5565417E+003  0.2099609E+02  0.7546771E-02  0.1519321E+00
          2   -1    0    0  501    0  0.00000000000E+00  0.00000000000E+00  0.49697702852E+03  0.49697702852E+03  0.00000000000E+00 0. -1.
         -2   -1    0    0    0  501 -0.00000000000E+00 -0.00000000000E+00 -0.78530981849E+01  0.78530981849E+01  0.00000000000E+00 0.  1.
          2    1    1    2  502    0  0.15894135165E+02 -0.13719043586E+02  0.48229442297E+03  0.48275122591E+03  0.00000000000E+00 0. -1.
         -2    1    1    2    0  502 -0.15894135165E+02  0.13719043586E+02  0.68295073683E+01  0.22078900798E+02  0.00000000000E+00 0.  1.
</event>
<event>
 4    1  0.5565417E+003  0.2900732E+02  0.7546771E-02  0.1428423E+00
          2   -1    0    0  501    0  0.00000000000E+00  0.00000000000E+00  0.30272793185E+02  0.30272793185E+02  0.00000000000E+00 0. -1.
         -2   -1    0    0    0  501 -0.00000000000E+00 -0.00000000000E+00 -0.16519152961E+03  0.16519152961E+03  0.00000000000E+00 0.  1.
          2    1    1    2  502    0 -0.26047992203E+02  0.12764272288E+02  0.21672272725E+02  0.36209279887E+02  0.00000000000E+00 0. -1.
         -2    1    1    2    0  502  0.26047992203E+02 -0.12764272288E+02 -0.15659100915E+03  0.15925504291E+03  0.00000000000E+00 0.  1.
</event>
<event>
 4    1  0.5565417E+003  0.2556407E+02  0.7546771E-02  0.1462591E+00
          2   -1    0    0  501    0  0.00000000000E+00  0.00000000000E+00  0.45626561838E+03  0.45626561838E+03  0.00000000000E+00 0. -1.
         -2   -1    0    0    0  501 -0.00000000000E+00 -0.00000000000E+00 -0.19219989452E+01  0.19219989452E+01  0.00000000000E+00 0. -1.
          2    1    1    2  502    0  0.21569730705E+02  0.13721091730E+02  0.34280681294E+03  0.34375868373E+03  0.00000000000E+00 0. -1.
         -2    1    1    2    0  502 -0.21569730705E+02 -0.13721091730E+02  0.11153680650E+03  0.11442893360E+03  0.00000000000E+00 0. -1.
</event>
<event>
 4    1  0.5565417E+003  0.3219752E+02  0.7546771E-02  0.1401414E+00
          2   -1    0    0  501    0  0.00000000000E+00  0.00000000000E+00  0.10375368835E+04  0.10375368835E+04  0.00000000000E+00 0.  1.
         -2   -1    0    0    0  501 -0.00000000000E+00 -0.00000000000E+00 -0.15253175887E+01  0.15253175887E+01  0.00000000000E+00 0. -1.
          2    1    1    2  502    0 -0.10713202163E+02  0.30362934940E+02  0.82313465108E+03  0.82376412542E+03  0.00000000000E+00 0.  1.
         -2    1    1    2    0  502  0.10713202163E+02 -0.30362934940E+02  0.21287691479E+03  0.21529807563E+03  0.00000000000E+00 0. -1.
</event>
<event>
 4    1  0.5565417E+003  0.2003694E+02  0.7546771E-02  0.1533472E+00
          2   -1    0    0  501    0  0.00000000000E+00  0.00000000000E+00  0.34433405196E+03  0.34433405196E+03  0.00000000000E+00 0. -1.
         -2   -1    0    0    0  501 -0.00000000000E+00 -0.00000000000E+00 -0.21761360451E+01  0.21761360451E+01  0.00000000000E+00 0.  1.
          2    1    1    2  502    0  0.11271906311E+02 -0.16565722556E+02  0.28912242543E+03  0.28981590005E+03  0.00000000000E+00 0. -1.
         -2    1    1    2    0  502 -0.11271906311E+02  0.16565722556E+02  0.53035490487E+02  0.56694287956E+02  0.00000000000E+00 0.  1.
</event>
<event>
 4    1  0.5565417E+003  0.2840674E+02  0.7546771E-02  0.1433967E+00
          2   -1    0    0  501    0  0.00000000000E+00  0.00000000000E+00  0.12111215833E+03  0.12111215833E+03  0.00000000000E+00 0.  1.
         -2   -1    0    0    0  501 -0.00000000000E+00 -0.00000000000E+00 -0.95304331156E+01  0.95304331156E+01  0.00000000000E+00 0.  1.
          2    1    1    2  502    0  0.26182692061E+02 -0.11018591973E+02  0.91622145991E+02  0.95924764105E+02  0.00000000000E+00 0.  1.
         -2    1    1    2    0  502 -0.26182692061E+02  0.11018591973E+02  0.19959579228E+02  0.34717827345E+02  0.00000000000E+00 0.  1.
</event>
<event>
 4    1  0.5565417E+003  0.2022928E+02  0.7546771E-02  0.1530559E+00
          2   -1    0    0  501    0  0.00000000000E+00  0.00000000000E+00  0.18832884202E+03  0.18832884202E+03  0.00000000000E+00 0.  1.
         -2   -1    0    0    0  501 -0.00000000000E+00 -0.00000000000E+00 -0.15127750621E+03  0.15127750621E+03  0.00000000000E+00 0.  1.
          2    1    1    2  502    0  0.19419341638E+02  0.56668378819E+01  0.18710492046E+03  0.18819531116E+03  0.00000000000E+00 0.  1.
         -2    1    1    2    0  502 -0.19419341638E+02 -0.56668378819E+01 -0.15005358465E+03  0.15141103707E+03  0.00000000000E+00 0.  1.
</event>
<event>
 4    1  0.5565417E+003  0.2167311E+02  0.7546771E-02  0.1509868E+00
          2   -1    0    0  501    0  0.00000000000E+00  0.00000000000E+00  0.28743608220E+02  0.28743608220E+02  0.00000000000E+00 0.  1.
         -2   -1    0    0    0  501 -0.00000000000E+00 -0.00000000000E+00 -0.20389289394E+02  0.20389289394E+02  0.00000000000E+00 0. -1.
          2    1    1    2  502    0 -0.19332548854E+02  0.97967184953E+01 -0.67682654861E+01  0.22705342018E+02  0.00000000000E+00 0.  1.
         -2    1    1    2    0  502  0.19332548854E+02 -0.97967184953E+01  0.15122584312E+02  0.26427555596E+02  0.00000000000E+00 0. -1.
</event>
<event>
 4    1  0.5565417E+003  0.3898420E+02  0.7546771E-02  0.1354543E+00
          2   -1    0    0  501    0  0.00000000000E+00  0.00000000000E+00  0.22157281722E+04  0.22157281722E+04  0.00000000000E+00 0. -1.
         -2   -1    0    0    0  501 -0.00000000000E+00 -0.00000000000E+00 -0.18223288308E+01  0.18223288308E+01  0.00000000000E+00 0.  1.
          2    1    1    2  502    0 -0.38819690636E+02 -0.35775883200E+01  0.19825439626E+04  0.19829272128E+04  0.00000000000E+00 0. -1.
         -2    1    1    2    0  502  0.38819690636E+02  0.35775883200E+01  0.23136188077E+03  0.23462328826E+03  0.00000000000E+00 0.  1.
</event>
<event>
 4    1  0.5565417E+003  0.2170755E+02  0.7546771E-02  0.1509398E+00
          2   -1    0    0  501    0  0.00000000000E+00  0.00000000000E+00  0.61380305526E+03  0.61380305526E+03  0.00000000000E+00 0. -1.
         -2   -1    0    0    0  501 -0.00000000000E+00 -0.00000000000E+00 -0.17734745316E+01  0.17734745316E+01  0.00000000000E+00 0. -1.
          2    1    1    2  502    0  0.19279293240E+02 -0.99763039875E+01  0.53780200686E+03  0.53823992454E+03  0.00000000000E+00 0. -1.
         -2    1    1    2    0  502 -0.19279293240E+02  0.99763039875E+01  0.74227573873E+02  0.77336605254E+02  0.00000000000E+00 0. -1.
</event>
<event>
 4    1  0.5565417E+003  0.2053636E+02  0.7546771E-02  0.1525989E+00
          2   -1    0    0  501    0  0.00000000000E+00  0.00000000000E+00  0.10615600211E+03  0.10615600211E+03  0.00000000000E+00 0. -1.
         -2   -1    0    0    0  501 -0.00000000000E+00 -0.00000000000E+00 -0.39803190210E+01  0.39803190210E+01  0.00000000000E+00 0.  1.
          2    1    1    2  502    0 -0.12782564002E+02 -0.16073207761E+02  0.53473192661E+02  0.57281098834E+02  0.00000000000E+00 0.  1.
         -2    1    1    2    0  502  0.12782564002E+02  0.16073207761E+02  0.48702490428E+02  0.52855222297E+02  0.00000000000E+00 0. -1.
</event>
<event>
 4    1  0.5565417E+003  0.3069203E+02  0.7546771E-02  0.1413676E+00
          2   -1    0    0  501    0  0.00000000000E+00  0.00000000000E+00  0.11900119658E+03  0.11900119658E+03  0.00000000000E+00 0. -1.
         -2   -1    0    0    0  501 -0.00000000000E+00 -0.00000000000E+00 -0.89518243884E+02  0.89518243884E+02  0.00000000000E+00 0.  1.
          2    1    1    2  502    0  0.30573616791E+02 -0.26934704716E+01  0.11428479411E+03  0.11833433564E+03  0.00000000000E+00 0. -1.
         -2    1    1    2    0  502 -0.30573616791E+02  0.26934704716E+01 -0.84801841408E+02  0.90185104829E+02  0.00000000000E+00 0.  1.
</event>
<event>
 4    1  0.5565417E+003  0.2711905E+02  0.7546771E-02  0.1446416E+00
          2   -1    0    0  501    0  0.00000000000E+00  0.00000000000E+00  0.58591829666E+03  0.58591829666E+03  0.00000000000E+00 0. -1.
         -2   -1    0    0    0  501 -0.00000000000E+00 -0.00000000000E+00 -0.94207348516E+01  0.94207348516E+01  0.00000000000E+00 0. -1.
          2    1    1    2  502    0  0.18457045379E+02  0.19869084702E+02  0.56537930393E+03  0.56602932818E+03  0.00000000000E+00 0. -1.
         -2    1    1    2    0  502 -0.18457045379E+02 -0.19869084702E+02  0.11118257880E+02  0.29309703331E+02  0.00000000000E+00 0. -1.
</event>
<event>
 4    1  0.5565417E+003  0.3205118E+02  0.7546771E-02  0.1402571E+00
          2   -1    0    0  501    0  0.00000000000E+00  0.00000000000E+00  0.13153297492E+04  0.13153297492E+04  0.00000000000E+00 0.  1.
         -2   -1    0    0    0  501 -0.00000000000E+00 -0.00000000000E+00 -0.11610297867E+01  0.11610297867E+01  0.00000000000E+00 0.  1.
          2    1    1    2  502    0  0.29459861130E+02  0.12625152801E+02  0.10336776972E+04  0.10341744822E+04  0.00000000000E+00 0.  1.
         -2    1    1    2    0  502 -0.29459861130E+02 -0.12625152801E+02  0.28049102220E+03  0.28231629679E+03  0.00000000000E+00 0.  1.
</event>
<event>
 4    1  0.5565417E+003  0.2174085E+02  0.7546771E-02  0.1508945E+00
          2   -1    0    0  501    0  0.00000000000E+00  0.00000000000E+00  0.24566665743E+02  0.24566665743E+02  0.00000000000E+00 0.  1.
         -2   -1    0    0    0  501 -0.00000000000E+00 -0.00000000000E+00 -0.73432627062E+02  0.73432627062E+02  0.00000000000E+00 0.  1.
          2    1    1    2  502    0 -0.87104896152E+01 -0.19919631471E+02  0.17660829547E+02  0.28010163291E+02  0.00000000000E+00 0.  1.
         -2    1    1    2    0  502  0.87104896152E+01  0.19919631471E+02 -0.66526790865E+02  0.69989129514E+02  0.00000000000E+00 0.  1.
</event>
<event>
 4    1  0.5565417E+003  0.2156033E+02  0.7546771E-02  0.1511413E+00
          2   -1    0    0  501    0  0.00000000000E+00  0.00000000000E+00  0.16542024334E+02  0.16542024334E+02  0.00000000000E+00 0.  1.
         -2   -1    0    0    0  501 -0.00000000000E+00 -0.00000000000E+00 -0.29947736848E+02  0.29947736848E+02  0.00000000000E+00 0. -1.
          2    1    1    2  502    0  0.20793644555E+02  0.56984453372E+01 -0.93061843014E+00  0.21580407406E+02  0.00000000000E+00 0.  1.
         -2    1    1    2    0  502 -0.20793644555E+02 -0.56984453372E+01 -0.12475094084E+02  0.24909353776E+02  0.00000000000E+00 0. -1.
</event>
<event>
 4    1  0.5565417E+003  0.3477177E+02  0.7546771E-02  0.1382175E+00
          2   -1    0    0  501    0  0.00000000000E+00  0.00000000000E+00  0.65006016414E+03  0.65006016414E+03  0.00000000000E+00 0. -1.
         -2   -1    0    0    0  501 -0.00000000000E+00 -0.00000000000E+00 -0.16579521675E+03  0.16579521675E+03  0.00000000000E+00 0. -1.
          2    1    1    2  502    0 -0.27055379378E+02  0.21842224470E+02  0.64776557714E+03  0.64869817269E+03  0.00000000000E+00 0. -1.
         -2    1    1    2    0  502  0.27055379378E+02 -0.21842224470E+02 -0.16350062975E+03  0.16715720820E+03  0.00000000000E+00 0. -1.
</event>
<event>
 4    1  0.5565417E+003  0.2355707E+02  0.7546771E-02  0.1485619E+00
          2   -1    0    0  501    0  0.00000000000E+00  0.00000000000E+00  0.11180027006E+04  0.11180027006E+04  0.00000000000E+00 0. -1.
         -2   -1    0    0    0  501 -0.00000000000E+00 -0.00000000000E+00 -0.31519443038E+01  0.31519443038E+01  0.00000000000E+00 0. -1.
          2    1    1    2  502    0  0.21399898579E+02 -0.98478420410E+01  0.10719735314E+04  0.10722323384E+04  0.00000000000E+00 0. -1.
         -2    1    1    2    0  502 -0.21399898579E+02  0.98478420410E+01  0.42877224952E+02  0.48922306483E+02  0.00000000000E+00 0. -1.
</event>
<event>
 4    1  0.5565417E+003  0.2007011E+02  0.7546771E-02  0.1532967E+00
          2   -1    0    0  501    0  0.00000000000E+00  0.00000000000E+00  0.21219864320E+03  0.21219864320E+03  0.00000000000E+00 0.  1.
         -2   -1    0    0    0  501 -0.00000000000E+00 -0.00000000000E+00 -0.49968446366E+01  0.49968446366E+01  0.00000000000E+00 0.  1.
          2    1    1    2  502    0 -0.20000236810E+02 -0.16732869759E+01  0.18911823786E+03  0.19018022309E+03  0.00000000000E+00 0.  1.
         -2    1    1    2    0  502  0.20000236810E+02  0.16732869759E+01  0.18083560700E+02  0.27015264747E+02  0.00000000000E+00 0.  1.
</event>
<event>
 4    1  0.5565417E+003  0.2126598E+02  0.7546771E-02  0.1515501E+00
          2   -1    0    0  501    0  0.00000000000E+00  0.00000000000E+00  0.80499618987E+03  0.80499618987E+03  0.00000000000E+00 0.  1.
         -2   -1    0    0    0  501 -0.00000000000E+00 -0.00000000000E+00 -0.10732706069E+03  0.10732706069E+03  0.00000000000E+00 0.  1.
          2    1    1    2  502    0  0.21220370218E+02  0.13920694838E+01  0.80380075479E+03  0.80408202031E+03  0.00000000000E+00 0.  1.
         -2    1    1    2    0  502 -0.21220370218E+02 -0.13920694838E+01 -0.10613162561E+03  0.10824123025E+03  0.00000000000E+00 0.  1.
</event>
<event>
 4    1  0.5590890E+003  0.3206824E+02  0.7546771E-02  0.1402436E+00
          2   -1    0    0  501    0  0.00000000000E+00  0.00000000000E+00  0.13524633414E+04  0.13524633414E+04  0.00000000000E+00 0. -1.
         -2   -1    0    0    0  501 -0.00000000000E+00 -0.00000000000E+00 -0.76054783197E+02  0.76054783197E+02  0.00000000000E+00 0. -1.
          2    1    1    2  502    0 -0.12163560165E+02  0.29671868790E+02  0.13488839141E+04  0.13492650539E+04  0.00000000000E+00 0. -1.
         -2    1    1    2    0  502  0.12163560165E+02 -0.29671868790E+02 -0.72475355920E+02  0.79253070661E+02  0.00000000000E+00 0. -1.
</event>
<event>
 4    1  0.5565417E+003  0.2173654E+02  0.7546771E-02  0.1509003E+00
          2   -1    0    0  501    0  0.00000000000E+00  0.00000000000E+00  0.69107347090E+02  0.69107347090E+02  0.00000000000E+00 0. -1.
         -2   -1    0    0    0  501 -0.00000000000E+00 -0.00000000000E+00 -0.76685025119E+01  0.76685025119E+01  0.00000000000E+00 0.  1.
          2    1    1    2  502    0 -0.10340999768E+02 -0.19119126209E+02  0.43361186060E+02  0.48504326815E+02  0.00000000000E+00 0. -1.
         -2    1    1    2    0  502  0.10340999768E+02  0.19119126209E+02  0.18077658518E+02  0.28271522787E+02  0.00000000000E+00 0.  1.
</event>
<event>
 4    1  0.5565417E+003  0.2650199E+02  0.7546771E-02  0.1452676E+00
          2   -1    0    0  501    0  0.00000000000E+00  0.00000000000E+00  0.14292808752E+04  0.14292808752E+04  0.00000000000E+00 0. -1.
         -2   -1    0    0    0  501 -0.00000000000E+00 -0.00000000000E+00 -0.52535830227E+00  0.52535830227E+00  0.00000000000E+00 0. -1.
          2    1    1    2  502    0 -0.15761790055E+02 -0.21305428567E+02  0.89612274613E+03  0.89651454614E+03  0.00000000000E+00 0. -1.
         -2    1    1    2    0  502  0.15761790055E+02  0.21305428567E+02  0.53263277079E+03  0.53329168738E+03  0.00000000000E+00 0. -1.
</event>
<event>
 4    1  0.5565417E+003  0.2040714E+02  0.7546771E-02  0.1527900E+00
          2   -1    0    0  501    0  0.00000000000E+00  0.00000000000E+00  0.34272519042E+02  0.34272519042E+02  0.00000000000E+00 0. -1.
         -2   -1    0    0    0  501 -0.00000000000E+00 -0.00000000000E+00 -0.15468475322E+02  0.15468475322E+02  0.00000000000E+00 0.  1.
          2    1    1    2  502    0  0.14945207342E+02  0.13895756346E+02  0.20919391826E+02  0.29224514048E+02  0.00000000000E+00 0. -1.
         -2    1    1    2    0  502 -0.14945207342E+02 -0.13895756346E+02 -0.21153481069E+01  0.20516480316E+02  0.00000000000E+00 0.  1.
</event>
<event>
 4    1  0.5565417E+003  0.2113395E+02  0.7546771E-02  0.1517361E+00
          2   -1    0    0  501    0  0.00000000000E+00  0.00000000000E+00  0.18041212002E+02  0.18041212002E+02  0.00000000000E+00 0.  1.
         -2   -1    0    0    0  501 -0.00000000000E+00 -0.00000000000E+00 -0.25002504857E+02  0.25002504857E+02  0.00000000000E+00 0. -1.
          2    1    1    2  502    0 -0.44135964563E+01  0.20667951518E+02 -0.13474666990E+01  0.21176867572E+02  0.00000000000E+00 0.  1.
         -2    1    1    2    0  502  0.44135964563E+01 -0.20667951518E+02 -0.56138261556E+01  0.21866849287E+02  0.00000000000E+00 0. -1.
</event>
<event>
 4    1  0.5565417E+003  0.3439455E+02  0.7546771E-02  0.1384870E+00
          2   -1    0    0  501    0  0.00000000000E+00  0.00000000000E+00  0.25293115522E+03  0.25293115522E+03  0.00000000000E+00 0. -1.
         -2   -1    0    0    0  501 -0.00000000000E+00 -0.00000000000E+00 -0.19973113027E+02  0.19973113027E+02  0.00000000000E+00 0.  1.
          2    1    1    2  502    0 -0.30462277757E+02 -0.15969810092E+02  0.23589062311E+03  0.23838492249E+03  0.00000000000E+00 0. -1.
         -2    1    1    2    0  502  0.30462277757E+02  0.15969810092E+02 -0.29325809158E+01  0.34519345755E+02  0.00000000000E+00 0.  1.
</event>
<event>
 4    1  0.5565417E+003  0.2033283E+02  0.7546771E-02  0.1529007E+00
          2   -1    0    0  501    0  0.00000000000E+00  0.00000000000E+00  0.14631061775E+04  0.14631061775E+04  0.00000000000E+00 0.  1.
         -2   -1    0    0    0  501 -0.00000000000E+00 -0.00000000000E+00 -0.27314155330E+02  0.27314155330E+02  0.00000000000E+00 0. -1.
          2    1    1    2  502    0  0.31195470117E+01  0.20092095214E+02  0.14592415443E+04  0.14593831945E+04  0.00000000000E+00 0.  1.
         -2    1    1    2    0  502 -0.31195470117E+01 -0.20092095214E+02 -0.23449522149E+02  0.31037138281E+02  0.00000000000E+00 0. -1.
</event>
<event>
 4    1  0.5565417E+003  0.2380607E+02  0.7546771E-02  0.1482617E+00
          2   -1    0    0  501    0  0.00000000000E+00  0.00000000000E+00  0.64639811453E+03  0.64639811453E+03  0.00000000000E+00 0.  1.
         -2   -1    0    0    0  501 -0.00000000000E+00 -0.00000000000E+00 -0.18836335436E+01  0.18836335436E+01  0.00000000000E+00 0.  1.
          2    1    1    2  502    0  0.22654065607E+02  0.73158906723E+01  0.55924472614E+03  0.55975118817E+03  0.00000000000E+00 0.  1.
         -2    1    1    2    0  502 -0.22654065607E+02 -0.73158906723E+01  0.85269754844E+02  0.88530559899E+02  0.00000000000E+00 0.  1.
</event>
<event>
 4    1  0.5565417E+003  0.2137216E+02  0.7546771E-02  0.1514017E+00
          2   -1    0    0  501    0  0.00000000000E+00  0.00000000000E+00  0.45100917645E+03  0.45100917645E+03  0.00000000000E+00 0.  1.
         -2   -1    0    0    0  501 -0.00000000000E+00 -0.00000000000E+00 -0.38048921784E+02  0.38048921784E+02  0.00000000000E+00 0.  1.
          2    1    1    2  502    0  0.59093512780E+01  0.20538954796E+02  0.44773283849E+03  0.44824263938E+03  0.00000000000E+00 0.  1.
         -2    1    1    2    0  502 -0.59093512780E+01 -0.20538954796E+02 -0.34772583817E+02  0.40815458860E+02  0.00000000000E+00 0.  1.
</event>
<event>
 4    1  0.5565417E+003  0.3911107E+02  0.7546771E-02  0.1353775E+00
          2   -1    0    0  501    0  0.00000000000E+00  0.00000000000E+00  0.83115630254E+03  0.83115630254E+03  0.00000000000E+00 0.  1.
         -2   -1    0    0    0  501 -0.00000000000E+00 -0.00000000000E+00 -0.88815244313E+02  0.88815244313E+02  0.00000000000E+00 0. -1.
          2    1    1    2  502    0  0.92064828688E+01 -0.38012056876E+02  0.82636546860E+03  0.82729049522E+03  0.00000000000E+00 0.  1.
         -2    1    1    2    0  502 -0.92064828688E+01  0.38012056876E+02 -0.84024410367E+02  0.92681051635E+02  0.00000000000E+00 0. -1.
</event>
<event>
 4    1  0.5565417E+003  0.2118165E+02  0.7546771E-02  0.1516687E+00
          2   -1    0    0  501    0  0.00000000000E+00  0.00000000000E+00  0.13034221150E+04  0.13034221150E+04  0.00000000000E+00 0. -1.
         -2   -1    0    0    0  501 -0.00000000000E+00 -0.00000000000E+00 -0.48521281213E+00  0.48521281213E+00  0.00000000000E+00 0. -1.
          2    1    1    2  502    0  0.21040534470E+02  0.24409462997E+01  0.10029083274E+04  0.10031319830E+04  0.00000000000E+00 0. -1.
         -2    1    1    2    0  502 -0.21040534470E+02 -0.24409462997E+01  0.30002857487E+03  0.30077534482E+03  0.00000000000E+00 0. -1.
</event>
<event>
 4    1  0.5565417E+003  0.4995229E+02  0.7546771E-02  0.1298379E+00
          2   -1    0    0  501    0  0.00000000000E+00  0.00000000000E+00  0.18726120148E+04  0.18726120148E+04  0.00000000000E+00 0. -1.
         -2   -1    0    0    0  501 -0.00000000000E+00 -0.00000000000E+00 -0.27557421777E+01  0.27557421777E+01  0.00000000000E+00 0. -1.
          2    1    1    2  502    0  0.58110104886E+01 -0.49613136048E+02  0.16088019003E+04  0.16095772071E+04  0.00000000000E+00 0. -1.
         -2    1    1    2    0  502 -0.58110104886E+01  0.49613136048E+02  0.26105437232E+03  0.26579054991E+03  0.00000000000E+00 0. -1.
</event>
<event>
 4    1  0.5565417E+003  0.4300282E+02  0.7546771E-02  0.1331734E+00
          2   -1    0    0  501    0  0.00000000000E+00  0.00000000000E+00  0.48651756679E+03  0.48651756679E+03  0.00000000000E+00 0.  1.
         -2   -1    0    0    0  501 -0.00000000000E+00 -0.00000000000E+00 -0.27888640038E+02  0.27888640038E+02  0.00000000000E+00 0.  1.
          2    1    1    2  502    0  0.17688137182E+02 -0.39196589772E+02  0.46834856049E+03  0.47031863344E+03  0.00000000000E+00 0.  1.
         -2    1    1    2    0  502 -0.17688137182E+02  0.39196589772E+02 -0.97196337435E+01  0.44087573384E+02  0.00000000000E+00 0.  1.
</event>
<event>
 4    1  0.5565417E+003  0.2298448E+02  0.7546771E-02  0.1492693E+00
          2   -1    0    0  501    0  0.00000000000E+00  0.00000000000E+00  0.46002589135E+03  0.46002589135E+03  0.00000000000E+00 0.  1.
         -2   -1    0    0    0  501 -0.00000000000E+00 -0.00000000000E+00 -0.21766253795E+02  0.21766253795E+02  0.00000000000E+00 0. -1.
          2    1    1    2  502    0  0.96818172836E+00 -0.22964083152E+02  0.45358496447E+03  0.45416693680E+03  0.00000000000E+00 0.  1.
         -2    1    1    2    0  502 -0.96818172836E+00  0.22964083152E+02 -0.15325326916E+02  0.27625208342E+02  0.00000000000E+00 0. -1.
</event>
<event>
 4    1  0.5565417E+003  0.3115218E+02  0.7546771E-02  0.1409841E+00
          2   -1    0    0  501    0  0.00000000000E+00  0.00000000000E+00  0.71769827980E+02  0.71769827980E+02  0.00000000000E+00 0.  1.
         -2   -1    0    0    0  501 -0.00000000000E+00 -0.00000000000E+00 -0.88313442548E+02  0.88313442548E+02  0.00000000000E+00 0.  1.
          2    1    1    2  502    0  0.27283078385E+02  0.15036363931E+02  0.65387736841E+02  0.72429377573E+02  0.00000000000E+00 0.  1.
         -2    1    1    2    0  502 -0.27283078385E+02 -0.15036363931E+02 -0.81931351409E+02  0.87653892955E+02  0.00000000000E+00 0.  1.
</event>
<event>
 4    1  0.5565417E+003  0.2045831E+02  0.7546771E-02  0.1527141E+00
          2   -1    0    0  501    0  0.00000000000E+00  0.00000000000E+00  0.27649588965E+03  0.27649588965E+03  0.00000000000E+00 0.  1.
         -2   -1    0    0    0  501 -0.00000000000E+00 -0.00000000000E+00 -0.30795003774E+02  0.30795003774E+02  0.00000000000E+00 0. -1.
          2    1    1    2  502    0 -0.18269130272E+02 -0.92076718849E+01  0.27267206224E+03  0.27343846815E+03  0.00000000000E+00 0.  1.
         -2    1    1    2    0  502  0.18269130272E+02  0.92076718849E+01 -0.26971176360E+02  0.33852425270E+02  0.00000000000E+00 0. -1.
</event>
<event>
 4    1  0.5565417E+003  0.2154979E+02  0.7546771E-02  0.1511558E+00
          2   -1    0    0  501    0  0.00000000000E+00  0.00000000000E+00  0.74225103919E+03  0.74225103919E+03  0.00000000000E+00 0. -1.
         -2   -1    0    0    0  501 -0.00000000000E+00 -0.00000000000E+00 -0.34834887132E+02  0.34834887132E+02  0.00000000000E+00 0.  1.
          2    1    1    2  502    0 -0.60771970632E+01 -0.20675132941E+02  0.73874599719E+03  0.73906024234E+03  0.00000000000E+00 0. -1.
         -2    1    1    2    0  502  0.60771970632E+01  0.20675132941E+02 -0.31329845131E+02  0.38025683981E+02  0.00000000000E+00 0.  1.
</event>
<event>
 4    1  0.5565417E+003  0.2163456E+02  0.7546771E-02  0.1510395E+00
          2   -1    0    0  501    0  0.00000000000E+00  0.00000000000E+00  0.13658019676E+01  0.13658019676E+01  0.00000000000E+00 0.  1.
         -2   -1    0    0    0  501 -0.00000000000E+00 -0.00000000000E+00 -0.79834333284E+03  0.79834333284E+03  0.00000000000E+00 0.  1.
          2    1    1    2  502    0 -0.42519030302E+01  0.21212625466E+02 -0.96408833573E+02  0.98806464108E+02  0.00000000000E+00 0.  1.
         -2    1    1    2    0  502  0.42519030302E+01 -0.21212625466E+02 -0.70056869730E+03  0.70090267070E+03  0.00000000000E+00 0.  1.
</event>
<event>
 4    1  0.5565417E+003  0.2635563E+02  0.7546771E-02  0.1454191E+00
          2   -1    0    0  501    0  0.00000000000E+00  0.00000000000E+00  0.12440301482E+04  0.12440301482E+04  0.00000000000E+00 0. -1.
         -2   -1    0    0    0  501 -0.00000000000E+00 -0.00000000000E+00 -0.10682221120E+01  0.10682221120E+01  0.00000000000E+00 0. -1.
          2    1    1    2  502    0 -0.26282699153E+02 -0.19592697478E+01  0.10515799867E+04  0.10519102089E+04  0.00000000000E+00 0. -1.
         -2    1    1    2    0  502  0.26282699153E+02  0.19592697478E+01  0.19138193935E+03  0.19318816144E+03  0.00000000000E+00 0. -1.
</event>
<event>
 4    1  0.5565417E+003  0.2014209E+02  0.7546771E-02  0.1531875E+00
          2   -1    0    0  501    0  0.00000000000E+00  0.00000000000E+00  0.82272489258E+03  0.82272489258E+03  0.00000000000E+00 0. -1.
         -2   -1    0    0    0  501 -0.00000000000E+00 -0.00000000000E+00 -0.52734943812E+02  0.52734943812E+02  0.00000000000E+00 0. -1.
          2    1    1    2  502    0  0.20071929648E+02  0.16796774789E+01  0.82067348999E+03  0.82092063006E+03  0.00000000000E+00 0. -1.
         -2    1    1    2    0  502 -0.20071929648E+02 -0.16796774789E+01 -0.50683541226E+02  0.54539206333E+02  0.00000000000E+00 0. -1.
</event>
<event>
 4    1  0.5565417E+003  0.2628929E+02  0.7546771E-02  0.1454881E+00
          2   -1    0    0  501    0  0.00000000000E+00  0.00000000000E+00  0.13913828328E+04  0.13913828328E+04  0.00000000000E+00 0. -1.
         -2   -1    0    0    0  501 -0.00000000000E+00 -0.00000000000E+00 -0.57975227717E+00  0.57975227717E+00  0.00000000000E+00 0. -1.
          2    1    1    2  502    0  0.24280837352E+02  0.10078048272E+02  0.43200944118E+03  0.43280859902E+03  0.00000000000E+00 0. -1.
         -2    1    1    2    0  502 -0.24280837352E+02 -0.10078048272E+02  0.95879363932E+03  0.95915398603E+03  0.00000000000E+00 0. -1.
</event>
<event>
 4    1  0.5565417E+003  0.2232565E+02  0.7546771E-02  0.1501144E+00
          2   -1    0    0  501    0  0.00000000000E+00  0.00000000000E+00  0.28459087829E+03  0.28459087829E+03  0.00000000000E+00 0. -1.
         -2   -1    0    0    0  501 -0.00000000000E+00 -0.00000000000E+00 -0.10309402914E+02  0.10309402914E+02  0.00000000000E+00 0.  1.
          2    1    1    2  502    0  0.17282605302E+02  0.14133155389E+02  0.27148355928E+03  0.27239999539E+03  0.00000000000E+00 0. -1.
         -2    1    1    2    0  502 -0.17282605302E+02 -0.14133155389E+02  0.27979160936E+01  0.22500285815E+02  0.00000000000E+00 0.  1.
</event>
<event>
 4    1  0.5565417E+003  0.2393567E+02  0.7546771E-02  0.1481072E+00
          2   -1    0    0  501    0  0.00000000000E+00  0.00000000000E+00  0.80806192395E+01  0.80806192395E+01  0.00000000000E+00 0.  1.
         -2   -1    0    0    0  501 -0.00000000000E+00 -0.00000000000E+00 -0.96437130840E+02  0.96437130840E+02  0.00000000000E+00 0.  1.
          2    1    1    2  502    0 -0.17383490384E+02 -0.16453868574E+02 -0.71070333761E+02  0.74992718779E+02  0.00000000000E+00 0.  1.
         -2    1    1    2    0  502  0.17383490384E+02  0.16453868574E+02 -0.17286177839E+02  0.29525031300E+02  0.00000000000E+00 0.  1.
</event>
<event>
 4    1  0.5565417E+003  0.4085592E+02  0.7546771E-02  0.1343542E+00
          2   -1    0    0  501    0  0.00000000000E+00  0.00000000000E+00  0.20192774384E+04  0.20192774384E+04  0.00000000000E+00 0. -1.
         -2   -1    0    0    0  501 -0.00000000000E+00 -0.00000000000E+00 -0.85780677752E+00  0.85780677752E+00  0.00000000000E+00 0. -1.
          2    1    1    2  502    0 -0.11118475673E+02 -0.39313933031E+02  0.12017560490E+04  0.12024503346E+04  0.00000000000E+00 0. -1.
         -2    1    1    2    0  502  0.11118475673E+02  0.39313933031E+02  0.81666358268E+03  0.81768491065E+03  0.00000000000E+00 0. -1.
</event>
<event>
 4    1  0.5565417E+003  0.2269411E+02  0.7546771E-02  0.1496375E+00
          2   -1    0    0  501    0  0.00000000000E+00  0.00000000000E+00  0.16840468340E+03  0.16840468340E+03  0.00000000000E+00 0. -1.
         -2   -1    0    0    0  501 -0.00000000000E+00 -0.00000000000E+00 -0.45959956196E+01  0.45959956196E+01  0.00000000000E+00 0. -1.
          2    1    1    2  502    0 -0.21170700262E+02 -0.81746092533E+01  0.13193900471E+03  0.13387652427E+03  0.00000000000E+00 0. -1.
         -2    1    1    2    0  502  0.21170700262E+02  0.81746092533E+01  0.31869683066E+02  0.39124154748E+02  0.00000000000E+00 0. -1.
</event>
<event>
 4    1  0.5565417E+003  0.2850671E+02  0.7546771E-02  0.1433033E+00
          2   -1    0    0  501    0  0.00000000000E+00  0.00000000000E+00  0.32224204325E+03  0.32224204325E+03  0.00000000000E+00 0. -1.
         -2   -1    0    0    0  501 -0.00000000000E+00 -0.00000000000E+00 -0.21255995488E+02  0.21255995488E+02  0.00000000000E+00 0. -1.
          2    1    1    2  502    0 -0.15322338021E+02 -0.24038688702E+02  0.31173234886E+03  0.31303304925E+03  0.00000000000E+00 0. -1.
         -2    1    1    2    0  502  0.15322338021E+02  0.24038688702E+02 -0.10746301101E+02  0.30464989485E+02  0.00000000000E+00 0. -1.
</event>
<event>
 4    1  0.5565417E+003  0.3968089E+02  0.7546771E-02  0.1350366E+00
          2   -1    0    0  501    0  0.00000000000E+00  0.00000000000E+00  0.83761348792E+03  0.83761348792E+03  0.00000000000E+00 0. -1.
         -2   -1    0    0    0  501 -0.00000000000E+00 -0.00000000000E+00 -0.24237886783E+02  0.24237886783E+02  0.00000000000E+00 0.  1.
          2    1    1    2  502    0  0.28813616814E+02  0.27282757339E+02  0.82056548092E+03  0.82152436473E+03  0.00000000000E+00 0. -1.
         -2    1    1    2    0  502 -0.28813616814E+02 -0.27282757339E+02 -0.71898797867E+01  0.40327009972E+02  0.00000000000E+00 0.  1.
</event>
<event>
 4    1  0.5565417E+003  0.2019306E+02  0.7546771E-02  0.1531105E+00
          2   -1    0    0  501    0  0.00000000000E+00  0.00000000000E+00  0.54466793225E+01  0.54466793225E+01  0.00000000000E+00 0. -1.
         -2   -1    0    0    0  501 -0.00000000000E+00 -0.00000000000E+00 -0.10039585889E+03  0.10039585889E+03  0.00000000000E+00 0.  1.
          2    1    1    2  502    0  0.40193014107E+00 -0.20189055992E+02 -0.20786676586E+02  0.28980087184E+02  0.00000000000E+00 0. -1.
         -2    1    1    2    0  502 -0.40193014107E+00  0.20189055992E+02 -0.74162502986E+02  0.76862451033E+02  0.00000000000E+00 0.  1.
</event>
<event>
 4    1  0.5565417E+003  0.2915113E+02  0.7546771E-02  0.1427119E+00
          2   -1    0    0  501    0  0.00000000000E+00  0.00000000000E+00  0.16897715055E+04  0.16897715055E+04  0.00000000000E+00 0. -1.
         -2   -1    0    0    0  501 -0.00000000000E+00 -0.00000000000E+00 -0.51828576395E+00  0.51828576395E+00  0.00000000000E+00 0. -1.
          2    1    1    2  502    0 -0.27280383776E+02  0.10274682091E+02  0.99023503750E+03  0.99066402878E+03  0.00000000000E+00 0. -1.
         -2    1    1    2    0  502  0.27280383776E+02 -0.10274682091E+02  0.69901818221E+03  0.69962576246E+03  0.00000000000E+00 0. -1.
</event>
<event>
 4    1  0.5565417E+003  0.3548697E+02  0.7546771E-02  0.1377172E+00
          2   -1    0    0  501    0  0.00000000000E+00  0.00000000000E+00  0.61205937143E+01  0.61205937143E+01  0.00000000000E+00 0. -1.
         -2   -1    0    0    0  501 -0.00000000000E+00 -0.00000000000E+00 -0.31194629082E+03  0.31194629082E+03  0.00000000000E+00 0. -1.
          2    1    1    2  502    0  0.35158316442E+02 -0.48184855773E+01 -0.60123329536E+02  0.69815039732E+02  0.00000000000E+00 0. -1.
         -2    1    1    2    0  502 -0.35158316442E+02  0.48184855773E+01 -0.24570236757E+03  0.24825184480E+03  0.00000000000E+00 0. -1.
</event>
<event>
 4    1  0.5565417E+003  0.2051834E+02  0.7546771E-02  0.1526254E+00
          2   -1    0    0  501    0  0.00000000000E+00  0.00000000000E+00  0.84882332145E+01  0.84882332145E+01  0.00000000000E+00 0. -1.
         -2   -1    0    0    0  501 -0.00000000000E+00 -0.00000000000E+00 -0.86666380519E+02  0.86666380519E+02  0.00000000000E+00 0.  1.
          2    1    1    2  502    0  0.20256180568E+02 -0.32694893589E+01 -0.79737554440E+01  0.22013250276E+02  0.00000000000E+00 0. -1.
         -2    1    1    2    0  502 -0.20256180568E+02  0.32694893589E+01 -0.70204391861E+02  0.73141363457E+02  0.00000000000E+00 0.  1.
</event>
<event>
 4    1  0.5565417E+003  0.4876102E+02  0.7546771E-02  0.1303635E+00
          2   -1    0    0  501    0  0.00000000000E+00  0.00000000000E+00  0.21494679357E+03  0.21494679357E+03  0.00000000000E+00 0. -1.
         -2   -1    0    0    0  501 -0.00000000000E+00 -0.00000000000E+00 -0.79436637224E+02  0.79436637224E+02  0.00000000000E+00 0.  1.
          2    1    1    2  502    0  0.82673180568E+00  0.48754011675E+02  0.20431460384E+03  0.21005259933E+03  0.00000000000E+00 0. -1.
         -2    1    1    2    0  502 -0.82673180568E+00 -0.48754011675E+02 -0.68804447500E+02  0.84330831466E+02  0.00000000000E+00 0.  1.
</event>
<event>
 4    1  0.5565417E+003  0.2053413E+02  0.7546771E-02  0.1526021E+00
          2   -1    0    0  501    0  0.00000000000E+00  0.00000000000E+00  0.32539916211E+01  0.32539916211E+01  0.00000000000E+00 0.  1.
         -2   -1    0    0    0  501 -0.00000000000E+00 -0.00000000000E+00 -0.12998637904E+03  0.12998637904E+03  0.00000000000E+00 0.  1.
          2    1    1    2  502    0 -0.18033377017E+02 -0.98207941999E+01 -0.59639044587E+02  0.63075084816E+02  0.00000000000E+00 0.  1.
         -2    1    1    2    0  502  0.18033377017E+02  0.98207941999E+01 -0.67093342835E+02  0.70165285848E+02  0.00000000000E+00 0.  1.
</event>
<event>
 4    1  0.5565417E+003  0.2054830E+02  0.7546771E-02  0.1525813E+00
          2   -1    0    0  501    0  0.00000000000E+00  0.00000000000E+00  0.10683282420E+04  0.10683282420E+04  0.00000000000E+00 0.  1.
         -2   -1    0    0    0  501 -0.00000000000E+00 -0.00000000000E+00 -0.60217049488E+01  0.60217049488E+01  0.00000000000E+00 0. -1.
          2    1    1    2  502    0  0.17756082143E+02  0.10341864385E+02  0.10504006672E+04  0.10506016344E+04  0.00000000000E+00 0.  1.
         -2    1    1    2    0  502 -0.17756082143E+02 -0.10341864385E+02  0.11905869911E+02  0.23748312579E+02  0.00000000000E+00 0. -1.
</event>
<event>
 4    1  0.5565417E+003  0.2281158E+02  0.7546771E-02  0.1494878E+00
          2   -1    0    0  501    0  0.00000000000E+00  0.00000000000E+00  0.85902621191E+03  0.85902621191E+03  0.00000000000E+00 0. -1.
         -2   -1    0    0    0  501 -0.00000000000E+00 -0.00000000000E+00 -0.11626485370E+01  0.11626485370E+01  0.00000000000E+00 0. -1.
          2    1    1    2  502    0  0.17477673065E+02 -0.14659437516E+02  0.72659262979E+03  0.72695062957E+03  0.00000000000E+00 0. -1.
         -2    1    1    2    0  502 -0.17477673065E+02  0.14659437516E+02  0.13127093358E+03  0.13323823088E+03  0.00000000000E+00 0. -1.
</event>
<event>
 4    1  0.5565417E+003  0.2664345E+02  0.7546771E-02  0.1451223E+00
          2   -1    0    0  501    0  0.00000000000E+00  0.00000000000E+00  0.40578695362E+03  0.40578695362E+03  0.00000000000E+00 0.  1.
         -2   -1    0    0    0  501 -0.00000000000E+00 -0.00000000000E+00 -0.24568371052E+01  0.24568371052E+01  0.00000000000E+00 0.  1.
          2    1    1    2  502    0  0.26438626248E+02 -0.32973759591E+01  0.31120006286E+03  0.31233852272E+03  0.00000000000E+00 0.  1.
         -2    1    1    2    0  502 -0.26438626248E+02  0.32973759591E+01  0.92130053647E+02  0.95905268005E+02  0.00000000000E+00 0.  1.
</event>
<event>
 4    1  0.5565417E+003  0.2391515E+02  0.7546771E-02  0.1481315E+00
          2   -1    0    0  501    0  0.00000000000E+00  0.00000000000E+00  0.70349522102E+01  0.70349522102E+01  0.00000000000E+00 0. -1.
         -2   -1    0    0    0  501 -0.00000000000E+00 -0.00000000000E+00 -0.33592118274E+03  0.33592118274E+03  0.00000000000E+00 0.  1.
          2    1    1    2  502    0  0.22731319363E+02 -0.74311335843E+01 -0.15150612793E+02  0.28310346065E+02  0.00000000000E+00 0. -1.
         -2    1    1    2    0  502 -0.22731319363E+02  0.74311335843E+01 -0.31373561774E+03  0.31464578889E+03  0.00000000000E+00 0.  1.
</event>
<event>
 4    1  0.5565417E+003  0.4250000E+02  0.7546771E-02  0.1334427E+00
          2   -1    0    0  501    0  0.00000000000E+00  0.00000000000E+00  0.65807138336E+03  0.65807138336E+03  0.00000000000E+00 0.  1.
         -2   -1    0    0    0  501 -0.00000000000E+00 -0.00000000000E+00 -0.62279680347E+01  0.62279680347E+01  0.00000000000E+00 0. -1.
          2    1    1    2  502    0 -0.28091704173E+02 -0.31892106004E+02  0.57432087636E+03  0.57589123912E+03  0.00000000000E+00 0.  1.
         -2    1    1    2    0  502  0.28091704173E+02  0.31892106004E+02  0.77522538958E+02  0.88408112271E+02  0.00000000000E+00 0. -1.
</event>
<event>
 4    1  0.5565417E+003  0.3172289E+02  0.7546771E-02  0.1405193E+00
          2   -1    0    0  501    0  0.00000000000E+00  0.00000000000E+00  0.13082686484E+04  0.13082686484E+04  0.00000000000E+00 0. -1.
         -2   -1    0    0    0  501 -0.00000000000E+00 -0.00000000000E+00 -0.24954905810E+02  0.24954905810E+02  0.00000000000E+00 0.  1.
          2    1    1    2  502    0  0.20409853187E+02  0.24285374069E+02  0.12979143289E+04  0.12983019474E+04  0.00000000000E+00 0. -1.
         -2    1    1    2    0  502 -0.20409853187E+02 -0.24285374069E+02 -0.14600586308E+02  0.34921606797E+02  0.00000000000E+00 0.  1.
</event>
<event>
 4    1  0.5565417E+003  0.6365722E+02  0.7546771E-02  0.1247888E+00
          2   -1    0    0  501    0  0.00000000000E+00  0.00000000000E+00  0.28679438934E+03  0.28679438934E+03  0.00000000000E+00 0. -1.
         -2   -1    0    0    0  501 -0.00000000000E+00 -0.00000000000E+00 -0.15337876476E+02  0.15337876476E+02  0.00000000000E+00 0. -1.
          2    1    1    2  502    0 -0.45546255664E+02  0.44472238097E+02  0.17813140740E+03  0.18916405490E+03  0.00000000000E+00 0. -1.
         -2    1    1    2    0  502  0.45546255664E+02 -0.44472238097E+02  0.93325105464E+02  0.11296821091E+03  0.00000000000E+00 0. -1.
</event>
<event>
 4    1  0.5565417E+003  0.3079025E+02  0.7546771E-02  0.1412851E+00
          2   -1    0    0  501    0  0.00000000000E+00  0.00000000000E+00  0.96778474241E+03  0.96778474241E+03  0.00000000000E+00 0.  1.
         -2   -1    0    0    0  501 -0.00000000000E+00 -0.00000000000E+00 -0.20852131918E+02  0.20852131918E+02  0.00000000000E+00 0.  1.
          2    1    1    2  502    0 -0.30760050183E+02  0.13632943583E+01  0.95603396015E+03  0.95652965046E+03  0.00000000000E+00 0.  1.
         -2    1    1    2    0  502  0.30760050183E+02 -0.13632943583E+01 -0.91013496555E+01  0.32107223865E+02  0.00000000000E+00 0.  1.
</event>
<event>
 4    1  0.5565417E+003  0.2063606E+02  0.7546771E-02  0.1524525E+00
          2   -1    0    0  501    0  0.00000000000E+00  0.00000000000E+00  0.10430532668E+02  0.10430532668E+02  0.00000000000E+00 0. -1.
         -2   -1    0    0    0  501 -0.00000000000E+00 -0.00000000000E+00 -0.10590206118E+03  0.10590206118E+03  0.00000000000E+00 0. -1.
          2    1    1    2  502    0  0.20465395887E+02 -0.26484983075E+01 -0.21397768288E+01  0.20746701352E+02  0.00000000000E+00 0. -1.
         -2    1    1    2    0  502 -0.20465395887E+02  0.26484983075E+01 -0.93331751682E+02  0.95585892496E+02  0.00000000000E+00 0. -1.
</event>
<event>
 4    1  0.5565417E+003  0.2259773E+02  0.7546771E-02  0.1497612E+00
          2   -1    0    0  501    0  0.00000000000E+00  0.00000000000E+00  0.13491788415E+03  0.13491788415E+03  0.00000000000E+00 0.  1.
         -2   -1    0    0    0  501 -0.00000000000E+00 -0.00000000000E+00 -0.25808678460E+02  0.25808678460E+02  0.00000000000E+00 0.  1.
          2    1    1    2  502    0  0.79755632570E+01  0.21143502928E+02  0.12879156781E+03  0.13075903512E+03  0.00000000000E+00 0.  1.
         -2    1    1    2    0  502 -0.79755632570E+01 -0.21143502928E+02 -0.19682362122E+02  0.29967527493E+02  0.00000000000E+00 0.  1.
</event>
<event>
 4    1  0.5565417E+003  0.2021500E+02  0.7546771E-02  0.1530774E+00
          2   -1    0    0  501    0  0.00000000000E+00  0.00000000000E+00  0.22994877929E+04  0.22994877929E+04  0.00000000000E+00 0. -1.
         -2   -1    0    0    0  501 -0.00000000000E+00 -0.00000000000E+00 -0.19244255787E+00  0.19244255787E+00  0.00000000000E+00 0. -1.
          2    1    1    2  502    0  0.16104967078E+02 -0.12217858931E+02  0.14677742227E+04  0.14679134221E+04  0.00000000000E+00 0. -1.
         -2    1    1    2    0  502 -0.16104967078E+02  0.12217858931E+02  0.83152112771E+03  0.83176681340E+03  0.00000000000E+00 0. -1.
</event>
<event>
 4    1  0.5565417E+003  0.3065125E+02  0.7546771E-02  0.1414020E+00
          2   -1    0    0  501    0  0.00000000000E+00  0.00000000000E+00  0.70828776031E+03  0.70828776031E+03  0.00000000000E+00 0. -1.
         -2   -1    0    0    0  501 -0.00000000000E+00 -0.00000000000E+00 -0.20656166181E+02  0.20656166181E+02  0.00000000000E+00 0.  1.
          2    1    1    2  502    0 -0.29564986598E+02 -0.80876963606E+01  0.69639131182E+03  0.69706553383E+03  0.00000000000E+00 0. -1.
         -2    1    1    2    0  502  0.29564986598E+02  0.80876963606E+01 -0.87597176924E+01  0.31878392667E+02  0.00000000000E+00 0.  1.
</event>
<event>
 4    1  0.5565417E+003  0.4027156E+02  0.7546771E-02  0.1346902E+00
          2   -1    0    0  501    0  0.00000000000E+00  0.00000000000E+00  0.53351592966E+02  0.53351592966E+02  0.00000000000E+00 0.  1.
         -2   -1    0    0    0  501 -0.00000000000E+00 -0.00000000000E+00 -0.31480024497E+02  0.31480024497E+02  0.00000000000E+00 0. -1.
          2    1    1    2  502    0 -0.86681711838E+01 -0.39327610537E+02  0.18798398987E+02  0.44442974098E+02  0.00000000000E+00 0.  1.
         -2    1    1    2    0  502  0.86681711838E+01  0.39327610537E+02  0.30731694813E+01  0.40388643365E+02  0.00000000000E+00 0. -1.
</event>
<event>
 4    1  0.5565417E+003  0.2315783E+02  0.7546771E-02  0.1490526E+00
          2   -1    0    0  501    0  0.00000000000E+00  0.00000000000E+00  0.15464127027E+04  0.15464127027E+04  0.00000000000E+00 0.  1.
         -2   -1    0    0    0  501 -0.00000000000E+00 -0.00000000000E+00 -0.60803699609E+01  0.60803699609E+01  0.00000000000E+00 0.  1.
          2    1    1    2  502    0 -0.82793617015E+01  0.21627233891E+02  0.15239511764E+04  0.15241271184E+04  0.00000000000E+00 0.  1.
         -2    1    1    2    0  502  0.82793617015E+01 -0.21627233891E+02  0.16381156314E+02  0.28365954208E+02  0.00000000000E+00 0.  1.
</event>
<event>
 4    1  0.5565417E+003  0.2897282E+02  0.7546771E-02  0.1428738E+00
          2   -1    0    0  501    0  0.00000000000E+00  0.00000000000E+00  0.41051946368E+03  0.41051946368E+03  0.00000000000E+00 0.  1.
         -2   -1    0    0    0  501 -0.00000000000E+00 -0.00000000000E+00 -0.36752807266E+01  0.36752807266E+01  0.00000000000E+00 0. -1.
          2    1    1    2  502    0  0.27218138620E+02  0.99296145830E+01  0.34136172671E+03  0.34258904358E+03  0.00000000000E+00 0.  1.
         -2    1    1    2    0  502 -0.27218138620E+02 -0.99296145830E+01  0.65482456237E+02  0.71605700824E+02  0.00000000000E+00 0. -1.
</event>
<event>
 4    1  0.8124485E+003  0.2517120E+02  0.7546771E-02  0.1466897E+00
          2   -1    0    0  501    0  0.00000000000E+00  0.00000000000E+00  0.78086487744E+03  0.78086487744E+03  0.00000000000E+00 0.  1.
         -2   -1    0    0    0  501 -0.00000000000E+00 -0.00000000000E+00 -0.25395038750E+03  0.25395038750E+03  0.00000000000E+00 0.  1.
          2    1    1    2  502    0  0.24428764357E+02 -0.60683590602E+01  0.78003763394E+03  0.78044365579E+03  0.00000000000E+00 0.  1.
         -2    1    1    2    0  502 -0.24428764357E+02  0.60683590602E+01 -0.25312314400E+03  0.25437160914E+03  0.00000000000E+00 0.  1.
</event>
<event>
 4    1  0.5565417E+003  0.2235213E+02  0.7546771E-02  0.1500798E+00
          2   -1    0    0  501    0  0.00000000000E+00  0.00000000000E+00  0.94843193336E+01  0.94843193336E+01  0.00000000000E+00 0.  1.
         -2   -1    0    0    0  501 -0.00000000000E+00 -0.00000000000E+00 -0.57742383377E+02  0.57742383377E+02  0.00000000000E+00 0.  1.
          2    1    1    2  502    0  0.20572538935E+02 -0.87400308643E+01 -0.14174603347E+02  0.26467657203E+02  0.00000000000E+00 0.  1.
         -2    1    1    2    0  502 -0.20572538935E+02  0.87400308643E+01 -0.34083460696E+02  0.40759045508E+02  0.00000000000E+00 0.  1.
</event>
<event>
 4    1  0.5565417E+003  0.2078644E+02  0.7546771E-02  0.1522336E+00
          2   -1    0    0  501    0  0.00000000000E+00  0.00000000000E+00  0.22462593196E+02  0.22462593196E+02  0.00000000000E+00 0. -1.
         -2   -1    0    0    0  501 -0.00000000000E+00 -0.00000000000E+00 -0.96640182619E+02  0.96640182619E+02  0.00000000000E+00 0. -1.
          2    1    1    2  502    0  0.19825732774E+02 -0.62463030573E+01  0.16207502484E+02  0.26358283682E+02  0.00000000000E+00 0. -1.
         -2    1    1    2    0  502 -0.19825732774E+02  0.62463030573E+01 -0.90385091908E+02  0.92744492133E+02  0.00000000000E+00 0. -1.
</event>
<event>
 4    1  0.5565417E+003  0.2860867E+02  0.7546771E-02  0.1432085E+00
          2   -1    0    0  501    0  0.00000000000E+00  0.00000000000E+00  0.13219657681E+04  0.13219657681E+04  0.00000000000E+00 0.  1.
         -2   -1    0    0    0  501 -0.00000000000E+00 -0.00000000000E+00 -0.63877788647E+00  0.63877788647E+00  0.00000000000E+00 0.  1.
          2    1    1    2  502    0  0.27775956624E+02  0.68521009109E+01  0.54465313504E+03  0.54540397190E+03  0.00000000000E+00 0.  1.
         -2    1    1    2    0  502 -0.27775956624E+02 -0.68521009109E+01  0.77667385518E+03  0.77720057409E+03  0.00000000000E+00 0.  1.
</event>
<event>
 4    1  0.5565417E+003  0.2249455E+02  0.7546771E-02  0.1498945E+00
          2   -1    0    0  501    0  0.00000000000E+00  0.00000000000E+00  0.13689350421E+04  0.13689350421E+04  0.00000000000E+00 0.  1.
         -2   -1    0    0    0  501 -0.00000000000E+00 -0.00000000000E+00 -0.13876176513E+04  0.13876176513E+04  0.00000000000E+00 0. -1.
          2    1    1    2  502    0 -0.14082524855E+02 -0.17541011332E+02  0.13687514571E+04  0.13689362863E+04  0.00000000000E+00 0.  1.
         -2    1    1    2    0  502  0.14082524855E+02  0.17541011332E+02 -0.13874340664E+04  0.13876164071E+04  0.00000000000E+00 0. -1.
</event>
<event>
 4    1  0.5565417E+003  0.4433137E+02  0.7546771E-02  0.1324817E+00
          2   -1    0    0  501    0  0.00000000000E+00  0.00000000000E+00  0.18050270030E+03  0.18050270030E+03  0.00000000000E+00 0.  1.
         -2   -1    0    0    0  501 -0.00000000000E+00 -0.00000000000E+00 -0.18925205239E+02  0.18925205239E+02  0.00000000000E+00 0.  1.
          2    1    1    2  502    0 -0.40238826593E+02  0.18603960537E+02  0.14577097322E+03  0.15236287982E+03  0.00000000000E+00 0.  1.
         -2    1    1    2    0  502  0.40238826593E+02 -0.18603960537E+02  0.15806521841E+02  0.47065025719E+02  0.00000000000E+00 0.  1.
</event>
<event>
 4    1  0.5565417E+003  0.2196427E+02  0.7546771E-02  0.1505930E+00
          2   -1    0    0  501    0  0.00000000000E+00  0.00000000000E+00  0.90188390684E+03  0.90188390684E+03  0.00000000000E+00 0. -1.
         -2   -1    0    0    0  501 -0.00000000000E+00 -0.00000000000E+00 -0.43589052657E+01  0.43589052657E+01  0.00000000000E+00 0.  1.
          2    1    1    2  502    0 -0.17438292750E+02  0.13354218797E+02  0.87317130060E+03  0.87344750810E+03  0.00000000000E+00 0. -1.
         -2    1    1    2    0  502  0.17438292750E+02 -0.13354218797E+02  0.24353700974E+02  0.32795304006E+02  0.00000000000E+00 0.  1.
</event>
<event>
 4    1  0.5565417E+003  0.2521071E+02  0.7546771E-02  0.1466460E+00
          2   -1    0    0  501    0  0.00000000000E+00  0.00000000000E+00  0.87091974562E+03  0.87091974562E+03  0.00000000000E+00 0. -1.
         -2   -1    0    0    0  501 -0.00000000000E+00 -0.00000000000E+00 -0.48032061545E+02  0.48032061545E+02  0.00000000000E+00 0.  1.
          2    1    1    2  502    0  0.82316762736E+01  0.23828965744E+02  0.86741583695E+03  0.86778212375E+03  0.00000000000E+00 0. -1.
         -2    1    1    2    0  502 -0.82316762736E+01 -0.23828965744E+02 -0.44528152874E+02  0.51169683418E+02  0.00000000000E+00 0.  1.
</event>
<event>
 4    1  0.5565417E+003  0.2506973E+02  0.7546771E-02  0.1468025E+00
          2   -1    0    0  501    0  0.00000000000E+00  0.00000000000E+00  0.12045658317E+04  0.12045658317E+04  0.00000000000E+00 0. -1.
         -2   -1    0    0    0  501 -0.00000000000E+00 -0.00000000000E+00 -0.34506104660E+02  0.34506104660E+02  0.00000000000E+00 0.  1.
          2    1    1    2  502    0 -0.11465836924E+01 -0.25043493274E+02  0.11998640727E+04  0.12001259451E+04  0.00000000000E+00 0. -1.
         -2    1    1    2    0  502  0.11465836924E+01  0.25043493274E+02 -0.29804345685E+02  0.38945991209E+02  0.00000000000E+00 0.  1.
</event>
<event>
 4    1  0.5565417E+003  0.2205780E+02  0.7546771E-02  0.1504681E+00
          2   -1    0    0  501    0  0.00000000000E+00  0.00000000000E+00  0.40964133510E+03  0.40964133510E+03  0.00000000000E+00 0. -1.
         -2   -1    0    0    0  501 -0.00000000000E+00 -0.00000000000E+00 -0.19678813440E+01  0.19678813440E+01  0.00000000000E+00 0.  1.
          2    1    1    2  502    0 -0.11315196903E+01  0.22028753725E+02  0.33341823079E+03  0.33414706785E+03  0.00000000000E+00 0. -1.
         -2    1    1    2    0  502  0.11315196903E+01 -0.22028753725E+02  0.74255222959E+02  0.77462148590E+02  0.00000000000E+00 0.  1.
</event>
<event>
 4    1  0.5565417E+003  0.2650358E+02  0.7546771E-02  0.1452660E+00
          2   -1    0    0  501    0  0.00000000000E+00  0.00000000000E+00  0.11175299161E+03  0.11175299161E+03  0.00000000000E+00 0. -1.
         -2   -1    0    0    0  501 -0.00000000000E+00 -0.00000000000E+00 -0.78002943756E+01  0.78002943756E+01  0.00000000000E+00 0.  1.
          2    1    1    2  502    0  0.24377274991E+02  0.10401345054E+02  0.78317347012E+02  0.82680386779E+02  0.00000000000E+00 0. -1.
         -2    1    1    2    0  502 -0.24377274991E+02 -0.10401345054E+02  0.25635350224E+02  0.36872899208E+02  0.00000000000E+00 0.  1.
</event>
<event>
 4    1  0.5565417E+003  0.3430591E+02  0.7546771E-02  0.1385510E+00
          2   -1    0    0  501    0  0.00000000000E+00  0.00000000000E+00  0.58022249121E+03  0.58022249121E+03  0.00000000000E+00 0.  1.
         -2   -1    0    0    0  501 -0.00000000000E+00 -0.00000000000E+00 -0.87861667084E+01  0.87861667084E+01  0.00000000000E+00 0. -1.
          2    1    1    2  502    0 -0.20828774081E+02 -0.27259080349E+02  0.54400073988E+03  0.54508137033E+03  0.00000000000E+00 0.  1.
         -2    1    1    2    0  502  0.20828774081E+02  0.27259080349E+02  0.27435584618E+02  0.43927287584E+02  0.00000000000E+00 0. -1.
</event>
<event>
 4    1  0.5565417E+003  0.3209498E+02  0.7546771E-02  0.1402224E+00
          2   -1    0    0  501    0  0.00000000000E+00  0.00000000000E+00  0.52528462072E+03  0.52528462072E+03  0.00000000000E+00 0.  1.
         -2   -1    0    0    0  501 -0.00000000000E+00 -0.00000000000E+00 -0.23844288399E+01  0.23844288399E+01  0.00000000000E+00 0.  1.
          2    1    1    2  502    0 -0.32044632171E+02 -0.17967809478E+01  0.15027026304E+03  0.15365948987E+03  0.00000000000E+00 0.  1.
         -2    1    1    2    0  502  0.32044632171E+02  0.17967809478E+01  0.37262992884E+03  0.37400955969E+03  0.00000000000E+00 0.  1.
</event>
<event>
 4    1  0.5565417E+003  0.2198363E+02  0.7546771E-02  0.1505671E+00
          2   -1    0    0  501    0  0.00000000000E+00  0.00000000000E+00  0.55808444238E+03  0.55808444238E+03  0.00000000000E+00 0.  1.
         -2   -1    0    0    0  501 -0.00000000000E+00 -0.00000000000E+00 -0.55854497347E+02  0.55854497347E+02  0.00000000000E+00 0.  1.
          2    1    1    2  502    0  0.21904929236E+02  0.18584899183E+01  0.55569553644E+03  0.55613020879E+03  0.00000000000E+00 0.  1.
         -2    1    1    2    0  502 -0.21904929236E+02 -0.18584899183E+01 -0.53465591400E+02  0.57808730944E+02  0.00000000000E+00 0.  1.
</event>
<event>
 4    1  0.5565417E+003  0.2137572E+02  0.7546771E-02  0.1513968E+00
          2   -1    0    0  501    0  0.00000000000E+00  0.00000000000E+00  0.12203228969E+03  0.12203228969E+03  0.00000000000E+00 0.  1.
         -2   -1    0    0    0  501 -0.00000000000E+00 -0.00000000000E+00 -0.24925808854E+03  0.24925808854E+03  0.00000000000E+00 0. -1.
          2    1    1    2  502    0  0.19436262225E+02  0.88967945214E+01  0.12063266611E+03  0.12251188259E+03  0.00000000000E+00 0.  1.
         -2    1    1    2    0  502 -0.19436262225E+02 -0.88967945214E+01 -0.24785846496E+03  0.24877849565E+03  0.00000000000E+00 0. -1.
</event>
<event>
 4    1  0.5565417E+003  0.2514148E+02  0.7546771E-02  0.1467227E+00
          2   -1    0    0  501    0  0.00000000000E+00  0.00000000000E+00  0.15450843972E+03  0.15450843972E+03  0.00000000000E+00 0. -1.
         -2   -1    0    0    0  501 -0.00000000000E+00 -0.00000000000E+00 -0.79587860525E+01  0.79587860525E+01  0.00000000000E+00 0. -1.
          2    1    1    2  502    0  0.18511481451E+02 -0.17012324468E+02  0.12990443259E+03  0.13231498682E+03  0.00000000000E+00 0. -1.
         -2    1    1    2    0  502 -0.18511481451E+02  0.17012324468E+02  0.16645221073E+02  0.30152238953E+02  0.00000000000E+00 0. -1.
</event>
<event>
 4    1  0.5565417E+003  0.2117896E+02  0.7546771E-02  0.1516725E+00
          2   -1    0    0  501    0  0.00000000000E+00  0.00000000000E+00  0.15031266254E+03  0.15031266254E+03  0.00000000000E+00 0.  1.
         -2   -1    0    0    0  501 -0.00000000000E+00 -0.00000000000E+00 -0.37864023075E+01  0.37864023075E+01  0.00000000000E+00 0.  1.
          2    1    1    2  502    0 -0.12600130332E+02 -0.17023080310E+02  0.10873014959E+03  0.11077361590E+03  0.00000000000E+00 0.  1.
         -2    1    1    2    0  502  0.12600130332E+02  0.17023080310E+02  0.37796110640E+02  0.43325448954E+02  0.00000000000E+00 0.  1.
</event>
<event>
 4    1  0.5565417E+003  0.3017047E+02  0.7546771E-02  0.1418121E+00
          2   -1    0    0  501    0  0.00000000000E+00  0.00000000000E+00  0.11997460092E+03  0.11997460092E+03  0.00000000000E+00 0.  1.
         -2   -1    0    0    0  501 -0.00000000000E+00 -0.00000000000E+00 -0.68206746273E+02  0.68206746273E+02  0.00000000000E+00 0.  1.
          2    1    1    2  502    0  0.29845454605E+02  0.44165435341E+01  0.11458720717E+03  0.11849255278E+03  0.00000000000E+00 0.  1.
         -2    1    1    2    0  502 -0.29845454605E+02 -0.44165435341E+01 -0.62819352515E+02  0.69688794420E+02  0.00000000000E+00 0.  1.
</event>
<event>
 4    1  0.5565417E+003  0.4082357E+02  0.7546771E-02  0.1343726E+00
          2   -1    0    0  501    0  0.00000000000E+00  0.00000000000E+00  0.39948492962E+03  0.39948492962E+03  0.00000000000E+00 0.  1.
         -2   -1    0    0    0  501 -0.00000000000E+00 -0.00000000000E+00 -0.32289513769E+03  0.32289513769E+03  0.00000000000E+00 0. -1.
          2    1    1    2  502    0  0.18386106475E+02 -0.36448797544E+02  0.39714406985E+03  0.39923674176E+03  0.00000000000E+00 0.  1.
         -2    1    1    2    0  502 -0.18386106475E+02  0.36448797544E+02 -0.32055427792E+03  0.32314332555E+03  0.00000000000E+00 0. -1.
</event>
<event>
 4    1  0.5565417E+003  0.3231363E+02  0.7546771E-02  0.1400501E+00
          2   -1    0    0  501    0  0.00000000000E+00  0.00000000000E+00  0.26558168651E+01  0.26558168651E+01  0.00000000000E+00 0. -1.
         -2   -1    0    0    0  501 -0.00000000000E+00 -0.00000000000E+00 -0.39373410798E+03  0.39373410798E+03  0.00000000000E+00 0. -1.
          2    1    1    2  502    0  0.32220236360E+02  0.24550234848E+01 -0.18799542020E+03  0.19075232315E+03  0.00000000000E+00 0. -1.
         -2    1    1    2    0  502 -0.32220236360E+02 -0.24550234848E+01 -0.20308287092E+03  0.20563760170E+03  0.00000000000E+00 0. -1.
</event>
<event>
 4    1  0.5565417E+003  0.2384131E+02  0.7546771E-02  0.1482196E+00
          2   -1    0    0  501    0  0.00000000000E+00  0.00000000000E+00  0.80199281561E+02  0.80199281561E+02  0.00000000000E+00 0. -1.
         -2   -1    0    0    0  501 -0.00000000000E+00 -0.00000000000E+00 -0.88957315308E+01  0.88957315308E+01  0.00000000000E+00 0. -1.
          2    1    1    2  502    0 -0.19552586427E+02 -0.13642005868E+02  0.55736516475E+02  0.60621507973E+02  0.00000000000E+00 0. -1.
         -2    1    1    2    0  502  0.19552586427E+02  0.13642005868E+02  0.15567033555E+02  0.28473505119E+02  0.00000000000E+00 0. -1.
</event>
<event>
 4    1  0.5565417E+003  0.2470862E+02  0.7546771E-02  0.1472090E+00
          2   -1    0    0  501    0  0.00000000000E+00  0.00000000000E+00  0.68294245401E+03  0.68294245401E+03  0.00000000000E+00 0. -1.
         -2   -1    0    0    0  501 -0.00000000000E+00 -0.00000000000E+00 -0.26060436251E+01  0.26060436251E+01  0.00000000000E+00 0. -1.
          2    1    1    2  502    0  0.10817638057E+02  0.22214736462E+02  0.61799953209E+03  0.61849328006E+03  0.00000000000E+00 0. -1.
         -2    1    1    2    0  502 -0.10817638057E+02 -0.22214736462E+02  0.62336878292E+02  0.67055217578E+02  0.00000000000E+00 0. -1.
</event>
<event>
 4    1  0.5565417E+003  0.2026830E+02  0.7546771E-02  0.1529973E+00
          2   -1    0    0  501    0  0.00000000000E+00  0.00000000000E+00  0.22970922052E+01  0.22970922052E+01  0.00000000000E+00 0.  1.
         -2   -1    0    0    0  501 -0.00000000000E+00 -0.00000000000E+00 -0.37370092734E+03  0.37370092734E+03  0.00000000000E+00 0.  1.
          2    1    1    2  502    0 -0.19361900928E+02  0.59933874427E+01 -0.49945686896E+02  0.53901535601E+02  0.00000000000E+00 0.  1.
         -2    1    1    2    0  502  0.19361900928E+02 -0.59933874427E+01 -0.32145814824E+03  0.32209648395E+03  0.00000000000E+00 0.  1.
</event>
<event>
 4    1  0.5565417E+003  0.2199821E+02  0.7546771E-02  0.1505476E+00
          2   -1    0    0  501    0  0.00000000000E+00  0.00000000000E+00  0.99860717354E+03  0.99860717354E+03  0.00000000000E+00 0. -1.
         -2   -1    0    0    0  501 -0.00000000000E+00 -0.00000000000E+00 -0.13998137724E+02  0.13998137724E+02  0.00000000000E+00 0.  1.
          2    1    1    2  502    0 -0.21423844855E+02  0.49940180177E+01  0.98976623302E+03  0.99001066528E+03  0.00000000000E+00 0. -1.
         -2    1    1    2    0  502  0.21423844855E+02 -0.49940180177E+01 -0.51571971995E+01  0.22594645988E+02  0.00000000000E+00 0.  1.
</event>
<event>
 4    1  0.5565417E+003  0.2730692E+02  0.7546771E-02  0.1444549E+00
          2   -1    0    0  501    0  0.00000000000E+00  0.00000000000E+00  0.93510722007E+03  0.93510722007E+03  0.00000000000E+00 0.  1.
         -2   -1    0    0    0  501 -0.00000000000E+00 -0.00000000000E+00 -0.83746759952E+00  0.83746759952E+00  0.00000000000E+00 0.  1.
          2    1    1    2  502    0  0.26441058847E+02 -0.68219019223E+01  0.56947711838E+03  0.57013143774E+03  0.00000000000E+00 0.  1.
         -2    1    1    2    0  502 -0.26441058847E+02  0.68219019223E+01  0.36479263409E+03  0.36581324993E+03  0.00000000000E+00 0.  1.
</event>
<event>
 4    1  0.5565417E+003  0.5738193E+02  0.7546771E-02  0.1268997E+00
          2   -1    0    0  501    0  0.00000000000E+00  0.00000000000E+00  0.11442400344E+04  0.11442400344E+04  0.00000000000E+00 0.  1.
         -2   -1    0    0    0  501 -0.00000000000E+00 -0.00000000000E+00 -0.35803005858E+02  0.35803005858E+02  0.00000000000E+00 0. -1.
          2    1    1    2  502    0  0.55998975240E+02 -0.12521995630E+02  0.11200323433E+04  0.11215012865E+04  0.00000000000E+00 0.  1.
         -2    1    1    2    0  502 -0.55998975240E+02  0.12521995630E+02 -0.11595314796E+02  0.58541753712E+02  0.00000000000E+00 0. -1.
</event>
<event>
 4    1  0.5565417E+003  0.2101804E+02  0.7546771E-02  0.1519007E+00
          2   -1    0    0  501    0  0.00000000000E+00  0.00000000000E+00  0.90425397940E+02  0.90425397940E+02  0.00000000000E+00 0.  1.
         -2   -1    0    0    0  501 -0.00000000000E+00 -0.00000000000E+00 -0.11097238854E+02  0.11097238854E+02  0.00000000000E+00 0.  1.
          2    1    1    2  502    0  0.79754603483E+00  0.21002905374E+02  0.77642586267E+02  0.80437114046E+02  0.00000000000E+00 0.  1.
         -2    1    1    2    0  502 -0.79754603483E+00 -0.21002905374E+02  0.16855728189E+01  0.21085522748E+02  0.00000000000E+00 0.  1.
</event>
<event>
 4    1  0.5565417E+003  0.3276011E+02  0.7546771E-02  0.1397033E+00
          2   -1    0    0  501    0  0.00000000000E+00  0.00000000000E+00  0.16160927319E+04  0.16160927319E+04  0.00000000000E+00 0. -1.
         -2   -1    0    0    0  501 -0.00000000000E+00 -0.00000000000E+00 -0.40523962016E+01  0.40523962016E+01  0.00000000000E+00 0. -1.
          2    1    1    2  502    0 -0.27299107763E+02 -0.18110310365E+02  0.15467495172E+04  0.15470964073E+04  0.00000000000E+00 0. -1.
         -2    1    1    2    0  502  0.27299107763E+02  0.18110310365E+02  0.65290818533E+02  0.73048720803E+02  0.00000000000E+00 0. -1.
</event>
<event>
 4    1  0.5565417E+003  0.5678520E+02  0.7546771E-02  0.1271165E+00
          2   -1    0    0  501    0  0.00000000000E+00  0.00000000000E+00  0.53147069803E+03  0.53147069803E+03  0.00000000000E+00 0.  1.
         -2   -1    0    0    0  501 -0.00000000000E+00 -0.00000000000E+00 -0.30166357270E+03  0.30166357270E+03  0.00000000000E+00 0. -1.
          2    1    1    2  502    0 -0.54361603438E+02 -0.16412640318E+02  0.52726029710E+03  0.53030932445E+03  0.00000000000E+00 0.  1.
         -2    1    1    2    0  502  0.54361603438E+02  0.16412640318E+02 -0.29745317178E+03  0.30282494628E+03  0.00000000000E+00 0. -1.
</event>
<event>
 4    1  0.5565417E+003  0.2558837E+02  0.7546771E-02  0.1462328E+00
          2   -1    0    0  501    0  0.00000000000E+00  0.00000000000E+00  0.24142801495E+02  0.24142801495E+02  0.00000000000E+00 0.  1.
         -2   -1    0    0    0  501 -0.00000000000E+00 -0.00000000000E+00 -0.95463963442E+03  0.95463963442E+03  0.00000000000E+00 0. -1.
          2    1    1    2  502    0  0.20305474661E+01  0.25507671802E+02  0.17141125499E+02  0.30799068608E+02  0.00000000000E+00 0.  1.
         -2    1    1    2    0  502 -0.20305474661E+01 -0.25507671802E+02 -0.94763795843E+03  0.94798336731E+03  0.00000000000E+00 0. -1.
</event>
<event>
 4    1  0.5565417E+003  0.2888078E+02  0.7546771E-02  0.1429578E+00
          2   -1    0    0  501    0  0.00000000000E+00  0.00000000000E+00  0.94280605250E+02  0.94280605250E+02  0.00000000000E+00 0.  1.
         -2   -1    0    0    0  501 -0.00000000000E+00 -0.00000000000E+00 -0.91276281340E+02  0.91276281340E+02  0.00000000000E+00 0. -1.
          2    1    1    2  502    0  0.21729885323E+02  0.19023972343E+02  0.89669737566E+02  0.94205951378E+02  0.00000000000E+00 0.  1.
         -2    1    1    2    0  502 -0.21729885323E+02 -0.19023972343E+02 -0.86665413657E+02  0.91350935212E+02  0.00000000000E+00 0. -1.
</event>
<event>
 4    1  0.5565417E+003  0.2889016E+02  0.7546771E-02  0.1429492E+00
          2   -1    0    0  501    0  0.00000000000E+00  0.00000000000E+00  0.33171534555E+03  0.33171534555E+03  0.00000000000E+00 0. -1.
         -2   -1    0    0    0  501 -0.00000000000E+00 -0.00000000000E+00 -0.20331119885E+02  0.20331119885E+02  0.00000000000E+00 0.  1.
          2    1    1    2  502    0  0.12244102508E+01  0.28864204946E+02  0.32046359088E+03  0.32176319645E+03  0.00000000000E+00 0. -1.
         -2    1    1    2    0  502 -0.12244102508E+01 -0.28864204946E+02 -0.90793652189E+01  0.30283268985E+02  0.00000000000E+00 0.  1.
</event>
<event>
 4    1  0.5565417E+003  0.3005870E+02  0.7546771E-02  0.1419087E+00
          2   -1    0    0  501    0  0.00000000000E+00  0.00000000000E+00  0.41763694852E+02  0.41763694852E+02  0.00000000000E+00 0. -1.
         -2   -1    0    0    0  501 -0.00000000000E+00 -0.00000000000E+00 -0.21789959404E+02  0.21789959404E+02  0.00000000000E+00 0.  1.
          2    1    1    2  502    0 -0.22537987358E+02  0.19888782942E+02  0.73003174398E+01  0.30932494174E+02  0.00000000000E+00 0. -1.
         -2    1    1    2    0  502  0.22537987358E+02 -0.19888782942E+02  0.12673418008E+02  0.32621160082E+02  0.00000000000E+00 0.  1.
</event>
<event>
 4    1  0.5565417E+003  0.3605367E+02  0.7546771E-02  0.1373303E+00
          2   -1    0    0  501    0  0.00000000000E+00  0.00000000000E+00  0.21503341413E+04  0.21503341413E+04  0.00000000000E+00 0. -1.
         -2   -1    0    0    0  501 -0.00000000000E+00 -0.00000000000E+00 -0.20831198555E+02  0.20831198555E+02  0.00000000000E+00 0. -1.
          2    1    1    2  502    0 -0.19553828433E+02 -0.30290506064E+02  0.21344670572E+04  0.21347715300E+04  0.00000000000E+00 0. -1.
         -2    1    1    2    0  502  0.19553828433E+02  0.30290506064E+02 -0.49641144612E+01  0.36393809864E+02  0.00000000000E+00 0. -1.
</event>
<event>
 4    1  0.5565417E+003  0.2119200E+02  0.7546771E-02  0.1516541E+00
          2   -1    0    0  501    0  0.00000000000E+00  0.00000000000E+00  0.10184493752E+04  0.10184493752E+04  0.00000000000E+00 0.  1.
         -2   -1    0    0    0  501 -0.00000000000E+00 -0.00000000000E+00 -0.21305207038E+01  0.21305207038E+01  0.00000000000E+00 0. -1.
          2    1    1    2  502    0 -0.80017205363E+01 -0.19623282508E+02  0.96258248917E+03  0.96281574001E+03  0.00000000000E+00 0.  1.
         -2    1    1    2    0  502  0.80017205363E+01  0.19623282508E+02  0.53736365315E+02  0.57764155886E+02  0.00000000000E+00 0. -1.
</event>
<event>
 4    1  0.5565417E+003  0.3545021E+02  0.7546771E-02  0.1377425E+00
          2   -1    0    0  501    0  0.00000000000E+00  0.00000000000E+00  0.10893009703E+03  0.10893009703E+03  0.00000000000E+00 0. -1.
         -2   -1    0    0    0  501 -0.00000000000E+00 -0.00000000000E+00 -0.16217029746E+04  0.16217029746E+04  0.00000000000E+00 0.  1.
          2    1    1    2  502    0  0.34981302069E+02  0.57468245390E+01  0.10584663978E+03  0.11162539424E+03  0.00000000000E+00 0. -1.
         -2    1    1    2    0  502 -0.34981302069E+02 -0.57468245390E+01 -0.16186195174E+04  0.16190076774E+04  0.00000000000E+00 0.  1.
</event>
<event>
 4    1  0.5565417E+003  0.4414018E+02  0.7546771E-02  0.1325795E+00
          2   -1    0    0  501    0  0.00000000000E+00  0.00000000000E+00  0.18701824093E+02  0.18701824093E+02  0.00000000000E+00 0. -1.
         -2   -1    0    0    0  501 -0.00000000000E+00 -0.00000000000E+00 -0.37350547162E+03  0.37350547162E+03  0.00000000000E+00 0. -1.
          2    1    1    2  502    0 -0.16359786422E+02 -0.40996503516E+02 -0.10878178979E+02  0.45460869879E+02  0.00000000000E+00 0. -1.
         -2    1    1    2    0  502  0.16359786422E+02  0.40996503516E+02 -0.34392546855E+03  0.34674642583E+03  0.00000000000E+00 0. -1.
</event>
<event>
 4    1  0.5565417E+003  0.2208092E+02  0.7546771E-02  0.1504373E+00
          2   -1    0    0  501    0  0.00000000000E+00  0.00000000000E+00  0.17252949462E+03  0.17252949462E+03  0.00000000000E+00 0.  1.
         -2   -1    0    0    0  501 -0.00000000000E+00 -0.00000000000E+00 -0.28676982221E+01  0.28676982221E+01  0.00000000000E+00 0. -1.
          2    1    1    2  502    0 -0.21813552143E+02  0.34258103399E+01  0.95406825032E+02  0.97928695979E+02  0.00000000000E+00 0.  1.
         -2    1    1    2    0  502  0.21813552143E+02 -0.34258103399E+01  0.74254971368E+02  0.77468496865E+02  0.00000000000E+00 0. -1.
</event>
<event>
 4    1  0.5565417E+003  0.2340245E+02  0.7546771E-02  0.1487506E+00
          2   -1    0    0  501    0  0.00000000000E+00  0.00000000000E+00  0.81771256254E+03  0.81771256254E+03  0.00000000000E+00 0. -1.
         -2   -1    0    0    0  501 -0.00000000000E+00 -0.00000000000E+00 -0.28428580171E+02  0.28428580171E+02  0.00000000000E+00 0. -1.
          2    1    1    2  502    0 -0.21409340895E+02 -0.94506406915E+01  0.81269918588E+03  0.81303606391E+03  0.00000000000E+00 0. -1.
         -2    1    1    2    0  502  0.21409340895E+02  0.94506406915E+01 -0.23415203510E+02  0.33105078802E+02  0.00000000000E+00 0. -1.
</event>
<event>
 4    1  0.5565417E+003  0.2723984E+02  0.7546771E-02  0.1445214E+00
          2   -1    0    0  501    0  0.00000000000E+00  0.00000000000E+00  0.58605075713E+02  0.58605075713E+02  0.00000000000E+00 0.  1.
         -2   -1    0    0    0  501 -0.00000000000E+00 -0.00000000000E+00 -0.98138497309E+02  0.98138497309E+02  0.00000000000E+00 0. -1.
          2    1    1    2  502    0 -0.14951147359E+02  0.22769979808E+02  0.53375067252E+02  0.59924173686E+02  0.00000000000E+00 0.  1.
         -2    1    1    2    0  502  0.14951147359E+02 -0.22769979808E+02 -0.92908488848E+02  0.96819399336E+02  0.00000000000E+00 0. -1.
</event>
<event>
 4    1  0.5565417E+003  0.2031858E+02  0.7546771E-02  0.1529220E+00
          2   -1    0    0  501    0  0.00000000000E+00  0.00000000000E+00  0.15934122883E+03  0.15934122883E+03  0.00000000000E+00 0.  1.
         -2   -1    0    0    0  501 -0.00000000000E+00 -0.00000000000E+00 -0.19323167636E+02  0.19323167636E+02  0.00000000000E+00 0.  1.
          2    1    1    2  502    0  0.16718722799E+02  0.11546821677E+02  0.15313670735E+03  0.15447878794E+03  0.00000000000E+00 0.  1.
         -2    1    1    2    0  502 -0.16718722799E+02 -0.11546821677E+02 -0.13118646160E+02  0.24185608530E+02  0.00000000000E+00 0.  1.
</event>
<event>
 4    1  0.5565417E+003  0.2413201E+02  0.7546771E-02  0.1478752E+00
          2   -1    0    0  501    0  0.00000000000E+00  0.00000000000E+00  0.23139937293E+03  0.23139937293E+03  0.00000000000E+00 0.  1.
         -2   -1    0    0    0  501 -0.00000000000E+00 -0.00000000000E+00 -0.31979602908E+01  0.31979602908E+01  0.00000000000E+00 0. -1.
          2    1    1    2  502    0 -0.11404926252E+02  0.21266916368E+02  0.16824156019E+03  0.16996345681E+03  0.00000000000E+00 0.  1.
         -2    1    1    2    0  502  0.11404926252E+02 -0.21266916368E+02  0.59959852454E+02  0.64633876418E+02  0.00000000000E+00 0. -1.
</event>
<event>
 4    1  0.5565417E+003  0.9639658E+02  0.7546771E-02  0.1170203E+00
          2   -1    0    0  501    0  0.00000000000E+00  0.00000000000E+00  0.17980713455E+04  0.17980713455E+04  0.00000000000E+00 0. -1.
         -2   -1    0    0    0  501 -0.00000000000E+00 -0.00000000000E+00 -0.78577908967E+01  0.78577908967E+01  0.00000000000E+00 0.  1.
          2    1    1    2  502    0 -0.90897998444E+02 -0.32091333808E+02  0.14234129699E+04  0.14266733273E+04  0.00000000000E+00 0. -1.
         -2    1    1    2    0  502  0.90897998444E+02  0.32091333808E+02  0.36680058466E+03  0.37925580910E+03  0.00000000000E+00 0.  1.
</event>
<event>
 4    1  0.5565417E+003  0.3201488E+02  0.7546771E-02  0.1402859E+00
          2   -1    0    0  501    0  0.00000000000E+00  0.00000000000E+00  0.96607331334E+01  0.96607331334E+01  0.00000000000E+00 0. -1.
         -2   -1    0    0    0  501 -0.00000000000E+00 -0.00000000000E+00 -0.10641625941E+03  0.10641625941E+03  0.00000000000E+00 0. -1.
          2    1    1    2  502    0  0.31491858987E+02  0.57632830581E+01 -0.45187396172E+02  0.55379178279E+02  0.00000000000E+00 0. -1.
         -2    1    1    2    0  502 -0.31491858987E+02 -0.57632830581E+01 -0.51568130109E+02  0.60697814269E+02  0.00000000000E+00 0. -1.
</event>
<event>
 4    1  0.5565417E+003  0.3126750E+02  0.7546771E-02  0.1408893E+00
          2   -1    0    0  501    0  0.00000000000E+00  0.00000000000E+00  0.11979723870E+04  0.11979723870E+04  0.00000000000E+00 0. -1.
         -2   -1    0    0    0  501 -0.00000000000E+00 -0.00000000000E+00 -0.40782096867E+01  0.40782096867E+01  0.00000000000E+00 0. -1.
          2    1    1    2  502    0 -0.29496398258E+02  0.10373961128E+02  0.11344833165E+04  0.11349141165E+04  0.00000000000E+00 0. -1.
         -2    1    1    2    0  502  0.29496398258E+02 -0.10373961128E+02  0.59410860824E+02  0.67136480125E+02  0.00000000000E+00 0. -1.
</event>
<event>
 4    1  0.5565417E+003  0.8204862E+02  0.7546771E-02  0.1199170E+00
          2   -1    0    0  501    0  0.00000000000E+00  0.00000000000E+00  0.98580974434E+03  0.98580974434E+03  0.00000000000E+00 0.  1.
         -2   -1    0    0    0  501 -0.00000000000E+00 -0.00000000000E+00 -0.70672059039E+01  0.70672059039E+01  0.00000000000E+00 0. -1.
          2    1    1    2  502    0 -0.49445351158E+02  0.65476154273E+02  0.39820512683E+03  0.40657015700E+03  0.00000000000E+00 0.  1.
         -2    1    1    2    0  502  0.49445351158E+02 -0.65476154273E+02  0.58053741161E+03  0.58630679325E+03  0.00000000000E+00 0. -1.
</event>
<event>
 4    1  0.5565417E+003  0.2154578E+02  0.7546771E-02  0.1511613E+00
          2   -1    0    0  501    0  0.00000000000E+00  0.00000000000E+00  0.88347947993E+03  0.88347947993E+03  0.00000000000E+00 0.  1.
         -2   -1    0    0    0  501 -0.00000000000E+00 -0.00000000000E+00 -0.53962615637E+00  0.53962615637E+00  0.00000000000E+00 0.  1.
          2    1    1    2  502    0  0.20588076046E+02  0.63522533041E+01  0.36981618606E+03  0.37044329049E+03  0.00000000000E+00 0.  1.
         -2    1    1    2    0  502 -0.20588076046E+02 -0.63522533041E+01  0.51312366771E+03  0.51357581559E+03  0.00000000000E+00 0.  1.
</event>
<event>
 4    1  0.5565417E+003  0.2028295E+02  0.7546771E-02  0.1529753E+00
          2   -1    0    0  501    0  0.00000000000E+00  0.00000000000E+00  0.12131231729E+04  0.12131231729E+04  0.00000000000E+00 0.  1.
         -2   -1    0    0    0  501 -0.00000000000E+00 -0.00000000000E+00 -0.20958856940E+01  0.20958856940E+01  0.00000000000E+00 0.  1.
          2    1    1    2  502    0  0.17883806133E+02  0.95690986279E+01  0.11617985923E+04  0.11619756311E+04  0.00000000000E+00 0.  1.
         -2    1    1    2    0  502 -0.17883806133E+02 -0.95690986279E+01  0.49228694884E+02  0.53243427485E+02  0.00000000000E+00 0.  1.
</event>
<event>
 4    1  0.5565417E+003  0.2018368E+02  0.7546771E-02  0.1531246E+00
          2   -1    0    0  501    0  0.00000000000E+00  0.00000000000E+00  0.22994338322E+02  0.22994338322E+02  0.00000000000E+00 0.  1.
         -2   -1    0    0    0  501 -0.00000000000E+00 -0.00000000000E+00 -0.33312482362E+02  0.33312482362E+02  0.00000000000E+00 0. -1.
          2    1    1    2  502    0 -0.19935228681E+02 -0.31571589085E+01  0.14104321196E+02  0.24623421195E+02  0.00000000000E+00 0.  1.
         -2    1    1    2    0  502  0.19935228681E+02  0.31571589085E+01 -0.24422465236E+02  0.31683399489E+02  0.00000000000E+00 0. -1.
</event>
<event>
 4    1  0.5565417E+003  0.2045965E+02  0.7546771E-02  0.1527121E+00
          2   -1    0    0  501    0  0.00000000000E+00  0.00000000000E+00  0.98929080886E+03  0.98929080886E+03  0.00000000000E+00 0. -1.
         -2   -1    0    0    0  501 -0.00000000000E+00 -0.00000000000E+00 -0.21103129572E+01  0.21103129572E+01  0.00000000000E+00 0. -1.
          2    1    1    2  502    0  0.12313705581E+02 -0.16339210135E+02  0.93681832216E+03  0.93704170978E+03  0.00000000000E+00 0. -1.
         -2    1    1    2    0  502 -0.12313705581E+02  0.16339210135E+02  0.50362173749E+02  0.54359412044E+02  0.00000000000E+00 0. -1.
</event>
<event>
 4    1  0.5565417E+003  0.3092457E+02  0.7546771E-02  0.1411728E+00
          2   -1    0    0  501    0  0.00000000000E+00  0.00000000000E+00  0.10374907646E+04  0.10374907646E+04  0.00000000000E+00 0.  1.
         -2   -1    0    0    0  501 -0.00000000000E+00 -0.00000000000E+00 -0.14934515632E+02  0.14934515632E+02  0.00000000000E+00 0. -1.
          2    1    1    2  502    0  0.24487857934E+02 -0.18885816744E+02  0.10209929945E+04  0.10214612200E+04  0.00000000000E+00 0.  1.
         -2    1    1    2    0  502 -0.24487857934E+02  0.18885816744E+02  0.15632545063E+01  0.30964060214E+02  0.00000000000E+00 0. -1.
</event>
<event>
 4    1  0.5565417E+003  0.2347847E+02  0.7546771E-02  0.1486576E+00
          2   -1    0    0  501    0  0.00000000000E+00  0.00000000000E+00  0.92671711893E+03  0.92671711893E+03  0.00000000000E+00 0.  1.
         -2   -1    0    0    0  501 -0.00000000000E+00 -0.00000000000E+00 -0.88463162138E+00  0.88463162138E+00  0.00000000000E+00 0.  1.
          2    1    1    2  502    0 -0.15809593994E+02 -0.17357865722E+02  0.72837743940E+03  0.72875574303E+03  0.00000000000E+00 0.  1.
         -2    1    1    2    0  502  0.15809593994E+02  0.17357865722E+02  0.19745504791E+03  0.19884600753E+03  0.00000000000E+00 0.  1.
</event>
<event>
 4    1  0.5565417E+003  0.4086290E+02  0.7546771E-02  0.1343502E+00
          2   -1    0    0  501    0  0.00000000000E+00  0.00000000000E+00  0.76654594108E+03  0.76654594108E+03  0.00000000000E+00 0. -1.
         -2   -1    0    0    0  501 -0.00000000000E+00 -0.00000000000E+00 -0.24804359845E+01  0.24804359845E+01  0.00000000000E+00 0. -1.
          2    1    1    2  502    0  0.20689684108E+02 -0.35237960492E+02  0.51622863981E+03  0.51784339857E+03  0.00000000000E+00 0. -1.
         -2    1    1    2    0  502 -0.20689684108E+02  0.35237960492E+02  0.24783686528E+03  0.25118297849E+03  0.00000000000E+00 0. -1.
</event>
<event>
 4    1  0.5565417E+003  0.2234446E+02  0.7546771E-02  0.1500898E+00
          2   -1    0    0  501    0  0.00000000000E+00  0.00000000000E+00  0.87299459902E+02  0.87299459902E+02  0.00000000000E+00 0. -1.
         -2   -1    0    0    0  501 -0.00000000000E+00 -0.00000000000E+00 -0.14799823436E+02  0.14799823436E+02  0.00000000000E+00 0. -1.
          2    1    1    2  502    0  0.21227796638E+02  0.69753506998E+01  0.76237341997E+02  0.79444365327E+02  0.00000000000E+00 0. -1.
         -2    1    1    2    0  502 -0.21227796638E+02 -0.69753506998E+01 -0.37377055301E+01  0.22654918012E+02  0.00000000000E+00 0. -1.
</event>
<event>
 4    1  0.5565417E+003  0.3638416E+02  0.7546771E-02  0.1371085E+00
          2   -1    0    0  501    0  0.00000000000E+00  0.00000000000E+00  0.58639110759E+03  0.58639110759E+03  0.00000000000E+00 0. -1.
         -2   -1    0    0    0  501 -0.00000000000E+00 -0.00000000000E+00 -0.71049451569E+01  0.71049451569E+01  0.00000000000E+00 0. -1.
          2    1    1    2  502    0 -0.22579029992E+02  0.28530594037E+02  0.53475344546E+03  0.53598978985E+03  0.00000000000E+00 0. -1.
         -2    1    1    2    0  502  0.22579029992E+02 -0.28530594037E+02  0.44532716975E+02  0.57506262899E+02  0.00000000000E+00 0. -1.
</event>
<event>
 4    1  0.5565417E+003  0.2322025E+02  0.7546771E-02  0.1489751E+00
          2   -1    0    0  501    0  0.00000000000E+00  0.00000000000E+00  0.87148823905E+02  0.87148823905E+02  0.00000000000E+00 0. -1.
         -2   -1    0    0    0  501 -0.00000000000E+00 -0.00000000000E+00 -0.78362360424E+02  0.78362360424E+02  0.00000000000E+00 0. -1.
          2    1    1    2  502    0 -0.22043023106E+02 -0.72996661339E+01  0.83814791935E+02  0.86971830730E+02  0.00000000000E+00 0. -1.
         -2    1    1    2    0  502  0.22043023106E+02  0.72996661339E+01 -0.75028328453E+02  0.78539353599E+02  0.00000000000E+00 0. -1.
</event>
<event>
 4    1  0.5565417E+003  0.2158464E+02  0.7546771E-02  0.1511079E+00
          2   -1    0    0  501    0  0.00000000000E+00  0.00000000000E+00  0.59954936033E+03  0.59954936033E+03  0.00000000000E+00 0. -1.
         -2   -1    0    0    0  501 -0.00000000000E+00 -0.00000000000E+00 -0.18133911488E+01  0.18133911488E+01  0.00000000000E+00 0. -1.
          2    1    1    2  502    0 -0.57621804160E+01  0.20801299572E+02  0.52617153954E+03  0.52661407673E+03  0.00000000000E+00 0. -1.
         -2    1    1    2    0  502  0.57621804160E+01 -0.20801299572E+02  0.71564429640E+02  0.74748674749E+02  0.00000000000E+00 0. -1.
</event>
<event>
 4    1  0.5565417E+003  0.2068709E+02  0.7546771E-02  0.1523780E+00
          2   -1    0    0  501    0  0.00000000000E+00  0.00000000000E+00  0.10241163534E+04  0.10241163534E+04  0.00000000000E+00 0. -1.
         -2   -1    0    0    0  501 -0.00000000000E+00 -0.00000000000E+00 -0.11489359157E+01  0.11489359157E+01  0.00000000000E+00 0. -1.
          2    1    1    2  502    0 -0.20684431702E+02  0.33154408715E+00  0.92039985995E+03  0.92063231414E+03  0.00000000000E+00 0. -1.
         -2    1    1    2    0  502  0.20684431702E+02 -0.33154408715E+00  0.10256755754E+03  0.10463297518E+03  0.00000000000E+00 0. -1.
</event>
<event>
 4    1  0.5565417E+003  0.2441064E+02  0.7546771E-02  0.1475506E+00
          2   -1    0    0  501    0  0.00000000000E+00  0.00000000000E+00  0.42325977930E+03  0.42325977930E+03  0.00000000000E+00 0. -1.
         -2   -1    0    0    0  501 -0.00000000000E+00 -0.00000000000E+00 -0.20549300938E+03  0.20549300938E+03  0.00000000000E+00 0. -1.
          2    1    1    2  502    0  0.12313679420E+02 -0.21077306227E+02  0.42218103104E+03  0.42288615786E+03  0.00000000000E+00 0. -1.
         -2    1    1    2    0  502 -0.12313679420E+02  0.21077306227E+02 -0.20441426112E+03  0.20586663083E+03  0.00000000000E+00 0. -1.
</event>
<event>
 4    1  0.5565417E+003  0.4030478E+02  0.7546771E-02  0.1346709E+00
          2   -1    0    0  501    0  0.00000000000E+00  0.00000000000E+00  0.10624068636E+04  0.10624068636E+04  0.00000000000E+00 0. -1.
         -2   -1    0    0    0  501 -0.00000000000E+00 -0.00000000000E+00 -0.31457845144E+02  0.31457845144E+02  0.00000000000E+00 0. -1.
          2    1    1    2  502    0  0.39175648067E+02 -0.94733136718E+01  0.10489490943E+04  0.10497231433E+04  0.00000000000E+00 0. -1.
         -2    1    1    2    0  502 -0.39175648067E+02  0.94733136718E+01 -0.18000075837E+02  0.44141565486E+02  0.00000000000E+00 0. -1.
</event>
<event>
 4    1  0.5565417E+003  0.2020765E+02  0.7546771E-02  0.1530885E+00
          2   -1    0    0  501    0  0.00000000000E+00  0.00000000000E+00  0.13736536873E+03  0.13736536873E+03  0.00000000000E+00 0.  1.
         -2   -1    0    0    0  501 -0.00000000000E+00 -0.00000000000E+00 -0.29461282326E+02  0.29461282326E+02  0.00000000000E+00 0.  1.
          2    1    1    2  502    0 -0.17456133448E+02  0.10180000679E+02  0.13304517877E+03  0.13457105411E+03  0.00000000000E+00 0.  1.
         -2    1    1    2    0  502  0.17456133448E+02 -0.10180000679E+02 -0.25141092372E+02  0.32255596947E+02  0.00000000000E+00 0.  1.
</event>
<event>
 4    1  0.5565417E+003  0.2176864E+02  0.7546771E-02  0.1508568E+00
          2   -1    0    0  501    0  0.00000000000E+00  0.00000000000E+00  0.24082900256E+03  0.24082900256E+03  0.00000000000E+00 0. -1.
         -2   -1    0    0    0  501 -0.00000000000E+00 -0.00000000000E+00 -0.32313318390E+02  0.32313318390E+02  0.00000000000E+00 0.  1.
          2    1    1    2  502    0 -0.86158634284E+01  0.19991014447E+02  0.23660553598E+03  0.23760482616E+03  0.00000000000E+00 0. -1.
         -2    1    1    2    0  502  0.86158634284E+01 -0.19991014447E+02 -0.28089851807E+02  0.35537494787E+02  0.00000000000E+00 0.  1.
</event>
<event>
 4    1  0.5565417E+003  0.2916073E+02  0.7546771E-02  0.1427032E+00
          2   -1    0    0  501    0  0.00000000000E+00  0.00000000000E+00  0.80770748199E+02  0.80770748199E+02  0.00000000000E+00 0. -1.
         -2   -1    0    0    0  501 -0.00000000000E+00 -0.00000000000E+00 -0.13485657876E+02  0.13485657876E+02  0.00000000000E+00 0. -1.
          2    1    1    2  502    0 -0.20259826252E+02  0.20973502348E+02  0.55713661670E+02  0.62883705816E+02  0.00000000000E+00 0. -1.
         -2    1    1    2    0  502  0.20259826252E+02 -0.20973502348E+02  0.11571428654E+02  0.31372700259E+02  0.00000000000E+00 0. -1.
</event>
<event>
 4    1  0.5565417E+003  0.2156176E+02  0.7546771E-02  0.1511393E+00
          2   -1    0    0  501    0  0.00000000000E+00  0.00000000000E+00  0.41259018074E+03  0.41259018074E+03  0.00000000000E+00 0.  1.
         -2   -1    0    0    0  501 -0.00000000000E+00 -0.00000000000E+00 -0.14807207752E+02  0.14807207752E+02  0.00000000000E+00 0.  1.
          2    1    1    2  502    0  0.14551602080E+02  0.15911017861E+02  0.40429822618E+03  0.40487277669E+03  0.00000000000E+00 0.  1.
         -2    1    1    2    0  502 -0.14551602080E+02 -0.15911017861E+02 -0.65152531949E+01  0.22524611798E+02  0.00000000000E+00 0.  1.
</event>
<event>
 4    1  0.5565417E+003  0.2032311E+02  0.7546771E-02  0.1529152E+00
          2   -1    0    0  501    0  0.00000000000E+00  0.00000000000E+00  0.60598506682E+03  0.60598506682E+03  0.00000000000E+00 0. -1.
         -2   -1    0    0    0  501 -0.00000000000E+00 -0.00000000000E+00 -0.26093601038E+01  0.26093601038E+01  0.00000000000E+00 0. -1.
          2    1    1    2  502    0  0.19637523217E+02  0.52341585083E+01  0.56324069767E+03  0.56360723225E+03  0.00000000000E+00 0. -1.
         -2    1    1    2    0  502 -0.19637523217E+02 -0.52341585083E+01  0.40135009041E+02  0.44987194668E+02  0.00000000000E+00 0. -1.
</event>
<event>
 4    1  0.5565417E+003  0.2315015E+02  0.7546771E-02  0.1490621E+00
          2   -1    0    0  501    0  0.00000000000E+00  0.00000000000E+00  0.12240220549E+04  0.12240220549E+04  0.00000000000E+00 0. -1.
         -2   -1    0    0    0  501 -0.00000000000E+00 -0.00000000000E+00 -0.12022477336E+01  0.12022477336E+01  0.00000000000E+00 0. -1.
          2    1    1    2  502    0  0.60169894395E+01  0.22354539899E+02  0.10998938299E+04  0.11001374308E+04  0.00000000000E+00 0. -1.
         -2    1    1    2    0  502 -0.60169894395E+01 -0.22354539899E+02  0.12292597731E+03  0.12508687186E+03  0.00000000000E+00 0. -1.
</event>
<event>
 4    1  0.5565417E+003  0.2198594E+02  0.7546771E-02  0.1505640E+00
          2   -1    0    0  501    0  0.00000000000E+00  0.00000000000E+00  0.41612360591E+03  0.41612360591E+03  0.00000000000E+00 0.  1.
         -2   -1    0    0    0  501 -0.00000000000E+00 -0.00000000000E+00 -0.12650646394E+01  0.12650646394E+01  0.00000000000E+00 0. -1.
          2    1    1    2  502    0  0.21142784245E+02  0.60302742140E+01  0.26710365799E+03  0.26800698805E+03  0.00000000000E+00 0.  1.
         -2    1    1    2    0  502 -0.21142784245E+02 -0.60302742140E+01  0.14775488328E+03  0.14938168250E+03  0.00000000000E+00 0. -1.
</event>
<event>
 4    1  0.5565417E+003  0.2393036E+02  0.7546771E-02  0.1481135E+00
          2   -1    0    0  501    0  0.00000000000E+00  0.00000000000E+00  0.48002817854E+02  0.48002817854E+02  0.00000000000E+00 0.  1.
         -2   -1    0    0    0  501 -0.00000000000E+00 -0.00000000000E+00 -0.97810161356E+02  0.97810161356E+02  0.00000000000E+00 0.  1.
          2    1    1    2  502    0 -0.14415123211E+01 -0.23886905754E+02  0.43412138888E+02  0.49570919168E+02  0.00000000000E+00 0.  1.
         -2    1    1    2    0  502  0.14415123211E+01  0.23886905754E+02 -0.93219482390E+02  0.96242060043E+02  0.00000000000E+00 0.  1.
</event>
<event>
 4    1  0.5565417E+003  0.2052113E+02  0.7546771E-02  0.1526213E+00
          2   -1    0    0  501    0  0.00000000000E+00  0.00000000000E+00  0.12072291166E+03  0.12072291166E+03  0.00000000000E+00 0.  1.
         -2   -1    0    0    0  501 -0.00000000000E+00 -0.00000000000E+00 -0.37904148322E+01  0.37904148322E+01  0.00000000000E+00 0.  1.
          2    1    1    2  502    0  0.55737311964E+01  0.19749677702E+02  0.40889548934E+02  0.45750097933E+02  0.00000000000E+00 0.  1.
         -2    1    1    2    0  502 -0.55737311964E+01 -0.19749677702E+02  0.76042947891E+02  0.78763228557E+02  0.00000000000E+00 0.  1.
</event>
<event>
 4    1  0.5565417E+003  0.2484495E+02  0.7546771E-02  0.1470545E+00
          2   -1    0    0  501    0  0.00000000000E+00  0.00000000000E+00  0.47423701948E+03  0.47423701948E+03  0.00000000000E+00 0.  1.
         -2   -1    0    0    0  501 -0.00000000000E+00 -0.00000000000E+00 -0.27002663447E+02  0.27002663447E+02  0.00000000000E+00 0.  1.
          2    1    1    2  502    0 -0.41255532596E+01  0.24500023832E+02  0.46812210598E+03  0.46878094828E+03  0.00000000000E+00 0.  1.
         -2    1    1    2    0  502  0.41255532596E+01 -0.24500023832E+02 -0.20887749947E+02  0.32458734654E+02  0.00000000000E+00 0.  1.
</event>
<event>
 4    1  0.5565417E+003  0.2094537E+02  0.7546771E-02  0.1520046E+00
          2   -1    0    0  501    0  0.00000000000E+00  0.00000000000E+00  0.34942699422E+03  0.34942699422E+03  0.00000000000E+00 0.  1.
         -2   -1    0    0    0  501 -0.00000000000E+00 -0.00000000000E+00 -0.89545642913E+01  0.89545642913E+01  0.00000000000E+00 0.  1.
          2    1    1    2  502    0  0.19494792655E+02 -0.76590940620E+01  0.33639073256E+03  0.33704218373E+03  0.00000000000E+00 0.  1.
         -2    1    1    2    0  502 -0.19494792655E+02  0.76590940620E+01  0.40816973669E+01  0.21339374778E+02  0.00000000000E+00 0.  1.
</event>
<event>
 4    1  0.5565417E+003  0.2187587E+02  0.7546771E-02  0.1507118E+00
          2   -1    0    0  501    0  0.00000000000E+00  0.00000000000E+00  0.15639734233E+04  0.15639734233E+04  0.00000000000E+00 0. -1.
         -2   -1    0    0    0  501 -0.00000000000E+00 -0.00000000000E+00 -0.16913234932E+02  0.16913234932E+02  0.00000000000E+00 0. -1.
          2    1    1    2  502    0 -0.21207632933E+02  0.53656344496E+01  0.15567906341E+04  0.15569443253E+04  0.00000000000E+00 0. -1.
         -2    1    1    2    0  502  0.21207632933E+02 -0.53656344496E+01 -0.97304457825E+01  0.23942332860E+02  0.00000000000E+00 0. -1.
</event>
<event>
 4    1  0.5565417E+003  0.2273911E+02  0.7546771E-02  0.1495800E+00
          2   -1    0    0  501    0  0.00000000000E+00  0.00000000000E+00  0.10984335748E+04  0.10984335748E+04  0.00000000000E+00 0. -1.
         -2   -1    0    0    0  501 -0.00000000000E+00 -0.00000000000E+00 -0.55142700548E+01  0.55142700548E+01  0.00000000000E+00 0. -1.
          2    1    1    2  502    0  0.16297673225E+02  0.15857267851E+02  0.10743481809E+04  0.10745887962E+04  0.00000000000E+00 0. -1.
         -2    1    1    2    0  502 -0.16297673225E+02 -0.15857267851E+02  0.18571123784E+02  0.29359048603E+02  0.00000000000E+00 0. -1.
</event>
<event>
 4    1  0.5565417E+003  0.2690856E+02  0.7546771E-02  0.1448529E+00
          2   -1    0    0  501    0  0.00000000000E+00  0.00000000000E+00  0.79878175887E+03  0.79878175887E+03  0.00000000000E+00 0.  1.
         -2   -1    0    0    0  501 -0.00000000000E+00 -0.00000000000E+00 -0.95412959645E+00  0.95412959645E+00  0.00000000000E+00 0.  1.
          2    1    1    2  502    0 -0.24736016340E+02  0.10592410918E+02  0.30954219034E+03  0.31070957061E+03  0.00000000000E+00 0.  1.
         -2    1    1    2    0  502  0.24736016340E+02 -0.10592410918E+02  0.48828543894E+03  0.48902631785E+03  0.00000000000E+00 0.  1.
</event>
<event>
 4    1  0.5565417E+003  0.2176179E+02  0.7546771E-02  0.1508661E+00
          2   -1    0    0  501    0  0.00000000000E+00  0.00000000000E+00  0.82497336770E+02  0.82497336770E+02  0.00000000000E+00 0. -1.
         -2   -1    0    0    0  501 -0.00000000000E+00 -0.00000000000E+00 -0.10659183068E+03  0.10659183068E+03  0.00000000000E+00 0.  1.
          2    1    1    2  502    0 -0.11693216718E+02 -0.18353313632E+02  0.79916259818E+02  0.82826227862E+02  0.00000000000E+00 0. -1.
         -2    1    1    2    0  502  0.11693216718E+02  0.18353313632E+02 -0.10401075373E+03  0.10626293958E+03  0.00000000000E+00 0.  1.
</event>
<event>
 4    1  0.5565417E+003  0.2430519E+02  0.7546771E-02  0.1476728E+00
          2   -1    0    0  501    0  0.00000000000E+00  0.00000000000E+00  0.40778747457E+03  0.40778747457E+03  0.00000000000E+00 0.  1.
         -2   -1    0    0    0  501 -0.00000000000E+00 -0.00000000000E+00 -0.60583847370E+01  0.60583847370E+01  0.00000000000E+00 0.  1.
          2    1    1    2  502    0  0.22662233369E+02 -0.87843959922E+01  0.38136073247E+03  0.38213446678E+03  0.00000000000E+00 0.  1.
         -2    1    1    2    0  502 -0.22662233369E+02  0.87843959922E+01  0.20368357369E+02  0.31711392529E+02  0.00000000000E+00 0.  1.
</event>
<event>
 4    1  0.5565417E+003  0.2031783E+02  0.7546771E-02  0.1529231E+00
          2   -1    0    0  501    0  0.00000000000E+00  0.00000000000E+00  0.16868798641E+04  0.16868798641E+04  0.00000000000E+00 0. -1.
         -2   -1    0    0    0  501 -0.00000000000E+00 -0.00000000000E+00 -0.24473451255E+00  0.24473451255E+00  0.00000000000E+00 0. -1.
          2    1    1    2  502    0  0.20285720854E+02  0.11416696888E+01  0.83690709379E+03  0.83715368811E+03  0.00000000000E+00 0. -1.
         -2    1    1    2    0  502 -0.20285720854E+02 -0.11416696888E+01  0.84972803580E+03  0.84997091051E+03  0.00000000000E+00 0. -1.
</event>
<event>
 4    1  0.5565417E+003  0.2088916E+02  0.7546771E-02  0.1520853E+00
          2   -1    0    0  501    0  0.00000000000E+00  0.00000000000E+00  0.29979389395E+03  0.29979389395E+03  0.00000000000E+00 0. -1.
         -2   -1    0    0    0  501 -0.00000000000E+00 -0.00000000000E+00 -0.39603470793E+01  0.39603470793E+01  0.00000000000E+00 0.  1.
          2    1    1    2  502    0  0.16829780427E+02  0.12373991500E+02  0.26870212506E+03  0.26951287388E+03  0.00000000000E+00 0. -1.
         -2    1    1    2    0  502 -0.16829780427E+02 -0.12373991500E+02  0.27131421814E+02  0.34241367153E+02  0.00000000000E+00 0.  1.
</event>
<event>
 4    1  0.5565417E+003  0.2564903E+02  0.7546771E-02  0.1461672E+00
          2   -1    0    0  501    0  0.00000000000E+00  0.00000000000E+00  0.76615678371E+03  0.76615678371E+03  0.00000000000E+00 0.  1.
         -2   -1    0    0    0  501 -0.00000000000E+00 -0.00000000000E+00 -0.52169969767E+01  0.52169969767E+01  0.00000000000E+00 0.  1.
          2    1    1    2  502    0  0.18564931793E+02  0.17697905073E+02  0.73299065895E+03  0.73343928082E+03  0.00000000000E+00 0.  1.
         -2    1    1    2    0  502 -0.18564931793E+02 -0.17697905073E+02  0.27949127780E+02  0.37934499867E+02  0.00000000000E+00 0.  1.
</event>
<event>
 4    1  0.5565417E+003  0.2637190E+02  0.7546771E-02  0.1454022E+00
          2   -1    0    0  501    0  0.00000000000E+00  0.00000000000E+00  0.17877406578E+03  0.17877406578E+03  0.00000000000E+00 0. -1.
         -2   -1    0    0    0  501 -0.00000000000E+00 -0.00000000000E+00 -0.42808520543E+01  0.42808520543E+01  0.00000000000E+00 0.  1.
          2    1    1    2  502    0 -0.16880234080E+02 -0.20261652456E+02  0.11489375128E+03  0.11788151232E+03  0.00000000000E+00 0. -1.
         -2    1    1    2    0  502  0.16880234080E+02  0.20261652456E+02  0.59599462437E+02  0.65173405509E+02  0.00000000000E+00 0.  1.
</event>
<event>
 4    1  0.9878532E+003  0.2435782E+02  0.7546771E-02  0.1476117E+00
          2   -1    0    0  501    0  0.00000000000E+00  0.00000000000E+00  0.13709433516E+04  0.13709433516E+04  0.00000000000E+00 0. -1.
         -2   -1    0    0    0  501 -0.00000000000E+00 -0.00000000000E+00 -0.21756098197E+03  0.21756098197E+03  0.00000000000E+00 0.  1.
          2    1    1    2  502    0 -0.50042680873E+01  0.23838217377E+02  0.13701529992E+04  0.13703694920E+04  0.00000000000E+00 0. -1.
         -2    1    1    2    0  502  0.50042680873E+01 -0.23838217377E+02 -0.21677062953E+03  0.21813484163E+03  0.00000000000E+00 0.  1.
</event>
<event>
 4    1  0.6935895E+003  0.2130495E+02  0.7546771E-02  0.1514955E+00
          2   -1    0    0  501    0  0.00000000000E+00  0.00000000000E+00  0.15410751652E+04  0.15410751652E+04  0.00000000000E+00 0. -1.
         -2   -1    0    0    0  501 -0.00000000000E+00 -0.00000000000E+00 -0.22638110987E+03  0.22638110987E+03  0.00000000000E+00 0. -1.
          2    1    1    2  502    0  0.80710172969E+01 -0.19716991038E+02  0.15405000866E+04  0.15406474022E+04  0.00000000000E+00 0. -1.
         -2    1    1    2    0  502 -0.80710172969E+01  0.19716991038E+02 -0.22580603128E+03  0.22680887288E+03  0.00000000000E+00 0. -1.
</event>
<event>
 4    1  0.5565417E+003  0.2068367E+02  0.7546771E-02  0.1523830E+00
          2   -1    0    0  501    0  0.00000000000E+00  0.00000000000E+00  0.14045101170E+04  0.14045101170E+04  0.00000000000E+00 0.  1.
         -2   -1    0    0    0  501 -0.00000000000E+00 -0.00000000000E+00 -0.35788640455E+01  0.35788640455E+01  0.00000000000E+00 0. -1.
          2    1    1    2  502    0  0.11108749989E+02  0.17447340391E+02  0.13738830404E+04  0.13740387268E+04  0.00000000000E+00 0.  1.
         -2    1    1    2    0  502 -0.11108749989E+02 -0.17447340391E+02  0.27048212583E+02  0.34050254287E+02  0.00000000000E+00 0. -1.
</event>
<event>
 4    1  0.5565417E+003  0.2273837E+02  0.7546771E-02  0.1495810E+00
          2   -1    0    0  501    0  0.00000000000E+00  0.00000000000E+00  0.12008636863E+04  0.12008636863E+04  0.00000000000E+00 0.  1.
         -2   -1    0    0    0  501 -0.00000000000E+00 -0.00000000000E+00 -0.74674846021E+00  0.74674846021E+00  0.00000000000E+00 0. -1.
          2    1    1    2  502    0  0.83757784753E+01 -0.21139527113E+02  0.99101241023E+03  0.99127323706E+03  0.00000000000E+00 0.  1.
         -2    1    1    2    0  502 -0.83757784753E+01  0.21139527113E+02  0.20910452763E+03  0.21033719773E+03  0.00000000000E+00 0. -1.
</event>
<event>
 4    1  0.5565417E+003  0.2121708E+02  0.7546771E-02  0.1516188E+00
          2   -1    0    0  501    0  0.00000000000E+00  0.00000000000E+00  0.12001218615E+04  0.12001218615E+04  0.00000000000E+00 0. -1.
         -2   -1    0    0    0  501 -0.00000000000E+00 -0.00000000000E+00 -0.38531759651E+00  0.38531759651E+00  0.00000000000E+00 0.  1.
          2    1    1    2  502    0 -0.16631033178E+02 -0.13174706654E+02  0.50211593030E+03  0.50256399754E+03  0.00000000000E+00 0. -1.
         -2    1    1    2    0  502  0.16631033178E+02  0.13174706654E+02  0.69762061358E+03  0.69794318154E+03  0.00000000000E+00 0.  1.
</event>
<event>
 4    1  0.5565417E+003  0.2151655E+02  0.7546771E-02  0.1512016E+00
          2   -1    0    0  501    0  0.00000000000E+00  0.00000000000E+00  0.15794917236E+02  0.15794917236E+02  0.00000000000E+00 0.  1.
         -2   -1    0    0    0  501 -0.00000000000E+00 -0.00000000000E+00 -0.46356310300E+03  0.46356310300E+03  0.00000000000E+00 0.  1.
          2    1    1    2  502    0  0.21014950620E+02 -0.46188486797E+01  0.80938158160E+01  0.22988513809E+02  0.00000000000E+00 0.  1.
         -2    1    1    2    0  502 -0.21014950620E+02  0.46188486797E+01 -0.45586200158E+03  0.45636950643E+03  0.00000000000E+00 0.  1.
</event>
<event>
 4    1  0.5565417E+003  0.2372487E+02  0.7546771E-02  0.1483591E+00
          2   -1    0    0  501    0  0.00000000000E+00  0.00000000000E+00  0.92520333146E+03  0.92520333146E+03  0.00000000000E+00 0.  1.
         -2   -1    0    0    0  501 -0.00000000000E+00 -0.00000000000E+00 -0.19502188539E+01  0.19502188539E+01  0.00000000000E+00 0. -1.
          2    1    1    2  502    0  0.12038323290E+02  0.20443786059E+02  0.84615737567E+03  0.84648991371E+03  0.00000000000E+00 0.  1.
         -2    1    1    2    0  502 -0.12038323290E+02 -0.20443786059E+02  0.77095736936E+02  0.80663636601E+02  0.00000000000E+00 0. -1.
</event>
<event>
 4    1  0.5565417E+003  0.2251548E+02  0.7546771E-02  0.1498674E+00
          2   -1    0    0  501    0  0.00000000000E+00  0.00000000000E+00  0.63553528923E+02  0.63553528923E+02  0.00000000000E+00 0. -1.
         -2   -1    0    0    0  501 -0.00000000000E+00 -0.00000000000E+00 -0.31810707643E+02  0.31810707643E+02  0.00000000000E+00 0. -1.
          2    1    1    2  502    0 -0.12820593728E+02 -0.18508893439E+02  0.57144550524E+02  0.61420244337E+02  0.00000000000E+00 0. -1.
         -2    1    1    2    0  502  0.12820593728E+02  0.18508893439E+02 -0.25401729244E+02  0.33943992229E+02  0.00000000000E+00 0. -1.
</event>
<event>
 4    1  0.5565417E+003  0.2014231E+02  0.7546771E-02  0.1531871E+00
          2   -1    0    0  501    0  0.00000000000E+00  0.00000000000E+00  0.13057595295E+03  0.13057595295E+03  0.00000000000E+00 0.  1.
         -2   -1    0    0    0  501 -0.00000000000E+00 -0.00000000000E+00 -0.31193933808E+01  0.31193933808E+01  0.00000000000E+00 0.  1.
          2    1    1    2  502    0 -0.14372202340E+02 -0.14112132462E+02  0.67924855818E+02  0.70848419324E+02  0.00000000000E+00 0.  1.
         -2    1    1    2    0  502  0.14372202340E+02  0.14112132462E+02  0.59531703747E+02  0.62846927004E+02  0.00000000000E+00 0.  1.
</event>
<event>
 4    1  0.5565417E+003  0.2986906E+02  0.7546771E-02  0.1420738E+00
          2   -1    0    0  501    0  0.00000000000E+00  0.00000000000E+00  0.28094877431E+04  0.28094877431E+04  0.00000000000E+00 0.  1.
         -2   -1    0    0    0  501 -0.00000000000E+00 -0.00000000000E+00 -0.35209216351E+00  0.35209216351E+00  0.00000000000E+00 0.  1.
          2    1    1    2  502    0  0.10693348607E+02 -0.27889299500E+02  0.18445959995E+04  0.18448378146E+04  0.00000000000E+00 0.  1.
         -2    1    1    2    0  502 -0.10693348607E+02  0.27889299500E+02  0.96453965144E+03  0.96500202069E+03  0.00000000000E+00 0.  1.
</event>
<event>
 4    1  0.5565417E+003  0.2049697E+02  0.7546771E-02  0.1526569E+00
          2   -1    0    0  501    0  0.00000000000E+00  0.00000000000E+00  0.30782491488E+01  0.30782491488E+01  0.00000000000E+00 0. -1.
         -2   -1    0    0    0  501 -0.00000000000E+00 -0.00000000000E+00 -0.51709652571E+03  0.51709652571E+03  0.00000000000E+00 0. -1.
          2    1    1    2  502    0 -0.53521497095E+01 -0.19785859669E+02 -0.33869803525E+02  0.39589005294E+02  0.00000000000E+00 0. -1.
         -2    1    1    2    0  502  0.53521497095E+01  0.19785859669E+02 -0.48014847303E+03  0.48058576956E+03  0.00000000000E+00 0. -1.
</event>
<event>
 4    1  0.5565417E+003  0.6230662E+02  0.7546771E-02  0.1252191E+00
          2   -1    0    0  501    0  0.00000000000E+00  0.00000000000E+00  0.94419883694E+03  0.94419883694E+03  0.00000000000E+00 0. -1.
         -2   -1    0    0    0  501 -0.00000000000E+00 -0.00000000000E+00 -0.66178526172E+01  0.66178526172E+01  0.00000000000E+00 0.  1.
          2    1    1    2  502    0 -0.59623000613E+02  0.18089007648E+02  0.76135766134E+03  0.76390287529E+03  0.00000000000E+00 0. -1.
         -2    1    1    2    0  502  0.59623000613E+02 -0.18089007648E+02  0.17622332299E+03  0.18691381427E+03  0.00000000000E+00 0.  1.
</event>
<event>
 4    1  0.5565417E+003  0.2069445E+02  0.7546771E-02  0.1523672E+00
          2   -1    0    0  501    0  0.00000000000E+00  0.00000000000E+00  0.27712397184E+03  0.27712397184E+03  0.00000000000E+00 0. -1.
         -2   -1    0    0    0  501 -0.00000000000E+00 -0.00000000000E+00 -0.63001364511E+03  0.63001364511E+03  0.00000000000E+00 0. -1.
          2    1    1    2  502    0 -0.22115450992E+01  0.20575942430E+02  0.27656734575E+03  0.27734050745E+03  0.00000000000E+00 0. -1.
         -2    1    1    2    0  502  0.22115450992E+01 -0.20575942430E+02 -0.62945701902E+03  0.62979710950E+03  0.00000000000E+00 0. -1.
</event>
<event>
 4    1  0.5565417E+003  0.2592615E+02  0.7546771E-02  0.1458704E+00
          2   -1    0    0  501    0  0.00000000000E+00  0.00000000000E+00  0.97464593356E+03  0.97464593356E+03  0.00000000000E+00 0. -1.
         -2   -1    0    0    0  501 -0.00000000000E+00 -0.00000000000E+00 -0.25718440239E+02  0.25718440239E+02  0.00000000000E+00 0.  1.
          2    1    1    2  502    0  0.14691078709E+02  0.21362054062E+02  0.96789406652E+03  0.96824123500E+03  0.00000000000E+00 0. -1.
         -2    1    1    2    0  502 -0.14691078709E+02 -0.21362054062E+02 -0.18966573199E+02  0.32123138799E+02  0.00000000000E+00 0.  1.
</event>
<event>
 4    1  0.5565417E+003  0.2492741E+02  0.7546771E-02  0.1469617E+00
          2   -1    0    0  501    0  0.00000000000E+00  0.00000000000E+00  0.14597933982E+03  0.14597933982E+03  0.00000000000E+00 0.  1.
         -2   -1    0    0    0  501 -0.00000000000E+00 -0.00000000000E+00 -0.18435150960E+02  0.18435150960E+02  0.00000000000E+00 0. -1.
          2    1    1    2  502    0  0.73058483607E+00 -0.24916698920E+02  0.13586668389E+03  0.13813446866E+03  0.00000000000E+00 0.  1.
         -2    1    1    2    0  502 -0.73058483607E+00  0.24916698920E+02 -0.83224950311E+01  0.26280022124E+02  0.00000000000E+00 0. -1.
</event>
<event>
 4    1  0.5565417E+003  0.2751622E+02  0.7546771E-02  0.1442490E+00
          2   -1    0    0  501    0  0.00000000000E+00  0.00000000000E+00  0.17116186657E+04  0.17116186657E+04  0.00000000000E+00 0.  1.
         -2   -1    0    0    0  501 -0.00000000000E+00 -0.00000000000E+00 -0.15846615562E+01  0.15846615562E+01  0.00000000000E+00 0. -1.
          2    1    1    2  502    0 -0.25271686771E+02 -0.10885044814E+02  0.15822977098E+04  0.15825369458E+04  0.00000000000E+00 0.  1.
         -2    1    1    2    0  502  0.25271686771E+02  0.10885044814E+02  0.12773629436E+03  0.13066638148E+03  0.00000000000E+00 0. -1.
</event>
<event>
 4    1  0.5565417E+003  0.2100607E+02  0.7546771E-02  0.1519178E+00
          2   -1    0    0  501    0  0.00000000000E+00  0.00000000000E+00  0.26159466096E+01  0.26159466096E+01  0.00000000000E+00 0. -1.
         -2   -1    0    0    0  501 -0.00000000000E+00 -0.00000000000E+00 -0.17643333651E+03  0.17643333651E+03  0.00000000000E+00 0.  1.
          2    1    1    2  502    0 -0.56692517164E+01 -0.20226572939E+02 -0.10567725300E+03  0.10774477468E+03  0.00000000000E+00 0. -1.
         -2    1    1    2    0  502  0.56692517164E+01  0.20226572939E+02 -0.68140136897E+02  0.71304508442E+02  0.00000000000E+00 0.  1.
</event>
<event>
 4    1  0.5565417E+003  0.2477807E+02  0.7546771E-02  0.1471301E+00
          2   -1    0    0  501    0  0.00000000000E+00  0.00000000000E+00  0.13256671819E+04  0.13256671819E+04  0.00000000000E+00 0. -1.
         -2   -1    0    0    0  501 -0.00000000000E+00 -0.00000000000E+00 -0.35864872727E+01  0.35864872727E+01  0.00000000000E+00 0.  1.
          2    1    1    2  502    0  0.19745844510E+02  0.14968448779E+02  0.12812724430E+04  0.12815120077E+04  0.00000000000E+00 0. -1.
         -2    1    1    2    0  502 -0.19745844510E+02 -0.14968448779E+02  0.40808251656E+02  0.47741661444E+02  0.00000000000E+00 0.  1.
</event>
<event>
 4    1  0.5565417E+003  0.2295050E+02  0.7546771E-02  0.1493121E+00
          2   -1    0    0  501    0  0.00000000000E+00  0.00000000000E+00  0.39639221354E+03  0.39639221354E+03  0.00000000000E+00 0. -1.
         -2   -1    0    0    0  501 -0.00000000000E+00 -0.00000000000E+00 -0.70163751008E+01  0.70163751008E+01  0.00000000000E+00 0.  1.
          2    1    1    2  502    0 -0.22609360109E+02  0.39423442600E+01  0.37629065539E+03  0.37698989718E+03  0.00000000000E+00 0. -1.
         -2    1    1    2    0  502  0.22609360109E+02 -0.39423442600E+01  0.13085183042E+02  0.26418691452E+02  0.00000000000E+00 0.  1.
</event>
<event>
 4    1  0.5565417E+003  0.3417250E+02  0.7546771E-02  0.1386476E+00
          2   -1    0    0  501    0  0.00000000000E+00  0.00000000000E+00  0.20871855833E+04  0.20871855833E+04  0.00000000000E+00 0.  1.
         -2   -1    0    0    0  501 -0.00000000000E+00 -0.00000000000E+00 -0.66456721020E+00  0.66456721020E+00  0.00000000000E+00 0. -1.
          2    1    1    2  502    0  0.62400050543E+01 -0.33597945851E+02  0.14583616967E+04  0.14587620087E+04  0.00000000000E+00 0.  1.
         -2    1    1    2    0  502 -0.62400050543E+01  0.33597945851E+02  0.62815931947E+03  0.62908814189E+03  0.00000000000E+00 0. -1.
</event>
<event>
 4    1  0.5565417E+003  0.2093891E+02  0.7546771E-02  0.1520139E+00
          2   -1    0    0  501    0  0.00000000000E+00  0.00000000000E+00  0.94763209810E+03  0.94763209810E+03  0.00000000000E+00 0. -1.
         -2   -1    0    0    0  501 -0.00000000000E+00 -0.00000000000E+00 -0.22222264169E+01  0.22222264169E+01  0.00000000000E+00 0.  1.
          2    1    1    2  502    0  0.16537166765E+02 -0.12843671242E+02  0.89531016472E+03  0.89555498369E+03  0.00000000000E+00 0. -1.
         -2    1    1    2    0  502 -0.16537166765E+02  0.12843671242E+02  0.50099706967E+02  0.54299340823E+02  0.00000000000E+00 0.  1.
</event>
<event>
 4    1  0.5565417E+003  0.2061595E+02  0.7546771E-02  0.1524819E+00
          2   -1    0    0  501    0  0.00000000000E+00  0.00000000000E+00  0.27259659959E+01  0.27259659959E+01  0.00000000000E+00 0. -1.
         -2   -1    0    0    0  501 -0.00000000000E+00 -0.00000000000E+00 -0.29789144075E+03  0.29789144075E+03  0.00000000000E+00 0. -1.
          2    1    1    2  502    0 -0.17711439094E+02  0.10550941222E+02 -0.43814574155E+02  0.48422457020E+02  0.00000000000E+00 0. -1.
         -2    1    1    2    0  502  0.17711439094E+02 -0.10550941222E+02 -0.25135090060E+03  0.25219494972E+03  0.00000000000E+00 0. -1.
</event>
<event>
 4    1  0.5565417E+003  0.2023180E+02  0.7546771E-02  0.1530521E+00
          2   -1    0    0  501    0  0.00000000000E+00  0.00000000000E+00  0.45908916203E+03  0.45908916203E+03  0.00000000000E+00 0.  1.
         -2   -1    0    0    0  501 -0.00000000000E+00 -0.00000000000E+00 -0.25296988254E+01  0.25296988254E+01  0.00000000000E+00 0.  1.
          2    1    1    2  502    0 -0.55067502527E+01 -0.19467958798E+02  0.41401255612E+03  0.41450660109E+03  0.00000000000E+00 0.  1.
         -2    1    1    2    0  502  0.55067502527E+01  0.19467958798E+02  0.42546907078E+02  0.47112259763E+02  0.00000000000E+00 0.  1.
</event>
<event>
 4    1  0.5565417E+003  0.2435080E+02  0.7546771E-02  0.1476199E+00
          2   -1    0    0  501    0  0.00000000000E+00  0.00000000000E+00  0.18533798193E+03  0.18533798193E+03  0.00000000000E+00 0.  1.
         -2   -1    0    0    0  501 -0.00000000000E+00 -0.00000000000E+00 -0.43191988523E+01  0.43191988523E+01  0.00000000000E+00 0.  1.
          2    1    1    2  502    0 -0.20340256782E+02 -0.13387865283E+02  0.42223806941E+02  0.48742290215E+02  0.00000000000E+00 0.  1.
         -2    1    1    2    0  502  0.20340256782E+02  0.13387865283E+02  0.13879497613E+03  0.14091489056E+03  0.00000000000E+00 0.  1.
</event>
<event>
 4    1  0.6286194E+003  0.2176211E+02  0.7546771E-02  0.1508656E+00
          2   -1    0    0  501    0  0.00000000000E+00  0.00000000000E+00  0.12739212050E+04  0.12739212050E+04  0.00000000000E+00 0.  1.
         -2   -1    0    0    0  501 -0.00000000000E+00 -0.00000000000E+00 -0.82743268630E+02  0.82743268630E+02  0.00000000000E+00 0. -1.
          2    1    1    2  502    0  0.12713038720E+02 -0.17662612730E+02  0.12723956507E+04  0.12725817385E+04  0.00000000000E+00 0.  1.
         -2    1    1    2    0  502 -0.12713038720E+02  0.17662612730E+02 -0.81217714282E+02  0.84082735179E+02  0.00000000000E+00 0. -1.
</event>
<event>
 4    1  0.5565417E+003  0.2733589E+02  0.7546771E-02  0.1444263E+00
          2   -1    0    0  501    0  0.00000000000E+00  0.00000000000E+00  0.11473565576E+03  0.11473565576E+03  0.00000000000E+00 0. -1.
         -2   -1    0    0    0  501 -0.00000000000E+00 -0.00000000000E+00 -0.65233377523E+01  0.65233377523E+01  0.00000000000E+00 0. -1.
          2    1    1    2  502    0 -0.24634291550E+02 -0.11849162082E+02  0.56542388648E+02  0.62803604007E+02  0.00000000000E+00 0. -1.
         -2    1    1    2    0  502  0.24634291550E+02  0.11849162082E+02  0.51669929361E+02  0.58455389507E+02  0.00000000000E+00 0. -1.
</event>
<event>
 4    1  0.5565417E+003  0.2959084E+02  0.7546771E-02  0.1423186E+00
          2   -1    0    0  501    0  0.00000000000E+00  0.00000000000E+00  0.10217244819E+04  0.10217244819E+04  0.00000000000E+00 0.  1.
         -2   -1    0    0    0  501 -0.00000000000E+00 -0.00000000000E+00 -0.40371087210E+01  0.40371087210E+01  0.00000000000E+00 0. -1.
          2    1    1    2  502    0  0.10498191139E+02 -0.27665972352E+02  0.96404361777E+03  0.96449764904E+03  0.00000000000E+00 0.  1.
         -2    1    1    2    0  502 -0.10498191139E+02  0.27665972352E+02  0.53643755402E+02  0.61263941572E+02  0.00000000000E+00 0. -1.
</event>
<event>
 4    1  0.5565417E+003  0.2515217E+02  0.7546771E-02  0.1467108E+00
          2   -1    0    0  501    0  0.00000000000E+00  0.00000000000E+00  0.88842772674E+03  0.88842772674E+03  0.00000000000E+00 0.  1.
         -2   -1    0    0    0  501 -0.00000000000E+00 -0.00000000000E+00 -0.90128234343E+01  0.90128234343E+01  0.00000000000E+00 0.  1.
          2    1    1    2  502    0  0.25149894905E+02  0.33842656084E+00  0.87033692741E+03  0.87070029227E+03  0.00000000000E+00 0.  1.
         -2    1    1    2    0  502 -0.25149894905E+02 -0.33842656084E+00  0.90779758916E+01  0.26740257900E+02  0.00000000000E+00 0.  1.
</event>
<event>
 4    1  0.5565417E+003  0.2027399E+02  0.7546771E-02  0.1529888E+00
          2   -1    0    0  501    0  0.00000000000E+00  0.00000000000E+00  0.93900562862E+01  0.93900562862E+01  0.00000000000E+00 0.  1.
         -2   -1    0    0    0  501 -0.00000000000E+00 -0.00000000000E+00 -0.52419373724E+02  0.52419373724E+02  0.00000000000E+00 0. -1.
          2    1    1    2  502    0  0.16761225978E+02 -0.11405962609E+02 -0.89634424526E+01  0.22167047163E+02  0.00000000000E+00 0.  1.
         -2    1    1    2    0  502 -0.16761225978E+02  0.11405962609E+02 -0.34065874985E+02  0.39642382847E+02  0.00000000000E+00 0. -1.
</event>
<event>
 4    1  0.5565417E+003  0.2174399E+02  0.7546771E-02  0.1508902E+00
          2   -1    0    0  501    0  0.00000000000E+00  0.00000000000E+00  0.95840511184E+03  0.95840511184E+03  0.00000000000E+00 0.  1.
         -2   -1    0    0    0  501 -0.00000000000E+00 -0.00000000000E+00 -0.21250241760E+02  0.21250241760E+02  0.00000000000E+00 0.  1.
          2    1    1    2  502    0 -0.16139235652E+02  0.14571415991E+02  0.95268609275E+03  0.95293420151E+03  0.00000000000E+00 0.  1.
         -2    1    1    2    0  502  0.16139235652E+02 -0.14571415991E+02 -0.15531222668E+02  0.26721152090E+02  0.00000000000E+00 0.  1.
</event>
<event>
 4    1  0.5565417E+003  0.2010317E+02  0.7546771E-02  0.1532464E+00
          2   -1    0    0  501    0  0.00000000000E+00  0.00000000000E+00  0.15829591588E+04  0.15829591588E+04  0.00000000000E+00 0.  1.
         -2   -1    0    0    0  501 -0.00000000000E+00 -0.00000000000E+00 -0.94202676773E+00  0.94202676773E+00  0.00000000000E+00 0.  1.
          2    1    1    2  502    0 -0.13637613002E+02  0.14769999326E+02  0.14671800904E+04  0.14673178098E+04  0.00000000000E+00 0.  1.
         -2    1    1    2    0  502  0.13637613002E+02 -0.14769999326E+02  0.11483704167E+03  0.11658337578E+03  0.00000000000E+00 0.  1.
</event>
<event>
 4    1  0.5565417E+003  0.3162336E+02  0.7546771E-02  0.1405995E+00
          2   -1    0    0  501    0  0.00000000000E+00  0.00000000000E+00  0.80562608325E+02  0.80562608325E+02  0.00000000000E+00 0. -1.
         -2   -1    0    0    0  501 -0.00000000000E+00 -0.00000000000E+00 -0.16763571595E+02  0.16763571595E+02  0.00000000000E+00 0. -1.
          2    1    1    2  502    0 -0.19825555703E+02 -0.24637052587E+02  0.56689790059E+02  0.64913552638E+02  0.00000000000E+00 0. -1.
         -2    1    1    2    0  502  0.19825555703E+02  0.24637052587E+02  0.71092466715E+01  0.32412627283E+02  0.00000000000E+00 0. -1.
</event>
<event>
 4    1  0.5565417E+003  0.2156324E+02  0.7546771E-02  0.1511373E+00
          2   -1    0    0  501    0  0.00000000000E+00  0.00000000000E+00  0.13521964530E+04  0.13521964530E+04  0.00000000000E+00 0.  1.
         -2   -1    0    0    0  501 -0.00000000000E+00 -0.00000000000E+00 -0.34388636233E+00  0.34388636233E+00  0.00000000000E+00 0. -1.
          2    1    1    2  502    0 -0.21517475996E+02  0.14041595701E+01  0.68121899781E+03  0.68156019280E+03  0.00000000000E+00 0. -1.
         -2    1    1    2    0  502  0.21517475996E+02 -0.14041595701E+01  0.67063356886E+03  0.67098014660E+03  0.00000000000E+00 0.  1.
</event>
<event>
 4    1  0.5565417E+003  0.2316471E+02  0.7546771E-02  0.1490440E+00
          2   -1    0    0  501    0  0.00000000000E+00  0.00000000000E+00  0.56145286557E+03  0.56145286557E+03  0.00000000000E+00 0. -1.
         -2   -1    0    0    0  501 -0.00000000000E+00 -0.00000000000E+00 -0.14112602568E+01  0.14112602568E+01  0.00000000000E+00 0. -1.
          2    1    1    2  502    0 -0.14658257992E+02 -0.17937092343E+02  0.43991148147E+03  0.44052095903E+03  0.00000000000E+00 0. -1.
         -2    1    1    2    0  502  0.14658257992E+02  0.17937092343E+02  0.12013012384E+03  0.12234316680E+03  0.00000000000E+00 0. -1.
</event>
<event>
 4    1  0.5565417E+003  0.3114626E+02  0.7546771E-02  0.1409890E+00
          2   -1    0    0  501    0  0.00000000000E+00  0.00000000000E+00  0.13770830735E+04  0.13770830735E+04  0.00000000000E+00 0. -1.
         -2   -1    0    0    0  501 -0.00000000000E+00 -0.00000000000E+00 -0.20981440594E+01  0.20981440594E+01  0.00000000000E+00 0.  1.
          2    1    1    2  502    0 -0.62432961004E+01 -0.30514110500E+02  0.12495192494E+04  0.12499073743E+04  0.00000000000E+00 0. -1.
         -2    1    1    2    0  502  0.62432961004E+01  0.30514110500E+02  0.12546568010E+03  0.12927384333E+03  0.00000000000E+00 0.  1.
</event>
<event>
 4    1  0.5565417E+003  0.2688311E+02  0.7546771E-02  0.1448786E+00
          2   -1    0    0  501    0  0.00000000000E+00  0.00000000000E+00  0.45965232476E+03  0.45965232476E+03  0.00000000000E+00 0.  1.
         -2   -1    0    0    0  501 -0.00000000000E+00 -0.00000000000E+00 -0.21022393931E+01  0.21022393931E+01  0.00000000000E+00 0.  1.
          2    1    1    2  502    0 -0.74601673022E+01 -0.25827259703E+02  0.34469602499E+03  0.34574275276E+03  0.00000000000E+00 0.  1.
         -2    1    1    2    0  502  0.74601673022E+01  0.25827259703E+02  0.11285406038E+03  0.11601181140E+03  0.00000000000E+00 0.  1.
</event>
<event>
 4    1  0.5565417E+003  0.2306400E+02  0.7546771E-02  0.1491696E+00
          2   -1    0    0  501    0  0.00000000000E+00  0.00000000000E+00  0.49596217268E+00  0.49596217268E+00  0.00000000000E+00 0. -1.
         -2   -1    0    0    0  501 -0.00000000000E+00 -0.00000000000E+00 -0.12440049073E+04  0.12440049073E+04  0.00000000000E+00 0.  1.
          2    1    1    2  502    0 -0.22361644674E+02 -0.56484322090E+01 -0.39075039488E+03  0.39143047791E+03  0.00000000000E+00 0. -1.
         -2    1    1    2    0  502  0.22361644674E+02  0.56484322090E+01 -0.85275855028E+03  0.85307039159E+03  0.00000000000E+00 0.  1.
</event>
<event>
 4    1  0.5565417E+003  0.2362234E+02  0.7546771E-02  0.1484828E+00
          2   -1    0    0  501    0  0.00000000000E+00  0.00000000000E+00  0.22327240686E+03  0.22327240686E+03  0.00000000000E+00 0. -1.
         -2   -1    0    0    0  501 -0.00000000000E+00 -0.00000000000E+00 -0.82227049093E+01  0.82227049093E+01  0.00000000000E+00 0. -1.
          2    1    1    2  502    0  0.19624791803E+02 -0.13148486999E+02  0.20409287337E+03  0.20545538719E+03  0.00000000000E+00 0. -1.
         -2    1    1    2    0  502 -0.19624791803E+02  0.13148486999E+02  0.10956828577E+02  0.26039724579E+02  0.00000000000E+00 0. -1.
</event>
<event>
 4    1  0.5565417E+003  0.3535757E+02  0.7546771E-02  0.1378067E+00
          2   -1    0    0  501    0  0.00000000000E+00  0.00000000000E+00  0.89407699961E+01  0.89407699961E+01  0.00000000000E+00 0. -1.
         -2   -1    0    0    0  501 -0.00000000000E+00 -0.00000000000E+00 -0.44494799631E+03  0.44494799631E+03  0.00000000000E+00 0. -1.
          2    1    1    2  502    0  0.14583538574E+02  0.32209907906E+02 -0.30071447301E+02  0.46416050106E+02  0.00000000000E+00 0. -1.
         -2    1    1    2    0  502 -0.14583538574E+02 -0.32209907906E+02 -0.40593577901E+03  0.40747271620E+03  0.00000000000E+00 0. -1.
</event>
<event>
 4    1  0.5565417E+003  0.2021410E+02  0.7546771E-02  0.1530788E+00
          2   -1    0    0  501    0  0.00000000000E+00  0.00000000000E+00  0.30550099453E+03  0.30550099453E+03  0.00000000000E+00 0. -1.
         -2   -1    0    0    0  501 -0.00000000000E+00 -0.00000000000E+00 -0.27858199716E+02  0.27858199716E+02  0.00000000000E+00 0.  1.
          2    1    1    2  502    0 -0.19991451403E+02  0.29919389114E+01  0.30145053057E+03  0.30212750985E+03  0.00000000000E+00 0. -1.
         -2    1    1    2    0  502  0.19991451403E+02 -0.29919389114E+01 -0.23807735762E+02  0.31231684389E+02  0.00000000000E+00 0.  1.
</event>
<event>
 4    1  0.5565417E+003  0.3013692E+02  0.7546771E-02  0.1418410E+00
          2   -1    0    0  501    0  0.00000000000E+00  0.00000000000E+00  0.10160799892E+04  0.10160799892E+04  0.00000000000E+00 0.  1.
         -2   -1    0    0    0  501 -0.00000000000E+00 -0.00000000000E+00 -0.89680106714E+00  0.89680106714E+00  0.00000000000E+00 0.  1.
          2    1    1    2  502    0 -0.30125101086E+02  0.84325882809E+00  0.47846975790E+03  0.47941792001E+03  0.00000000000E+00 0.  1.
         -2    1    1    2    0  502  0.30125101086E+02 -0.84325882809E+00  0.53671343024E+03  0.53755887027E+03  0.00000000000E+00 0.  1.
</event>
<event>
 4    1  0.5565417E+003  0.2822034E+02  0.7546771E-02  0.1435720E+00
          2   -1    0    0  501    0  0.00000000000E+00  0.00000000000E+00  0.11200193067E+03  0.11200193067E+03  0.00000000000E+00 0.  1.
         -2   -1    0    0    0  501 -0.00000000000E+00 -0.00000000000E+00 -0.20900673489E+03  0.20900673489E+03  0.00000000000E+00 0.  1.
          2    1    1    2  502    0 -0.26112764992E+02 -0.10700987108E+02  0.10924810007E+03  0.11283410384E+03  0.00000000000E+00 0.  1.
         -2    1    1    2    0  502  0.26112764992E+02  0.10700987108E+02 -0.20625290429E+03  0.20817456172E+03  0.00000000000E+00 0.  1.
</event>
<event>
 4    1  0.5565417E+003  0.3692937E+02  0.7546771E-02  0.1367484E+00
          2   -1    0    0  501    0  0.00000000000E+00  0.00000000000E+00  0.76151912067E+03  0.76151912067E+03  0.00000000000E+00 0. -1.
         -2   -1    0    0    0  501 -0.00000000000E+00 -0.00000000000E+00 -0.21966409488E+01  0.21966409488E+01  0.00000000000E+00 0. -1.
          2    1    1    2  502    0 -0.35486305947E+02  0.10222561392E+02  0.54378250556E+03  0.54503503743E+03  0.00000000000E+00 0. -1.
         -2    1    1    2    0  502  0.35486305947E+02 -0.10222561392E+02  0.21553997417E+03  0.21868072420E+03  0.00000000000E+00 0. -1.
</event>
<event>
 4    1  0.5565417E+003  0.2007542E+02  0.7546771E-02  0.1532886E+00
          2   -1    0    0  501    0  0.00000000000E+00  0.00000000000E+00  0.11213134076E+03  0.11213134076E+03  0.00000000000E+00 0.  1.
         -2   -1    0    0    0  501 -0.00000000000E+00 -0.00000000000E+00 -0.37036480707E+01  0.37036480707E+01  0.00000000000E+00 0. -1.
          2    1    1    2  502    0  0.18244232725E+02  0.83767889775E+01  0.64170105622E+02  0.67237081115E+02  0.00000000000E+00 0.  1.
         -2    1    1    2    0  502 -0.18244232725E+02 -0.83767889775E+01  0.44257587064E+02  0.48597907712E+02  0.00000000000E+00 0. -1.
</event>
<event>
 4    1  0.5565417E+003  0.2812742E+02  0.7546771E-02  0.1436600E+00
          2   -1    0    0  501    0  0.00000000000E+00  0.00000000000E+00  0.43470371717E+03  0.43470371717E+03  0.00000000000E+00 0. -1.
         -2   -1    0    0    0  501 -0.00000000000E+00 -0.00000000000E+00 -0.33036235275E+01  0.33036235275E+01  0.00000000000E+00 0. -1.
          2    1    1    2  502    0 -0.11159213974E+02  0.25819054110E+02  0.36246455922E+03  0.36355427147E+03  0.00000000000E+00 0. -1.
         -2    1    1    2    0  502  0.11159213974E+02 -0.25819054110E+02  0.68935534422E+02  0.74453069229E+02  0.00000000000E+00 0. -1.
</event>
<event>
 4    1  0.5565417E+003  0.2580499E+02  0.7546771E-02  0.1459996E+00
          2   -1    0    0  501    0  0.00000000000E+00  0.00000000000E+00  0.25153354817E+03  0.25153354817E+03  0.00000000000E+00 0. -1.
         -2   -1    0    0    0  501 -0.00000000000E+00 -0.00000000000E+00 -0.84050930850E+01  0.84050930850E+01  0.00000000000E+00 0.  1.
          2    1    1    2  502    0 -0.19392901768E+02 -0.17023892058E+02  0.22913534895E+03  0.23058383655E+03  0.00000000000E+00 0. -1.
         -2    1    1    2    0  502  0.19392901768E+02  0.17023892058E+02  0.13993106130E+02  0.29354804699E+02  0.00000000000E+00 0.  1.
</event>
<event>
 4    1  0.5565417E+003  0.2171081E+02  0.7546771E-02  0.1509354E+00
          2   -1    0    0  501    0  0.00000000000E+00  0.00000000000E+00  0.56796861535E+01  0.56796861535E+01  0.00000000000E+00 0.  1.
         -2   -1    0    0    0  501 -0.00000000000E+00 -0.00000000000E+00 -0.53489200263E+03  0.53489200263E+03  0.00000000000E+00 0. -1.
          2    1    1    2  502    0  0.78032209297E+01  0.20260034013E+02 -0.16171486808E+02  0.27071686698E+02  0.00000000000E+00 0.  1.
         -2    1    1    2    0  502 -0.78032209297E+01 -0.20260034013E+02 -0.51304082967E+03  0.51350000208E+03  0.00000000000E+00 0. -1.
</event>
<event>
 4    1  0.5565417E+003  0.2854776E+02  0.7546771E-02  0.1432651E+00
          2   -1    0    0  501    0  0.00000000000E+00  0.00000000000E+00  0.21203059125E+04  0.21203059125E+04  0.00000000000E+00 0. -1.
         -2   -1    0    0    0  501 -0.00000000000E+00 -0.00000000000E+00 -0.91643819504E+01  0.91643819504E+01  0.00000000000E+00 0. -1.
          2    1    1    2  502    0  0.11346619410E+02 -0.26195974957E+02  0.20977385309E+04  0.20979327728E+04  0.00000000000E+00 0. -1.
         -2    1    1    2    0  502 -0.11346619410E+02  0.26195974957E+02  0.13402999633E+02  0.31537521703E+02  0.00000000000E+00 0. -1.
</event>
<event>
 4    1  0.5565417E+003  0.2559770E+02  0.7546771E-02  0.1462227E+00
          2   -1    0    0  501    0  0.00000000000E+00  0.00000000000E+00  0.44961303965E+02  0.44961303965E+02  0.00000000000E+00 0.  1.
         -2   -1    0    0    0  501 -0.00000000000E+00 -0.00000000000E+00 -0.36498781591E+02  0.36498781591E+02  0.00000000000E+00 0. -1.
          2    1    1    2  502    0  0.39763568951E+00  0.25594609628E+02  0.35799371286E+02  0.44009511934E+02  0.00000000000E+00 0.  1.
         -2    1    1    2    0  502 -0.39763568951E+00 -0.25594609628E+02 -0.27336848913E+02  0.37450573622E+02  0.00000000000E+00 0. -1.
</event>
<event>
 4    1  0.5565417E+003  0.2418621E+02  0.7546771E-02  0.1478117E+00
          2   -1    0    0  501    0  0.00000000000E+00  0.00000000000E+00  0.12487120560E+04  0.12487120560E+04  0.00000000000E+00 0.  1.
         -2   -1    0    0    0  501 -0.00000000000E+00 -0.00000000000E+00 -0.98434502442E+00  0.98434502442E+00  0.00000000000E+00 0. -1.
          2    1    1    2  502    0  0.23428995443E+02  0.60045744846E+01  0.10762162989E+04  0.10764880374E+04  0.00000000000E+00 0.  1.
         -2    1    1    2    0  502 -0.23428995443E+02 -0.60045744846E+01  0.17151141213E+03  0.17320836364E+03  0.00000000000E+00 0. -1.
</event>
<event>
 4    1  0.5565417E+003  0.3133115E+02  0.7546771E-02  0.1408371E+00
          2   -1    0    0  501    0  0.00000000000E+00  0.00000000000E+00  0.57312876934E+02  0.57312876934E+02  0.00000000000E+00 0. -1.
         -2   -1    0    0    0  501 -0.00000000000E+00 -0.00000000000E+00 -0.19050316507E+02  0.19050316507E+02  0.00000000000E+00 0. -1.
          2    1    1    2  502    0 -0.22183394763E+02  0.22125504376E+02  0.31260784312E+02  0.44259209018E+02  0.00000000000E+00 0. -1.
         -2    1    1    2    0  502  0.22183394763E+02 -0.22125504376E+02  0.70017761149E+01  0.32103984423E+02  0.00000000000E+00 0. -1.
</event>
<event>
 4    1  0.5565417E+003  0.2336869E+02  0.7546771E-02  0.1487920E+00
          2   -1    0    0  501    0  0.00000000000E+00  0.00000000000E+00  0.70023220305E+03  0.70023220305E+03  0.00000000000E+00 0.  1.
         -2   -1    0    0    0  501 -0.00000000000E+00 -0.00000000000E+00 -0.14370760857E+01  0.14370760857E+01  0.00000000000E+00 0.  1.
          2    1    1    2  502    0  0.43042731422E+01  0.22968871690E+02  0.58664998980E+03  0.58711524113E+03  0.00000000000E+00 0.  1.
         -2    1    1    2    0  502 -0.43042731422E+01 -0.22968871690E+02  0.11214513717E+03  0.11455403801E+03  0.00000000000E+00 0.  1.
</event>
<event>
 4    1  0.5565417E+003  0.2486575E+02  0.7546771E-02  0.1470311E+00
          2   -1    0    0  501    0  0.00000000000E+00  0.00000000000E+00  0.68758509108E+03  0.68758509108E+03  0.00000000000E+00 0.  1.
         -2   -1    0    0    0  501 -0.00000000000E+00 -0.00000000000E+00 -0.36673418363E+01  0.36673418363E+01  0.00000000000E+00 0.  1.
          2    1    1    2  502    0  0.21854666421E+01 -0.24769522043E+02  0.64223572014E+03  0.64271690946E+03  0.00000000000E+00 0.  1.
         -2    1    1    2    0  502 -0.21854666421E+01  0.24769522043E+02  0.41682029106E+02  0.48535523455E+02  0.00000000000E+00 0.  1.
</event>
<event>
 4    1  0.5565417E+003  0.2673059E+02  0.7546771E-02  0.1450333E+00
          2   -1    0    0  501    0  0.00000000000E+00  0.00000000000E+00  0.12027882688E+01  0.12027882688E+01  0.00000000000E+00 0. -1.
         -2   -1    0    0    0  501 -0.00000000000E+00 -0.00000000000E+00 -0.76500931706E+03  0.76500931706E+03  0.00000000000E+00 0.  1.
          2    1    1    2  502    0 -0.10004724629E+02  0.24787693668E+02 -0.20080107763E+03  0.20257244889E+03  0.00000000000E+00 0. -1.
         -2    1    1    2    0  502  0.10004724629E+02 -0.24787693668E+02 -0.56300545117E+03  0.56363965644E+03  0.00000000000E+00 0.  1.
</event>
<event>
 4    1  0.5565417E+003  0.2777032E+02  0.7546771E-02  0.1440020E+00
          2   -1    0    0  501    0  0.00000000000E+00  0.00000000000E+00  0.69204245841E+03  0.69204245841E+03  0.00000000000E+00 0. -1.
         -2   -1    0    0    0  501 -0.00000000000E+00 -0.00000000000E+00 -0.69281170342E+02  0.69281170342E+02  0.00000000000E+00 0. -1.
          2    1    1    2  502    0 -0.90480947507E+01  0.26254955106E+02  0.68896862629E+03  0.68952806955E+03  0.00000000000E+00 0. -1.
         -2    1    1    2    0  502  0.90480947507E+01 -0.26254955106E+02 -0.66207338224E+02  0.71795559200E+02  0.00000000000E+00 0. -1.
</event>
<event>
 4    1  0.5565417E+003  0.2159147E+02  0.7546771E-02  0.1510985E+00
          2   -1    0    0  501    0  0.00000000000E+00  0.00000000000E+00  0.13944347252E+04  0.13944347252E+04  0.00000000000E+00 0.  1.
         -2   -1    0    0    0  501 -0.00000000000E+00 -0.00000000000E+00 -0.41708075330E+01  0.41708075330E+01  0.00000000000E+00 0.  1.
          2    1    1    2  502    0 -0.15752793728E+02 -0.14766214576E+02  0.13658220613E+04  0.13659927140E+04  0.00000000000E+00 0.  1.
         -2    1    1    2    0  502  0.15752793728E+02  0.14766214576E+02  0.24441856425E+02  0.32612818778E+02  0.00000000000E+00 0.  1.
</event>
<event>
 4    1  0.5565417E+003  0.3763073E+02  0.7546771E-02  0.1362958E+00
          2   -1    0    0  501    0  0.00000000000E+00  0.00000000000E+00  0.28944901137E+02  0.28944901137E+02  0.00000000000E+00 0. -1.
         -2   -1    0    0    0  501 -0.00000000000E+00 -0.00000000000E+00 -0.78285639560E+03  0.78285639560E+03  0.00000000000E+00 0. -1.
          2    1    1    2  502    0 -0.37492571052E+02  0.32216473315E+01  0.16057340222E+02  0.40913446086E+02  0.00000000000E+00 0. -1.
         -2    1    1    2    0  502  0.37492571052E+02 -0.32216473315E+01 -0.76996883469E+03  0.77088785065E+03  0.00000000000E+00 0. -1.
</event>
<event>
 4    1  0.5565417E+003  0.3406728E+02  0.7546771E-02  0.1387242E+00
          2   -1    0    0  501    0  0.00000000000E+00  0.00000000000E+00  0.96389698528E+03  0.96389698528E+03  0.00000000000E+00 0. -1.
         -2   -1    0    0    0  501 -0.00000000000E+00 -0.00000000000E+00 -0.36310091917E+01  0.36310091917E+01  0.00000000000E+00 0.  1.
          2    1    1    2  502    0 -0.33950662970E+02 -0.28163484935E+01  0.87563726469E+03  0.87629971965E+03  0.00000000000E+00 0. -1.
         -2    1    1    2    0  502  0.33950662970E+02  0.28163484935E+01  0.84628711389E+02  0.91228274818E+02  0.00000000000E+00 0.  1.
</event>
<event>
 4    1  0.5565417E+003  0.2047714E+02  0.7546771E-02  0.1526863E+00
          2   -1    0    0  501    0  0.00000000000E+00  0.00000000000E+00  0.82355511418E+01  0.82355511418E+01  0.00000000000E+00 0. -1.
         -2   -1    0    0    0  501 -0.00000000000E+00 -0.00000000000E+00 -0.15677944394E+03  0.15677944394E+03  0.00000000000E+00 0. -1.
          2    1    1    2  502    0  0.13138088369E+02  0.15706808402E+02 -0.64728527390E+01  0.21475824053E+02  0.00000000000E+00 0. -1.
         -2    1    1    2    0  502 -0.13138088369E+02 -0.15706808402E+02 -0.14207104006E+03  0.14353917103E+03  0.00000000000E+00 0. -1.
</event>
<event>
 4    1  0.5565417E+003  0.4272028E+02  0.7546771E-02  0.1333242E+00
          2   -1    0    0  501    0  0.00000000000E+00  0.00000000000E+00  0.68580978225E+03  0.68580978225E+03  0.00000000000E+00 0.  1.
         -2   -1    0    0    0  501 -0.00000000000E+00 -0.00000000000E+00 -0.30632371969E+01  0.30632371969E+01  0.00000000000E+00 0.  1.
          2    1    1    2  502    0  0.42665440360E+02 -0.21640045065E+01  0.46616756576E+03  0.46812094813E+03  0.00000000000E+00 0.  1.
         -2    1    1    2    0  502 -0.42665440360E+02  0.21640045065E+01  0.21657897930E+03  0.22075207131E+03  0.00000000000E+00 0.  1.
</event>
<event>
 4    1  0.5565417E+003  0.2874251E+02  0.7546771E-02  0.1430848E+00
          2   -1    0    0  501    0  0.00000000000E+00  0.00000000000E+00  0.92569012643E+03  0.92569012643E+03  0.00000000000E+00 0. -1.
         -2   -1    0    0    0  501 -0.00000000000E+00 -0.00000000000E+00 -0.13549331306E+02  0.13549331306E+02  0.00000000000E+00 0. -1.
          2    1    1    2  502    0  0.66741573599E+01 -0.27956890399E+02  0.90996054652E+03  0.91041437177E+03  0.00000000000E+00 0. -1.
         -2    1    1    2    0  502 -0.66741573599E+01  0.27956890399E+02  0.21802486060E+01  0.28825085971E+02  0.00000000000E+00 0. -1.
</event>
<event>
 4    1  0.5565417E+003  0.3396760E+02  0.7546771E-02  0.1387970E+00
          2   -1    0    0  501    0  0.00000000000E+00  0.00000000000E+00  0.15770276257E+03  0.15770276257E+03  0.00000000000E+00 0. -1.
         -2   -1    0    0    0  501 -0.00000000000E+00 -0.00000000000E+00 -0.14286917548E+02  0.14286917548E+02  0.00000000000E+00 0. -1.
          2    1    1    2  502    0 -0.23508534212E+02  0.24518294578E+02  0.13177538684E+03  0.13608288109E+03  0.00000000000E+00 0. -1.
         -2    1    1    2    0  502  0.23508534212E+02 -0.24518294578E+02  0.11640458189E+02  0.35906799031E+02  0.00000000000E+00 0. -1.
</event>
<event>
 4    1  0.5565417E+003  0.2607502E+02  0.7546771E-02  0.1457128E+00
          2   -1    0    0  501    0  0.00000000000E+00  0.00000000000E+00  0.32179714708E+03  0.32179714708E+03  0.00000000000E+00 0. -1.
         -2   -1    0    0    0  501 -0.00000000000E+00 -0.00000000000E+00 -0.37218752459E+01  0.37218752459E+01  0.00000000000E+00 0. -1.
          2    1    1    2  502    0 -0.24495839555E+02 -0.89364682991E+01  0.26605344531E+03  0.26732815486E+03  0.00000000000E+00 0. -1.
         -2    1    1    2    0  502  0.24495839555E+02  0.89364682991E+01  0.52021826525E+02  0.58190867463E+02  0.00000000000E+00 0. -1.
</event>
<event>
 4    1  0.5565417E+003  0.4798021E+02  0.7546771E-02  0.1307175E+00
          2   -1    0    0  501    0  0.00000000000E+00  0.00000000000E+00  0.18249687144E+03  0.18249687144E+03  0.00000000000E+00 0. -1.
         -2   -1    0    0    0  501 -0.00000000000E+00 -0.00000000000E+00 -0.97063006798E+02  0.97063006798E+02  0.00000000000E+00 0.  1.
          2    1    1    2  502    0 -0.51545666128E+01 -0.47702528396E+02  0.17309785460E+03  0.17962451959E+03  0.00000000000E+00 0. -1.
         -2    1    1    2    0  502  0.51545666128E+01  0.47702528396E+02 -0.87663989957E+02  0.99935358645E+02  0.00000000000E+00 0.  1.
</event>
<event>
 4    1  0.5565417E+003  0.2664725E+02  0.7546771E-02  0.1451184E+00
          2   -1    0    0  501    0  0.00000000000E+00  0.00000000000E+00  0.11357509202E+04  0.11357509202E+04  0.00000000000E+00 0.  1.
         -2   -1    0    0    0  501 -0.00000000000E+00 -0.00000000000E+00 -0.84970719880E+00  0.84970719880E+00  0.00000000000E+00 0.  1.
          2    1    1    2  502    0 -0.10085946070E+02  0.24664743191E+02  0.85956613515E+03  0.85997907914E+03  0.00000000000E+00 0.  1.
         -2    1    1    2    0  502  0.10085946070E+02 -0.24664743191E+02  0.27533507786E+03  0.27662154826E+03  0.00000000000E+00 0.  1.
</event>
<event>
 4    1  0.5565417E+003  0.5680260E+02  0.7546771E-02  0.1271101E+00
          2   -1    0    0  501    0  0.00000000000E+00  0.00000000000E+00  0.77508412188E+02  0.77508412188E+02  0.00000000000E+00 0.  1.
         -2   -1    0    0    0  501 -0.00000000000E+00 -0.00000000000E+00 -0.97196042575E+02  0.97196042575E+02  0.00000000000E+00 0. -1.
          2    1    1    2  502    0 -0.47875125286E+02  0.30569720775E+02  0.56204458636E+02  0.79909177320E+02  0.00000000000E+00 0.  1.
         -2    1    1    2    0  502  0.47875125286E+02 -0.30569720775E+02 -0.75892089022E+02  0.94795277443E+02  0.00000000000E+00 0. -1.
</event>
<event>
 4    1  0.5565417E+003  0.8176562E+02  0.7546771E-02  0.1199807E+00
          2   -1    0    0  501    0  0.00000000000E+00  0.00000000000E+00  0.68164890362E+03  0.68164890362E+03  0.00000000000E+00 0. -1.
         -2   -1    0    0    0  501 -0.00000000000E+00 -0.00000000000E+00 -0.98135846682E+01  0.98135846682E+01  0.00000000000E+00 0.  1.
          2    1    1    2  502    0  0.21658984990E+02  0.78844818465E+02  0.34416021540E+03  0.35373983504E+03  0.00000000000E+00 0. -1.
         -2    1    1    2    0  502 -0.21658984990E+02 -0.78844818465E+02  0.32767510356E+03  0.33772265325E+03  0.00000000000E+00 0.  1.
</event>
<event>
 4    1  0.5565417E+003  0.2009369E+02  0.7546771E-02  0.1532608E+00
          2   -1    0    0  501    0  0.00000000000E+00  0.00000000000E+00  0.12766460418E+04  0.12766460418E+04  0.00000000000E+00 0.  1.
         -2   -1    0    0    0  501 -0.00000000000E+00 -0.00000000000E+00 -0.75248893053E+01  0.75248893053E+01  0.00000000000E+00 0. -1.
          2    1    1    2  502    0 -0.17953154105E+02  0.90244554685E+01  0.12630081047E+04  0.12631679339E+04  0.00000000000E+00 0.  1.
         -2    1    1    2    0  502  0.17953154105E+02 -0.90244554685E+01  0.61130477255E+01  0.21002997198E+02  0.00000000000E+00 0. -1.
</event>
<event>
 4    1  0.5565417E+003  0.2127030E+02  0.7546771E-02  0.1515440E+00
          2   -1    0    0  501    0  0.00000000000E+00  0.00000000000E+00  0.34162258233E+00  0.34162258233E+00  0.00000000000E+00 0.  1.
         -2   -1    0    0    0  501 -0.00000000000E+00 -0.00000000000E+00 -0.14655581497E+04  0.14655581497E+04  0.00000000000E+00 0.  1.
          2    1    1    2  502    0  0.14546233364E+02 -0.15518789774E+02 -0.50509212709E+03  0.50553979328E+03  0.00000000000E+00 0.  1.
         -2    1    1    2    0  502 -0.14546233364E+02  0.15518789774E+02 -0.96012439999E+03  0.96035997896E+03  0.00000000000E+00 0.  1.
</event>
<event>
 4    1  0.5565417E+003  0.2839881E+02  0.7546771E-02  0.1434041E+00
          2   -1    0    0  501    0  0.00000000000E+00  0.00000000000E+00  0.83953197229E+03  0.83953197229E+03  0.00000000000E+00 0. -1.
         -2   -1    0    0    0  501 -0.00000000000E+00 -0.00000000000E+00 -0.32750042798E+02  0.32750042798E+02  0.00000000000E+00 0.  1.
          2    1    1    2  502    0  0.26899529931E+02  0.91053617066E+01  0.83308778111E+03  0.83357167860E+03  0.00000000000E+00 0. -1.
         -2    1    1    2    0  502 -0.26899529931E+02 -0.91053617066E+01 -0.26305851616E+02  0.38710336495E+02  0.00000000000E+00 0.  1.
</event>
<event>
 4    1  0.5565417E+003  0.2342299E+02  0.7546771E-02  0.1487254E+00
          2   -1    0    0  501    0  0.00000000000E+00  0.00000000000E+00  0.18323130316E+01  0.18323130316E+01  0.00000000000E+00 0.  1.
         -2   -1    0    0    0  501 -0.00000000000E+00 -0.00000000000E+00 -0.36893576743E+03  0.36893576743E+03  0.00000000000E+00 0.  1.
          2    1    1    2  502    0  0.64229362034E+01  0.22525147279E+02 -0.10308251390E+03  0.10571017473E+03  0.00000000000E+00 0.  1.
         -2    1    1    2    0  502 -0.64229362034E+01 -0.22525147279E+02 -0.26402094051E+03  0.26505790574E+03  0.00000000000E+00 0.  1.
</event>
<event>
 4    1  0.5565417E+003  0.2458958E+02  0.7546771E-02  0.1473447E+00
          2   -1    0    0  501    0  0.00000000000E+00  0.00000000000E+00  0.11543846240E+04  0.11543846240E+04  0.00000000000E+00 0.  1.
         -2   -1    0    0    0  501 -0.00000000000E+00 -0.00000000000E+00 -0.21963825605E+01  0.21963825605E+01  0.00000000000E+00 0. -1.
          2    1    1    2  502    0 -0.14623290651E+02  0.19768839091E+02  0.10807414627E+04  0.10810211639E+04  0.00000000000E+00 0.  1.
         -2    1    1    2    0  502  0.14623290651E+02 -0.19768839091E+02  0.71446778709E+02  0.75559842617E+02  0.00000000000E+00 0. -1.
</event>
<event>
 4    1  0.5565417E+003  0.2214180E+02  0.7546771E-02  0.1503565E+00
          2   -1    0    0  501    0  0.00000000000E+00  0.00000000000E+00  0.10905384156E+04  0.10905384156E+04  0.00000000000E+00 0.  1.
         -2   -1    0    0    0  501 -0.00000000000E+00 -0.00000000000E+00 -0.11574488024E+02  0.11574488024E+02  0.00000000000E+00 0.  1.
          2    1    1    2  502    0 -0.17281737671E+02 -0.13841994932E+02  0.10797308227E+04  0.10799578273E+04  0.00000000000E+00 0.  1.
         -2    1    1    2    0  502  0.17281737671E+02  0.13841994932E+02 -0.76689507375E+00  0.22155076364E+02  0.00000000000E+00 0.  1.
</event>
<event>
 4    1  0.5565417E+003  0.2246814E+02  0.7546771E-02  0.1499287E+00
          2   -1    0    0  501    0  0.00000000000E+00  0.00000000000E+00  0.97144140067E+01  0.97144140067E+01  0.00000000000E+00 0.  1.
         -2   -1    0    0    0  501 -0.00000000000E+00 -0.00000000000E+00 -0.87966548656E+03  0.87966548656E+03  0.00000000000E+00 0.  1.
          2    1    1    2  502    0  0.21274187522E+02 -0.72267649086E+01 -0.36204367656E+01  0.22757960105E+02  0.00000000000E+00 0.  1.
         -2    1    1    2    0  502 -0.21274187522E+02  0.72267649086E+01 -0.86633063579E+03  0.86662194047E+03  0.00000000000E+00 0.  1.
</event>
<event>
 4    1  0.5565417E+003  0.3811581E+02  0.7546771E-02  0.1359895E+00
          2   -1    0    0  501    0  0.00000000000E+00  0.00000000000E+00  0.13194260778E+03  0.13194260778E+03  0.00000000000E+00 0. -1.
         -2   -1    0    0    0  501 -0.00000000000E+00 -0.00000000000E+00 -0.46118617030E+03  0.46118617030E+03  0.00000000000E+00 0.  1.
          2    1    1    2  502    0  0.11999754242E+02 -0.36177632501E+02  0.12838093687E+03  0.13391967797E+03  0.00000000000E+00 0. -1.
         -2    1    1    2    0  502 -0.11999754242E+02  0.36177632501E+02 -0.45762449939E+03  0.45920910012E+03  0.00000000000E+00 0.  1.
</event>
<event>
 4    1  0.5565417E+003  0.2293521E+02  0.7546771E-02  0.1493313E+00
          2   -1    0    0  501    0  0.00000000000E+00  0.00000000000E+00  0.84622402530E+01  0.84622402530E+01  0.00000000000E+00 0.  1.
         -2   -1    0    0    0  501 -0.00000000000E+00 -0.00000000000E+00 -0.91700868001E+02  0.91700868001E+02  0.00000000000E+00 0.  1.
          2    1    1    2  502    0  0.11602095349E+02  0.19784216883E+02 -0.13194793533E+02  0.26459902315E+02  0.00000000000E+00 0.  1.
         -2    1    1    2    0  502 -0.11602095349E+02 -0.19784216883E+02 -0.70043834215E+02  0.73703205939E+02  0.00000000000E+00 0.  1.
</event>
<event>
 4    1  0.5565417E+003  0.4966800E+02  0.7546771E-02  0.1299618E+00
          2   -1    0    0  501    0  0.00000000000E+00  0.00000000000E+00  0.14976660023E+04  0.14976660023E+04  0.00000000000E+00 0. -1.
         -2   -1    0    0    0  501 -0.00000000000E+00 -0.00000000000E+00 -0.74767711076E+02  0.74767711076E+02  0.00000000000E+00 0.  1.
          2    1    1    2  502    0 -0.49576281306E+02 -0.30170548606E+01  0.14889573973E+04  0.14897855689E+04  0.00000000000E+00 0. -1.
         -2    1    1    2    0  502  0.49576281306E+02  0.30170548606E+01 -0.66059106089E+02  0.82648144477E+02  0.00000000000E+00 0.  1.
</event>
<event>
 4    1  0.5565417E+003  0.3739384E+02  0.7546771E-02  0.1364474E+00
          2   -1    0    0  501    0  0.00000000000E+00  0.00000000000E+00  0.35007672074E+02  0.35007672074E+02  0.00000000000E+00 0. -1.
         -2   -1    0    0    0  501 -0.00000000000E+00 -0.00000000000E+00 -0.16420416254E+03  0.16420416254E+03  0.00000000000E+00 0.  1.
          2    1    1    2  502    0 -0.21248192362E+02 -0.30770334200E+02  0.22050320527E+02  0.43411009903E+02  0.00000000000E+00 0. -1.
         -2    1    1    2    0  502  0.21248192362E+02  0.30770334200E+02 -0.15124681099E+03  0.15580082471E+03  0.00000000000E+00 0.  1.
</event>
<event>
 4    1  0.5565417E+003  0.2046018E+02  0.7546771E-02  0.1527113E+00
          2   -1    0    0  501    0  0.00000000000E+00  0.00000000000E+00  0.14485276166E+04  0.14485276166E+04  0.00000000000E+00 0.  1.
         -2   -1    0    0    0  501 -0.00000000000E+00 -0.00000000000E+00 -0.30021520947E+00  0.30021520947E+00  0.00000000000E+00 0. -1.
          2    1    1    2  502    0  0.10057345743E+02  0.17817639249E+02  0.58407294545E+03  0.58443119705E+03  0.00000000000E+00 0.  1.
         -2    1    1    2    0  502 -0.10057345743E+02 -0.17817639249E+02  0.86415445593E+03  0.86439663476E+03  0.00000000000E+00 0. -1.
</event>
<event>
 4    1  0.5565417E+003  0.2700347E+02  0.7546771E-02  0.1447573E+00
          2   -1    0    0  501    0  0.00000000000E+00  0.00000000000E+00  0.85846553046E+02  0.85846553046E+02  0.00000000000E+00 0. -1.
         -2   -1    0    0    0  501 -0.00000000000E+00 -0.00000000000E+00 -0.19306631565E+02  0.19306631565E+02  0.00000000000E+00 0. -1.
          2    1    1    2  502    0  0.18609856253E+02  0.19566830641E+02  0.72616201697E+02  0.77474514261E+02  0.00000000000E+00 0. -1.
         -2    1    1    2    0  502 -0.18609856253E+02 -0.19566830641E+02 -0.60762802150E+01  0.27678670351E+02  0.00000000000E+00 0. -1.
</event>
<event>
 4    1  0.5565417E+003  0.2243947E+02  0.7546771E-02  0.1499659E+00
          2   -1    0    0  501    0  0.00000000000E+00  0.00000000000E+00  0.58389983970E+03  0.58389983970E+03  0.00000000000E+00 0.  1.
         -2   -1    0    0    0  501 -0.00000000000E+00 -0.00000000000E+00 -0.17638104107E+01  0.17638104107E+01  0.00000000000E+00 0. -1.
          2    1    1    2  502    0  0.56209993808E+00 -0.22432425083E+02  0.50041376889E+03  0.50091662954E+03  0.00000000000E+00 0.  1.
         -2    1    1    2    0  502 -0.56209993808E+00  0.22432425083E+02  0.81722260398E+02  0.84747020573E+02  0.00000000000E+00 0. -1.
</event>
<event>
 4    1  0.5565417E+003  0.4234167E+02  0.7546771E-02  0.1335284E+00
          2   -1    0    0  501    0  0.00000000000E+00  0.00000000000E+00  0.14041795910E+02  0.14041795910E+02  0.00000000000E+00 0.  1.
         -2   -1    0    0    0  501 -0.00000000000E+00 -0.00000000000E+00 -0.19339838785E+03  0.19339838785E+03  0.00000000000E+00 0. -1.
          2    1    1    2  502    0  0.40867505278E+02 -0.11075387911E+02 -0.29215369253E+02  0.51442735207E+02  0.00000000000E+00 0.  1.
         -2    1    1    2    0  502 -0.40867505278E+02  0.11075387911E+02 -0.15014122269E+03  0.15599744855E+03  0.00000000000E+00 0. -1.
</event>
<event>
 4    1  0.5565417E+003  0.2311569E+02  0.7546771E-02  0.1491051E+00
          2   -1    0    0  501    0  0.00000000000E+00  0.00000000000E+00  0.40360922766E+01  0.40360922766E+01  0.00000000000E+00 0. -1.
         -2   -1    0    0    0  501 -0.00000000000E+00 -0.00000000000E+00 -0.29081654799E+03  0.29081654799E+03  0.00000000000E+00 0. -1.
          2    1    1    2  502    0  0.15207291101E+02  0.17408998106E+02 -0.34577278646E+02  0.41592344443E+02  0.00000000000E+00 0. -1.
         -2    1    1    2    0  502 -0.15207291101E+02 -0.17408998106E+02 -0.25220317706E+03  0.25326029582E+03  0.00000000000E+00 0. -1.
</event>
<event>
 4    1  0.5565417E+003  0.4586445E+02  0.7546771E-02  0.1317173E+00
          2   -1    0    0  501    0  0.00000000000E+00  0.00000000000E+00  0.11957044022E+04  0.11957044022E+04  0.00000000000E+00 0. -1.
         -2   -1    0    0    0  501 -0.00000000000E+00 -0.00000000000E+00 -0.39966440185E+01  0.39966440185E+01  0.00000000000E+00 0. -1.
          2    1    1    2  502    0  0.45758396861E+02  0.31171982788E+01  0.10446676273E+04  0.10456739450E+04  0.00000000000E+00 0. -1.
         -2    1    1    2    0  502 -0.45758396861E+02 -0.31171982788E+01  0.14704013094E+03  0.15402710124E+03  0.00000000000E+00 0. -1.
</event>
<event>
 4    1  0.5565417E+003  0.2672227E+02  0.7546771E-02  0.1450418E+00
          2   -1    0    0  501    0  0.00000000000E+00  0.00000000000E+00  0.24243936898E+02  0.24243936898E+02  0.00000000000E+00 0.  1.
         -2   -1    0    0    0  501 -0.00000000000E+00 -0.00000000000E+00 -0.81340979091E+03  0.81340979091E+03  0.00000000000E+00 0.  1.
          2    1    1    2  502    0  0.25562506059E+02 -0.77870464833E+01  0.16591059867E+02  0.31453824512E+02  0.00000000000E+00 0.  1.
         -2    1    1    2    0  502 -0.25562506059E+02  0.77870464833E+01 -0.80575691388E+03  0.80619990330E+03  0.00000000000E+00 0.  1.
</event>
<event>
 4    1  0.5565417E+003  0.4108449E+02  0.7546771E-02  0.1342245E+00
          2   -1    0    0  501    0  0.00000000000E+00  0.00000000000E+00  0.90499589303E+03  0.90499589303E+03  0.00000000000E+00 0.  1.
         -2   -1    0    0    0  501 -0.00000000000E+00 -0.00000000000E+00 -0.28757534298E+01  0.28757534298E+01  0.00000000000E+00 0.  1.
          2    1    1    2  502    0  0.14581278073E+02  0.38409919262E+02  0.72015974779E+03  0.72133071327E+03  0.00000000000E+00 0.  1.
         -2    1    1    2    0  502 -0.14581278073E+02 -0.38409919262E+02  0.18196039180E+03  0.18654093318E+03  0.00000000000E+00 0.  1.
</event>
<event>
 4    1  0.5565417E+003  0.2017505E+02  0.7546771E-02  0.1531376E+00
          2   -1    0    0  501    0  0.00000000000E+00  0.00000000000E+00  0.22807215483E+03  0.22807215483E+03  0.00000000000E+00 0. -1.
         -2   -1    0    0    0  501 -0.00000000000E+00 -0.00000000000E+00 -0.69300912219E+01  0.69300912219E+01  0.00000000000E+00 0. -1.
          2    1    1    2  502    0 -0.44919822007E+01  0.19668624828E+02  0.21181826436E+03  0.21277690153E+03  0.00000000000E+00 0. -1.
         -2    1    1    2    0  502  0.44919822007E+01 -0.19668624828E+02  0.93237992427E+01  0.22225344520E+02  0.00000000000E+00 0. -1.
</event>
<event>
 4    1  0.5565417E+003  0.2118679E+02  0.7546771E-02  0.1516615E+00
          2   -1    0    0  501    0  0.00000000000E+00  0.00000000000E+00  0.11964045596E+03  0.11964045596E+03  0.00000000000E+00 0.  1.
         -2   -1    0    0    0  501 -0.00000000000E+00 -0.00000000000E+00 -0.11169873716E+02  0.11169873716E+02  0.00000000000E+00 0.  1.
          2    1    1    2  502    0 -0.44247584598E+01 -0.20719593084E+02  0.10753567217E+03  0.10960292338E+03  0.00000000000E+00 0.  1.
         -2    1    1    2    0  502  0.44247584598E+01  0.20719593084E+02  0.93491007712E+00  0.21207406297E+02  0.00000000000E+00 0.  1.
</event>
<event>
 4    1  0.5565417E+003  0.2529866E+02  0.7546771E-02  0.1465490E+00
          2   -1    0    0  501    0  0.00000000000E+00  0.00000000000E+00  0.39723891326E+01  0.39723891326E+01  0.00000000000E+00 0. -1.
         -2   -1    0    0    0  501 -0.00000000000E+00 -0.00000000000E+00 -0.42239570722E+03  0.42239570722E+03  0.00000000000E+00 0. -1.
          2    1    1    2  502    0  0.22401469978E+02  0.11755701787E+02 -0.41545140559E+02  0.48641762774E+02  0.00000000000E+00 0. -1.
         -2    1    1    2    0  502 -0.22401469978E+02 -0.11755701787E+02 -0.37687817753E+03  0.37772633358E+03  0.00000000000E+00 0. -1.
</event>
<event>
 4    1  0.5565417E+003  0.3186783E+02  0.7546771E-02  0.1404031E+00
          2   -1    0    0  501    0  0.00000000000E+00  0.00000000000E+00  0.46266111895E+03  0.46266111895E+03  0.00000000000E+00 0.  1.
         -2   -1    0    0    0  501 -0.00000000000E+00 -0.00000000000E+00 -0.16554016162E+02  0.16554016162E+02  0.00000000000E+00 0.  1.
          2    1    1    2  502    0 -0.27400842196E+02  0.16271224262E+02  0.44621059813E+03  0.44734713230E+03  0.00000000000E+00 0.  1.
         -2    1    1    2    0  502  0.27400842196E+02 -0.16271224262E+02 -0.10349534226E+00  0.31868002813E+02  0.00000000000E+00 0.  1.
</event>
<event>
 4    1  0.5565417E+003  0.2747024E+02  0.7546771E-02  0.1442941E+00
          2   -1    0    0  501    0  0.00000000000E+00  0.00000000000E+00  0.18564085063E+04  0.18564085063E+04  0.00000000000E+00 0. -1.
         -2   -1    0    0    0  501 -0.00000000000E+00 -0.00000000000E+00 -0.51415920449E+00  0.51415920449E+00  0.00000000000E+00 0. -1.
          2    1    1    2  502    0  0.43082347293E+01 -0.27130301310E+02  0.13528189631E+04  0.13530978387E+04  0.00000000000E+00 0. -1.
         -2    1    1    2    0  502 -0.43082347293E+01  0.27130301310E+02  0.50307538391E+03  0.50382482673E+03  0.00000000000E+00 0. -1.
</event>
<event>
 4    1  0.5565417E+003  0.2245247E+02  0.7546771E-02  0.1499490E+00
          2   -1    0    0  501    0  0.00000000000E+00  0.00000000000E+00  0.89808524385E+01  0.89808524385E+01  0.00000000000E+00 0. -1.
         -2   -1    0    0    0  501 -0.00000000000E+00 -0.00000000000E+00 -0.20284005569E+03  0.20284005569E+03  0.00000000000E+00 0.  1.
          2    1    1    2  502    0  0.10857972249E+02  0.19652424348E+02 -0.68577837697E+01  0.23476425246E+02  0.00000000000E+00 0. -1.
         -2    1    1    2    0  502 -0.10857972249E+02 -0.19652424348E+02 -0.18700141948E+03  0.18834448288E+03  0.00000000000E+00 0.  1.
</event>
<event>
 4    1  0.5565417E+003  0.2239216E+02  0.7546771E-02  0.1500275E+00
          2   -1    0    0  501    0  0.00000000000E+00  0.00000000000E+00  0.50520249579E+03  0.50520249579E+03  0.00000000000E+00 0.  1.
         -2   -1    0    0    0  501 -0.00000000000E+00 -0.00000000000E+00 -0.10213950617E+01  0.10213950617E+01  0.00000000000E+00 0.  1.
          2    1    1    2  502    0  0.90017480855E+01  0.20503095406E+02  0.20951078742E+03  0.21070400669E+03  0.00000000000E+00 0.  1.
         -2    1    1    2    0  502 -0.90017480855E+01 -0.20503095406E+02  0.29467031331E+03  0.29551988416E+03  0.00000000000E+00 0.  1.
</event>
<event>
 4    1  0.5565417E+003  0.3143523E+02  0.7546771E-02  0.1407521E+00
          2   -1    0    0  501    0  0.00000000000E+00  0.00000000000E+00  0.55559002880E+03  0.55559002880E+03  0.00000000000E+00 0.  1.
         -2   -1    0    0    0  501 -0.00000000000E+00 -0.00000000000E+00 -0.99410984489E+02  0.99410984489E+02  0.00000000000E+00 0.  1.
          2    1    1    2  502    0  0.21426979779E+02  0.23001270168E+02  0.55264708318E+03  0.55354039820E+03  0.00000000000E+00 0.  1.
         -2    1    1    2    0  502 -0.21426979779E+02 -0.23001270168E+02 -0.96468038867E+02  0.10146061509E+03  0.00000000000E+00 0.  1.
</event>
<event>
 4    1  0.5565417E+003  0.2097045E+02  0.7546771E-02  0.1519687E+00
          2   -1    0    0  501    0  0.00000000000E+00  0.00000000000E+00  0.55475747856E+03  0.55475747856E+03  0.00000000000E+00 0.  1.
         -2   -1    0    0    0  501 -0.00000000000E+00 -0.00000000000E+00 -0.52444094069E+01  0.52444094069E+01  0.00000000000E+00 0. -1.
          2    1    1    2  502    0  0.11019175080E+02 -0.17842021323E+02  0.53272955036E+03  0.53314213281E+03  0.00000000000E+00 0.  1.
         -2    1    1    2    0  502 -0.11019175080E+02  0.17842021323E+02  0.16783518794E+02  0.26859755164E+02  0.00000000000E+00 0. -1.
</event>
<event>
 4    1  0.5565417E+003  0.4590371E+02  0.7546771E-02  0.1316981E+00
          2   -1    0    0  501    0  0.00000000000E+00  0.00000000000E+00  0.17723181513E+02  0.17723181513E+02  0.00000000000E+00 0.  1.
         -2   -1    0    0    0  501 -0.00000000000E+00 -0.00000000000E+00 -0.23275866765E+03  0.23275866765E+03  0.00000000000E+00 0. -1.
          2    1    1    2  502    0  0.42548501787E+02  0.17227178197E+02 -0.19920391720E+02  0.50039711022E+02  0.00000000000E+00 0.  1.
         -2    1    1    2    0  502 -0.42548501787E+02 -0.17227178197E+02 -0.19511509442E+03  0.20044213814E+03  0.00000000000E+00 0. -1.
</event>
<event>
 4    1  0.5565417E+003  0.2049682E+02  0.7546771E-02  0.1526572E+00
          2   -1    0    0  501    0  0.00000000000E+00  0.00000000000E+00  0.12063106931E+04  0.12063106931E+04  0.00000000000E+00 0.  1.
         -2   -1    0    0    0  501 -0.00000000000E+00 -0.00000000000E+00 -0.20041695648E+03  0.20041695648E+03  0.00000000000E+00 0. -1.
          2    1    1    2  502    0  0.14750628590E+02 -0.14231609474E+02  0.12056993032E+04  0.12058735130E+04  0.00000000000E+00 0.  1.
         -2    1    1    2    0  502 -0.14750628590E+02  0.14231609474E+02 -0.19980556655E+03  0.20085413656E+03  0.00000000000E+00 0. -1.
</event>
<event>
 4    1  0.5565417E+003  0.2954690E+02  0.7546771E-02  0.1423575E+00
          2   -1    0    0  501    0  0.00000000000E+00  0.00000000000E+00  0.11364739546E+03  0.11364739546E+03  0.00000000000E+00 0. -1.
         -2   -1    0    0    0  501 -0.00000000000E+00 -0.00000000000E+00 -0.13139908939E+02  0.13139908939E+02  0.00000000000E+00 0.  1.
          2    1    1    2  502    0  0.28561952198E+02  0.75653122383E+01  0.91111057952E+02  0.95782273641E+02  0.00000000000E+00 0. -1.
         -2    1    1    2    0  502 -0.28561952198E+02 -0.75653122383E+01  0.93964285707E+01  0.31005030761E+02  0.00000000000E+00 0.  1.
</event>
<event>
 4    1  0.5565417E+003  0.5294847E+02  0.7546771E-02  0.1285871E+00
          2   -1    0    0  501    0  0.00000000000E+00  0.00000000000E+00  0.56355708639E+03  0.56355708639E+03  0.00000000000E+00 0. -1.
         -2   -1    0    0    0  501 -0.00000000000E+00 -0.00000000000E+00 -0.49839098106E+01  0.49839098106E+01  0.00000000000E+00 0. -1.
          2    1    1    2  502    0  0.48596007356E+02 -0.21023038149E+02  0.29149173922E+03  0.29626166492E+03  0.00000000000E+00 0. -1.
         -2    1    1    2    0  502 -0.48596007356E+02  0.21023038149E+02  0.26708143735E+03  0.27227933128E+03  0.00000000000E+00 0. -1.
</event>
<event>
 4    1  0.5565417E+003  0.2697524E+02  0.7546771E-02  0.1447857E+00
          2   -1    0    0  501    0  0.00000000000E+00  0.00000000000E+00  0.12484027464E+03  0.12484027464E+03  0.00000000000E+00 0. -1.
         -2   -1    0    0    0  501 -0.00000000000E+00 -0.00000000000E+00 -0.13962276569E+02  0.13962276569E+02  0.00000000000E+00 0. -1.
          2    1    1    2  502    0 -0.14620440512E+02  0.22669497571E+02  0.10840883653E+03  0.11171454354E+03  0.00000000000E+00 0. -1.
         -2    1    1    2    0  502  0.14620440512E+02 -0.22669497571E+02  0.24691615447E+01  0.27088007671E+02  0.00000000000E+00 0. -1.
</event>
<event>
 4    1  0.5565417E+003  0.9047797E+02  0.7546771E-02  0.1181416E+00
          2   -1    0    0  501    0  0.00000000000E+00  0.00000000000E+00  0.23315949441E+04  0.23315949441E+04  0.00000000000E+00 0.  1.
         -2   -1    0    0    0  501 -0.00000000000E+00 -0.00000000000E+00 -0.35115327304E+01  0.35115327304E+01  0.00000000000E+00 0. -1.
          2    1    1    2  502    0 -0.75654549440E+02 -0.49625035683E+02  0.11498073816E+04  0.11533617255E+04  0.00000000000E+00 0.  1.
         -2    1    1    2    0  502  0.75654549440E+02  0.49625035683E+02  0.11782760298E+04  0.11817447514E+04  0.00000000000E+00 0. -1.
</event>
<event>
 4    1  0.5565417E+003  0.2130809E+02  0.7546771E-02  0.1514911E+00
          2   -1    0    0  501    0  0.00000000000E+00  0.00000000000E+00  0.93683170741E+02  0.93683170741E+02  0.00000000000E+00 0.  1.
         -2   -1    0    0    0  501 -0.00000000000E+00 -0.00000000000E+00 -0.39342730834E+03  0.39342730834E+03  0.00000000000E+00 0. -1.
          2    1    1    2  502    0  0.21040832000E+02  0.33642123285E+01  0.92178387356E+02  0.94609141373E+02  0.00000000000E+00 0.  1.
         -2    1    1    2    0  502 -0.21040832000E+02 -0.33642123285E+01 -0.39192252495E+03  0.39250133771E+03  0.00000000000E+00 0. -1.
</event>
<event>
 4    1  0.5565417E+003  0.2183386E+02  0.7546771E-02  0.1507685E+00
          2   -1    0    0  501    0  0.00000000000E+00  0.00000000000E+00  0.11923012963E+03  0.11923012963E+03  0.00000000000E+00 0. -1.
         -2   -1    0    0    0  501 -0.00000000000E+00 -0.00000000000E+00 -0.11773220642E+03  0.11773220642E+03  0.00000000000E+00 0. -1.
          2    1    1    2  502    0  0.13204850549E+02  0.17388198260E+02  0.11720088563E+03  0.11921730205E+03  0.00000000000E+00 0. -1.
         -2    1    1    2    0  502 -0.13204850549E+02 -0.17388198260E+02 -0.11570296242E+03  0.11774503399E+03  0.00000000000E+00 0. -1.
</event>
<event>
 4    1  0.5565417E+003  0.2395352E+02  0.7546771E-02  0.1480860E+00
          2   -1    0    0  501    0  0.00000000000E+00  0.00000000000E+00  0.10237174456E+04  0.10237174456E+04  0.00000000000E+00 0.  1.
         -2   -1    0    0    0  501 -0.00000000000E+00 -0.00000000000E+00 -0.68824135055E+00  0.68824135055E+00  0.00000000000E+00 0.  1.
          2    1    1    2  502    0  0.22747585883E+02  0.75045489522E+01  0.73220074412E+03  0.73259245192E+03  0.00000000000E+00 0.  1.
         -2    1    1    2    0  502 -0.22747585883E+02 -0.75045489522E+01  0.29082846016E+03  0.29181323506E+03  0.00000000000E+00 0.  1.
</event>
<event>
 4    1  0.5565417E+003  0.2172066E+02  0.7546771E-02  0.1509220E+00
          2   -1    0    0  501    0  0.00000000000E+00  0.00000000000E+00  0.80390695516E+03  0.80390695516E+03  0.00000000000E+00 0.  1.
         -2   -1    0    0    0  501 -0.00000000000E+00 -0.00000000000E+00 -0.96260162652E+01  0.96260162652E+01  0.00000000000E+00 0. -1.
          2    1    1    2  502    0 -0.21343846318E+02  0.40283102182E+01  0.79131234061E+03  0.79161038867E+03  0.00000000000E+00 0.  1.
         -2    1    1    2    0  502  0.21343846318E+02 -0.40283102182E+01  0.29685982912E+01  0.21922582755E+02  0.00000000000E+00 0. -1.
</event>
<event>
 4    1  0.5565417E+003  0.2653841E+02  0.7546771E-02  0.1452301E+00
          2   -1    0    0  501    0  0.00000000000E+00  0.00000000000E+00  0.84233538945E+03  0.84233538945E+03  0.00000000000E+00 0. -1.
         -2   -1    0    0    0  501 -0.00000000000E+00 -0.00000000000E+00 -0.58832076454E+01  0.58832076454E+01  0.00000000000E+00 0.  1.
          2    1    1    2  502    0  0.16237869461E+00 -0.26537914342E+02  0.81104415047E+03  0.81147821984E+03  0.00000000000E+00 0. -1.
         -2    1    1    2    0  502 -0.16237869461E+00  0.26537914342E+02  0.25408031334E+02  0.36740377254E+02  0.00000000000E+00 0.  1.
</event>
<event>
 4    1  0.5565417E+003  0.2099312E+02  0.7546771E-02  0.1519363E+00
          2   -1    0    0  501    0  0.00000000000E+00  0.00000000000E+00  0.17904392375E+02  0.17904392375E+02  0.00000000000E+00 0.  1.
         -2   -1    0    0    0  501 -0.00000000000E+00 -0.00000000000E+00 -0.96621040893E+02  0.96621040893E+02  0.00000000000E+00 0.  1.
          2    1    1    2  502    0  0.17150089311E+02  0.12107249062E+02  0.10075191307E+02  0.23285629111E+02  0.00000000000E+00 0.  1.
         -2    1    1    2    0  502 -0.17150089311E+02 -0.12107249062E+02 -0.88791839824E+02  0.91239804157E+02  0.00000000000E+00 0.  1.
</event>
<event>
 4    1  0.5565417E+003  0.2955730E+02  0.7546771E-02  0.1423483E+00
          2   -1    0    0  501    0  0.00000000000E+00  0.00000000000E+00  0.20026154083E+04  0.20026154083E+04  0.00000000000E+00 0.  1.
         -2   -1    0    0    0  501 -0.00000000000E+00 -0.00000000000E+00 -0.24495814117E+01  0.24495814117E+01  0.00000000000E+00 0.  1.
          2    1    1    2  502    0 -0.61386836030E+01  0.28912807877E+02  0.19089712600E+04  0.19092000695E+04  0.00000000000E+00 0.  1.
         -2    1    1    2    0  502  0.61386836030E+01 -0.28912807877E+02  0.91194566845E+02  0.95864920163E+02  0.00000000000E+00 0.  1.
</event>
<event>
 4    1  0.5565417E+003  0.2266936E+02  0.7546771E-02  0.1496692E+00
          2   -1    0    0  501    0  0.00000000000E+00  0.00000000000E+00  0.20897578897E+03  0.20897578897E+03  0.00000000000E+00 0. -1.
         -2   -1    0    0    0  501 -0.00000000000E+00 -0.00000000000E+00 -0.10203734241E+02  0.10203734241E+02  0.00000000000E+00 0. -1.
          2    1    1    2  502    0 -0.35207062459E+01 -0.22394299615E+02  0.19486106547E+03  0.19617526568E+03  0.00000000000E+00 0. -1.
         -2    1    1    2    0  502  0.35207062459E+01  0.22394299615E+02  0.39109892601E+01  0.23004257535E+02  0.00000000000E+00 0. -1.
</event>
<event>
 4    1  0.5565417E+003  0.2796864E+02  0.7546771E-02  0.1438113E+00
          2   -1    0    0  501    0  0.00000000000E+00  0.00000000000E+00  0.10085740964E+04  0.10085740964E+04  0.00000000000E+00 0. -1.
         -2   -1    0    0    0  501 -0.00000000000E+00 -0.00000000000E+00 -0.10558501707E+01  0.10558501707E+01  0.00000000000E+00 0. -1.
          2    1    1    2  502    0  0.22824175664E+02  0.16164840808E+02  0.76383966529E+03  0.76435154173E+03  0.00000000000E+00 0. -1.
         -2    1    1    2    0  502 -0.22824175664E+02 -0.16164840808E+02  0.24367858095E+03  0.24527840485E+03  0.00000000000E+00 0. -1.
</event>
<event>
 4    1  0.5565417E+003  0.2172912E+02  0.7546771E-02  0.1509104E+00
          2   -1    0    0  501    0  0.00000000000E+00  0.00000000000E+00  0.14222232927E+02  0.14222232927E+02  0.00000000000E+00 0.  1.
         -2   -1    0    0    0  501 -0.00000000000E+00 -0.00000000000E+00 -0.49717286143E+02  0.49717286143E+02  0.00000000000E+00 0.  1.
          2    1    1    2  502    0  0.82691823575E+01 -0.20094162198E+02  0.68040703699E+00  0.21739771964E+02  0.00000000000E+00 0.  1.
         -2    1    1    2    0  502 -0.82691823575E+01  0.20094162198E+02 -0.36175460253E+02  0.42199747106E+02  0.00000000000E+00 0.  1.
</event>
<event>
 4    1  0.5565417E+003  0.2683086E+02  0.7546771E-02  0.1449315E+00
          2   -1    0    0  501    0  0.00000000000E+00  0.00000000000E+00  0.31032807393E+03  0.31032807393E+03  0.00000000000E+00 0. -1.
         -2   -1    0    0    0  501 -0.00000000000E+00 -0.00000000000E+00 -0.47240850486E+01  0.47240850486E+01  0.00000000000E+00 0. -1.
          2    1    1    2  502    0  0.59583853281E+01 -0.26160902654E+02  0.26518165561E+03  0.26653556171E+03  0.00000000000E+00 0. -1.
         -2    1    1    2    0  502 -0.59583853281E+01  0.26160902654E+02  0.40422333262E+02  0.48516597260E+02  0.00000000000E+00 0. -1.
</event>
<event>
 4    1  0.5565417E+003  0.2244952E+02  0.7546771E-02  0.1499529E+00
          2   -1    0    0  501    0  0.00000000000E+00  0.00000000000E+00  0.21464072758E+03  0.21464072758E+03  0.00000000000E+00 0. -1.
         -2   -1    0    0    0  501 -0.00000000000E+00 -0.00000000000E+00 -0.68835131017E+01  0.68835131017E+01  0.00000000000E+00 0. -1.
          2    1    1    2  502    0  0.15393945550E+02 -0.16340363795E+02  0.19378661442E+03  0.19508263115E+03  0.00000000000E+00 0. -1.
         -2    1    1    2    0  502 -0.15393945550E+02  0.16340363795E+02  0.13970600057E+02  0.26441609529E+02  0.00000000000E+00 0. -1.
</event>
<event>
 4    1  0.5565417E+003  0.2261284E+02  0.7546771E-02  0.1497418E+00
          2   -1    0    0  501    0  0.00000000000E+00  0.00000000000E+00  0.43261403459E+02  0.43261403459E+02  0.00000000000E+00 0. -1.
         -2   -1    0    0    0  501 -0.00000000000E+00 -0.00000000000E+00 -0.23477935203E+02  0.23477935203E+02  0.00000000000E+00 0. -1.
          2    1    1    2  502    0 -0.14200936706E+02  0.17597548636E+02  0.33406293664E+02  0.40340064176E+02  0.00000000000E+00 0. -1.
         -2    1    1    2    0  502  0.14200936706E+02 -0.17597548636E+02 -0.13622825408E+02  0.26399274487E+02  0.00000000000E+00 0. -1.
</event>
<event>
 4    1  0.5565417E+003  0.2175266E+02  0.7546771E-02  0.1508784E+00
          2   -1    0    0  501    0  0.00000000000E+00  0.00000000000E+00  0.55550179983E+00  0.55550179983E+00  0.00000000000E+00 0. -1.
         -2   -1    0    0    0  501 -0.00000000000E+00 -0.00000000000E+00 -0.11827393195E+04  0.11827393195E+04  0.00000000000E+00 0. -1.
          2    1    1    2  502    0  0.21119167742E+02 -0.52114320815E+01 -0.27813073276E+03  0.27898007595E+03  0.00000000000E+00 0. -1.
         -2    1    1    2    0  502 -0.21119167742E+02  0.52114320815E+01 -0.90405308495E+03  0.90431474536E+03  0.00000000000E+00 0. -1.
</event>
<event>
 4    1  0.5565417E+003  0.2267603E+02  0.7546771E-02  0.1496607E+00
          2   -1    0    0  501    0  0.00000000000E+00  0.00000000000E+00  0.15290754488E+04  0.15290754488E+04  0.00000000000E+00 0.  1.
         -2   -1    0    0    0  501 -0.00000000000E+00 -0.00000000000E+00 -0.93342980855E+00  0.93342980855E+00  0.00000000000E+00 0. -1.
          2    1    1    2  502    0 -0.18098050411E+02  0.13662462437E+02  0.13759473008E+04  0.13761341421E+04  0.00000000000E+00 0.  1.
         -2    1    1    2    0  502  0.18098050411E+02 -0.13662462437E+02  0.15219471812E+03  0.15387473650E+03  0.00000000000E+00 0. -1.
</event>
<event>
 4    1  0.5565417E+003  0.4697132E+02  0.7546771E-02  0.1311866E+00
          2   -1    0    0  501    0  0.00000000000E+00  0.00000000000E+00  0.70635851296E+02  0.70635851296E+02  0.00000000000E+00 0. -1.
         -2   -1    0    0    0  501 -0.00000000000E+00 -0.00000000000E+00 -0.34821492059E+02  0.34821492059E+02  0.00000000000E+00 0.  1.
          2    1    1    2  502    0  0.41624473808E+01 -0.46786522847E+02  0.34829633189E+02  0.58475704668E+02  0.00000000000E+00 0. -1.
         -2    1    1    2    0  502 -0.41624473808E+01  0.46786522847E+02  0.98472604856E+00  0.46981638687E+02  0.00000000000E+00 0.  1.
</event>
<event>
 4    1  0.5565417E+003  0.2401904E+02  0.7546771E-02  0.1480084E+00
          2   -1    0    0  501    0  0.00000000000E+00  0.00000000000E+00  0.31402738572E+03  0.31402738572E+03  0.00000000000E+00 0. -1.
         -2   -1    0    0    0  501 -0.00000000000E+00 -0.00000000000E+00 -0.70995511073E+01  0.70995511073E+01  0.00000000000E+00 0.  1.
          2    1    1    2  502    0 -0.83432092747E+01  0.22523424215E+02  0.15227177018E+02  0.28439069944E+02  0.00000000000E+00 0.  1.
         -2    1    1    2    0  502  0.83432092747E+01 -0.22523424215E+02  0.29170065759E+03  0.29268786688E+03  0.00000000000E+00 0. -1.
</event>
<event>
 4    1  0.5565417E+003  0.2123051E+02  0.7546771E-02  0.1515999E+00
          2   -1    0    0  501    0  0.00000000000E+00  0.00000000000E+00  0.22679370279E+03  0.22679370279E+03  0.00000000000E+00 0. -1.
         -2   -1    0    0    0  501 -0.00000000000E+00 -0.00000000000E+00 -0.38295932515E+02  0.38295932515E+02  0.00000000000E+00 0. -1.
          2    1    1    2  502    0  0.20160580763E+02 -0.66547474617E+01  0.22330858388E+03  0.22431553294E+03  0.00000000000E+00 0. -1.
         -2    1    1    2    0  502 -0.20160580763E+02  0.66547474617E+01 -0.34810813605E+02  0.40774102373E+02  0.00000000000E+00 0. -1.
</event>
<event>
 4    1  0.5565417E+003  0.2651703E+02  0.7546771E-02  0.1452521E+00
          2   -1    0    0  501    0  0.00000000000E+00  0.00000000000E+00  0.13151027995E+04  0.13151027995E+04  0.00000000000E+00 0.  1.
         -2   -1    0    0    0  501 -0.00000000000E+00 -0.00000000000E+00 -0.78572550755E+00  0.78572550755E+00  0.00000000000E+00 0. -1.
          2    1    1    2  502    0  0.24034937936E+02 -0.11201544727E+02  0.10290652874E+04  0.10294068771E+04  0.00000000000E+00 0.  1.
         -2    1    1    2    0  502 -0.24034937936E+02  0.11201544727E+02  0.28525178667E+03  0.28648164801E+03  0.00000000000E+00 0. -1.
</event>
<event>
 4    1  0.5565417E+003  0.2372904E+02  0.7546771E-02  0.1483541E+00
          2   -1    0    0  501    0  0.00000000000E+00  0.00000000000E+00  0.15070261345E+04  0.15070261345E+04  0.00000000000E+00 0.  1.
         -2   -1    0    0    0  501 -0.00000000000E+00 -0.00000000000E+00 -0.10158301036E+01  0.10158301036E+01  0.00000000000E+00 0.  1.
          2    1    1    2  502    0  0.19353733273E+02 -0.13729537781E+02  0.13525321502E+04  0.13527402872E+04  0.00000000000E+00 0.  1.
         -2    1    1    2    0  502 -0.19353733273E+02  0.13729537781E+02  0.15347815423E+03  0.15530167747E+03  0.00000000000E+00 0.  1.
</event>
<event>
 4    1  0.5565417E+003  0.2013031E+02  0.7546771E-02  0.1532053E+00
          2   -1    0    0  501    0  0.00000000000E+00  0.00000000000E+00  0.40055201842E+01  0.40055201842E+01  0.00000000000E+00 0.  1.
         -2   -1    0    0    0  501 -0.00000000000E+00 -0.00000000000E+00 -0.12928752019E+04  0.12928752019E+04  0.00000000000E+00 0.  1.
          2    1    1    2  502    0  0.20083958135E+02  0.13652726423E+01 -0.21881498370E+02  0.29732630470E+02  0.00000000000E+00 0.  1.
         -2    1    1    2    0  502 -0.20083958135E+02 -0.13652726423E+01 -0.12669881834E+04  0.12671480917E+04  0.00000000000E+00 0.  1.
</event>
<event>
 4    1  0.5565417E+003  0.7933828E+02  0.7546771E-02  0.1205392E+00
          2   -1    0    0  501    0  0.00000000000E+00  0.00000000000E+00  0.28900798233E+03  0.28900798233E+03  0.00000000000E+00 0.  1.
         -2   -1    0    0    0  501 -0.00000000000E+00 -0.00000000000E+00 -0.68434969623E+02  0.68434969623E+02  0.00000000000E+00 0.  1.
          2    1    1    2  502    0 -0.33113202372E+02 -0.72097705895E+02  0.25785279323E+03  0.26978255382E+03  0.00000000000E+00 0.  1.
         -2    1    1    2    0  502  0.33113202372E+02  0.72097705895E+02 -0.37279780520E+02  0.87660398141E+02  0.00000000000E+00 0.  1.
</event>
<event>
 4    1  0.5565417E+003  0.2393987E+02  0.7546771E-02  0.1481022E+00
          2   -1    0    0  501    0  0.00000000000E+00  0.00000000000E+00  0.13260989420E+04  0.13260989420E+04  0.00000000000E+00 0. -1.
         -2   -1    0    0    0  501 -0.00000000000E+00 -0.00000000000E+00 -0.10796554721E+02  0.10796554721E+02  0.00000000000E+00 0. -1.
          2    1    1    2  502    0  0.16426812614E+02  0.17414857938E+02  0.13125834181E+04  0.13128017166E+04  0.00000000000E+00 0. -1.
         -2    1    1    2    0  502 -0.16426812614E+02 -0.17414857938E+02  0.27189691582E+01  0.24093780171E+02  0.00000000000E+00 0. -1.
</event>
<event>
 4    1  0.5565417E+003  0.8450533E+02  0.7546771E-02  0.1193757E+00
          2   -1    0    0  501    0  0.00000000000E+00  0.00000000000E+00  0.52031042677E+02  0.52031042677E+02  0.00000000000E+00 0.  1.
         -2   -1    0    0    0  501 -0.00000000000E+00 -0.00000000000E+00 -0.15182073325E+03  0.15182073325E+03  0.00000000000E+00 0. -1.
          2    1    1    2  502    0  0.83247892848E+02  0.14523510716E+02 -0.81473458512E+02  0.11738427692E+03  0.00000000000E+00 0.  1.
         -2    1    1    2    0  502 -0.83247892848E+02 -0.14523510716E+02 -0.18316232063E+02  0.86467499005E+02  0.00000000000E+00 0. -1.
</event>
<event>
 4    1  0.5565417E+003  0.2406332E+02  0.7546771E-02  0.1479561E+00
          2   -1    0    0  501    0  0.00000000000E+00  0.00000000000E+00  0.32183471165E+03  0.32183471165E+03  0.00000000000E+00 0. -1.
         -2   -1    0    0    0  501 -0.00000000000E+00 -0.00000000000E+00 -0.26931815731E+01  0.26931815731E+01  0.00000000000E+00 0. -1.
          2    1    1    2  502    0  0.16463324696E+02  0.17549989285E+02  0.25305855252E+03  0.25420006724E+03  0.00000000000E+00 0. -1.
         -2    1    1    2    0  502 -0.16463324696E+02 -0.17549989285E+02  0.66082977554E+02  0.70327825975E+02  0.00000000000E+00 0. -1.
</event>
<event>
 4    1  0.5565417E+003  0.2012608E+02  0.7546771E-02  0.1532117E+00
          2   -1    0    0  501    0  0.00000000000E+00  0.00000000000E+00  0.27924096288E+01  0.27924096288E+01  0.00000000000E+00 0. -1.
         -2   -1    0    0    0  501 -0.00000000000E+00 -0.00000000000E+00 -0.19510457317E+03  0.19510457317E+03  0.00000000000E+00 0.  1.
          2    1    1    2  502    0  0.14885621853E+02  0.13545385208E+02 -0.46041284510E+02  0.50247975857E+02  0.00000000000E+00 0. -1.
         -2    1    1    2    0  502 -0.14885621853E+02 -0.13545385208E+02 -0.14627087903E+03  0.14764900694E+03  0.00000000000E+00 0.  1.
</event>
<event>
 4    1 -0.5565417E+003  0.5100994E+02  0.7546771E-02  0.1293852E+00
          2   -1    0    0  501    0  0.00000000000E+00  0.00000000000E+00  0.79340564370E+02  0.79340564370E+02  0.00000000000E+00 0. -1.
         -2   -1    0    0    0  501 -0.00000000000E+00 -0.00000000000E+00 -0.33070044967E+04  0.33070044967E+04  0.00000000000E+00 0.  1.
          2    1    1    2  502    0  0.49791619490E+02 -0.11081920485E+02  0.70924063333E+02  0.87362675626E+02  0.00000000000E+00 0. -1.
         -2    1    1    2    0  502 -0.49791619490E+02  0.11081920485E+02 -0.32985879956E+04  0.32989823854E+04  0.00000000000E+00 0.  1.
</event>
<event>
 4    1  0.5565417E+003  0.3148467E+02  0.7546771E-02  0.1407119E+00
          2   -1    0    0  501    0  0.00000000000E+00  0.00000000000E+00  0.54348476130E+02  0.54348476130E+02  0.00000000000E+00 0.  1.
         -2   -1    0    0    0  501 -0.00000000000E+00 -0.00000000000E+00 -0.18792428642E+02  0.18792428642E+02  0.00000000000E+00 0.  1.
          2    1    1    2  502    0 -0.28490435953E+02 -0.13400736115E+02  0.24051451962E+02  0.39620159145E+02  0.00000000000E+00 0.  1.
         -2    1    1    2    0  502  0.28490435953E+02  0.13400736115E+02  0.11504595526E+02  0.33520745627E+02  0.00000000000E+00 0.  1.
</event>
<event>
 4    1  0.5565417E+003  0.3275420E+02  0.7546771E-02  0.1397079E+00
          2   -1    0    0  501    0  0.00000000000E+00  0.00000000000E+00  0.15768642359E+04  0.15768642359E+04  0.00000000000E+00 0. -1.
         -2   -1    0    0    0  501 -0.00000000000E+00 -0.00000000000E+00 -0.18170220205E+01  0.18170220205E+01  0.00000000000E+00 0.  1.
          2    1    1    2  502    0 -0.13050334440E+02 -0.30042074901E+02  0.14118328678E+04  0.14122127616E+04  0.00000000000E+00 0. -1.
         -2    1    1    2    0  502  0.13050334440E+02  0.30042074901E+02  0.16321434613E+03  0.16646849634E+03  0.00000000000E+00 0.  1.
</event>
<event>
 4    1  0.5565417E+003  0.5743701E+02  0.7546771E-02  0.1268798E+00
          2   -1    0    0  501    0  0.00000000000E+00  0.00000000000E+00  0.13703316841E+03  0.13703316841E+03  0.00000000000E+00 0. -1.
         -2   -1    0    0    0  501 -0.00000000000E+00 -0.00000000000E+00 -0.21557119461E+03  0.21557119461E+03  0.00000000000E+00 0. -1.
          2    1    1    2  502    0  0.55722293105E+02 -0.13929705731E+02  0.12689727417E+03  0.13929080674E+03  0.00000000000E+00 0. -1.
         -2    1    1    2    0  502 -0.55722293105E+02  0.13929705731E+02 -0.20543530037E+03  0.21331355627E+03  0.00000000000E+00 0. -1.
</event>
<event>
 4    1  0.5565417E+003  0.2470387E+02  0.7546771E-02  0.1472144E+00
          2   -1    0    0  501    0  0.00000000000E+00  0.00000000000E+00  0.23639201882E+02  0.23639201882E+02  0.00000000000E+00 0.  1.
         -2   -1    0    0    0  501 -0.00000000000E+00 -0.00000000000E+00 -0.12185024240E+03  0.12185024240E+03  0.00000000000E+00 0. -1.
          2    1    1    2  502    0  0.22448096078E+02  0.10313302576E+02  0.15474806659E+02  0.29150486594E+02  0.00000000000E+00 0.  1.
         -2    1    1    2    0  502 -0.22448096078E+02 -0.10313302576E+02 -0.11368584718E+03  0.11633895769E+03  0.00000000000E+00 0. -1.
</event>
<event>
 4    1  0.5565417E+003  0.3776291E+02  0.7546771E-02  0.1362118E+00
          2   -1    0    0  501    0  0.00000000000E+00  0.00000000000E+00  0.56032220797E+02  0.56032220797E+02  0.00000000000E+00 0.  1.
         -2   -1    0    0    0  501 -0.00000000000E+00 -0.00000000000E+00 -0.25455663082E+02  0.25455663082E+02  0.00000000000E+00 0.  1.
          2    1    1    2  502    0  0.22190706864E+02  0.30555013273E+02  0.14696370143E+02  0.40521841057E+02  0.00000000000E+00 0.  1.
         -2    1    1    2    0  502 -0.22190706864E+02 -0.30555013273E+02  0.15880187572E+02  0.40966042823E+02  0.00000000000E+00 0.  1.
</event>
<event>
 4    1  0.5565417E+003  0.6106478E+02  0.7546771E-02  0.1256257E+00
          2   -1    0    0  501    0  0.00000000000E+00  0.00000000000E+00  0.10060088251E+04  0.10060088251E+04  0.00000000000E+00 0. -1.
         -2   -1    0    0    0  501 -0.00000000000E+00 -0.00000000000E+00 -0.30200659312E+03  0.30200659312E+03  0.00000000000E+00 0. -1.
          2    1    1    2  502    0 -0.24554935614E+02  0.55910305793E+02  0.10019829994E+04  0.10038420385E+04  0.00000000000E+00 0. -1.
         -2    1    1    2    0  502  0.24554935614E+02 -0.55910305793E+02 -0.29798076744E+03  0.30417337971E+03  0.00000000000E+00 0. -1.
</event>
<event>
 4    1  0.5565417E+003  0.3488156E+02  0.7546771E-02  0.1381398E+00
          2   -1    0    0  501    0  0.00000000000E+00  0.00000000000E+00  0.45074209499E+03  0.45074209499E+03  0.00000000000E+00 0. -1.
         -2   -1    0    0    0  501 -0.00000000000E+00 -0.00000000000E+00 -0.40821733618E+01  0.40821733618E+01  0.00000000000E+00 0. -1.
          2    1    1    2  502    0 -0.16593599226E+02 -0.30681844024E+02  0.35568696873E+03  0.35739326073E+03  0.00000000000E+00 0. -1.
         -2    1    1    2    0  502  0.16593599226E+02  0.30681844024E+02  0.90972952900E+02  0.97431007628E+02  0.00000000000E+00 0. -1.
</event>
<event>
 4    1  0.5565417E+003  0.2246453E+02  0.7546771E-02  0.1499334E+00
          2   -1    0    0  501    0  0.00000000000E+00  0.00000000000E+00  0.14347510805E+04  0.14347510805E+04  0.00000000000E+00 0. -1.
         -2   -1    0    0    0  501 -0.00000000000E+00 -0.00000000000E+00 -0.36142201621E+00  0.36142201621E+00  0.00000000000E+00 0.  1.
          2    1    1    2  502    0 -0.71537277181E+00  0.22453122660E+02  0.59973005125E+03  0.60015063846E+03  0.00000000000E+00 0. -1.
         -2    1    1    2    0  502  0.71537277181E+00 -0.22453122660E+02  0.83465960725E+03  0.83496186407E+03  0.00000000000E+00 0.  1.
</event>
<event>
 4    1  0.5565417E+003  0.4017332E+02  0.7546771E-02  0.1347473E+00
          2   -1    0    0  501    0  0.00000000000E+00  0.00000000000E+00  0.21668461760E+04  0.21668461760E+04  0.00000000000E+00 0. -1.
         -2   -1    0    0    0  501 -0.00000000000E+00 -0.00000000000E+00 -0.10588595307E+02  0.10588595307E+02  0.00000000000E+00 0.  1.
          2    1    1    2  502    0 -0.35405251248E+00 -0.40171759413E+02  0.21278572687E+04  0.21282364651E+04  0.00000000000E+00 0. -1.
         -2    1    1    2    0  502  0.35405251248E+00  0.40171759413E+02  0.28400311981E+02  0.49198306151E+02  0.00000000000E+00 0.  1.
</event>
<event>
 4    1  0.5565417E+003  0.2198282E+02  0.7546771E-02  0.1505682E+00
          2   -1    0    0  501    0  0.00000000000E+00  0.00000000000E+00  0.19809178816E+03  0.19809178816E+03  0.00000000000E+00 0. -1.
         -2   -1    0    0    0  501 -0.00000000000E+00 -0.00000000000E+00 -0.11367969435E+03  0.11367969435E+03  0.00000000000E+00 0. -1.
          2    1    1    2  502    0 -0.17144382189E+02  0.13759163127E+02  0.19641011046E+03  0.19763647411E+03  0.00000000000E+00 0. -1.
         -2    1    1    2    0  502  0.17144382189E+02 -0.13759163127E+02 -0.11199801664E+03  0.11413500840E+03  0.00000000000E+00 0. -1.
</event>
<event>
 4    1  0.5565417E+003  0.5677017E+02  0.7546771E-02  0.1271220E+00
          2   -1    0    0  501    0  0.00000000000E+00  0.00000000000E+00  0.24844536978E+03  0.24844536978E+03  0.00000000000E+00 0. -1.
         -2   -1    0    0    0  501 -0.00000000000E+00 -0.00000000000E+00 -0.14759998214E+02  0.14759998214E+02  0.00000000000E+00 0. -1.
          2    1    1    2  502    0  0.55440074220E+02  0.12216816672E+02  0.16264588324E+03  0.17226878932E+03  0.00000000000E+00 0. -1.
         -2    1    1    2    0  502 -0.55440074220E+02 -0.12216816672E+02  0.71039488319E+02  0.90936578668E+02  0.00000000000E+00 0. -1.
</event>
<event>
 4    1  0.5565417E+003  0.2911450E+02  0.7546771E-02  0.1427451E+00
          2   -1    0    0  501    0  0.00000000000E+00  0.00000000000E+00  0.46246083489E+03  0.46246083489E+03  0.00000000000E+00 0.  1.
         -2   -1    0    0    0  501 -0.00000000000E+00 -0.00000000000E+00 -0.40496315474E+01  0.40496315474E+01  0.00000000000E+00 0.  1.
          2    1    1    2  502    0 -0.56761774407E+01  0.28555827760E+02  0.40178069243E+03  0.40283418314E+03  0.00000000000E+00 0.  1.
         -2    1    1    2    0  502  0.56761774407E+01 -0.28555827760E+02  0.56630510905E+02  0.63676283298E+02  0.00000000000E+00 0.  1.
</event>
<event>
 4    1  0.5565417E+003  0.2109020E+02  0.7546771E-02  0.1517981E+00
          2   -1    0    0  501    0  0.00000000000E+00  0.00000000000E+00  0.33958018416E+03  0.33958018416E+03  0.00000000000E+00 0.  1.
         -2   -1    0    0    0  501 -0.00000000000E+00 -0.00000000000E+00 -0.17500423781E+01  0.17500423781E+01  0.00000000000E+00 0.  1.
          2    1    1    2  502    0  0.20563455794E+02 -0.46841007111E+01  0.25450949870E+03  0.25538183460E+03  0.00000000000E+00 0.  1.
         -2    1    1    2    0  502 -0.20563455794E+02  0.46841007111E+01  0.83320643080E+02  0.85948391939E+02  0.00000000000E+00 0.  1.
</event>
<event>
 4    1  0.5565417E+003  0.5650766E+02  0.7546771E-02  0.1272183E+00
          2   -1    0    0  501    0  0.00000000000E+00  0.00000000000E+00  0.16410745562E+02  0.16410745562E+02  0.00000000000E+00 0. -1.
         -2   -1    0    0    0  501 -0.00000000000E+00 -0.00000000000E+00 -0.19750701916E+03  0.19750701916E+03  0.00000000000E+00 0. -1.
          2    1    1    2  502    0  0.31800695306E+02  0.46710072934E+02 -0.77515429766E+02  0.95925788958E+02  0.00000000000E+00 0. -1.
         -2    1    1    2    0  502 -0.31800695306E+02 -0.46710072934E+02 -0.10358084383E+03  0.11799197576E+03  0.00000000000E+00 0. -1.
</event>
<event>
 4    1  0.5565417E+003  0.3589353E+02  0.7546771E-02  0.1374388E+00
          2   -1    0    0  501    0  0.00000000000E+00  0.00000000000E+00  0.15535028740E+03  0.15535028740E+03  0.00000000000E+00 0. -1.
         -2   -1    0    0    0  501 -0.00000000000E+00 -0.00000000000E+00 -0.11363608590E+02  0.11363608590E+02  0.00000000000E+00 0. -1.
          2    1    1    2  502    0  0.35031351092E+02 -0.78197468106E+01  0.28663712787E+02  0.45934218511E+02  0.00000000000E+00 0. -1.
         -2    1    1    2    0  502 -0.35031351092E+02  0.78197468106E+01  0.11532296602E+03  0.12077967748E+03  0.00000000000E+00 0. -1.
</event>
<event>
 4    1  0.5565417E+003  0.2814518E+02  0.7546771E-02  0.1436432E+00
          2   -1    0    0  501    0  0.00000000000E+00  0.00000000000E+00  0.32270764594E+03  0.32270764594E+03  0.00000000000E+00 0. -1.
         -2   -1    0    0    0  501 -0.00000000000E+00 -0.00000000000E+00 -0.11109016787E+02  0.11109016787E+02  0.00000000000E+00 0.  1.
          2    1    1    2  502    0 -0.35007181875E+01 -0.27926619126E+02  0.30311756396E+03  0.30442143266E+03  0.00000000000E+00 0. -1.
         -2    1    1    2    0  502  0.35007181875E+01  0.27926619126E+02  0.84810651917E+01  0.29395230062E+02  0.00000000000E+00 0.  1.
</event>
<event>
 4    1  0.5565417E+003  0.6012556E+02  0.7546771E-02  0.1259407E+00
          2   -1    0    0  501    0  0.00000000000E+00  0.00000000000E+00  0.20242386715E+04  0.20242386715E+04  0.00000000000E+00 0. -1.
         -2   -1    0    0    0  501 -0.00000000000E+00 -0.00000000000E+00 -0.39675487072E+01  0.39675487072E+01  0.00000000000E+00 0.  1.
          2    1    1    2  502    0 -0.39453657615E+02 -0.45370599662E+02  0.17621283202E+04  0.17631537934E+04  0.00000000000E+00 0. -1.
         -2    1    1    2    0  502  0.39453657615E+02  0.45370599662E+02  0.25814280255E+03  0.26505242674E+03  0.00000000000E+00 0.  1.
</event>
<event>
 4    1  0.5565417E+003  0.2148967E+02  0.7546771E-02  0.1512387E+00
          2   -1    0    0  501    0  0.00000000000E+00  0.00000000000E+00  0.10676883101E+04  0.10676883101E+04  0.00000000000E+00 0.  1.
         -2   -1    0    0    0  501 -0.00000000000E+00 -0.00000000000E+00 -0.48946778909E+02  0.48946778909E+02  0.00000000000E+00 0.  1.
          2    1    1    2  502    0  0.13390309074E+02 -0.16807900326E+02  0.10652159896E+04  0.10654327339E+04  0.00000000000E+00 0.  1.
         -2    1    1    2    0  502 -0.13390309074E+02  0.16807900326E+02 -0.46474458396E+02  0.51202355157E+02  0.00000000000E+00 0.  1.
</event>
<event>
 4    1  0.5565417E+003  0.2223298E+02  0.7546771E-02  0.1502361E+00
          2   -1    0    0  501    0  0.00000000000E+00  0.00000000000E+00  0.70380303137E+02  0.70380303137E+02  0.00000000000E+00 0. -1.
         -2   -1    0    0    0  501 -0.00000000000E+00 -0.00000000000E+00 -0.77242980088E+02  0.77242980088E+02  0.00000000000E+00 0. -1.
          2    1    1    2  502    0  0.21732869906E+02  0.46891162751E+01  0.66944669001E+02  0.70540018100E+02  0.00000000000E+00 0. -1.
         -2    1    1    2    0  502 -0.21732869906E+02 -0.46891162751E+01 -0.73807345952E+02  0.77083265125E+02  0.00000000000E+00 0. -1.
</event>
<event>
 4    1  0.5565417E+003  0.2496245E+02  0.7546771E-02  0.1469224E+00
          2   -1    0    0  501    0  0.00000000000E+00  0.00000000000E+00  0.81668679418E+02  0.81668679418E+02  0.00000000000E+00 0.  1.
         -2   -1    0    0    0  501 -0.00000000000E+00 -0.00000000000E+00 -0.16930225041E+02  0.16930225041E+02  0.00000000000E+00 0. -1.
          2    1    1    2  502    0 -0.24461708625E+02  0.49747877940E+01  0.68908494633E+02  0.73290547378E+02  0.00000000000E+00 0.  1.
         -2    1    1    2    0  502  0.24461708625E+02 -0.49747877940E+01 -0.41700402556E+01  0.25308357082E+02  0.00000000000E+00 0. -1.
</event>
<event>
 4    1  0.5565417E+003  0.4398191E+02  0.7546771E-02  0.1326609E+00
          2   -1    0    0  501    0  0.00000000000E+00  0.00000000000E+00  0.24473928473E+03  0.24473928473E+03  0.00000000000E+00 0. -1.
         -2   -1    0    0    0  501 -0.00000000000E+00 -0.00000000000E+00 -0.13984233928E+02  0.13984233928E+02  0.00000000000E+00 0. -1.
          2    1    1    2  502    0  0.43354516564E+02 -0.74023023197E+01  0.20067738969E+03  0.20544055811E+03  0.00000000000E+00 0. -1.
         -2    1    1    2    0  502 -0.43354516564E+02  0.74023023197E+01  0.30077661113E+02  0.53282960542E+02  0.00000000000E+00 0. -1.
</event>
<event>
 4    1  0.5565417E+003  0.2160147E+02  0.7546771E-02  0.1510848E+00
          2   -1    0    0  501    0  0.00000000000E+00  0.00000000000E+00  0.39680832877E+02  0.39680832877E+02  0.00000000000E+00 0. -1.
         -2   -1    0    0    0  501 -0.00000000000E+00 -0.00000000000E+00 -0.33304730521E+02  0.33304730521E+02  0.00000000000E+00 0.  1.
          2    1    1    2  502    0  0.21074674712E+02 -0.47414891270E+01  0.32539556028E+02  0.39056962758E+02  0.00000000000E+00 0. -1.
         -2    1    1    2    0  502 -0.21074674712E+02  0.47414891270E+01 -0.26163453672E+02  0.33928600640E+02  0.00000000000E+00 0.  1.
</event>
<event>
 4    1  0.5565417E+003  0.2049419E+02  0.7546771E-02  0.1526611E+00
          2   -1    0    0  501    0  0.00000000000E+00  0.00000000000E+00  0.12891387647E+02  0.12891387647E+02  0.00000000000E+00 0. -1.
         -2   -1    0    0    0  501 -0.00000000000E+00 -0.00000000000E+00 -0.50110567867E+02  0.50110567867E+02  0.00000000000E+00 0.  1.
          2    1    1    2  502    0  0.95048304112E+01  0.18156812603E+02  0.21897369361E-01  0.20494197338E+02  0.00000000000E+00 0. -1.
         -2    1    1    2    0  502 -0.95048304112E+01 -0.18156812603E+02 -0.37241077590E+02  0.42507758176E+02  0.00000000000E+00 0.  1.
</event>
<event>
 4    1  0.5565417E+003  0.2199261E+02  0.7546771E-02  0.1505551E+00
          2   -1    0    0  501    0  0.00000000000E+00  0.00000000000E+00  0.67750971490E+01  0.67750971490E+01  0.00000000000E+00 0.  1.
         -2   -1    0    0    0  501 -0.00000000000E+00 -0.00000000000E+00 -0.57800778999E+03  0.57800778999E+03  0.00000000000E+00 0.  1.
          2    1    1    2  502    0 -0.21047555127E+02 -0.63777191775E+01 -0.11876519813E+02  0.24994531434E+02  0.00000000000E+00 0.  1.
         -2    1    1    2    0  502  0.21047555127E+02  0.63777191775E+01 -0.55935617303E+03  0.55978835571E+03  0.00000000000E+00 0.  1.
</event>
<event>
 4    1  0.5565417E+003  0.2015887E+02  0.7546771E-02  0.1531621E+00
          2   -1    0    0  501    0  0.00000000000E+00  0.00000000000E+00  0.33296844262E+03  0.33296844262E+03  0.00000000000E+00 0.  1.
         -2   -1    0    0    0  501 -0.00000000000E+00 -0.00000000000E+00 -0.78787591905E+01  0.78787591905E+01  0.00000000000E+00 0.  1.
          2    1    1    2  502    0  0.86859540590E+01  0.18191597292E+02  0.31921343849E+03  0.31984933848E+03  0.00000000000E+00 0.  1.
         -2    1    1    2    0  502 -0.86859540590E+01 -0.18191597292E+02  0.58762449346E+01  0.20997863331E+02  0.00000000000E+00 0.  1.
</event>
<event>
 4    1  0.5565417E+003  0.2148807E+02  0.7546771E-02  0.1512409E+00
          2   -1    0    0  501    0  0.00000000000E+00  0.00000000000E+00  0.49195587807E+02  0.49195587807E+02  0.00000000000E+00 0.  1.
         -2   -1    0    0    0  501 -0.00000000000E+00 -0.00000000000E+00 -0.12171365973E+03  0.12171365973E+03  0.00000000000E+00 0.  1.
          2    1    1    2  502    0 -0.12755396810E+02 -0.17292686065E+02  0.45834650486E+02  0.50621658648E+02  0.00000000000E+00 0.  1.
         -2    1    1    2    0  502  0.12755396810E+02  0.17292686065E+02 -0.11835272241E+03  0.12028758889E+03  0.00000000000E+00 0.  1.
</event>
<event>
 4    1  0.5565417E+003  0.2515686E+02  0.7546771E-02  0.1467056E+00
          2   -1    0    0  501    0  0.00000000000E+00  0.00000000000E+00  0.49837047467E+02  0.49837047467E+02  0.00000000000E+00 0. -1.
         -2   -1    0    0    0  501 -0.00000000000E+00 -0.00000000000E+00 -0.55030519739E+03  0.55030519739E+03  0.00000000000E+00 0.  1.
          2    1    1    2  502    0 -0.84301794456E+01 -0.23702318923E+02  0.46354647038E+02  0.52741076495E+02  0.00000000000E+00 0. -1.
         -2    1    1    2    0  502  0.84301794456E+01  0.23702318923E+02 -0.54682279696E+03  0.54740116836E+03  0.00000000000E+00 0.  1.
</event>
<event>
 4    1  0.5565417E+003  0.2514591E+02  0.7546771E-02  0.1467178E+00
          2   -1    0    0  501    0  0.00000000000E+00  0.00000000000E+00  0.19228657461E+02  0.19228657461E+02  0.00000000000E+00 0. -1.
         -2   -1    0    0    0  501 -0.00000000000E+00 -0.00000000000E+00 -0.20600897115E+03  0.20600897115E+03  0.00000000000E+00 0. -1.
          2    1    1    2  502    0 -0.24836812241E+02  0.39306173343E+01  0.98497543106E+01  0.27006196601E+02  0.00000000000E+00 0. -1.
         -2    1    1    2    0  502  0.24836812241E+02 -0.39306173343E+01 -0.19663006800E+03  0.19823143201E+03  0.00000000000E+00 0. -1.
</event>
<event>
 4    1  0.5565417E+003  0.2070173E+02  0.7546771E-02  0.1523566E+00
          2   -1    0    0  501    0  0.00000000000E+00  0.00000000000E+00  0.15177049864E+03  0.15177049864E+03  0.00000000000E+00 0. -1.
         -2   -1    0    0    0  501 -0.00000000000E+00 -0.00000000000E+00 -0.97082801265E+02  0.97082801265E+02  0.00000000000E+00 0. -1.
          2    1    1    2  502    0 -0.14325919472E+02  0.14944212298E+02  0.14994761127E+03  0.15136990314E+03  0.00000000000E+00 0. -1.
         -2    1    1    2    0  502  0.14325919472E+02 -0.14944212298E+02 -0.95259913896E+02  0.97483396768E+02  0.00000000000E+00 0. -1.
</event>
<event>
 4    1  0.5565417E+003  0.2038109E+02  0.7546771E-02  0.1528288E+00
          2   -1    0    0  501    0  0.00000000000E+00  0.00000000000E+00  0.10917564202E+04  0.10917564202E+04  0.00000000000E+00 0.  1.
         -2   -1    0    0    0  501 -0.00000000000E+00 -0.00000000000E+00 -0.67982280851E+00  0.67982280851E+00  0.00000000000E+00 0. -1.
          2    1    1    2  502    0 -0.10688360595E+02 -0.17353607912E+02  0.90799360518E+03  0.90822231629E+03  0.00000000000E+00 0.  1.
         -2    1    1    2    0  502  0.10688360595E+02  0.17353607912E+02  0.18308299218E+03  0.18421392668E+03  0.00000000000E+00 0. -1.
</event>
<event>
 4    1  0.5565417E+003  0.2236255E+02  0.7546771E-02  0.1500662E+00
          2   -1    0    0  501    0  0.00000000000E+00  0.00000000000E+00  0.49208197256E+03  0.49208197256E+03  0.00000000000E+00 0.  1.
         -2   -1    0    0    0  501 -0.00000000000E+00 -0.00000000000E+00 -0.53768166938E+02  0.53768166938E+02  0.00000000000E+00 0.  1.
          2    1    1    2  502    0 -0.18272720182E+02 -0.12891519229E+02  0.48949041916E+03  0.49000097349E+03  0.00000000000E+00 0.  1.
         -2    1    1    2    0  502  0.18272720182E+02  0.12891519229E+02 -0.51176613537E+02  0.55849166010E+02  0.00000000000E+00 0.  1.
</event>
<event>
 4    1  0.5565417E+003  0.2100026E+02  0.7546771E-02  0.1519261E+00
          2   -1    0    0  501    0  0.00000000000E+00  0.00000000000E+00  0.11497659974E+03  0.11497659974E+03  0.00000000000E+00 0.  1.
         -2   -1    0    0    0  501 -0.00000000000E+00 -0.00000000000E+00 -0.13566426993E+02  0.13566426993E+02  0.00000000000E+00 0. -1.
          2    1    1    2  502    0  0.16807821584E+02 -0.12589999009E+02  0.10513772173E+03  0.10721451148E+03  0.00000000000E+00 0.  1.
         -2    1    1    2    0  502 -0.16807821584E+02  0.12589999009E+02 -0.37275489837E+01  0.21328515253E+02  0.00000000000E+00 0. -1.
</event>
<event>
 4    1  0.5565417E+003  0.4885043E+02  0.7546771E-02  0.1303235E+00
          2   -1    0    0  501    0  0.00000000000E+00  0.00000000000E+00  0.17611618626E+04  0.17611618626E+04  0.00000000000E+00 0. -1.
         -2   -1    0    0    0  501 -0.00000000000E+00 -0.00000000000E+00 -0.10020572447E+02  0.10020572447E+02  0.00000000000E+00 0. -1.
          2    1    1    2  502    0  0.18183147829E+02 -0.45340244576E+02  0.16991127372E+04  0.16998148306E+04  0.00000000000E+00 0. -1.
         -2    1    1    2    0  502 -0.18183147829E+02  0.45340244576E+02  0.52028553014E+02  0.71367604499E+02  0.00000000000E+00 0. -1.
</event>
<event>
 4    1  0.5565417E+003  0.2032821E+02  0.7546771E-02  0.1529076E+00
          2   -1    0    0  501    0  0.00000000000E+00  0.00000000000E+00  0.69205819876E+03  0.69205819876E+03  0.00000000000E+00 0.  1.
         -2   -1    0    0    0  501 -0.00000000000E+00 -0.00000000000E+00 -0.29259149125E+01  0.29259149125E+01  0.00000000000E+00 0. -1.
          2    1    1    2  502    0  0.17696511153E+02  0.10003487691E+02  0.65457949533E+03  0.65489506945E+03  0.00000000000E+00 0.  1.
         -2    1    1    2    0  502 -0.17696511153E+02 -0.10003487691E+02  0.34552788517E+02  0.40089044230E+02  0.00000000000E+00 0. -1.
</event>
<event>
 4    1  0.5565417E+003  0.2476324E+02  0.7546771E-02  0.1471470E+00
          2   -1    0    0  501    0  0.00000000000E+00  0.00000000000E+00  0.48060112933E+02  0.48060112933E+02  0.00000000000E+00 0. -1.
         -2   -1    0    0    0  501 -0.00000000000E+00 -0.00000000000E+00 -0.38150384956E+02  0.38150384956E+02  0.00000000000E+00 0. -1.
          2    1    1    2  502    0  0.23176786412E+02 -0.87209182735E+01  0.40120666568E+02  0.47147489115E+02  0.00000000000E+00 0. -1.
         -2    1    1    2    0  502 -0.23176786412E+02  0.87209182735E+01 -0.30210938591E+02  0.39063008774E+02  0.00000000000E+00 0. -1.
</event>
<event>
 4    1  0.8282988E+003  0.3222055E+02  0.7546771E-02  0.1401233E+00
          2   -1    0    0  501    0  0.00000000000E+00  0.00000000000E+00  0.12343240121E+04  0.12343240121E+04  0.00000000000E+00 0. -1.
         -2   -1    0    0    0  501 -0.00000000000E+00 -0.00000000000E+00 -0.33749257373E+03  0.33749257373E+03  0.00000000000E+00 0. -1.
          2    1    1    2  502    0  0.17014899072E+02 -0.27361600044E+02  0.12333441042E+04  0.12337649060E+04  0.00000000000E+00 0. -1.
         -2    1    1    2    0  502 -0.17014899072E+02  0.27361600044E+02 -0.33651266584E+03  0.33805167981E+03  0.00000000000E+00 0. -1.
</event>
<event>
 4    1  0.5565417E+003  0.3855822E+02  0.7546771E-02  0.1357148E+00
          2   -1    0    0  501    0  0.00000000000E+00  0.00000000000E+00  0.81154754453E+02  0.81154754453E+02  0.00000000000E+00 0. -1.
         -2   -1    0    0    0  501 -0.00000000000E+00 -0.00000000000E+00 -0.45460640258E+02  0.45460640258E+02  0.00000000000E+00 0. -1.
          2    1    1    2  502    0 -0.11235951232E+02  0.36884813342E+02  0.66763026603E+02  0.77097586061E+02  0.00000000000E+00 0. -1.
         -2    1    1    2    0  502  0.11235951232E+02 -0.36884813342E+02 -0.31068912407E+02  0.49517808650E+02  0.00000000000E+00 0. -1.
</event>
<event>
 4    1  0.5565417E+003  0.2919617E+02  0.7546771E-02  0.1426713E+00
          2   -1    0    0  501    0  0.00000000000E+00  0.00000000000E+00  0.62947719839E+02  0.62947719839E+02  0.00000000000E+00 0. -1.
         -2   -1    0    0    0  501 -0.00000000000E+00 -0.00000000000E+00 -0.17768164803E+02  0.17768164803E+02  0.00000000000E+00 0.  1.
          2    1    1    2  502    0 -0.24385767089E+02  0.16054617814E+02  0.42273108698E+02  0.51375403732E+02  0.00000000000E+00 0. -1.
         -2    1    1    2    0  502  0.24385767089E+02 -0.16054617814E+02  0.29064463380E+01  0.29340480909E+02  0.00000000000E+00 0.  1.
</event>
<event>
 4    1  0.5565417E+003  0.4972258E+02  0.7546771E-02  0.1299380E+00
          2   -1    0    0  501    0  0.00000000000E+00  0.00000000000E+00  0.61099585323E+03  0.61099585323E+03  0.00000000000E+00 0. -1.
         -2   -1    0    0    0  501 -0.00000000000E+00 -0.00000000000E+00 -0.28038626179E+03  0.28038626179E+03  0.00000000000E+00 0. -1.
          2    1    1    2  502    0 -0.48783671728E+02  0.96170677286E+01  0.60776816475E+03  0.60979871818E+03  0.00000000000E+00 0. -1.
         -2    1    1    2    0  502  0.48783671728E+02 -0.96170677286E+01 -0.27715857330E+03  0.28158339683E+03  0.00000000000E+00 0. -1.
</event>
<event>
 4    1  0.5565417E+003  0.2242805E+02  0.7546771E-02  0.1499808E+00
          2   -1    0    0  501    0  0.00000000000E+00  0.00000000000E+00  0.87665182590E+03  0.87665182590E+03  0.00000000000E+00 0.  1.
         -2   -1    0    0    0  501 -0.00000000000E+00 -0.00000000000E+00 -0.13988885318E+01  0.13988885318E+01  0.00000000000E+00 0. -1.
          2    1    1    2  502    0 -0.12704083075E+02 -0.18483069921E+02  0.77479721844E+03  0.77512176288E+03  0.00000000000E+00 0.  1.
         -2    1    1    2    0  502  0.12704083075E+02  0.18483069921E+02  0.10045571893E+03  0.10292895155E+03  0.00000000000E+00 0. -1.
</event>
<event>
 4    1  0.5565417E+003  0.2062802E+02  0.7546771E-02  0.1524643E+00
          2   -1    0    0  501    0  0.00000000000E+00  0.00000000000E+00  0.57390902936E+02  0.57390902936E+02  0.00000000000E+00 0. -1.
         -2   -1    0    0    0  501 -0.00000000000E+00 -0.00000000000E+00 -0.26460592060E+02  0.26460592060E+02  0.00000000000E+00 0. -1.
          2    1    1    2  502    0 -0.19988948264E+02  0.50948089756E+01  0.51035322587E+02  0.55046519261E+02  0.00000000000E+00 0. -1.
         -2    1    1    2    0  502  0.19988948264E+02 -0.50948089756E+01 -0.20105011711E+02  0.28804975735E+02  0.00000000000E+00 0. -1.
</event>
<event>
 4    1  0.5565417E+003  0.2366439E+02  0.7546771E-02  0.1484320E+00
          2   -1    0    0  501    0  0.00000000000E+00  0.00000000000E+00  0.35629868565E+03  0.35629868565E+03  0.00000000000E+00 0.  1.
         -2   -1    0    0    0  501 -0.00000000000E+00 -0.00000000000E+00 -0.15871211995E+01  0.15871211995E+01  0.00000000000E+00 0.  1.
          2    1    1    2  502    0 -0.21464395661E+02  0.99640908706E+01  0.19498052061E+03  0.19641132047E+03  0.00000000000E+00 0.  1.
         -2    1    1    2    0  502  0.21464395661E+02 -0.99640908706E+01  0.15973104384E+03  0.16147448639E+03  0.00000000000E+00 0.  1.
</event>
<event>
 4    1  0.5565417E+003  0.2925371E+02  0.7546771E-02  0.1426194E+00
          2   -1    0    0  501    0  0.00000000000E+00  0.00000000000E+00  0.77732613421E+02  0.77732613421E+02  0.00000000000E+00 0.  1.
         -2   -1    0    0    0  501 -0.00000000000E+00 -0.00000000000E+00 -0.16205588530E+03  0.16205588530E+03  0.00000000000E+00 0.  1.
          2    1    1    2  502    0  0.24483857991E+02 -0.16010008471E+02  0.73588481871E+02  0.79189925732E+02  0.00000000000E+00 0.  1.
         -2    1    1    2    0  502 -0.24483857991E+02  0.16010008471E+02 -0.15791175375E+03  0.16059857299E+03  0.00000000000E+00 0.  1.
</event>
<event>
 4    1  0.5565417E+003  0.2239339E+02  0.7546771E-02  0.1500259E+00
          2   -1    0    0  501    0  0.00000000000E+00  0.00000000000E+00  0.54436443196E+02  0.54436443196E+02  0.00000000000E+00 0.  1.
         -2   -1    0    0    0  501 -0.00000000000E+00 -0.00000000000E+00 -0.11866688218E+02  0.11866688218E+02  0.00000000000E+00 0.  1.
          2    1    1    2  502    0  0.16646378226E+02 -0.14978719221E+02  0.36965125129E+02  0.43219028371E+02  0.00000000000E+00 0.  1.
         -2    1    1    2    0  502 -0.16646378226E+02  0.14978719221E+02  0.56046298488E+01  0.23084103043E+02  0.00000000000E+00 0.  1.
</event>
<event>
 4    1  0.5565417E+003  0.2261205E+02  0.7546771E-02  0.1497428E+00
          2   -1    0    0  501    0  0.00000000000E+00  0.00000000000E+00  0.82140478077E+03  0.82140478077E+03  0.00000000000E+00 0. -1.
         -2   -1    0    0    0  501 -0.00000000000E+00 -0.00000000000E+00 -0.67783094108E+02  0.67783094108E+02  0.00000000000E+00 0. -1.
          2    1    1    2  502    0  0.92670123810E+01 -0.20625885522E+02  0.81935864142E+03  0.81967059722E+03  0.00000000000E+00 0. -1.
         -2    1    1    2    0  502 -0.92670123810E+01  0.20625885522E+02 -0.65736954760E+02  0.69517277660E+02  0.00000000000E+00 0. -1.
</event>
<event>
 4    1  0.5565417E+003  0.2035738E+02  0.7546771E-02  0.1528641E+00
          2   -1    0    0  501    0  0.00000000000E+00  0.00000000000E+00  0.18294516842E+04  0.18294516842E+04  0.00000000000E+00 0.  1.
         -2   -1    0    0    0  501 -0.00000000000E+00 -0.00000000000E+00 -0.26491925105E+00  0.26491925105E+00  0.00000000000E+00 0. -1.
          2    1    1    2  502    0  0.92979671091E+01  0.18109945073E+02  0.56632634945E+03  0.56669211781E+03  0.00000000000E+00 0. -1.
         -2    1    1    2    0  502 -0.92979671091E+01 -0.18109945073E+02  0.12628604155E+04  0.12630244856E+04  0.00000000000E+00 0.  1.
</event>
<event>
 4    1  0.5565417E+003  0.2945378E+02  0.7546771E-02  0.1424403E+00
          2   -1    0    0  501    0  0.00000000000E+00  0.00000000000E+00  0.89129201974E+03  0.89129201974E+03  0.00000000000E+00 0.  1.
         -2   -1    0    0    0  501 -0.00000000000E+00 -0.00000000000E+00 -0.17633411371E+02  0.17633411371E+02  0.00000000000E+00 0. -1.
          2    1    1    2  502    0 -0.27146572734E+02 -0.11427549494E+02  0.87857119891E+03  0.87906477398E+03  0.00000000000E+00 0.  1.
         -2    1    1    2    0  502  0.27146572734E+02  0.11427549494E+02 -0.49125905378E+01  0.29860657133E+02  0.00000000000E+00 0. -1.
</event>
<event>
 4    1  0.5565417E+003  0.2719916E+02  0.7546771E-02  0.1445618E+00
          2   -1    0    0  501    0  0.00000000000E+00  0.00000000000E+00  0.15945739554E+03  0.15945739554E+03  0.00000000000E+00 0. -1.
         -2   -1    0    0    0  501 -0.00000000000E+00 -0.00000000000E+00 -0.32800047231E+02  0.32800047231E+02  0.00000000000E+00 0.  1.
          2    1    1    2  502    0  0.16597971926E+02  0.21547660006E+02  0.15239978647E+03  0.15480791078E+03  0.00000000000E+00 0. -1.
         -2    1    1    2    0  502 -0.16597971926E+02 -0.21547660006E+02 -0.25742438162E+02  0.37449531991E+02  0.00000000000E+00 0.  1.
</event>
<event>
 4    1  0.5565417E+003  0.2071790E+02  0.7546771E-02  0.1523331E+00
          2   -1    0    0  501    0  0.00000000000E+00  0.00000000000E+00  0.15715400634E+01  0.15715400634E+01  0.00000000000E+00 0. -1.
         -2   -1    0    0    0  501 -0.00000000000E+00 -0.00000000000E+00 -0.64900493068E+03  0.64900493068E+03  0.00000000000E+00 0. -1.
          2    1    1    2  502    0 -0.92873605316E+01  0.18519621372E+02 -0.76164232926E+02  0.78931754184E+02  0.00000000000E+00 0. -1.
         -2    1    1    2    0  502  0.92873605316E+01 -0.18519621372E+02 -0.57126915769E+03  0.57164471656E+03  0.00000000000E+00 0. -1.
</event>
<event>
 4    1  0.5565417E+003  0.2732617E+02  0.7546771E-02  0.1444359E+00
          2   -1    0    0  501    0  0.00000000000E+00  0.00000000000E+00  0.62978569006E+02  0.62978569006E+02  0.00000000000E+00 0.  1.
         -2   -1    0    0    0  501 -0.00000000000E+00 -0.00000000000E+00 -0.19517364446E+02  0.19517364446E+02  0.00000000000E+00 0. -1.
          2    1    1    2  502    0 -0.19625851813E+02  0.19014346238E+02  0.47572508066E+02  0.54862217836E+02  0.00000000000E+00 0.  1.
         -2    1    1    2    0  502  0.19625851813E+02 -0.19014346238E+02 -0.41113035059E+01  0.27633715616E+02  0.00000000000E+00 0. -1.
</event>
<event>
 4    1  0.5565417E+003  0.2097305E+02  0.7546771E-02  0.1519650E+00
          2   -1    0    0  501    0  0.00000000000E+00  0.00000000000E+00  0.49377927560E+01  0.49377927560E+01  0.00000000000E+00 0. -1.
         -2   -1    0    0    0  501 -0.00000000000E+00 -0.00000000000E+00 -0.19532256014E+03  0.19532256014E+03  0.00000000000E+00 0. -1.
          2    1    1    2  502    0 -0.17145798368E+02 -0.12078507059E+02 -0.21345216988E+02  0.29924689183E+02  0.00000000000E+00 0. -1.
         -2    1    1    2    0  502  0.17145798368E+02  0.12078507059E+02 -0.16903955039E+03  0.17033566371E+03  0.00000000000E+00 0. -1.
</event>
<event>
 4    1  0.5565417E+003  0.2267820E+02  0.7546771E-02  0.1496579E+00
          2   -1    0    0  501    0  0.00000000000E+00  0.00000000000E+00  0.24362876457E+02  0.24362876457E+02  0.00000000000E+00 0. -1.
         -2   -1    0    0    0  501 -0.00000000000E+00 -0.00000000000E+00 -0.34930919519E+03  0.34930919519E+03  0.00000000000E+00 0.  1.
          2    1    1    2  502    0  0.14598316164E+02 -0.17354823529E+02  0.18629313200E+02  0.29348799717E+02  0.00000000000E+00 0. -1.
         -2    1    1    2    0  502 -0.14598316164E+02  0.17354823529E+02 -0.34357563194E+03  0.34432327193E+03  0.00000000000E+00 0.  1.
</event>
<event>
 4    1  0.5565417E+003  0.2080138E+02  0.7546771E-02  0.1522120E+00
          2   -1    0    0  501    0  0.00000000000E+00  0.00000000000E+00  0.13906717179E+02  0.13906717179E+02  0.00000000000E+00 0. -1.
         -2   -1    0    0    0  501 -0.00000000000E+00 -0.00000000000E+00 -0.52529122458E+02  0.52529122458E+02  0.00000000000E+00 0.  1.
          2    1    1    2  502    0  0.17449177980E+02 -0.11323589923E+02  0.18982663368E+01  0.20887817406E+02  0.00000000000E+00 0. -1.
         -2    1    1    2    0  502 -0.17449177980E+02  0.11323589923E+02 -0.40520671616E+02  0.45548022230E+02  0.00000000000E+00 0.  1.
</event>
<event>
 4    1  0.5565417E+003  0.3935182E+02  0.7546771E-02  0.1352327E+00
          2   -1    0    0  501    0  0.00000000000E+00  0.00000000000E+00  0.18718957613E+04  0.18718957613E+04  0.00000000000E+00 0.  1.
         -2   -1    0    0    0  501 -0.00000000000E+00 -0.00000000000E+00 -0.12854157366E+01  0.12854157366E+01  0.00000000000E+00 0. -1.
          2    1    1    2  502    0  0.29527554332E+01  0.39240887221E+02  0.14944561676E+04  0.14949741814E+04  0.00000000000E+00 0.  1.
         -2    1    1    2    0  502 -0.29527554332E+01 -0.39240887221E+02  0.37615417791E+03  0.37820699565E+03  0.00000000000E+00 0. -1.
</event>
<event>
 4    1  0.5565417E+003  0.2016174E+02  0.7546771E-02  0.1531578E+00
          2   -1    0    0  501    0  0.00000000000E+00  0.00000000000E+00  0.43024863896E+02  0.43024863896E+02  0.00000000000E+00 0. -1.
         -2   -1    0    0    0  501 -0.00000000000E+00 -0.00000000000E+00 -0.19573934179E+03  0.19573934179E+03  0.00000000000E+00 0.  1.
          2    1    1    2  502    0  0.19361953609E+02  0.56223112780E+01  0.40108071048E+02  0.44890455498E+02  0.00000000000E+00 0. -1.
         -2    1    1    2    0  502 -0.19361953609E+02 -0.56223112780E+01 -0.19282254895E+03  0.19387375019E+03  0.00000000000E+00 0.  1.
</event>
<event>
 4    1  0.5565417E+003  0.2038811E+02  0.7546771E-02  0.1528183E+00
          2   -1    0    0  501    0  0.00000000000E+00  0.00000000000E+00  0.12291668845E+04  0.12291668845E+04  0.00000000000E+00 0.  1.
         -2   -1    0    0    0  501 -0.00000000000E+00 -0.00000000000E+00 -0.60965236777E+01  0.60965236777E+01  0.00000000000E+00 0.  1.
          2    1    1    2  502    0 -0.99967205217E+01  0.17769096293E+02  0.12117923774E+04  0.12119638778E+04  0.00000000000E+00 0.  1.
         -2    1    1    2    0  502  0.99967205217E+01 -0.17769096293E+02  0.11277983390E+02  0.23299530330E+02  0.00000000000E+00 0.  1.
</event>
<event>
 4    1  0.5565417E+003  0.8258205E+02  0.7546771E-02  0.1197977E+00
          2   -1    0    0  501    0  0.00000000000E+00  0.00000000000E+00  0.45712810696E+03  0.45712810696E+03  0.00000000000E+00 0.  1.
         -2   -1    0    0    0  501 -0.00000000000E+00 -0.00000000000E+00 -0.46457455053E+02  0.46457455053E+02  0.00000000000E+00 0. -1.
          2    1    1    2  502    0  0.51499086878E+02 -0.64557255757E+02  0.41279670749E+03  0.42097614771E+03  0.00000000000E+00 0.  1.
         -2    1    1    2    0  502 -0.51499086878E+02  0.64557255757E+02 -0.21260555842E+01  0.82609414309E+02  0.00000000000E+00 0. -1.
</event>
<event>
 4    1  0.5565417E+003  0.7683814E+02  0.7546771E-02  0.1211384E+00
          2   -1    0    0  501    0  0.00000000000E+00  0.00000000000E+00  0.75498424207E+03  0.75498424207E+03  0.00000000000E+00 0. -1.
         -2   -1    0    0    0  501 -0.00000000000E+00 -0.00000000000E+00 -0.80994687876E+01  0.80994687876E+01  0.00000000000E+00 0.  1.
          2    1    1    2  502    0 -0.70183674528E+02 -0.31278618218E+02  0.44429462672E+03  0.45089002590E+03  0.00000000000E+00 0. -1.
         -2    1    1    2    0  502  0.70183674528E+02  0.31278618218E+02  0.30259014656E+03  0.31219368495E+03  0.00000000000E+00 0.  1.
</event>
<event>
 4    1  0.5565417E+003  0.2051583E+02  0.7546771E-02  0.1526291E+00
          2   -1    0    0  501    0  0.00000000000E+00  0.00000000000E+00  0.46300924338E+03  0.46300924338E+03  0.00000000000E+00 0.  1.
         -2   -1    0    0    0  501 -0.00000000000E+00 -0.00000000000E+00 -0.21267770850E+01  0.21267770850E+01  0.00000000000E+00 0. -1.
          2    1    1    2  502    0  0.19543152906E+02  0.62421082019E+01  0.54460994748E+02  0.58197067703E+02  0.00000000000E+00 0.  1.
         -2    1    1    2    0  502 -0.19543152906E+02 -0.62421082019E+01  0.40642147155E+03  0.40693895277E+03  0.00000000000E+00 0. -1.
</event>
<event>
 4    1  0.5565417E+003  0.2118853E+02  0.7546771E-02  0.1516590E+00
          2   -1    0    0  501    0  0.00000000000E+00  0.00000000000E+00  0.61523688925E+03  0.61523688925E+03  0.00000000000E+00 0.  1.
         -2   -1    0    0    0  501 -0.00000000000E+00 -0.00000000000E+00 -0.18709833901E+03  0.18709833901E+03  0.00000000000E+00 0. -1.
          2    1    1    2  502    0 -0.16132055347E+02 -0.13737194619E+02  0.61445380366E+03  0.61481902261E+03  0.00000000000E+00 0.  1.
         -2    1    1    2    0  502  0.16132055347E+02  0.13737194619E+02 -0.18631525342E+03  0.18751620565E+03  0.00000000000E+00 0. -1.
</event>
<event>
 4    1  0.5565417E+003  0.3649401E+02  0.7546771E-02  0.1370353E+00
          2   -1    0    0  501    0  0.00000000000E+00  0.00000000000E+00  0.11486157884E+03  0.11486157884E+03  0.00000000000E+00 0. -1.
         -2   -1    0    0    0  501 -0.00000000000E+00 -0.00000000000E+00 -0.12281165185E+04  0.12281165185E+04  0.00000000000E+00 0.  1.
          2    1    1    2  502    0  0.17401542798E+02 -0.32078013433E+02  0.11168421877E+03  0.11749543549E+03  0.00000000000E+00 0. -1.
         -2    1    1    2    0  502 -0.17401542798E+02  0.32078013433E+02 -0.12249391584E+04  0.12254826618E+04  0.00000000000E+00 0.  1.
</event>
<event>
 4    1  0.5565417E+003  0.2551213E+02  0.7546771E-02  0.1463155E+00
          2   -1    0    0  501    0  0.00000000000E+00  0.00000000000E+00  0.16664497117E+03  0.16664497117E+03  0.00000000000E+00 0.  1.
         -2   -1    0    0    0  501 -0.00000000000E+00 -0.00000000000E+00 -0.93783449644E+02  0.93783449644E+02  0.00000000000E+00 0.  1.
          2    1    1    2  502    0  0.66642084332E+01 -0.24626352082E+02  0.16390467530E+03  0.16587830321E+03  0.00000000000E+00 0.  1.
         -2    1    1    2    0  502 -0.66642084332E+01  0.24626352082E+02 -0.91043153771E+02  0.94550117607E+02  0.00000000000E+00 0.  1.
</event>
<event>
 4    1  0.5565417E+003  0.3845806E+02  0.7546771E-02  0.1357766E+00
          2   -1    0    0  501    0  0.00000000000E+00  0.00000000000E+00  0.60797218224E+03  0.60797218224E+03  0.00000000000E+00 0. -1.
         -2   -1    0    0    0  501 -0.00000000000E+00 -0.00000000000E+00 -0.20215559509E+02  0.20215559509E+02  0.00000000000E+00 0.  1.
          2    1    1    2  502    0  0.16915243144E+02 -0.34538334699E+02  0.58846777871E+03  0.58972311180E+03  0.00000000000E+00 0. -1.
         -2    1    1    2    0  502 -0.16915243144E+02  0.34538334699E+02 -0.71115597417E+00  0.38464629951E+02  0.00000000000E+00 0.  1.
</event>
<event>
 4    1  0.5565417E+003  0.2218225E+02  0.7546771E-02  0.1503030E+00
          2   -1    0    0  501    0  0.00000000000E+00  0.00000000000E+00  0.27556182902E+01  0.27556182902E+01  0.00000000000E+00 0.  1.
         -2   -1    0    0    0  501 -0.00000000000E+00 -0.00000000000E+00 -0.16536255091E+04  0.16536255091E+04  0.00000000000E+00 0.  1.
          2    1    1    2  502    0  0.38234557074E+01 -0.21850252842E+02 -0.43236657536E+02  0.48594865137E+02  0.00000000000E+00 0.  1.
         -2    1    1    2    0  502 -0.38234557074E+01  0.21850252842E+02 -0.16076332333E+04  0.16077862623E+04  0.00000000000E+00 0.  1.
</event>
<event>
 4    1  0.5565417E+003  0.2151624E+02  0.7546771E-02  0.1512020E+00
          2   -1    0    0  501    0  0.00000000000E+00  0.00000000000E+00  0.44052155249E+03  0.44052155249E+03  0.00000000000E+00 0.  1.
         -2   -1    0    0    0  501 -0.00000000000E+00 -0.00000000000E+00 -0.40641514458E+03  0.40641514458E+03  0.00000000000E+00 0. -1.
          2    1    1    2  502    0  0.20647682033E+02 -0.60515979941E+01  0.43997369485E+03  0.44049949009E+03  0.00000000000E+00 0.  1.
         -2    1    1    2    0  502 -0.20647682033E+02  0.60515979941E+01 -0.40586728693E+03  0.40643720698E+03  0.00000000000E+00 0. -1.
</event>
<event>
 4    1  0.5565417E+003  0.2092295E+02  0.7546771E-02  0.1520368E+00
          2   -1    0    0  501    0  0.00000000000E+00  0.00000000000E+00  0.21541337690E+03  0.21541337690E+03  0.00000000000E+00 0.  1.
         -2   -1    0    0    0  501 -0.00000000000E+00 -0.00000000000E+00 -0.76373458199E+02  0.76373458199E+02  0.00000000000E+00 0. -1.
          2    1    1    2  502    0  0.20872686803E+02 -0.14494165091E+01  0.21345924107E+03  0.21448220779E+03  0.00000000000E+00 0.  1.
         -2    1    1    2    0  502 -0.20872686803E+02  0.14494165091E+01 -0.74419322363E+02  0.77304627310E+02  0.00000000000E+00 0. -1.
</event>
<event>
 4    1  0.5565417E+003  0.3293698E+02  0.7546771E-02  0.1395677E+00
          2   -1    0    0  501    0  0.00000000000E+00  0.00000000000E+00  0.65097053577E+03  0.65097053577E+03  0.00000000000E+00 0.  1.
         -2   -1    0    0    0  501 -0.00000000000E+00 -0.00000000000E+00 -0.29127749710E+01  0.29127749710E+01  0.00000000000E+00 0. -1.
          2    1    1    2  502    0 -0.32913800089E+02  0.12355749599E+01  0.53788567933E+03  0.53889317022E+03  0.00000000000E+00 0.  1.
         -2    1    1    2    0  502  0.32913800089E+02 -0.12355749599E+01  0.11017208147E+03  0.11499014052E+03  0.00000000000E+00 0. -1.
</event>
<event>
 4    1  0.5565417E+003  0.2504121E+02  0.7546771E-02  0.1468343E+00
          2   -1    0    0  501    0  0.00000000000E+00  0.00000000000E+00  0.10118307936E+02  0.10118307936E+02  0.00000000000E+00 0. -1.
         -2   -1    0    0    0  501 -0.00000000000E+00 -0.00000000000E+00 -0.18414390430E+03  0.18414390430E+03  0.00000000000E+00 0.  1.
          2    1    1    2  502    0  0.18997340073E+02 -0.16314513940E+02 -0.78969505447E+01  0.26256887151E+02  0.00000000000E+00 0. -1.
         -2    1    1    2    0  502 -0.18997340073E+02  0.16314513940E+02 -0.16612864582E+03  0.16800532509E+03  0.00000000000E+00 0.  1.
</event>
<event>
 4    1  0.5565417E+003  0.3689916E+02  0.7546771E-02  0.1367682E+00
          2   -1    0    0  501    0  0.00000000000E+00  0.00000000000E+00  0.72269822371E+03  0.72269822371E+03  0.00000000000E+00 0. -1.
         -2   -1    0    0    0  501 -0.00000000000E+00 -0.00000000000E+00 -0.26370419593E+01  0.26370419593E+01  0.00000000000E+00 0.  1.
          2    1    1    2  502    0  0.52493115196E+01 -0.36523861778E+02  0.55383610565E+03  0.55506394196E+03  0.00000000000E+00 0. -1.
         -2    1    1    2    0  502 -0.52493115196E+01  0.36523861778E+02  0.16622507610E+03  0.17027132370E+03  0.00000000000E+00 0.  1.
</event>
<event>
 4    1  0.5565417E+003  0.2200829E+02  0.7546771E-02  0.1505341E+00
          2   -1    0    0  501    0  0.00000000000E+00  0.00000000000E+00  0.38083030426E+02  0.38083030426E+02  0.00000000000E+00 0. -1.
         -2   -1    0    0    0  501 -0.00000000000E+00 -0.00000000000E+00 -0.14074587591E+02  0.14074587591E+02  0.00000000000E+00 0.  1.
          2    1    1    2  502    0 -0.20746677145E+02 -0.73443886101E+01  0.20098722668E+02  0.29804753136E+02  0.00000000000E+00 0. -1.
         -2    1    1    2    0  502  0.20746677145E+02  0.73443886101E+01  0.39097201673E+01  0.22352864881E+02  0.00000000000E+00 0.  1.
</event>
<event>
 4    1  0.5565417E+003  0.3769677E+02  0.7546771E-02  0.1362538E+00
          2   -1    0    0  501    0  0.00000000000E+00  0.00000000000E+00  0.89137258650E+02  0.89137258650E+02  0.00000000000E+00 0. -1.
         -2   -1    0    0    0  501 -0.00000000000E+00 -0.00000000000E+00 -0.18900318198E+02  0.18900318198E+02  0.00000000000E+00 0. -1.
          2    1    1    2  502    0  0.12547896321E+02 -0.35547107616E+02  0.56489031918E+02  0.67912129174E+02  0.00000000000E+00 0. -1.
         -2    1    1    2    0  502 -0.12547896321E+02  0.35547107616E+02  0.13747908534E+02  0.40125447674E+02  0.00000000000E+00 0. -1.
</event>
<event>
 4    1  0.5565417E+003  0.3016626E+02  0.7546771E-02  0.1418157E+00
          2   -1    0    0  501    0  0.00000000000E+00  0.00000000000E+00  0.98581823337E+03  0.98581823337E+03  0.00000000000E+00 0.  1.
         -2   -1    0    0    0  501 -0.00000000000E+00 -0.00000000000E+00 -0.16421430519E+01  0.16421430519E+01  0.00000000000E+00 0.  1.
          2    1    1    2  502    0  0.25817705693E+02 -0.15602865780E+02  0.81879870840E+03  0.81935421414E+03  0.00000000000E+00 0.  1.
         -2    1    1    2    0  502 -0.25817705693E+02  0.15602865780E+02  0.16537738192E+03  0.16810616228E+03  0.00000000000E+00 0.  1.
</event>
<event>
 4    1  0.5565417E+003  0.5419246E+02  0.7546771E-02  0.1280952E+00
          2   -1    0    0  501    0  0.00000000000E+00  0.00000000000E+00  0.11419269269E+04  0.11419269269E+04  0.00000000000E+00 0.  1.
         -2   -1    0    0    0  501 -0.00000000000E+00 -0.00000000000E+00 -0.30875083104E+01  0.30875083104E+01  0.00000000000E+00 0.  1.
          2    1    1    2  502    0  0.38150649434E+02  0.38488314537E+02  0.80339690374E+03  0.80522258249E+03  0.00000000000E+00 0.  1.
         -2    1    1    2    0  502 -0.38150649434E+02 -0.38488314537E+02  0.33544251480E+03  0.33979185267E+03  0.00000000000E+00 0.  1.
</event>
<event>
 4    1  0.5565417E+003  0.2411807E+02  0.7546771E-02  0.1478916E+00
          2   -1    0    0  501    0  0.00000000000E+00  0.00000000000E+00  0.69758200044E+00  0.69758200044E+00  0.00000000000E+00 0.  1.
         -2   -1    0    0    0  501 -0.00000000000E+00 -0.00000000000E+00 -0.91526198438E+03  0.91526198438E+03  0.00000000000E+00 0.  1.
          2    1    1    2  502    0  0.43085679530E+01 -0.23730097920E+02 -0.32069563100E+03  0.32160125785E+03  0.00000000000E+00 0.  1.
         -2    1    1    2    0  502 -0.43085679530E+01  0.23730097920E+02 -0.59386877137E+03  0.59435830853E+03  0.00000000000E+00 0.  1.
</event>
<event>
 4    1  0.5565417E+003  0.2510554E+02  0.7546771E-02  0.1467626E+00
          2   -1    0    0  501    0  0.00000000000E+00  0.00000000000E+00  0.48220523796E+02  0.48220523796E+02  0.00000000000E+00 0.  1.
         -2   -1    0    0    0  501 -0.00000000000E+00 -0.00000000000E+00 -0.43704546632E+03  0.43704546632E+03  0.00000000000E+00 0. -1.
          2    1    1    2  502    0 -0.19972395281E+02 -0.15211567625E+02  0.44564703708E+02  0.51149791588E+02  0.00000000000E+00 0.  1.
         -2    1    1    2    0  502  0.19972395281E+02  0.15211567625E+02 -0.43338964623E+03  0.43411619852E+03  0.00000000000E+00 0. -1.
</event>
<event>
 4    1  0.5565417E+003  0.2276077E+02  0.7546771E-02  0.1495524E+00
          2   -1    0    0  501    0  0.00000000000E+00  0.00000000000E+00  0.94343927772E+03  0.94343927772E+03  0.00000000000E+00 0. -1.
         -2   -1    0    0    0  501 -0.00000000000E+00 -0.00000000000E+00 -0.24704719380E+02  0.24704719380E+02  0.00000000000E+00 0.  1.
          2    1    1    2  502    0 -0.13742341639E+02 -0.18143894516E+02  0.93802932096E+03  0.93830541927E+03  0.00000000000E+00 0. -1.
         -2    1    1    2    0  502  0.13742341639E+02  0.18143894516E+02 -0.19294762620E+02  0.29838577823E+02  0.00000000000E+00 0.  1.
</event>
<event>
 4    1  0.5565417E+003  0.2375875E+02  0.7546771E-02  0.1483184E+00
          2   -1    0    0  501    0  0.00000000000E+00  0.00000000000E+00  0.14895723746E+04  0.14895723746E+04  0.00000000000E+00 0. -1.
         -2   -1    0    0    0  501 -0.00000000000E+00 -0.00000000000E+00 -0.90608729332E+00  0.90608729332E+00  0.00000000000E+00 0. -1.
          2    1    1    2  502    0  0.15125923402E+02 -0.18321698028E+02  0.13127556342E+04  0.13129706140E+04  0.00000000000E+00 0. -1.
         -2    1    1    2    0  502 -0.15125923402E+02  0.18321698028E+02  0.17591065312E+03  0.17750784788E+03  0.00000000000E+00 0. -1.
</event>
<event>
 4    1  0.5565417E+003  0.2229834E+02  0.7546771E-02  0.1501502E+00
          2   -1    0    0  501    0  0.00000000000E+00  0.00000000000E+00  0.28730986103E+03  0.28730986103E+03  0.00000000000E+00 0. -1.
         -2   -1    0    0    0  501 -0.00000000000E+00 -0.00000000000E+00 -0.26257652625E+03  0.26257652625E+03  0.00000000000E+00 0. -1.
          2    1    1    2  502    0 -0.21430193305E+02 -0.61613810177E+01  0.28640231464E+03  0.28726904051E+03  0.00000000000E+00 0. -1.
         -2    1    1    2    0  502  0.21430193305E+02  0.61613810177E+01 -0.26166897987E+03  0.26261734677E+03  0.00000000000E+00 0. -1.
</event>
<event>
 4    1  0.5565417E+003  0.2462200E+02  0.7546771E-02  0.1473077E+00
          2   -1    0    0  501    0  0.00000000000E+00  0.00000000000E+00  0.10314204382E+02  0.10314204382E+02  0.00000000000E+00 0.  1.
         -2   -1    0    0    0  501 -0.00000000000E+00 -0.00000000000E+00 -0.19179365482E+03  0.19179365482E+03  0.00000000000E+00 0.  1.
          2    1    1    2  502    0  0.22147661006E+02  0.10757501745E+02 -0.65830926891E+01  0.25486856244E+02  0.00000000000E+00 0.  1.
         -2    1    1    2    0  502 -0.22147661006E+02 -0.10757501745E+02 -0.17489635775E+03  0.17662100295E+03  0.00000000000E+00 0.  1.
</event>
<event>
 4    1  0.5565417E+003  0.2465854E+02  0.7546771E-02  0.1472660E+00
          2   -1    0    0  501    0  0.00000000000E+00  0.00000000000E+00  0.35588311823E+03  0.35588311823E+03  0.00000000000E+00 0.  1.
         -2   -1    0    0    0  501 -0.00000000000E+00 -0.00000000000E+00 -0.12178034198E+02  0.12178034198E+02  0.00000000000E+00 0. -1.
          2    1    1    2  502    0  0.23701777226E+02 -0.68021621951E+01  0.34248594819E+03  0.34337249215E+03  0.00000000000E+00 0.  1.
         -2    1    1    2    0  502 -0.23701777226E+02  0.68021621951E+01  0.12191358389E+01  0.24688660279E+02  0.00000000000E+00 0. -1.
</event>
<event>
 4    1  0.5565417E+003  0.2449586E+02  0.7546771E-02  0.1474523E+00
          2   -1    0    0  501    0  0.00000000000E+00  0.00000000000E+00  0.26728165346E+03  0.26728165346E+03  0.00000000000E+00 0. -1.
         -2   -1    0    0    0  501 -0.00000000000E+00 -0.00000000000E+00 -0.64629438172E+01  0.64629438172E+01  0.00000000000E+00 0. -1.
          2    1    1    2  502    0  0.18224970200E+02 -0.16367581976E+02  0.24098278245E+03  0.24222458322E+03  0.00000000000E+00 0. -1.
         -2    1    1    2    0  502 -0.18224970200E+02  0.16367581976E+02  0.19835927190E+02  0.31520014055E+02  0.00000000000E+00 0. -1.
</event>
<event>
 4    1  0.5565417E+003  0.2154588E+02  0.7546771E-02  0.1511612E+00
          2   -1    0    0  501    0  0.00000000000E+00  0.00000000000E+00  0.54844151393E+03  0.54844151393E+03  0.00000000000E+00 0.  1.
         -2   -1    0    0    0  501 -0.00000000000E+00 -0.00000000000E+00 -0.70684301336E+01  0.70684301336E+01  0.00000000000E+00 0. -1.
          2    1    1    2  502    0  0.45371877277E+01  0.21062734254E+02  0.53128082748E+03  0.53171754014E+03  0.00000000000E+00 0.  1.
         -2    1    1    2    0  502 -0.45371877277E+01 -0.21062734254E+02  0.10092256313E+02  0.23792403918E+02  0.00000000000E+00 0. -1.
</event>
<event>
 4    1  0.5565417E+003  0.2379475E+02  0.7546771E-02  0.1482753E+00
          2   -1    0    0  501    0  0.00000000000E+00  0.00000000000E+00  0.10757164611E+04  0.10757164611E+04  0.00000000000E+00 0.  1.
         -2   -1    0    0    0  501 -0.00000000000E+00 -0.00000000000E+00 -0.53245421977E+00  0.53245421977E+00  0.00000000000E+00 0. -1.
          2    1    1    2  502    0 -0.19445150552E+02  0.13714084995E+02  0.59526835376E+03  0.59574373937E+03  0.00000000000E+00 0.  1.
         -2    1    1    2    0  502  0.19445150552E+02 -0.13714084995E+02  0.47991565310E+03  0.48050517593E+03  0.00000000000E+00 0. -1.
</event>
<event>
 4    1  0.5565417E+003  0.2062207E+02  0.7546771E-02  0.1524730E+00
          2   -1    0    0  501    0  0.00000000000E+00  0.00000000000E+00  0.21307097328E+03  0.21307097328E+03  0.00000000000E+00 0.  1.
         -2   -1    0    0    0  501 -0.00000000000E+00 -0.00000000000E+00 -0.28067173312E+01  0.28067173312E+01  0.00000000000E+00 0.  1.
          2    1    1    2  502    0  0.18324085229E+02 -0.94603284423E+01  0.16314681888E+03  0.16444498905E+03  0.00000000000E+00 0.  1.
         -2    1    1    2    0  502 -0.18324085229E+02  0.94603284423E+01  0.47117437067E+02  0.51432701558E+02  0.00000000000E+00 0.  1.
</event>
<event>
 4    1  0.5565417E+003  0.2312807E+02  0.7546771E-02  0.1490896E+00
          2   -1    0    0  501    0  0.00000000000E+00  0.00000000000E+00  0.87506899938E+02  0.87506899938E+02  0.00000000000E+00 0.  1.
         -2   -1    0    0    0  501 -0.00000000000E+00 -0.00000000000E+00 -0.72316183987E+02  0.72316183987E+02  0.00000000000E+00 0. -1.
          2    1    1    2  502    0  0.22581758154E+02  0.49971683230E+01  0.84054959519E+02  0.87178803113E+02  0.00000000000E+00 0.  1.
         -2    1    1    2    0  502 -0.22581758154E+02 -0.49971683230E+01 -0.68864243568E+02  0.72644280812E+02  0.00000000000E+00 0. -1.
</event>
<event>
 4    1  0.5565417E+003  0.3632153E+02  0.7546771E-02  0.1371503E+00
          2   -1    0    0  501    0  0.00000000000E+00  0.00000000000E+00  0.83339818605E+03  0.83339818605E+03  0.00000000000E+00 0. -1.
         -2   -1    0    0    0  501 -0.00000000000E+00 -0.00000000000E+00 -0.16994884134E+02  0.16994884134E+02  0.00000000000E+00 0.  1.
          2    1    1    2  502    0  0.29807263776E+02  0.20755247093E+02  0.81311188367E+03  0.81392271661E+03  0.00000000000E+00 0. -1.
         -2    1    1    2    0  502 -0.29807263776E+02 -0.20755247093E+02  0.32914182506E+01  0.36470353574E+02  0.00000000000E+00 0.  1.
</event>
<event>
 4    1  0.5565417E+003  0.3105971E+02  0.7546771E-02  0.1410606E+00
          2   -1    0    0  501    0  0.00000000000E+00  0.00000000000E+00  0.23269007134E+03  0.23269007134E+03  0.00000000000E+00 0.  1.
         -2   -1    0    0    0  501 -0.00000000000E+00 -0.00000000000E+00 -0.37995712822E+02  0.37995712822E+02  0.00000000000E+00 0.  1.
          2    1    1    2  502    0 -0.89414992535E+01 -0.29744838145E+02  0.22509291125E+03  0.22722571267E+03  0.00000000000E+00 0.  1.
         -2    1    1    2    0  502  0.89414992535E+01  0.29744838145E+02 -0.30398552734E+02  0.43460071485E+02  0.00000000000E+00 0.  1.
</event>
<event>
 4    1  0.5565417E+003  0.2146076E+02  0.7546771E-02  0.1512787E+00
          2   -1    0    0  501    0  0.00000000000E+00  0.00000000000E+00  0.47929744260E+03  0.47929744260E+03  0.00000000000E+00 0.  1.
         -2   -1    0    0    0  501 -0.00000000000E+00 -0.00000000000E+00 -0.37599126750E+01  0.37599126750E+01  0.00000000000E+00 0. -1.
          2    1    1    2  502    0 -0.17945589424E+02 -0.11769452696E+02  0.44616078187E+03  0.44667662517E+03  0.00000000000E+00 0.  1.
         -2    1    1    2    0  502  0.17945589424E+02  0.11769452696E+02  0.29376748057E+02  0.36380730104E+02  0.00000000000E+00 0. -1.
</event>
<event>
 4    1  0.5565417E+003  0.2836536E+02  0.7546771E-02  0.1434355E+00
          2   -1    0    0  501    0  0.00000000000E+00  0.00000000000E+00  0.51331915594E+03  0.51331915594E+03  0.00000000000E+00 0.  1.
         -2   -1    0    0    0  501 -0.00000000000E+00 -0.00000000000E+00 -0.58152974436E+01  0.58152974436E+01  0.00000000000E+00 0.  1.
          2    1    1    2  502    0  0.14767358602E+01 -0.28326890465E+02  0.47559670519E+03  0.47644183219E+03  0.00000000000E+00 0.  1.
         -2    1    1    2    0  502 -0.14767358602E+01  0.28326890465E+02  0.31907153301E+02  0.42692621189E+02  0.00000000000E+00 0.  1.
</event>
<event>
 4    1  0.5565417E+003  0.2994236E+02  0.7546771E-02  0.1420098E+00
          2   -1    0    0  501    0  0.00000000000E+00  0.00000000000E+00  0.68405344345E+03  0.68405344345E+03  0.00000000000E+00 0.  1.
         -2   -1    0    0    0  501 -0.00000000000E+00 -0.00000000000E+00 -0.31972869063E+01  0.31972869063E+01  0.00000000000E+00 0. -1.
          2    1    1    2  502    0 -0.13858085942E+02  0.26542388040E+02  0.60438934937E+03  0.60513058965E+03  0.00000000000E+00 0.  1.
         -2    1    1    2    0  502  0.13858085942E+02 -0.26542388040E+02  0.76466807176E+02  0.82120140699E+02  0.00000000000E+00 0. -1.
</event>
<event>
 4    1  0.5565417E+003  0.3935453E+02  0.7546771E-02  0.1352310E+00
          2   -1    0    0  501    0  0.00000000000E+00  0.00000000000E+00  0.35159145709E+03  0.35159145709E+03  0.00000000000E+00 0. -1.
         -2   -1    0    0    0  501 -0.00000000000E+00 -0.00000000000E+00 -0.95886698625E+01  0.95886698625E+01  0.00000000000E+00 0.  1.
          2    1    1    2  502    0 -0.82922419133E+01 -0.38471003188E+02  0.30378090671E+03  0.30631947154E+03  0.00000000000E+00 0. -1.
         -2    1    1    2    0  502  0.82922419133E+01  0.38471003188E+02  0.38221880522E+02  0.54860655418E+02  0.00000000000E+00 0.  1.
</event>
<event>
 4    1  0.5565417E+003  0.2102126E+02  0.7546771E-02  0.1518961E+00
          2   -1    0    0  501    0  0.00000000000E+00  0.00000000000E+00  0.62907166631E+01  0.62907166631E+01  0.00000000000E+00 0. -1.
         -2   -1    0    0    0  501 -0.00000000000E+00 -0.00000000000E+00 -0.35019431607E+03  0.35019431607E+03  0.00000000000E+00 0.  1.
          2    1    1    2  502    0  0.18616531988E+02  0.97631049246E+01 -0.12585603774E+02  0.24500834749E+02  0.00000000000E+00 0. -1.
         -2    1    1    2    0  502 -0.18616531988E+02 -0.97631049246E+01 -0.33131799563E+03  0.33198419799E+03  0.00000000000E+00 0.  1.
</event>
<event>
 4    1  0.5565417E+003  0.2298275E+02  0.7546771E-02  0.1492715E+00
          2   -1    0    0  501    0  0.00000000000E+00  0.00000000000E+00  0.39464994007E+03  0.39464994007E+03  0.00000000000E+00 0. -1.
         -2   -1    0    0    0  501 -0.00000000000E+00 -0.00000000000E+00 -0.10141276184E+02  0.10141276184E+02  0.00000000000E+00 0.  1.
          2    1    1    2  502    0 -0.11963022059E+02  0.19623781569E+02  0.38082173697E+03  0.38151461577E+03  0.00000000000E+00 0. -1.
         -2    1    1    2    0  502  0.11963022059E+02 -0.19623781569E+02  0.36869269151E+01  0.23276600480E+02  0.00000000000E+00 0.  1.
</event>
<event>
 4    1  0.5565417E+003  0.2352677E+02  0.7546771E-02  0.1485987E+00
          2   -1    0    0  501    0  0.00000000000E+00  0.00000000000E+00  0.83418868729E+03  0.83418868729E+03  0.00000000000E+00 0. -1.
         -2   -1    0    0    0  501 -0.00000000000E+00 -0.00000000000E+00 -0.24063724902E+02  0.24063724902E+02  0.00000000000E+00 0.  1.
          2    1    1    2  502    0  0.15815918772E+02  0.17417389819E+02  0.82823100119E+03  0.82856508500E+03  0.00000000000E+00 0. -1.
         -2    1    1    2    0  502 -0.15815918772E+02 -0.17417389819E+02 -0.18106038799E+02  0.29687327191E+02  0.00000000000E+00 0.  1.
</event>
<event>
 4    1  0.5565417E+003  0.2016084E+02  0.7546771E-02  0.1531591E+00
          2   -1    0    0  501    0  0.00000000000E+00  0.00000000000E+00  0.28299139052E+03  0.28299139052E+03  0.00000000000E+00 0. -1.
         -2   -1    0    0    0  501 -0.00000000000E+00 -0.00000000000E+00 -0.15044889753E+02  0.15044889753E+02  0.00000000000E+00 0.  1.
          2    1    1    2  502    0  0.14730432796E+02  0.13764947778E+02  0.27569981389E+03  0.27643597236E+03  0.00000000000E+00 0. -1.
         -2    1    1    2    0  502 -0.14730432796E+02 -0.13764947778E+02 -0.77533131187E+01  0.21600307914E+02  0.00000000000E+00 0.  1.
</event>
<event>
 4    1  0.5565417E+003  0.3388304E+02  0.7546771E-02  0.1388590E+00
          2   -1    0    0  501    0  0.00000000000E+00  0.00000000000E+00  0.32519249670E+03  0.32519249670E+03  0.00000000000E+00 0.  1.
         -2   -1    0    0    0  501 -0.00000000000E+00 -0.00000000000E+00 -0.19468864626E+03  0.19468864626E+03  0.00000000000E+00 0.  1.
          2    1    1    2  502    0  0.33124701072E+02 -0.71284231802E+01  0.32282488781E+03  0.32459816455E+03  0.00000000000E+00 0.  1.
         -2    1    1    2    0  502 -0.33124701072E+02  0.71284231802E+01 -0.19232103738E+03  0.19528297841E+03  0.00000000000E+00 0.  1.
</event>
<event>
 4    1  0.5565417E+003  0.2042827E+02  0.7546771E-02  0.1527586E+00
          2   -1    0    0  501    0  0.00000000000E+00  0.00000000000E+00  0.12334829024E+03  0.12334829024E+03  0.00000000000E+00 0. -1.
         -2   -1    0    0    0  501 -0.00000000000E+00 -0.00000000000E+00 -0.73938001198E+01  0.73938001198E+01  0.00000000000E+00 0. -1.
          2    1    1    2  502    0  0.19199391692E+02  0.69783763088E+01  0.10612268785E+03  0.10807099173E+03  0.00000000000E+00 0. -1.
         -2    1    1    2    0  502 -0.19199391692E+02 -0.69783763088E+01  0.98318022737E+01  0.22671098632E+02  0.00000000000E+00 0. -1.
</event>
<event>
 4    1  0.5565417E+003  0.2896483E+02  0.7546771E-02  0.1428810E+00
          2   -1    0    0  501    0  0.00000000000E+00  0.00000000000E+00  0.33454432670E+03  0.33454432670E+03  0.00000000000E+00 0. -1.
         -2   -1    0    0    0  501 -0.00000000000E+00 -0.00000000000E+00 -0.18020225189E+03  0.18020225189E+03  0.00000000000E+00 0.  1.
          2    1    1    2  502    0 -0.27423986145E+02 -0.93212782265E+01  0.33274719296E+03  0.33400547251E+03  0.00000000000E+00 0. -1.
         -2    1    1    2    0  502  0.27423986145E+02  0.93212782265E+01 -0.17840511815E+03  0.18074110608E+03  0.00000000000E+00 0.  1.
</event>
<event>
 4    1  0.5565417E+003  0.2755431E+02  0.7546771E-02  0.1442118E+00
          2   -1    0    0  501    0  0.00000000000E+00  0.00000000000E+00  0.44930598457E+03  0.44930598457E+03  0.00000000000E+00 0. -1.
         -2   -1    0    0    0  501 -0.00000000000E+00 -0.00000000000E+00 -0.78673135014E+01  0.78673135014E+01  0.00000000000E+00 0.  1.
          2    1    1    2  502    0 -0.27502366975E+02 -0.16910168051E+01  0.42327495252E+03  0.42417086788E+03  0.00000000000E+00 0. -1.
         -2    1    1    2    0  502  0.27502366975E+02  0.16910168051E+01  0.18163718549E+02  0.33002430192E+02  0.00000000000E+00 0.  1.
</event>
<event>
 4    1  0.5565417E+003  0.2007747E+02  0.7546771E-02  0.1532855E+00
          2   -1    0    0  501    0  0.00000000000E+00  0.00000000000E+00  0.33834922937E+03  0.33834922937E+03  0.00000000000E+00 0.  1.
         -2   -1    0    0    0  501 -0.00000000000E+00 -0.00000000000E+00 -0.12045146825E+01  0.12045146825E+01  0.00000000000E+00 0.  1.
          2    1    1    2  502    0 -0.10488161207E+02  0.17120254371E+02  0.18629702704E+03  0.18737579065E+03  0.00000000000E+00 0.  1.
         -2    1    1    2    0  502  0.10488161207E+02 -0.17120254371E+02  0.15084768765E+03  0.15217795341E+03  0.00000000000E+00 0.  1.
</event>
<event>
 4    1  0.5565417E+003  0.2127581E+02  0.7546771E-02  0.1515363E+00
          2   -1    0    0  501    0  0.00000000000E+00  0.00000000000E+00  0.72497283629E+02  0.72497283629E+02  0.00000000000E+00 0.  1.
         -2   -1    0    0    0  501 -0.00000000000E+00 -0.00000000000E+00 -0.13488688607E+02  0.13488688607E+02  0.00000000000E+00 0.  1.
          2    1    1    2  502    0  0.14897437044E+02 -0.15189678300E+02  0.61012818372E+02  0.64615972971E+02  0.00000000000E+00 0.  1.
         -2    1    1    2    0  502 -0.14897437044E+02  0.15189678300E+02 -0.20042233493E+01  0.21369999265E+02  0.00000000000E+00 0.  1.
</event>
<event>
 4    1  0.5565417E+003  0.3511130E+02  0.7546771E-02  0.1379782E+00
          2   -1    0    0  501    0  0.00000000000E+00  0.00000000000E+00  0.49085365421E+03  0.49085365421E+03  0.00000000000E+00 0.  1.
         -2   -1    0    0    0  501 -0.00000000000E+00 -0.00000000000E+00 -0.64609785566E+01  0.64609785566E+01  0.00000000000E+00 0.  1.
          2    1    1    2  502    0  0.32483678614E+02 -0.13327189365E+02  0.43660662394E+03  0.43801614972E+03  0.00000000000E+00 0.  1.
         -2    1    1    2    0  502 -0.32483678614E+02  0.13327189365E+02  0.47786051719E+02  0.59298483046E+02  0.00000000000E+00 0.  1.
</event>
<event>
 4    1  0.5565417E+003  0.2453182E+02  0.7546771E-02  0.1474110E+00
          2   -1    0    0  501    0  0.00000000000E+00  0.00000000000E+00  0.55435553489E+03  0.55435553489E+03  0.00000000000E+00 0.  1.
         -2   -1    0    0    0  501 -0.00000000000E+00 -0.00000000000E+00 -0.39020631501E+01  0.39020631501E+01  0.00000000000E+00 0.  1.
          2    1    1    2  502    0 -0.20985908073E+02 -0.12704405319E+02  0.51236917087E+03  0.51295611655E+03  0.00000000000E+00 0.  1.
         -2    1    1    2    0  502  0.20985908073E+02  0.12704405319E+02  0.38084300874E+02  0.45301481491E+02  0.00000000000E+00 0.  1.
</event>
<event>
 4    1  0.5565417E+003  0.2071054E+02  0.7546771E-02  0.1523438E+00
          2   -1    0    0  501    0  0.00000000000E+00  0.00000000000E+00  0.82664886362E+03  0.82664886362E+03  0.00000000000E+00 0. -1.
         -2   -1    0    0    0  501 -0.00000000000E+00 -0.00000000000E+00 -0.99849885226E+01  0.99849885226E+01  0.00000000000E+00 0. -1.
          2    1    1    2  502    0 -0.18850171657E+02  0.85789037448E+01  0.81563486431E+03  0.81589776225E+03  0.00000000000E+00 0. -1.
         -2    1    1    2    0  502  0.18850171657E+02 -0.85789037448E+01  0.10290107870E+01  0.20736089896E+02  0.00000000000E+00 0. -1.
</event>
<event>
 4    1  0.5565417E+003  0.1176710E+03  0.7546771E-02  0.1136284E+00
          2   -1    0    0  501    0  0.00000000000E+00  0.00000000000E+00  0.13126739237E+04  0.13126739237E+04  0.00000000000E+00 0.  1.
         -2   -1    0    0    0  501 -0.00000000000E+00 -0.00000000000E+00 -0.12541968860E+02  0.12541968860E+02  0.00000000000E+00 0. -1.
          2    1    1    2  502    0 -0.38907672140E+01  0.11760669590E+03  0.91424646552E+03  0.92178797600E+03  0.00000000000E+00 0.  1.
         -2    1    1    2    0  502  0.38907672140E+01 -0.11760669590E+03  0.38588548930E+03  0.40342791654E+03  0.00000000000E+00 0. -1.
</event>
<event>
 4    1  0.5565417E+003  0.2757025E+02  0.7546771E-02  0.1441962E+00
          2   -1    0    0  501    0  0.00000000000E+00  0.00000000000E+00  0.46548049206E+02  0.46548049206E+02  0.00000000000E+00 0. -1.
         -2   -1    0    0    0  501 -0.00000000000E+00 -0.00000000000E+00 -0.16651890357E+02  0.16651890357E+02  0.00000000000E+00 0.  1.
          2    1    1    2  502    0 -0.19838148933E+02 -0.19145933712E+02  0.19343132040E+02  0.33679009604E+02  0.00000000000E+00 0. -1.
         -2    1    1    2    0  502  0.19838148933E+02  0.19145933712E+02  0.10553026808E+02  0.29520929959E+02  0.00000000000E+00 0.  1.
</event>
<event>
 4    1  0.5565417E+003  0.2227350E+02  0.7546771E-02  0.1501828E+00
          2   -1    0    0  501    0  0.00000000000E+00  0.00000000000E+00  0.20195968569E+03  0.20195968569E+03  0.00000000000E+00 0.  1.
         -2   -1    0    0    0  501 -0.00000000000E+00 -0.00000000000E+00 -0.73805581951E+02  0.73805581951E+02  0.00000000000E+00 0.  1.
          2    1    1    2  502    0  0.22266646385E+02  0.55233765044E+00  0.19964569256E+03  0.20088432287E+03  0.00000000000E+00 0.  1.
         -2    1    1    2    0  502 -0.22266646385E+02 -0.55233765044E+00 -0.71491588818E+02  0.74880944772E+02  0.00000000000E+00 0.  1.
</event>
<event>
 4    1  0.5565417E+003  0.2792204E+02  0.7546771E-02  0.1438560E+00
          2   -1    0    0  501    0  0.00000000000E+00  0.00000000000E+00  0.69937671578E+02  0.69937671578E+02  0.00000000000E+00 0.  1.
         -2   -1    0    0    0  501 -0.00000000000E+00 -0.00000000000E+00 -0.71492045510E+02  0.71492045510E+02  0.00000000000E+00 0. -1.
          2    1    1    2  502    0  0.34891740669E+00 -0.27919862824E+02  0.64190932535E+02  0.70000830732E+02  0.00000000000E+00 0.  1.
         -2    1    1    2    0  502 -0.34891740669E+00  0.27919862824E+02 -0.65745306468E+02  0.71428886356E+02  0.00000000000E+00 0. -1.
</event>
<event>
 4    1  0.5565417E+003  0.2258108E+02  0.7546771E-02  0.1497827E+00
          2   -1    0    0  501    0  0.00000000000E+00  0.00000000000E+00  0.10485257812E+04  0.10485257812E+04  0.00000000000E+00 0.  1.
         -2   -1    0    0    0  501 -0.00000000000E+00 -0.00000000000E+00 -0.26273191724E+01  0.26273191724E+01  0.00000000000E+00 0. -1.
          2    1    1    2  502    0  0.22249521745E+02  0.38553750590E+01  0.99739781950E+03  0.99765340448E+03  0.00000000000E+00 0.  1.
         -2    1    1    2    0  502 -0.22249521745E+02 -0.38553750590E+01  0.48500642541E+02  0.53499695902E+02  0.00000000000E+00 0. -1.
</event>
<event>
 4    1  0.5565417E+003  0.2307325E+02  0.7546771E-02  0.1491580E+00
          2   -1    0    0  501    0  0.00000000000E+00  0.00000000000E+00  0.39134884129E+03  0.39134884129E+03  0.00000000000E+00 0. -1.
         -2   -1    0    0    0  501 -0.00000000000E+00 -0.00000000000E+00 -0.23833871856E+01  0.23833871856E+01  0.00000000000E+00 0.  1.
          2    1    1    2  502    0 -0.22376898909E+02  0.56257767082E+01  0.32346126265E+03  0.32428315313E+03  0.00000000000E+00 0. -1.
         -2    1    1    2    0  502  0.22376898909E+02 -0.56257767082E+01  0.65504191451E+02  0.69449075343E+02  0.00000000000E+00 0.  1.
</event>
<event>
 4    1  0.5565417E+003  0.2249078E+02  0.7546771E-02  0.1498993E+00
          2   -1    0    0  501    0  0.00000000000E+00  0.00000000000E+00  0.78431364138E+03  0.78431364138E+03  0.00000000000E+00 0.  1.
         -2   -1    0    0    0  501 -0.00000000000E+00 -0.00000000000E+00 -0.88989513454E+02  0.88989513454E+02  0.00000000000E+00 0. -1.
          2    1    1    2  502    0  0.97633318711E+01 -0.20261104809E+02  0.78272847684E+03  0.78305153309E+03  0.00000000000E+00 0.  1.
         -2    1    1    2    0  502 -0.97633318711E+01  0.20261104809E+02 -0.87404348918E+02  0.90251621742E+02  0.00000000000E+00 0. -1.
</event>
<event>
 4    1  0.5565417E+003  0.2011769E+02  0.7546771E-02  0.1532244E+00
          2   -1    0    0  501    0  0.00000000000E+00  0.00000000000E+00  0.15953072204E+02  0.15953072204E+02  0.00000000000E+00 0. -1.
         -2   -1    0    0    0  501 -0.00000000000E+00 -0.00000000000E+00 -0.25467647948E+02  0.25467647948E+02  0.00000000000E+00 0. -1.
          2    1    1    2  502    0 -0.19104615696E+02 -0.63035685329E+01 -0.34715442287E+01  0.20415017425E+02  0.00000000000E+00 0. -1.
         -2    1    1    2    0  502  0.19104615696E+02  0.63035685329E+01 -0.60430315151E+01  0.21005702726E+02  0.00000000000E+00 0. -1.
</event>
<event>
 4    1  0.5565417E+003  0.2209850E+02  0.7546771E-02  0.1504140E+00
          2   -1    0    0  501    0  0.00000000000E+00  0.00000000000E+00  0.37758119575E+02  0.37758119575E+02  0.00000000000E+00 0. -1.
         -2   -1    0    0    0  501 -0.00000000000E+00 -0.00000000000E+00 -0.18001082017E+03  0.18001082017E+03  0.00000000000E+00 0. -1.
          2    1    1    2  502    0  0.10831723227E+02  0.19261816182E+02  0.33773632095E+02  0.40360897111E+02  0.00000000000E+00 0. -1.
         -2    1    1    2    0  502 -0.10831723227E+02 -0.19261816182E+02 -0.17602633269E+03  0.17740804263E+03  0.00000000000E+00 0. -1.
</event>
<event>
 4    1  0.5963533E+003  0.2300987E+02  0.7546771E-02  0.1492374E+00
          2   -1    0    0  501    0  0.00000000000E+00  0.00000000000E+00  0.59619549702E+03  0.59619549702E+03  0.00000000000E+00 0. -1.
         -2   -1    0    0    0  501 -0.00000000000E+00 -0.00000000000E+00 -0.26383846132E+03  0.26383846132E+03  0.00000000000E+00 0.  1.
          2    1    1    2  502    0  0.12786460934E+02  0.19130098199E+02  0.59547118924E+03  0.59591559088E+03  0.00000000000E+00 0. -1.
         -2    1    1    2    0  502 -0.12786460934E+02 -0.19130098199E+02 -0.26311415353E+03  0.26411836746E+03  0.00000000000E+00 0.  1.
</event>
<event>
 4    1  0.5565417E+003  0.2821156E+02  0.7546771E-02  0.1435803E+00
          2   -1    0    0  501    0  0.00000000000E+00  0.00000000000E+00  0.55455178197E+03  0.55455178197E+03  0.00000000000E+00 0. -1.
         -2   -1    0    0    0  501 -0.00000000000E+00 -0.00000000000E+00 -0.16191865259E+02  0.16191865259E+02  0.00000000000E+00 0.  1.
          2    1    1    2  502    0 -0.75221145563E+00 -0.28201527149E+02  0.54161112053E+03  0.54234536767E+03  0.00000000000E+00 0. -1.
         -2    1    1    2    0  502  0.75221145563E+00  0.28201527149E+02 -0.32512038153E+01  0.28398279558E+02  0.00000000000E+00 0.  1.
</event>
<event>
 4    1  0.5565417E+003  0.2565415E+02  0.7546771E-02  0.1461617E+00
          2   -1    0    0  501    0  0.00000000000E+00  0.00000000000E+00  0.52917659233E+02  0.52917659233E+02  0.00000000000E+00 0.  1.
         -2   -1    0    0    0  501 -0.00000000000E+00 -0.00000000000E+00 -0.14430275357E+03  0.14430275357E+03  0.00000000000E+00 0.  1.
          2    1    1    2  502    0  0.77125605261E+01  0.24467358505E+02  0.48572485468E+02  0.54931061947E+02  0.00000000000E+00 0.  1.
         -2    1    1    2    0  502 -0.77125605261E+01 -0.24467358505E+02 -0.13995757980E+03  0.14228935086E+03  0.00000000000E+00 0.  1.
</event>
<event>
 4    1  0.5565417E+003  0.2415267E+02  0.7546771E-02  0.1478510E+00
          2   -1    0    0  501    0  0.00000000000E+00  0.00000000000E+00  0.12678662737E+04  0.12678662737E+04  0.00000000000E+00 0.  1.
         -2   -1    0    0    0  501 -0.00000000000E+00 -0.00000000000E+00 -0.48253124243E+00  0.48253124243E+00  0.00000000000E+00 0. -1.
          2    1    1    2  502    0 -0.11434619904E+01 -0.24125585477E+02  0.77040997205E+03  0.77078847709E+03  0.00000000000E+00 0.  1.
         -2    1    1    2    0  502  0.11434619904E+01  0.24125585477E+02  0.49697377042E+03  0.49756032786E+03  0.00000000000E+00 0. -1.
</event>
<event>
 4    1  0.5565417E+003  0.2254388E+02  0.7546771E-02  0.1498306E+00
          2   -1    0    0  501    0  0.00000000000E+00  0.00000000000E+00  0.98077327881E+02  0.98077327881E+02  0.00000000000E+00 0.  1.
         -2   -1    0    0    0  501 -0.00000000000E+00 -0.00000000000E+00 -0.42873249552E+03  0.42873249552E+03  0.00000000000E+00 0.  1.
          2    1    1    2  502    0  0.19076124660E+02  0.12013666416E+02  0.96480659946E+02  0.99079485548E+02  0.00000000000E+00 0.  1.
         -2    1    1    2    0  502 -0.19076124660E+02 -0.12013666416E+02 -0.42713582759E+03  0.42773033786E+03  0.00000000000E+00 0.  1.
</event>
<event>
 4    1  0.5565417E+003  0.2332422E+02  0.7546771E-02  0.1488467E+00
          2   -1    0    0  501    0  0.00000000000E+00  0.00000000000E+00  0.38757116346E+03  0.38757116346E+03  0.00000000000E+00 0.  1.
         -2   -1    0    0    0  501 -0.00000000000E+00 -0.00000000000E+00 -0.26096031233E+01  0.26096031233E+01  0.00000000000E+00 0.  1.
          2    1    1    2  502    0  0.21484541530E+02 -0.90792990667E+01  0.32510155223E+03  0.32593716949E+03  0.00000000000E+00 0.  1.
         -2    1    1    2    0  502 -0.21484541530E+02  0.90792990667E+01  0.59860008111E+02  0.64243597093E+02  0.00000000000E+00 0.  1.
</event>
<event>
 4    1  0.5565417E+003  0.2105582E+02  0.7546771E-02  0.1518469E+00
          2   -1    0    0  501    0  0.00000000000E+00  0.00000000000E+00  0.11775790868E+04  0.11775790868E+04  0.00000000000E+00 0.  1.
         -2   -1    0    0    0  501 -0.00000000000E+00 -0.00000000000E+00 -0.14964798615E+01  0.14964798615E+01  0.00000000000E+00 0.  1.
          2    1    1    2  502    0 -0.14092002497E+02 -0.15644904659E+02  0.10980564986E+04  0.10982583583E+04  0.00000000000E+00 0.  1.
         -2    1    1    2    0  502  0.14092002497E+02  0.15644904659E+02  0.78026108334E+02  0.80817208303E+02  0.00000000000E+00 0.  1.
</event>
<event>
 4    1  0.5565417E+003  0.2029959E+02  0.7546771E-02  0.1529504E+00
          2   -1    0    0  501    0  0.00000000000E+00  0.00000000000E+00  0.12437187777E+04  0.12437187777E+04  0.00000000000E+00 0. -1.
         -2   -1    0    0    0  501 -0.00000000000E+00 -0.00000000000E+00 -0.45625400538E+00  0.45625400538E+00  0.00000000000E+00 0.  1.
          2    1    1    2  502    0  0.11404594374E+02  0.16793116402E+02  0.94715450815E+03  0.94737201554E+03  0.00000000000E+00 0. -1.
         -2    1    1    2    0  502 -0.11404594374E+02 -0.16793116402E+02  0.29610801550E+03  0.29680301612E+03  0.00000000000E+00 0.  1.
</event>
<event>
 4    1  0.5565417E+003  0.2047236E+02  0.7546771E-02  0.1526933E+00
          2   -1    0    0  501    0  0.00000000000E+00  0.00000000000E+00  0.11379911364E+03  0.11379911364E+03  0.00000000000E+00 0.  1.
         -2   -1    0    0    0  501 -0.00000000000E+00 -0.00000000000E+00 -0.99677232945E+02  0.99677232945E+02  0.00000000000E+00 0. -1.
          2    1    1    2  502    0 -0.63592562280E+01 -0.19459632827E+02  0.11180862783E+03  0.11366743908E+03  0.00000000000E+00 0.  1.
         -2    1    1    2    0  502  0.63592562280E+01  0.19459632827E+02 -0.97686747140E+02  0.99808907500E+02  0.00000000000E+00 0. -1.
</event>
<event>
 4    1  0.5565417E+003  0.3398202E+02  0.7546771E-02  0.1387865E+00
          2   -1    0    0  501    0  0.00000000000E+00  0.00000000000E+00  0.28920978468E+04  0.28920978468E+04  0.00000000000E+00 0.  1.
         -2   -1    0    0    0  501 -0.00000000000E+00 -0.00000000000E+00 -0.44917824604E+00  0.44917824604E+00  0.00000000000E+00 0. -1.
          2    1    1    2  502    0 -0.16691890627E+02 -0.29599975520E+02  0.19278300754E+04  0.19281295541E+04  0.00000000000E+00 0.  1.
         -2    1    1    2    0  502  0.16691890627E+02  0.29599975520E+02  0.96381859317E+03  0.96441747096E+03  0.00000000000E+00 0. -1.
</event>
<event>
 4    1  0.5565417E+003  0.2038563E+02  0.7546771E-02  0.1528220E+00
          2   -1    0    0  501    0  0.00000000000E+00  0.00000000000E+00  0.30685628922E+03  0.30685628922E+03  0.00000000000E+00 0. -1.
         -2   -1    0    0    0  501 -0.00000000000E+00 -0.00000000000E+00 -0.75725711902E+02  0.75725711902E+02  0.00000000000E+00 0.  1.
          2    1    1    2  502    0 -0.11215057867E+02  0.17023402954E+02  0.30513802802E+03  0.30581823018E+03  0.00000000000E+00 0. -1.
         -2    1    1    2    0  502  0.11215057867E+02 -0.17023402954E+02 -0.74007450694E+02  0.76763770942E+02  0.00000000000E+00 0.  1.
</event>
<event>
 4    1  0.5565417E+003  0.2522389E+02  0.7546771E-02  0.1466314E+00
          2   -1    0    0  501    0  0.00000000000E+00  0.00000000000E+00  0.53175555173E+03  0.53175555173E+03  0.00000000000E+00 0. -1.
         -2   -1    0    0    0  501 -0.00000000000E+00 -0.00000000000E+00 -0.41740822363E+01  0.41740822363E+01  0.00000000000E+00 0. -1.
          2    1    1    2  502    0  0.19846141818E+01 -0.25145692010E+02  0.49011404929E+03  0.49076269809E+03  0.00000000000E+00 0. -1.
         -2    1    1    2    0  502 -0.19846141818E+01  0.25145692010E+02  0.37467420200E+02  0.45166935878E+02  0.00000000000E+00 0. -1.
</event>
<event>
 4    1  0.5565417E+003  0.2156962E+02  0.7546771E-02  0.1511285E+00
          2   -1    0    0  501    0  0.00000000000E+00  0.00000000000E+00  0.37865139713E+03  0.37865139713E+03  0.00000000000E+00 0. -1.
         -2   -1    0    0    0  501 -0.00000000000E+00 -0.00000000000E+00 -0.16053219861E+03  0.16053219861E+03  0.00000000000E+00 0. -1.
          2    1    1    2  502    0  0.10449425573E+02 -0.18869502382E+02  0.37761769964E+03  0.37823322924E+03  0.00000000000E+00 0. -1.
         -2    1    1    2    0  502 -0.10449425573E+02  0.18869502382E+02 -0.15949850113E+03  0.16095036650E+03  0.00000000000E+00 0. -1.
</event>
<event>
 4    1  0.5565417E+003  0.3765895E+02  0.7546771E-02  0.1362779E+00
          2   -1    0    0  501    0  0.00000000000E+00  0.00000000000E+00  0.14303083383E+04  0.14303083383E+04  0.00000000000E+00 0. -1.
         -2   -1    0    0    0  501 -0.00000000000E+00 -0.00000000000E+00 -0.62200095372E+01  0.62200095372E+01  0.00000000000E+00 0. -1.
          2    1    1    2  502    0  0.23583518989E+01  0.37585029785E+02  0.13705752928E+04  0.13710925678E+04  0.00000000000E+00 0. -1.
         -2    1    1    2    0  502 -0.23583518989E+01 -0.37585029785E+02  0.53513035907E+02  0.65435779965E+02  0.00000000000E+00 0. -1.
</event>
<event>
 4    1  0.5565417E+003  0.2094667E+02  0.7546771E-02  0.1520028E+00
          2   -1    0    0  501    0  0.00000000000E+00  0.00000000000E+00  0.14651900791E+04  0.14651900791E+04  0.00000000000E+00 0. -1.
         -2   -1    0    0    0  501 -0.00000000000E+00 -0.00000000000E+00 -0.15227029938E+02  0.15227029938E+02  0.00000000000E+00 0.  1.
          2    1    1    2  502    0  0.19622832867E+02  0.73285206894E+01  0.14578753901E+04  0.14580258625E+04  0.00000000000E+00 0. -1.
         -2    1    1    2    0  502 -0.19622832867E+02 -0.73285206894E+01 -0.79123408603E+01  0.22391246573E+02  0.00000000000E+00 0.  1.
</event>
<event>
 4    1  0.8224584E+003  0.2741405E+02  0.7546771E-02  0.1443493E+00
          2   -1    0    0  501    0  0.00000000000E+00  0.00000000000E+00  0.10507726783E+04  0.10507726783E+04  0.00000000000E+00 0. -1.
         -2   -1    0    0    0  501 -0.00000000000E+00 -0.00000000000E+00 -0.12020011095E+03  0.12020011095E+03  0.00000000000E+00 0.  1.
          2    1    1    2  502    0  0.27410840283E+02 -0.41927724728E+00  0.10490281944E+04  0.10493863362E+04  0.00000000000E+00 0. -1.
         -2    1    1    2    0  502 -0.27410840283E+02  0.41927724728E+00 -0.11845562711E+03  0.12158645299E+03  0.00000000000E+00 0.  1.
</event>
<event>
 4    1  0.5565417E+003  0.3210312E+02  0.7546771E-02  0.1402159E+00
          2   -1    0    0  501    0  0.00000000000E+00  0.00000000000E+00  0.11776586204E+02  0.11776586204E+02  0.00000000000E+00 0.  1.
         -2   -1    0    0    0  501 -0.00000000000E+00 -0.00000000000E+00 -0.90578424565E+03  0.90578424565E+03  0.00000000000E+00 0. -1.
          2    1    1    2  502    0 -0.17081975531E+02 -0.27181183275E+02 -0.10949107234E+02  0.33918926303E+02  0.00000000000E+00 0.  1.
         -2    1    1    2    0  502  0.17081975531E+02  0.27181183275E+02 -0.88305855221E+03  0.88364190555E+03  0.00000000000E+00 0. -1.
</event>
<event>
 4    1  0.5565417E+003  0.2471137E+02  0.7546771E-02  0.1472058E+00
          2   -1    0    0  501    0  0.00000000000E+00  0.00000000000E+00  0.90090652744E+03  0.90090652744E+03  0.00000000000E+00 0.  1.
         -2   -1    0    0    0  501 -0.00000000000E+00 -0.00000000000E+00 -0.14021880584E+01  0.14021880584E+01  0.00000000000E+00 0. -1.
          2    1    1    2  502    0 -0.20959375988E+02  0.13090320538E+02  0.77401849219E+03  0.77441286029E+03  0.00000000000E+00 0.  1.
         -2    1    1    2    0  502  0.20959375988E+02 -0.13090320538E+02  0.12548584720E+03  0.12789585521E+03  0.00000000000E+00 0. -1.
</event>
<event>
 4    1  0.5565417E+003  0.3652817E+02  0.7546771E-02  0.1370127E+00
          2   -1    0    0  501    0  0.00000000000E+00  0.00000000000E+00  0.16093982144E+04  0.16093982144E+04  0.00000000000E+00 0.  1.
         -2   -1    0    0    0  501 -0.00000000000E+00 -0.00000000000E+00 -0.12786570994E+01  0.12786570994E+01  0.00000000000E+00 0. -1.
          2    1    1    2  502    0 -0.29464695676E+02 -0.21590252266E+02  0.12815970217E+04  0.12821174803E+04  0.00000000000E+00 0.  1.
         -2    1    1    2    0  502  0.29464695676E+02  0.21590252266E+02  0.32652253559E+03  0.32855939118E+03  0.00000000000E+00 0. -1.
</event>
<event>
 4    1  0.5565417E+003  0.2816367E+02  0.7546771E-02  0.1436256E+00
          2   -1    0    0  501    0  0.00000000000E+00  0.00000000000E+00  0.18104398566E+03  0.18104398566E+03  0.00000000000E+00 0. -1.
         -2   -1    0    0    0  501 -0.00000000000E+00 -0.00000000000E+00 -0.80856657224E+02  0.80856657224E+02  0.00000000000E+00 0.  1.
          2    1    1    2  502    0 -0.26978842944E+02 -0.80829644819E+01  0.17744681126E+03  0.17966792454E+03  0.00000000000E+00 0. -1.
         -2    1    1    2    0  502  0.26978842944E+02  0.80829644819E+01 -0.77259482820E+02  0.82232718349E+02  0.00000000000E+00 0.  1.
</event>
<event>
 4    1  0.5565417E+003  0.2104665E+02  0.7546771E-02  0.1518600E+00
          2   -1    0    0  501    0  0.00000000000E+00  0.00000000000E+00  0.14316134994E+04  0.14316134994E+04  0.00000000000E+00 0. -1.
         -2   -1    0    0    0  501 -0.00000000000E+00 -0.00000000000E+00 -0.60397176341E+00  0.60397176341E+00  0.00000000000E+00 0.  1.
          2    1    1    2  502    0  0.20930283230E+02 -0.22101338463E+01  0.12156035423E+04  0.12157857268E+04  0.00000000000E+00 0. -1.
         -2    1    1    2    0  502 -0.20930283230E+02  0.22101338463E+01  0.21540598535E+03  0.21643174438E+03  0.00000000000E+00 0.  1.
</event>
<event>
 4    1  0.5565417E+003  0.2519685E+02  0.7546771E-02  0.1466613E+00
          2   -1    0    0  501    0  0.00000000000E+00  0.00000000000E+00  0.10834063797E+03  0.10834063797E+03  0.00000000000E+00 0.  1.
         -2   -1    0    0    0  501 -0.00000000000E+00 -0.00000000000E+00 -0.36196114707E+02  0.36196114707E+02  0.00000000000E+00 0.  1.
          2    1    1    2  502    0  0.23305055946E+02 -0.95789266580E+01  0.10223248249E+03  0.10529179429E+03  0.00000000000E+00 0.  1.
         -2    1    1    2    0  502 -0.23305055946E+02  0.95789266580E+01 -0.30087959226E+02  0.39244958389E+02  0.00000000000E+00 0.  1.
</event>
<event>
 4    1  0.5565417E+003  0.2517706E+02  0.7546771E-02  0.1466832E+00
          2   -1    0    0  501    0  0.00000000000E+00  0.00000000000E+00  0.69539553731E+02  0.69539553731E+02  0.00000000000E+00 0. -1.
         -2   -1    0    0    0  501 -0.00000000000E+00 -0.00000000000E+00 -0.17718548533E+03  0.17718548533E+03  0.00000000000E+00 0. -1.
          2    1    1    2  502    0  0.23715949273E+02  0.84521171396E+01  0.66324413235E+02  0.70942316885E+02  0.00000000000E+00 0. -1.
         -2    1    1    2    0  502 -0.23715949273E+02 -0.84521171396E+01 -0.17397034484E+03  0.17578272218E+03  0.00000000000E+00 0. -1.
</event>
<event>
 4    1  0.5565417E+003  0.2546088E+02  0.7546771E-02  0.1463713E+00
          2   -1    0    0  501    0  0.00000000000E+00  0.00000000000E+00  0.15820601947E+03  0.15820601947E+03  0.00000000000E+00 0. -1.
         -2   -1    0    0    0  501 -0.00000000000E+00 -0.00000000000E+00 -0.41665692891E+01  0.41665692891E+01  0.00000000000E+00 0. -1.
          2    1    1    2  502    0  0.22195761467E+02  0.12474131985E+02  0.66570018565E+02  0.71272878205E+02  0.00000000000E+00 0. -1.
         -2    1    1    2    0  502 -0.22195761467E+02 -0.12474131985E+02  0.87469431621E+02  0.91099710559E+02  0.00000000000E+00 0. -1.
</event>
<event>
 4    1  0.5565417E+003  0.3284828E+02  0.7546771E-02  0.1396356E+00
          2   -1    0    0  501    0  0.00000000000E+00  0.00000000000E+00  0.39806277553E+03  0.39806277553E+03  0.00000000000E+00 0. -1.
         -2   -1    0    0    0  501 -0.00000000000E+00 -0.00000000000E+00 -0.69821918490E+01  0.69821918490E+01  0.00000000000E+00 0. -1.
          2    1    1    2  502    0  0.29651453767E+02  0.14135100204E+02  0.35394554251E+03  0.35546653406E+03  0.00000000000E+00 0. -1.
         -2    1    1    2    0  502 -0.29651453767E+02 -0.14135100204E+02  0.37135041167E+02  0.49578433323E+02  0.00000000000E+00 0. -1.
</event>
<event>
 4    1  0.5565417E+003  0.3727336E+02  0.7546771E-02  0.1365250E+00
          2   -1    0    0  501    0  0.00000000000E+00  0.00000000000E+00  0.26572652358E+02  0.26572652358E+02  0.00000000000E+00 0.  1.
         -2   -1    0    0    0  501 -0.00000000000E+00 -0.00000000000E+00 -0.90874662892E+02  0.90874662892E+02  0.00000000000E+00 0. -1.
          2    1    1    2  502    0  0.78615444614E+01  0.36434865742E+02  0.61171305883E+01  0.37771981806E+02  0.00000000000E+00 0.  1.
         -2    1    1    2    0  502 -0.78615444614E+01 -0.36434865742E+02 -0.70419141122E+02  0.79675333444E+02  0.00000000000E+00 0. -1.
</event>
<event>
 4    1  0.5565417E+003  0.2212380E+02  0.7546771E-02  0.1503804E+00
          2   -1    0    0  501    0  0.00000000000E+00  0.00000000000E+00  0.43519082098E+03  0.43519082098E+03  0.00000000000E+00 0.  1.
         -2   -1    0    0    0  501 -0.00000000000E+00 -0.00000000000E+00 -0.20310226603E+03  0.20310226603E+03  0.00000000000E+00 0.  1.
          2    1    1    2  502    0  0.83493481585E+01 -0.20487818613E+02  0.43430593479E+03  0.43486906916E+03  0.00000000000E+00 0.  1.
         -2    1    1    2    0  502 -0.83493481585E+01  0.20487818613E+02 -0.20221737984E+03  0.20342401784E+03  0.00000000000E+00 0.  1.
</event>
<event>
 4    1  0.5565417E+003  0.2326106E+02  0.7546771E-02  0.1489246E+00
          2   -1    0    0  501    0  0.00000000000E+00  0.00000000000E+00  0.18453377072E+04  0.18453377072E+04  0.00000000000E+00 0.  1.
         -2   -1    0    0    0  501 -0.00000000000E+00 -0.00000000000E+00 -0.32910572392E+00  0.32910572392E+00  0.00000000000E+00 0. -1.
          2    1    1    2  502    0  0.14437229067E+02  0.18238508432E+02  0.12272654202E+04  0.12274858404E+04  0.00000000000E+00 0.  1.
         -2    1    1    2    0  502 -0.14437229067E+02 -0.18238508432E+02  0.61774318130E+03  0.61818097254E+03  0.00000000000E+00 0. -1.
</event>
<event>
 4    1  0.5565417E+003  0.2663182E+02  0.7546771E-02  0.1451342E+00
          2   -1    0    0  501    0  0.00000000000E+00  0.00000000000E+00  0.14365445545E+04  0.14365445545E+04  0.00000000000E+00 0. -1.
         -2   -1    0    0    0  501 -0.00000000000E+00 -0.00000000000E+00 -0.70859974007E+01  0.70859974007E+01  0.00000000000E+00 0. -1.
          2    1    1    2  502    0 -0.50534413047E+01 -0.26147973390E+02  0.14109440649E+04  0.14111953827E+04  0.00000000000E+00 0. -1.
         -2    1    1    2    0  502  0.50534413047E+01  0.26147973390E+02  0.18514492182E+02  0.32435169217E+02  0.00000000000E+00 0. -1.
</event>
<event>
 4    1  0.5565417E+003  0.5008276E+02  0.7546771E-02  0.1297814E+00
          2   -1    0    0  501    0  0.00000000000E+00  0.00000000000E+00  0.29665233300E+03  0.29665233300E+03  0.00000000000E+00 0.  1.
         -2   -1    0    0    0  501 -0.00000000000E+00 -0.00000000000E+00 -0.36786150080E+03  0.36786150080E+03  0.00000000000E+00 0.  1.
          2    1    1    2  502    0  0.25388128729E+02 -0.43170888129E+02  0.29281167393E+03  0.29706389725E+03  0.00000000000E+00 0.  1.
         -2    1    1    2    0  502 -0.25388128729E+02  0.43170888129E+02 -0.36402084172E+03  0.36744993655E+03  0.00000000000E+00 0.  1.
</event>
<event>
 4    1  0.5565417E+003  0.2102067E+02  0.7546771E-02  0.1518970E+00
          2   -1    0    0  501    0  0.00000000000E+00  0.00000000000E+00  0.15487151597E+03  0.15487151597E+03  0.00000000000E+00 0. -1.
         -2   -1    0    0    0  501 -0.00000000000E+00 -0.00000000000E+00 -0.91125585625E+02  0.91125585625E+02  0.00000000000E+00 0. -1.
          2    1    1    2  502    0  0.71697675405E+01 -0.19760135001E+02  0.15293066938E+03  0.15436857886E+03  0.00000000000E+00 0. -1.
         -2    1    1    2    0  502 -0.71697675405E+01  0.19760135001E+02 -0.89184739035E+02  0.91628522735E+02  0.00000000000E+00 0. -1.
</event>
<event>
 4    1  0.5565417E+003  0.5177868E+02  0.7546771E-02  0.1290640E+00
          2   -1    0    0  501    0  0.00000000000E+00  0.00000000000E+00  0.12509196826E+03  0.12509196826E+03  0.00000000000E+00 0. -1.
         -2   -1    0    0    0  501 -0.00000000000E+00 -0.00000000000E+00 -0.46945760920E+03  0.46945760920E+03  0.00000000000E+00 0.  1.
          2    1    1    2  502    0  0.31779742800E+02  0.40878841773E+02  0.11822684874E+03  0.12906827465E+03  0.00000000000E+00 0. -1.
         -2    1    1    2    0  502 -0.31779742800E+02 -0.40878841773E+02 -0.46259248968E+03  0.46548130281E+03  0.00000000000E+00 0.  1.
</event>
<event>
 4    1  0.5565417E+003  0.3182195E+02  0.7546771E-02  0.1404398E+00
          2   -1    0    0  501    0  0.00000000000E+00  0.00000000000E+00  0.80483271649E+03  0.80483271649E+03  0.00000000000E+00 0. -1.
         -2   -1    0    0    0  501 -0.00000000000E+00 -0.00000000000E+00 -0.32548318759E+01  0.32548318759E+01  0.00000000000E+00 0.  1.
          2    1    1    2  502    0 -0.75191851382E+01 -0.30920840547E+02  0.71724519376E+03  0.71795076746E+03  0.00000000000E+00 0. -1.
         -2    1    1    2    0  502  0.75191851382E+01  0.30920840547E+02  0.84332690852E+02  0.90136780903E+02  0.00000000000E+00 0.  1.
</event>
<event>
 4    1  0.5565417E+003  0.2571051E+02  0.7546771E-02  0.1461010E+00
          2   -1    0    0  501    0  0.00000000000E+00  0.00000000000E+00  0.77841256851E+02  0.77841256851E+02  0.00000000000E+00 0.  1.
         -2   -1    0    0    0  501 -0.00000000000E+00 -0.00000000000E+00 -0.42325179411E+02  0.42325179411E+02  0.00000000000E+00 0.  1.
          2    1    1    2  502    0  0.23044503245E+01 -0.25607029525E+02  0.71476675363E+02  0.75960157802E+02  0.00000000000E+00 0.  1.
         -2    1    1    2    0  502 -0.23044503245E+01  0.25607029525E+02 -0.35960597923E+02  0.44206278461E+02  0.00000000000E+00 0.  1.
</event>
<event>
 4    1  0.5565417E+003  0.2351190E+02  0.7546771E-02  0.1486168E+00
          2   -1    0    0  501    0  0.00000000000E+00  0.00000000000E+00  0.20101181009E+02  0.20101181009E+02  0.00000000000E+00 0.  1.
         -2   -1    0    0    0  501 -0.00000000000E+00 -0.00000000000E+00 -0.41779701233E+03  0.41779701233E+03  0.00000000000E+00 0.  1.
          2    1    1    2  502    0  0.22572036485E+02 -0.65812294910E+01  0.12772401352E+02  0.26757123332E+02  0.00000000000E+00 0.  1.
         -2    1    1    2    0  502 -0.22572036485E+02  0.65812294910E+01 -0.41046823268E+03  0.41114107001E+03  0.00000000000E+00 0.  1.
</event>
<event>
 4    1  0.5565417E+003  0.2673493E+02  0.7546771E-02  0.1450289E+00
          2   -1    0    0  501    0  0.00000000000E+00  0.00000000000E+00  0.78847253384E+02  0.78847253384E+02  0.00000000000E+00 0. -1.
         -2   -1    0    0    0  501 -0.00000000000E+00 -0.00000000000E+00 -0.93744242214E+01  0.93744242214E+01  0.00000000000E+00 0. -1.
          2    1    1    2  502    0 -0.26329340930E+02 -0.46392022485E+01  0.42749437930E+02  0.50420936472E+02  0.00000000000E+00 0. -1.
         -2    1    1    2    0  502  0.26329340930E+02  0.46392022485E+01  0.26723391232E+02  0.37800741134E+02  0.00000000000E+00 0. -1.
</event>
<event>
 4    1  0.5565417E+003  0.2735512E+02  0.7546771E-02  0.1444073E+00
          2   -1    0    0  501    0  0.00000000000E+00  0.00000000000E+00  0.11581083118E+04  0.11581083118E+04  0.00000000000E+00 0. -1.
         -2   -1    0    0    0  501 -0.00000000000E+00 -0.00000000000E+00 -0.67399757647E+01  0.67399757647E+01  0.00000000000E+00 0.  1.
          2    1    1    2  502    0 -0.11243989302E+02 -0.24937428373E+02  0.11294874147E+04  0.11298186237E+04  0.00000000000E+00 0. -1.
         -2    1    1    2    0  502  0.11243989302E+02  0.24937428373E+02  0.21880921392E+02  0.35029663862E+02  0.00000000000E+00 0.  1.
</event>
<event>
 4    1  0.5565417E+003  0.2105222E+02  0.7546771E-02  0.1518520E+00
          2   -1    0    0  501    0  0.00000000000E+00  0.00000000000E+00  0.22230558651E+02  0.22230558651E+02  0.00000000000E+00 0.  1.
         -2   -1    0    0    0  501 -0.00000000000E+00 -0.00000000000E+00 -0.21588688620E+03  0.21588688620E+03  0.00000000000E+00 0.  1.
          2    1    1    2  502    0  0.20925902980E+02 -0.23027641636E+01  0.16600108722E+02  0.26809695036E+02  0.00000000000E+00 0.  1.
         -2    1    1    2    0  502 -0.20925902980E+02  0.23027641636E+01 -0.21025643627E+03  0.21130774982E+03  0.00000000000E+00 0.  1.
</event>
<event>
 4    1  0.5565417E+003  0.2743025E+02  0.7546771E-02  0.1443333E+00
          2   -1    0    0  501    0  0.00000000000E+00  0.00000000000E+00  0.10985872553E+03  0.10985872553E+03  0.00000000000E+00 0.  1.
         -2   -1    0    0    0  501 -0.00000000000E+00 -0.00000000000E+00 -0.49778971745E+02  0.49778971745E+02  0.00000000000E+00 0. -1.
          2    1    1    2  502    0  0.18544684324E+02 -0.20211707065E+02  0.10416458281E+03  0.10771573112E+03  0.00000000000E+00 0.  1.
         -2    1    1    2    0  502 -0.18544684324E+02  0.20211707065E+02 -0.44084829025E+02  0.51921966154E+02  0.00000000000E+00 0. -1.
</event>
<event>
 4    1  0.5565417E+003  0.2773232E+02  0.7546771E-02  0.1440387E+00
          2   -1    0    0  501    0  0.00000000000E+00  0.00000000000E+00  0.35571911040E+02  0.35571911040E+02  0.00000000000E+00 0. -1.
         -2   -1    0    0    0  501 -0.00000000000E+00 -0.00000000000E+00 -0.51625695714E+02  0.51625695714E+02  0.00000000000E+00 0.  1.
          2    1    1    2  502    0 -0.27441822187E+02 -0.40034610072E+01  0.25211505879E+02  0.37479345427E+02  0.00000000000E+00 0. -1.
         -2    1    1    2    0  502  0.27441822187E+02  0.40034610072E+01 -0.41265290553E+02  0.49718261327E+02  0.00000000000E+00 0.  1.
</event>
<event>
 4    1  0.5565417E+003  0.2006114E+02  0.7546771E-02  0.1533103E+00
          2   -1    0    0  501    0  0.00000000000E+00  0.00000000000E+00  0.17121421371E+03  0.17121421371E+03  0.00000000000E+00 0. -1.
         -2   -1    0    0    0  501 -0.00000000000E+00 -0.00000000000E+00 -0.12544412745E+04  0.12544412745E+04  0.00000000000E+00 0. -1.
          2    1    1    2  502    0  0.12081852542E+02 -0.16014936104E+02  0.17054605559E+03  0.17172188683E+03  0.00000000000E+00 0. -1.
         -2    1    1    2    0  502 -0.12081852542E+02  0.16014936104E+02 -0.12537731164E+04  0.12539336014E+04  0.00000000000E+00 0. -1.
</event>
<event>
 4    1  0.5565417E+003  0.2219083E+02  0.7546771E-02  0.1502917E+00
          2   -1    0    0  501    0  0.00000000000E+00  0.00000000000E+00  0.11378078095E+02  0.11378078095E+02  0.00000000000E+00 0. -1.
         -2   -1    0    0    0  501 -0.00000000000E+00 -0.00000000000E+00 -0.46034929546E+02  0.46034929546E+02  0.00000000000E+00 0.  1.
          2    1    1    2  502    0 -0.17051720081E+02  0.14201123654E+02 -0.10304787938E+02  0.24466747337E+02  0.00000000000E+00 0. -1.
         -2    1    1    2    0  502  0.17051720081E+02 -0.14201123654E+02 -0.24352063512E+02  0.32946260305E+02  0.00000000000E+00 0.  1.
</event>
<event>
 4    1  0.5565417E+003  0.2107817E+02  0.7546771E-02  0.1518152E+00
          2   -1    0    0  501    0  0.00000000000E+00  0.00000000000E+00  0.22877374870E+03  0.22877374870E+03  0.00000000000E+00 0.  1.
         -2   -1    0    0    0  501 -0.00000000000E+00 -0.00000000000E+00 -0.47902840119E+02  0.47902840119E+02  0.00000000000E+00 0. -1.
          2    1    1    2  502    0 -0.58733965530E+01 -0.20243333650E+02  0.22594052375E+03  0.22692159354E+03  0.00000000000E+00 0.  1.
         -2    1    1    2    0  502  0.58733965530E+01  0.20243333650E+02 -0.45069615163E+02  0.49754995280E+02  0.00000000000E+00 0. -1.
</event>
<event>
 4    1  0.5565417E+003  0.2192829E+02  0.7546771E-02  0.1506413E+00
          2   -1    0    0  501    0  0.00000000000E+00  0.00000000000E+00  0.36152002217E+03  0.36152002217E+03  0.00000000000E+00 0.  1.
         -2   -1    0    0    0  501 -0.00000000000E+00 -0.00000000000E+00 -0.37091219069E+01  0.37091219069E+01  0.00000000000E+00 0. -1.
          2    1    1    2  502    0 -0.19713481344E+02  0.96035610329E+01  0.32515721961E+03  0.32589579192E+03  0.00000000000E+00 0.  1.
         -2    1    1    2    0  502  0.19713481344E+02 -0.96035610329E+01  0.32653680657E+02  0.39333352154E+02  0.00000000000E+00 0. -1.
</event>
<event>
 4    1  0.5565417E+003  0.2003604E+02  0.7546771E-02  0.1533485E+00
          2   -1    0    0  501    0  0.00000000000E+00  0.00000000000E+00  0.10352377039E+03  0.10352377039E+03  0.00000000000E+00 0.  1.
         -2   -1    0    0    0  501 -0.00000000000E+00 -0.00000000000E+00 -0.10337964934E+02  0.10337964934E+02  0.00000000000E+00 0. -1.
          2    1    1    2  502    0  0.66590205630E+01 -0.18897100951E+02  0.91597052854E+02  0.93762802170E+02  0.00000000000E+00 0.  1.
         -2    1    1    2    0  502 -0.66590205630E+01  0.18897100951E+02  0.15887526045E+01  0.20098933157E+02  0.00000000000E+00 0. -1.
</event>
<event>
 4    1  0.5565417E+003  0.2558108E+02  0.7546771E-02  0.1462407E+00
          2   -1    0    0  501    0  0.00000000000E+00  0.00000000000E+00  0.99818134129E+02  0.99818134129E+02  0.00000000000E+00 0.  1.
         -2   -1    0    0    0  501 -0.00000000000E+00 -0.00000000000E+00 -0.14875153724E+03  0.14875153724E+03  0.00000000000E+00 0.  1.
          2    1    1    2  502    0  0.17424786158E+02 -0.18728808309E+02  0.97048508813E+02  0.10036336232E+03  0.00000000000E+00 0.  1.
         -2    1    1    2    0  502 -0.17424786158E+02  0.18728808309E+02 -0.14598191192E+03  0.14820630905E+03  0.00000000000E+00 0.  1.
</event>
<event>
 4    1  0.5565417E+003  0.2082665E+02  0.7546771E-02  0.1521754E+00
          2   -1    0    0  501    0  0.00000000000E+00  0.00000000000E+00  0.42729742072E+03  0.42729742072E+03  0.00000000000E+00 0. -1.
         -2   -1    0    0    0  501 -0.00000000000E+00 -0.00000000000E+00 -0.22325813900E+01  0.22325813900E+01  0.00000000000E+00 0. -1.
          2    1    1    2  502    0  0.19889875665E+02 -0.61759418351E+01  0.37112800993E+03  0.37171191690E+03  0.00000000000E+00 0. -1.
         -2    1    1    2    0  502 -0.19889875665E+02  0.61759418351E+01  0.53936829401E+02  0.57818085210E+02  0.00000000000E+00 0. -1.
</event>
<event>
 4    1  0.5565417E+003  0.2005820E+02  0.7546771E-02  0.1533148E+00
          2   -1    0    0  501    0  0.00000000000E+00  0.00000000000E+00  0.58338129933E+03  0.58338129933E+03  0.00000000000E+00 0. -1.
         -2   -1    0    0    0  501 -0.00000000000E+00 -0.00000000000E+00 -0.17153673224E+01  0.17153673224E+01  0.00000000000E+00 0.  1.
          2    1    1    2  502    0 -0.15076039563E+02  0.13230432353E+02  0.51705350742E+03  0.51744242274E+03  0.00000000000E+00 0. -1.
         -2    1    1    2    0  502  0.15076039563E+02 -0.13230432353E+02  0.64612424590E+02  0.67654243921E+02  0.00000000000E+00 0.  1.
</event>
<event>
 4    1  0.5565417E+003  0.2325276E+02  0.7546771E-02  0.1489348E+00
          2   -1    0    0  501    0  0.00000000000E+00  0.00000000000E+00  0.12189129333E+02  0.12189129333E+02  0.00000000000E+00 0.  1.
         -2   -1    0    0    0  501 -0.00000000000E+00 -0.00000000000E+00 -0.44499061085E+02  0.44499061085E+02  0.00000000000E+00 0. -1.
          2    1    1    2  502    0 -0.16348982165E+02  0.16534857484E+02 -0.14561596403E+02  0.27435940291E+02  0.00000000000E+00 0.  1.
         -2    1    1    2    0  502  0.16348982165E+02 -0.16534857484E+02 -0.17748335349E+02  0.29252250127E+02  0.00000000000E+00 0. -1.
</event>
<event>
 4    1  0.5565417E+003  0.2093041E+02  0.7546771E-02  0.1520261E+00
          2   -1    0    0  501    0  0.00000000000E+00  0.00000000000E+00  0.12461447537E+04  0.12461447537E+04  0.00000000000E+00 0. -1.
         -2   -1    0    0    0  501 -0.00000000000E+00 -0.00000000000E+00 -0.33031174846E+02  0.33031174846E+02  0.00000000000E+00 0.  1.
          2    1    1    2  502    0  0.17749850070E+02  0.11091660712E+02  0.12427320901E+04  0.12429083353E+04  0.00000000000E+00 0. -1.
         -2    1    1    2    0  502 -0.17749850070E+02 -0.11091660712E+02 -0.29618511237E+02  0.36267593286E+02  0.00000000000E+00 0.  1.
</event>
<event>
 4    1  0.5565417E+003  0.2357589E+02  0.7546771E-02  0.1485391E+00
          2   -1    0    0  501    0  0.00000000000E+00  0.00000000000E+00  0.50087902063E+03  0.50087902063E+03  0.00000000000E+00 0. -1.
         -2   -1    0    0    0  501 -0.00000000000E+00 -0.00000000000E+00 -0.24063041012E+01  0.24063041012E+01  0.00000000000E+00 0. -1.
          2    1    1    2  502    0  0.10542543297E+02 -0.21087378481E+02  0.43395622797E+03  0.43459616950E+03  0.00000000000E+00 0. -1.
         -2    1    1    2    0  502 -0.10542543297E+02  0.21087378481E+02  0.64516488557E+02  0.68689155229E+02  0.00000000000E+00 0. -1.
</event>
<event>
 4    1  0.6206158E+003  0.2469415E+02  0.7546771E-02  0.1472254E+00
          2   -1    0    0  501    0  0.00000000000E+00  0.00000000000E+00  0.11476652719E+04  0.11476652719E+04  0.00000000000E+00 0.  1.
         -2   -1    0    0    0  501 -0.00000000000E+00 -0.00000000000E+00 -0.74488831565E+02  0.74488831565E+02  0.00000000000E+00 0. -1.
          2    1    1    2  502    0 -0.16058764776E+02 -0.18759459019E+02  0.11454819165E+04  0.11457480623E+04  0.00000000000E+00 0.  1.
         -2    1    1    2    0  502  0.16058764776E+02  0.18759459019E+02 -0.72305476215E+02  0.76406041119E+02  0.00000000000E+00 0. -1.
</event>
<event>
 4    1  0.5565417E+003  0.2590473E+02  0.7546771E-02  0.1458932E+00
          2   -1    0    0  501    0  0.00000000000E+00  0.00000000000E+00  0.89119792476E+02  0.89119792476E+02  0.00000000000E+00 0.  1.
         -2   -1    0    0    0  501 -0.00000000000E+00 -0.00000000000E+00 -0.71406439134E+02  0.71406439134E+02  0.00000000000E+00 0. -1.
          2    1    1    2  502    0 -0.19272541361E+02  0.17309653653E+02  0.84770056422E+02  0.88639818512E+02  0.00000000000E+00 0.  1.
         -2    1    1    2    0  502  0.19272541361E+02 -0.17309653653E+02 -0.67056703080E+02  0.71886413098E+02  0.00000000000E+00 0. -1.
</event>
<event>
 4    1  0.5565417E+003  0.2244740E+02  0.7546771E-02  0.1499556E+00
          2   -1    0    0  501    0  0.00000000000E+00  0.00000000000E+00  0.27470136266E+03  0.27470136266E+03  0.00000000000E+00 0. -1.
         -2   -1    0    0    0  501 -0.00000000000E+00 -0.00000000000E+00 -0.11828590489E+03  0.11828590489E+03  0.00000000000E+00 0. -1.
          2    1    1    2  502    0  0.12055255766E+01 -0.22415003178E+02  0.27317185997E+03  0.27409259519E+03  0.00000000000E+00 0. -1.
         -2    1    1    2    0  502 -0.12055255766E+01  0.22415003178E+02 -0.11675640220E+03  0.11889467235E+03  0.00000000000E+00 0. -1.
</event>
<event>
 4    1  0.5565417E+003  0.2245710E+02  0.7546771E-02  0.1499430E+00
          2   -1    0    0  501    0  0.00000000000E+00  0.00000000000E+00  0.41109079734E+03  0.41109079734E+03  0.00000000000E+00 0. -1.
         -2   -1    0    0    0  501 -0.00000000000E+00 -0.00000000000E+00 -0.33590940701E+01  0.33590940701E+01  0.00000000000E+00 0. -1.
          2    1    1    2  502    0  0.60093936083E+01 -0.21638123466E+02  0.36896914543E+03  0.36965193288E+03  0.00000000000E+00 0. -1.
         -2    1    1    2    0  502 -0.60093936083E+01  0.21638123466E+02  0.38762557840E+02  0.44797958536E+02  0.00000000000E+00 0. -1.
</event>
<event>
 4    1  0.5565417E+003  0.2125429E+02  0.7546771E-02  0.1515665E+00
          2   -1    0    0  501    0  0.00000000000E+00  0.00000000000E+00  0.14958364965E+04  0.14958364965E+04  0.00000000000E+00 0. -1.
         -2   -1    0    0    0  501 -0.00000000000E+00 -0.00000000000E+00 -0.96555452472E+00  0.96555452472E+00  0.00000000000E+00 0. -1.
          2    1    1    2  502    0 -0.18197475917E+02  0.10981661826E+02  0.13678525629E+04  0.13680176822E+04  0.00000000000E+00 0. -1.
         -2    1    1    2    0  502  0.18197475917E+02 -0.10981661826E+02  0.12701837905E+03  0.12878436878E+03  0.00000000000E+00 0. -1.
</event>
<event>
 4    1  0.5565417E+003  0.3048373E+02  0.7546771E-02  0.1415439E+00
          2   -1    0    0  501    0  0.00000000000E+00  0.00000000000E+00  0.12607721782E+03  0.12607721782E+03  0.00000000000E+00 0. -1.
         -2   -1    0    0    0  501 -0.00000000000E+00 -0.00000000000E+00 -0.17129799303E+02  0.17129799303E+02  0.00000000000E+00 0. -1.
          2    1    1    2  502    0 -0.29119827829E+02  0.90162933601E+01  0.10852007099E+03  0.11272028977E+03  0.00000000000E+00 0. -1.
         -2    1    1    2    0  502  0.29119827829E+02 -0.90162933601E+01  0.42734752934E+00  0.30486727352E+02  0.00000000000E+00 0. -1.
</event>
<event>
 4    1  0.5565417E+003  0.2734651E+02  0.7546771E-02  0.1444158E+00
          2   -1    0    0  501    0  0.00000000000E+00  0.00000000000E+00  0.10569370858E+04  0.10569370858E+04  0.00000000000E+00 0.  1.
         -2   -1    0    0    0  501 -0.00000000000E+00 -0.00000000000E+00 -0.24073637811E+02  0.24073637811E+02  0.00000000000E+00 0.  1.
          2    1    1    2  502    0 -0.16030465023E+02  0.22155269728E+02  0.10489348765E+04  0.10492912880E+04  0.00000000000E+00 0.  1.
         -2    1    1    2    0  502  0.16030465023E+02 -0.22155269728E+02 -0.16071428512E+02  0.31719435682E+02  0.00000000000E+00 0.  1.
</event>
<event>
 4    1  0.5565417E+003  0.3672768E+02  0.7546771E-02  0.1368808E+00
          2   -1    0    0  501    0  0.00000000000E+00  0.00000000000E+00  0.63652560836E+03  0.63652560836E+03  0.00000000000E+00 0. -1.
         -2   -1    0    0    0  501 -0.00000000000E+00 -0.00000000000E+00 -0.19882739473E+02  0.19882739473E+02  0.00000000000E+00 0.  1.
          2    1    1    2  502    0  0.36411645105E+02  0.48077422631E+01  0.61854214987E+03  0.61963159494E+03  0.00000000000E+00 0. -1.
         -2    1    1    2    0  502 -0.36411645105E+02 -0.48077422631E+01 -0.18992809833E+01  0.36776752890E+02  0.00000000000E+00 0.  1.
</event>
<event>
 4    1  0.5565417E+003  0.2605779E+02  0.7546771E-02  0.1457309E+00
          2   -1    0    0  501    0  0.00000000000E+00  0.00000000000E+00  0.49917205732E+03  0.49917205732E+03  0.00000000000E+00 0. -1.
         -2   -1    0    0    0  501 -0.00000000000E+00 -0.00000000000E+00 -0.47364792661E+01  0.47364792661E+01  0.00000000000E+00 0. -1.
          2    1    1    2  502    0 -0.25632148837E+02 -0.46905737626E+01  0.45993792855E+03  0.46067548954E+03  0.00000000000E+00 0. -1.
         -2    1    1    2    0  502  0.25632148837E+02  0.46905737626E+01  0.34497649497E+02  0.43233047048E+02  0.00000000000E+00 0. -1.
</event>
<event>
 4    1  0.5565417E+003  0.2221762E+02  0.7546771E-02  0.1502563E+00
          2   -1    0    0  501    0  0.00000000000E+00  0.00000000000E+00  0.28796174813E+02  0.28796174813E+02  0.00000000000E+00 0.  1.
         -2   -1    0    0    0  501 -0.00000000000E+00 -0.00000000000E+00 -0.18047560166E+03  0.18047560166E+03  0.00000000000E+00 0. -1.
          2    1    1    2  502    0 -0.94902053437E+01  0.20088770886E+02  0.23702947586E+02  0.32487727490E+02  0.00000000000E+00 0.  1.
         -2    1    1    2    0  502  0.94902053437E+01 -0.20088770886E+02 -0.17538237443E+03  0.17678404898E+03  0.00000000000E+00 0. -1.
</event>
<event>
 4    1  0.5565417E+003  0.2022816E+02  0.7546771E-02  0.1530576E+00
          2   -1    0    0  501    0  0.00000000000E+00  0.00000000000E+00  0.11676622303E+04  0.11676622303E+04  0.00000000000E+00 0. -1.
         -2   -1    0    0    0  501 -0.00000000000E+00 -0.00000000000E+00 -0.42606368331E+01  0.42606368331E+01  0.00000000000E+00 0.  1.
          2    1    1    2  502    0  0.19297311889E+02 -0.60656533375E+01  0.11430484351E+04  0.11432274066E+04  0.00000000000E+00 0. -1.
         -2    1    1    2    0  502 -0.19297311889E+02  0.60656533375E+01  0.20353158449E+02  0.28695460536E+02  0.00000000000E+00 0.  1.
</event>
<event>
 4    1  0.5565417E+003  0.2353250E+02  0.7546771E-02  0.1485918E+00
          2   -1    0    0  501    0  0.00000000000E+00  0.00000000000E+00  0.13077152841E+03  0.13077152841E+03  0.00000000000E+00 0. -1.
         -2   -1    0    0    0  501 -0.00000000000E+00 -0.00000000000E+00 -0.17354285881E+02  0.17354285881E+02  0.00000000000E+00 0. -1.
          2    1    1    2  502    0  0.23359035932E+02 -0.28520371645E+01  0.12110439763E+03  0.12336958216E+03  0.00000000000E+00 0. -1.
         -2    1    1    2    0  502 -0.23359035932E+02  0.28520371645E+01 -0.76871551070E+01  0.24756232130E+02  0.00000000000E+00 0. -1.
</event>
<event>
 4    1  0.5565417E+003  0.3686856E+02  0.7546771E-02  0.1367882E+00
          2   -1    0    0  501    0  0.00000000000E+00  0.00000000000E+00  0.17220692330E+04  0.17220692330E+04  0.00000000000E+00 0.  1.
         -2   -1    0    0    0  501 -0.00000000000E+00 -0.00000000000E+00 -0.21447228121E+02  0.21447228121E+02  0.00000000000E+00 0.  1.
          2    1    1    2  502    0 -0.18908867600E+02  0.31650358624E+02  0.17058769248E+04  0.17062752923E+04  0.00000000000E+00 0.  1.
         -2    1    1    2    0  502  0.18908867600E+02 -0.31650358624E+02 -0.52549199030E+01  0.37241168861E+02  0.00000000000E+00 0.  1.
</event>
<event>
 4    1  0.5565417E+003  0.2386893E+02  0.7546771E-02  0.1481866E+00
          2   -1    0    0  501    0  0.00000000000E+00  0.00000000000E+00  0.14452445858E+04  0.14452445858E+04  0.00000000000E+00 0. -1.
         -2   -1    0    0    0  501 -0.00000000000E+00 -0.00000000000E+00 -0.40906643590E+02  0.40906643590E+02  0.00000000000E+00 0.  1.
          2    1    1    2  502    0  0.68215120880E+01 -0.22873410712E+02  0.14416554994E+04  0.14418530802E+04  0.00000000000E+00 0. -1.
         -2    1    1    2    0  502 -0.68215120880E+01  0.22873410712E+02 -0.37317557201E+02  0.44298149174E+02  0.00000000000E+00 0.  1.
</event>
<event>
 4    1  0.5565417E+003  0.2019801E+02  0.7546771E-02  0.1531030E+00
          2   -1    0    0  501    0  0.00000000000E+00  0.00000000000E+00  0.21601373240E+03  0.21601373240E+03  0.00000000000E+00 0.  1.
         -2   -1    0    0    0  501 -0.00000000000E+00 -0.00000000000E+00 -0.71648774261E+02  0.71648774261E+02  0.00000000000E+00 0. -1.
          2    1    1    2  502    0 -0.18927706211E+02 -0.70499367879E+01  0.21410545738E+03  0.21505605444E+03  0.00000000000E+00 0.  1.
         -2    1    1    2    0  502  0.18927706211E+02  0.70499367879E+01 -0.69740499236E+02  0.72606452226E+02  0.00000000000E+00 0. -1.
</event>
<event>
 4    1  0.5565417E+003  0.2436516E+02  0.7546771E-02  0.1476032E+00
          2   -1    0    0  501    0  0.00000000000E+00  0.00000000000E+00  0.17123205832E+04  0.17123205832E+04  0.00000000000E+00 0.  1.
         -2   -1    0    0    0  501 -0.00000000000E+00 -0.00000000000E+00 -0.36378629849E+01  0.36378629849E+01  0.00000000000E+00 0.  1.
          2    1    1    2  502    0 -0.16542211213E+02  0.17888997983E+02  0.16704130612E+04  0.16705907506E+04  0.00000000000E+00 0.  1.
         -2    1    1    2    0  502  0.16542211213E+02 -0.17888997983E+02  0.38269659024E+02  0.45367695582E+02  0.00000000000E+00 0.  1.
</event>
<event>
 4    1  0.5565417E+003  0.3394388E+02  0.7546771E-02  0.1388144E+00
          2   -1    0    0  501    0  0.00000000000E+00  0.00000000000E+00  0.56340013020E+03  0.56340013020E+03  0.00000000000E+00 0.  1.
         -2   -1    0    0    0  501 -0.00000000000E+00 -0.00000000000E+00 -0.43289867315E+01  0.43289867315E+01  0.00000000000E+00 0. -1.
          2    1    1    2  502    0  0.82530036120E+01  0.32925288578E+02  0.48572158064E+03  0.48690619281E+03  0.00000000000E+00 0.  1.
         -2    1    1    2    0  502 -0.82530036120E+01 -0.32925288578E+02  0.73349562830E+02  0.80822924123E+02  0.00000000000E+00 0. -1.
</event>
<event>
 4    1  0.5565417E+003  0.4599738E+02  0.7546771E-02  0.1316526E+00
          2   -1    0    0  501    0  0.00000000000E+00  0.00000000000E+00  0.69911434056E+02  0.69911434056E+02  0.00000000000E+00 0.  1.
         -2   -1    0    0    0  501 -0.00000000000E+00 -0.00000000000E+00 -0.28870222311E+03  0.28870222311E+03  0.00000000000E+00 0. -1.
          2    1    1    2  502    0  0.12431169426E+02  0.44285722532E+02  0.60253340011E+02  0.75803853306E+02  0.00000000000E+00 0.  1.
         -2    1    1    2    0  502 -0.12431169426E+02 -0.44285722532E+02 -0.27904412907E+03  0.28280980386E+03  0.00000000000E+00 0. -1.
</event>
<event>
 4    1  0.5565417E+003  0.2018642E+02  0.7546771E-02  0.1531205E+00
          2   -1    0    0  501    0  0.00000000000E+00  0.00000000000E+00  0.88894696444E+03  0.88894696444E+03  0.00000000000E+00 0. -1.
         -2   -1    0    0    0  501 -0.00000000000E+00 -0.00000000000E+00 -0.23904347121E+02  0.23904347121E+02  0.00000000000E+00 0.  1.
          2    1    1    2  502    0 -0.13677925914E+02 -0.14846072561E+02  0.88454949250E+03  0.88477980097E+03  0.00000000000E+00 0. -1.
         -2    1    1    2    0  502  0.13677925914E+02  0.14846072561E+02 -0.19506875177E+02  0.28071510593E+02  0.00000000000E+00 0.  1.
</event>
<event>
 4    1  0.5565417E+003  0.2282007E+02  0.7546771E-02  0.1494770E+00
          2   -1    0    0  501    0  0.00000000000E+00  0.00000000000E+00  0.13371715165E+04  0.13371715165E+04  0.00000000000E+00 0. -1.
         -2   -1    0    0    0  501 -0.00000000000E+00 -0.00000000000E+00 -0.58706409044E+00  0.58706409044E+00  0.00000000000E+00 0.  1.
          2    1    1    2  502    0  0.49257834641E+01 -0.22282091538E+02  0.28021399010E+03  0.28114166392E+03  0.00000000000E+00 0.  1.
         -2    1    1    2    0  502 -0.49257834641E+01  0.22282091538E+02  0.10563704623E+04  0.10566169167E+04  0.00000000000E+00 0. -1.
</event>
<event>
 4    1  0.5565417E+003  0.2962321E+02  0.7546771E-02  0.1422899E+00
          2   -1    0    0  501    0  0.00000000000E+00  0.00000000000E+00  0.59932946867E+02  0.59932946867E+02  0.00000000000E+00 0.  1.
         -2   -1    0    0    0  501 -0.00000000000E+00 -0.00000000000E+00 -0.17697143389E+03  0.17697143389E+03  0.00000000000E+00 0.  1.
          2    1    1    2  502    0 -0.10822414423E+02 -0.27575531632E+02  0.54927028426E+02  0.62406033766E+02  0.00000000000E+00 0.  1.
         -2    1    1    2    0  502  0.10822414423E+02  0.27575531632E+02 -0.17196551545E+03  0.17449834699E+03  0.00000000000E+00 0.  1.
</event>
<event>
 4    1  0.5565417E+003  0.2199394E+02  0.7546771E-02  0.1505533E+00
          2   -1    0    0  501    0  0.00000000000E+00  0.00000000000E+00  0.16051673478E+04  0.16051673478E+04  0.00000000000E+00 0. -1.
         -2   -1    0    0    0  501 -0.00000000000E+00 -0.00000000000E+00 -0.16466700372E+02  0.16466700372E+02  0.00000000000E+00 0.  1.
          2    1    1    2  502    0 -0.19699117590E+02 -0.97815151562E+01  0.15977136338E+04  0.15978650096E+04  0.00000000000E+00 0. -1.
         -2    1    1    2    0  502  0.19699117590E+02  0.97815151562E+01 -0.90129863527E+01  0.23769038592E+02  0.00000000000E+00 0.  1.
</event>
<event>
 4    1  0.5565417E+003  0.2021008E+02  0.7546771E-02  0.1530848E+00
          2   -1    0    0  501    0  0.00000000000E+00  0.00000000000E+00  0.38627925708E+03  0.38627925708E+03  0.00000000000E+00 0. -1.
         -2   -1    0    0    0  501 -0.00000000000E+00 -0.00000000000E+00 -0.31989148556E+02  0.31989148556E+02  0.00000000000E+00 0. -1.
          2    1    1    2  502    0 -0.12333149819E+02 -0.16010639989E+02  0.38279378925E+03  0.38332692609E+03  0.00000000000E+00 0. -1.
         -2    1    1    2    0  502  0.12333149819E+02  0.16010639989E+02 -0.28503680730E+02  0.34941479541E+02  0.00000000000E+00 0. -1.
</event>
<event>
 4    1  0.5565417E+003  0.3696990E+02  0.7546771E-02  0.1367219E+00
          2   -1    0    0  501    0  0.00000000000E+00  0.00000000000E+00  0.34055403602E+03  0.34055403602E+03  0.00000000000E+00 0. -1.
         -2   -1    0    0    0  501 -0.00000000000E+00 -0.00000000000E+00 -0.64483337854E+02  0.64483337854E+02  0.00000000000E+00 0.  1.
          2    1    1    2  502    0  0.36911820072E+02  0.20715005533E+01  0.33415051167E+03  0.33618943771E+03  0.00000000000E+00 0. -1.
         -2    1    1    2    0  502 -0.36911820072E+02 -0.20715005533E+01 -0.58079813514E+02  0.68847936159E+02  0.00000000000E+00 0.  1.
</event>
<event>
 4    1  0.5565417E+003  0.6895226E+02  0.7546771E-02  0.1232116E+00
          2   -1    0    0  501    0  0.00000000000E+00  0.00000000000E+00  0.99491462792E+03  0.99491462792E+03  0.00000000000E+00 0. -1.
         -2   -1    0    0    0  501 -0.00000000000E+00 -0.00000000000E+00 -0.11386223193E+03  0.11386223193E+03  0.00000000000E+00 0.  1.
          2    1    1    2  502    0  0.30840323418E+02  0.61670809132E+02  0.98315629196E+03  0.98557126006E+03  0.00000000000E+00 0. -1.
         -2    1    1    2    0  502 -0.30840323418E+02 -0.61670809132E+02 -0.10210389597E+03  0.12320559979E+03  0.00000000000E+00 0.  1.
</event>
<event>
 4    1  0.5565417E+003  0.3001257E+02  0.7546771E-02  0.1419487E+00
          2   -1    0    0  501    0  0.00000000000E+00  0.00000000000E+00  0.51489981844E+01  0.51489981844E+01  0.00000000000E+00 0. -1.
         -2   -1    0    0    0  501 -0.00000000000E+00 -0.00000000000E+00 -0.79100556211E+03  0.79100556211E+03  0.00000000000E+00 0. -1.
          2    1    1    2  502    0 -0.12932184034E+02  0.27083449886E+02 -0.41617200622E+02  0.51310291650E+02  0.00000000000E+00 0. -1.
         -2    1    1    2    0  502  0.12932184034E+02 -0.27083449886E+02 -0.74423936331E+03  0.74484426865E+03  0.00000000000E+00 0. -1.
</event>
<event>
 4    1  0.5565417E+003  0.2446911E+02  0.7546771E-02  0.1474831E+00
          2   -1    0    0  501    0  0.00000000000E+00  0.00000000000E+00  0.77769345292E+03  0.77769345292E+03  0.00000000000E+00 0.  1.
         -2   -1    0    0    0  501 -0.00000000000E+00 -0.00000000000E+00 -0.67665783439E+01  0.67665783439E+01  0.00000000000E+00 0.  1.
          2    1    1    2  502    0 -0.21548311717E+02 -0.11593433291E+02  0.75470625197E+03  0.75510281697E+03  0.00000000000E+00 0.  1.
         -2    1    1    2    0  502  0.21548311717E+02  0.11593433291E+02  0.16220622605E+02  0.29357214293E+02  0.00000000000E+00 0.  1.
</event>
<event>
 4    1  0.5565417E+003  0.3434433E+02  0.7546771E-02  0.1385232E+00
          2   -1    0    0  501    0  0.00000000000E+00  0.00000000000E+00  0.15014474838E+03  0.15014474838E+03  0.00000000000E+00 0.  1.
         -2   -1    0    0    0  501 -0.00000000000E+00 -0.00000000000E+00 -0.10644833808E+02  0.10644833808E+02  0.00000000000E+00 0. -1.
          2    1    1    2  502    0 -0.12636704130E+02 -0.31935033810E+02  0.11090017170E+03  0.11609642871E+03  0.00000000000E+00 0.  1.
         -2    1    1    2    0  502  0.12636704130E+02  0.31935033810E+02  0.28599742875E+02  0.44693153483E+02  0.00000000000E+00 0. -1.
</event>
<event>
 4    1  0.5565417E+003  0.4058544E+02  0.7546771E-02  0.1345089E+00
          2   -1    0    0  501    0  0.00000000000E+00  0.00000000000E+00  0.38430810922E+03  0.38430810922E+03  0.00000000000E+00 0. -1.
         -2   -1    0    0    0  501 -0.00000000000E+00 -0.00000000000E+00 -0.78519064427E+02  0.78519064427E+02  0.00000000000E+00 0.  1.
          2    1    1    2  502    0  0.58424564053E+01  0.40162710656E+02  0.37790344416E+03  0.38007655904E+03  0.00000000000E+00 0. -1.
         -2    1    1    2    0  502 -0.58424564053E+01 -0.40162710656E+02 -0.72114399359E+02  0.82750614614E+02  0.00000000000E+00 0.  1.
</event>
<event>
 4    1  0.5565417E+003  0.3485401E+02  0.7546771E-02  0.1381592E+00
          2   -1    0    0  501    0  0.00000000000E+00  0.00000000000E+00  0.16630054255E+03  0.16630054255E+03  0.00000000000E+00 0.  1.
         -2   -1    0    0    0  501 -0.00000000000E+00 -0.00000000000E+00 -0.79246601949E+01  0.79246601949E+01  0.00000000000E+00 0.  1.
          2    1    1    2  502    0  0.25237703815E+02 -0.24038725167E+02  0.10355016290E+03  0.10925858427E+03  0.00000000000E+00 0.  1.
         -2    1    1    2    0  502 -0.25237703815E+02  0.24038725167E+02  0.54825719459E+02  0.64966618472E+02  0.00000000000E+00 0.  1.
</event>
<event>
 4    1  0.5565417E+003  0.2932475E+02  0.7546771E-02  0.1425557E+00
          2   -1    0    0  501    0  0.00000000000E+00  0.00000000000E+00  0.34748890342E+02  0.34748890342E+02  0.00000000000E+00 0.  1.
         -2   -1    0    0    0  501 -0.00000000000E+00 -0.00000000000E+00 -0.15314021767E+04  0.15314021767E+04  0.00000000000E+00 0. -1.
          2    1    1    2  502    0  0.33627399168E+00 -0.29322819828E+02  0.28395913070E+02  0.40819954948E+02  0.00000000000E+00 0.  1.
         -2    1    1    2    0  502 -0.33627399168E+00  0.29322819828E+02 -0.15250491995E+04  0.15253311121E+04  0.00000000000E+00 0. -1.
</event>
<event>
 4    1  0.5565417E+003  0.7242081E+02  0.7546771E-02  0.1222628E+00
          2   -1    0    0  501    0  0.00000000000E+00  0.00000000000E+00  0.30400992787E+03  0.30400992787E+03  0.00000000000E+00 0.  1.
         -2   -1    0    0    0  501 -0.00000000000E+00 -0.00000000000E+00 -0.51850329624E+02  0.51850329624E+02  0.00000000000E+00 0. -1.
          2    1    1    2  502    0 -0.56269109411E+01  0.72201876492E+02  0.27142524407E+03  0.28092069381E+03  0.00000000000E+00 0.  1.
         -2    1    1    2    0  502  0.56269109411E+01 -0.72201876492E+02 -0.19265645821E+02  0.74939563681E+02  0.00000000000E+00 0. -1.
</event>
<event>
 4    1  0.5565417E+003  0.2530921E+02  0.7546771E-02  0.1465374E+00
          2   -1    0    0  501    0  0.00000000000E+00  0.00000000000E+00  0.32549988544E+01  0.32549988544E+01  0.00000000000E+00 0. -1.
         -2   -1    0    0    0  501 -0.00000000000E+00 -0.00000000000E+00 -0.36859305002E+03  0.36859305002E+03  0.00000000000E+00 0.  1.
          2    1    1    2  502    0  0.24902044355E+02 -0.45215111840E+01 -0.55735726228E+02  0.61212964759E+02  0.00000000000E+00 0. -1.
         -2    1    1    2    0  502 -0.24902044355E+02  0.45215111840E+01 -0.30960232494E+03  0.31063508412E+03  0.00000000000E+00 0.  1.
</event>
<event>
 4    1  0.5565417E+003  0.2956186E+02  0.7546771E-02  0.1423443E+00
          2   -1    0    0  501    0  0.00000000000E+00  0.00000000000E+00  0.42980652089E+03  0.42980652089E+03  0.00000000000E+00 0.  1.
         -2   -1    0    0    0  501 -0.00000000000E+00 -0.00000000000E+00 -0.20491743483E+01  0.20491743483E+01  0.00000000000E+00 0.  1.
          2    1    1    2  502    0 -0.18045646349E+00  0.29561310927E+02  0.23291416078E+03  0.23478268667E+03  0.00000000000E+00 0.  1.
         -2    1    1    2    0  502  0.18045646349E+00 -0.29561310927E+02  0.19484318576E+03  0.19707300856E+03  0.00000000000E+00 0.  1.
</event>
<event>
 4    1  0.5565417E+003  0.2017060E+02  0.7546771E-02  0.1531444E+00
          2   -1    0    0  501    0  0.00000000000E+00  0.00000000000E+00  0.12949328331E+03  0.12949328331E+03  0.00000000000E+00 0. -1.
         -2   -1    0    0    0  501 -0.00000000000E+00 -0.00000000000E+00 -0.11225967553E+02  0.11225967553E+02  0.00000000000E+00 0.  1.
          2    1    1    2  502    0 -0.15685389127E+02 -0.12681555207E+02  0.11884089035E+03  0.12054049317E+03  0.00000000000E+00 0. -1.
         -2    1    1    2    0  502  0.15685389127E+02  0.12681555207E+02 -0.57357458422E+00  0.20178757701E+02  0.00000000000E+00 0.  1.
</event>
<event>
 4    1  0.5565417E+003  0.3275681E+02  0.7546771E-02  0.1397059E+00
          2   -1    0    0  501    0  0.00000000000E+00  0.00000000000E+00  0.14247046135E+04  0.14247046135E+04  0.00000000000E+00 0.  1.
         -2   -1    0    0    0  501 -0.00000000000E+00 -0.00000000000E+00 -0.75596861782E+00  0.75596861782E+00  0.00000000000E+00 0. -1.
          2    1    1    2  502    0 -0.10528044504E+02  0.31018848437E+02  0.75553574159E+03  0.75624550610E+03  0.00000000000E+00 0.  1.
         -2    1    1    2    0  502  0.10528044504E+02 -0.31018848437E+02  0.66841290326E+03  0.66921507598E+03  0.00000000000E+00 0. -1.
</event>
<event>
 4    1  0.5565417E+003  0.2221722E+02  0.7546771E-02  0.1502569E+00
          2   -1    0    0  501    0  0.00000000000E+00  0.00000000000E+00  0.37876212975E+02  0.37876212975E+02  0.00000000000E+00 0.  1.
         -2   -1    0    0    0  501 -0.00000000000E+00 -0.00000000000E+00 -0.14473129978E+02  0.14473129978E+02  0.00000000000E+00 0. -1.
          2    1    1    2  502    0 -0.21744027859E+02 -0.45609130646E+01  0.19960858839E+02  0.29867048082E+02  0.00000000000E+00 0.  1.
         -2    1    1    2    0  502  0.21744027859E+02  0.45609130646E+01  0.34422241576E+01  0.22482294871E+02  0.00000000000E+00 0. -1.
</event>
<event>
 4    1  0.5565417E+003  0.4117322E+02  0.7546771E-02  0.1341745E+00
          2   -1    0    0  501    0  0.00000000000E+00  0.00000000000E+00  0.12287195705E+04  0.12287195705E+04  0.00000000000E+00 0. -1.
         -2   -1    0    0    0  501 -0.00000000000E+00 -0.00000000000E+00 -0.12167202309E+02  0.12167202309E+02  0.00000000000E+00 0. -1.
          2    1    1    2  502    0  0.15063157871E+02 -0.38318865278E+02  0.11924845086E+04  0.11931950961E+04  0.00000000000E+00 0. -1.
         -2    1    1    2    0  502 -0.15063157871E+02  0.38318865278E+02  0.24067859623E+02  0.47691676717E+02  0.00000000000E+00 0. -1.
</event>
<event>
 4    1  0.5565417E+003  0.4154422E+02  0.7546771E-02  0.1339667E+00
          2   -1    0    0  501    0  0.00000000000E+00  0.00000000000E+00  0.14568469710E+04  0.14568469710E+04  0.00000000000E+00 0.  1.
         -2   -1    0    0    0  501 -0.00000000000E+00 -0.00000000000E+00 -0.16137540421E+03  0.16137540421E+03  0.00000000000E+00 0. -1.
          2    1    1    2  502    0  0.40711412329E+02 -0.82766537155E+01  0.14538715571E+04  0.14544649967E+04  0.00000000000E+00 0.  1.
         -2    1    1    2    0  502 -0.40711412329E+02  0.82766537155E+01 -0.15839999031E+03  0.16375737852E+03  0.00000000000E+00 0. -1.
</event>
<event>
 4    1  0.5565417E+003  0.2355454E+02  0.7546771E-02  0.1485650E+00
          2   -1    0    0  501    0  0.00000000000E+00  0.00000000000E+00  0.33715145547E+03  0.33715145547E+03  0.00000000000E+00 0.  1.
         -2   -1    0    0    0  501 -0.00000000000E+00 -0.00000000000E+00 -0.45861073428E+01  0.45861073428E+01  0.00000000000E+00 0.  1.
          2    1    1    2  502    0 -0.10440194107E+02 -0.21114417573E+02  0.30310336583E+03  0.30401721442E+03  0.00000000000E+00 0.  1.
         -2    1    1    2    0  502  0.10440194107E+02  0.21114417573E+02  0.29461982297E+02  0.37720348399E+02  0.00000000000E+00 0.  1.
</event>
<event>
 4    1  0.5565417E+003  0.2187862E+02  0.7546771E-02  0.1507081E+00
          2   -1    0    0  501    0  0.00000000000E+00  0.00000000000E+00  0.91681591441E+03  0.91681591441E+03  0.00000000000E+00 0.  1.
         -2   -1    0    0    0  501 -0.00000000000E+00 -0.00000000000E+00 -0.54071581810E+00  0.54071581810E+00  0.00000000000E+00 0.  1.
          2    1    1    2  502    0  0.89466551079E+01  0.19965752001E+02  0.54323376609E+03  0.54367416576E+03  0.00000000000E+00 0.  1.
         -2    1    1    2    0  502 -0.89466551079E+01 -0.19965752001E+02  0.37304143250E+03  0.37368246447E+03  0.00000000000E+00 0.  1.
</event>
<event>
 4    1  0.5565417E+003  0.3153074E+02  0.7546771E-02  0.1406745E+00
          2   -1    0    0  501    0  0.00000000000E+00  0.00000000000E+00  0.12077990196E+04  0.12077990196E+04  0.00000000000E+00 0.  1.
         -2   -1    0    0    0  501 -0.00000000000E+00 -0.00000000000E+00 -0.66941762628E+01  0.66941762628E+01  0.00000000000E+00 0. -1.
          2    1    1    2  502    0 -0.28970649566E+02  0.12445444692E+02  0.11692402089E+04  0.11696652742E+04  0.00000000000E+00 0.  1.
         -2    1    1    2    0  502  0.28970649566E+02 -0.12445444692E+02  0.31864634425E+02  0.44827921621E+02  0.00000000000E+00 0. -1.
</event>
<event>
 4    1  0.5565417E+003  0.2692893E+02  0.7546771E-02  0.1448323E+00
          2   -1    0    0  501    0  0.00000000000E+00  0.00000000000E+00  0.11336307625E+03  0.11336307625E+03  0.00000000000E+00 0. -1.
         -2   -1    0    0    0  501 -0.00000000000E+00 -0.00000000000E+00 -0.64110242799E+01  0.64110242799E+01  0.00000000000E+00 0. -1.
          2    1    1    2  502    0 -0.83125751856E+01 -0.25613816209E+02  0.50660015842E+02  0.57372499441E+02  0.00000000000E+00 0. -1.
         -2    1    1    2    0  502  0.83125751856E+01  0.25613816209E+02  0.56292036125E+02  0.62401601086E+02  0.00000000000E+00 0. -1.
</event>
<event>
 4    1  0.5565417E+003  0.2118077E+02  0.7546771E-02  0.1516699E+00
          2   -1    0    0  501    0  0.00000000000E+00  0.00000000000E+00  0.62266678741E+03  0.62266678741E+03  0.00000000000E+00 0.  1.
         -2   -1    0    0    0  501 -0.00000000000E+00 -0.00000000000E+00 -0.22027790029E+01  0.22027790029E+01  0.00000000000E+00 0. -1.
          2    1    1    2  502    0 -0.18907924948E+02  0.95454401242E+01  0.56652715546E+03  0.56692296031E+03  0.00000000000E+00 0.  1.
         -2    1    1    2    0  502  0.18907924948E+02 -0.95454401242E+01  0.53936852945E+02  0.57946606101E+02  0.00000000000E+00 0. -1.
</event>
<event>
 4    1  0.5565417E+003  0.2322276E+02  0.7546771E-02  0.1489720E+00
          2   -1    0    0  501    0  0.00000000000E+00  0.00000000000E+00  0.28880958741E+03  0.28880958741E+03  0.00000000000E+00 0. -1.
         -2   -1    0    0    0  501 -0.00000000000E+00 -0.00000000000E+00 -0.69796765680E+01  0.69796765680E+01  0.00000000000E+00 0. -1.
          2    1    1    2  502    0  0.20830299195E+02  0.10266207820E+02  0.26748934731E+03  0.26849552569E+03  0.00000000000E+00 0. -1.
         -2    1    1    2    0  502 -0.20830299195E+02 -0.10266207820E+02  0.14340563527E+02  0.27293738290E+02  0.00000000000E+00 0. -1.
</event>
<event>
 4    1  0.5565417E+003  0.3281819E+02  0.7546771E-02  0.1396587E+00
          2   -1    0    0  501    0  0.00000000000E+00  0.00000000000E+00  0.33717470841E+02  0.33717470841E+02  0.00000000000E+00 0.  1.
         -2   -1    0    0    0  501 -0.00000000000E+00 -0.00000000000E+00 -0.21483885393E+03  0.21483885393E+03  0.00000000000E+00 0.  1.
          2    1    1    2  502    0  0.24078018232E+00 -0.32817310107E+02  0.24106838518E+02  0.40720676334E+02  0.00000000000E+00 0.  1.
         -2    1    1    2    0  502 -0.24078018232E+00  0.32817310107E+02 -0.20522822161E+03  0.20783564844E+03  0.00000000000E+00 0.  1.
</event>
<event>
 4    1  0.5565417E+003  0.2958538E+02  0.7546771E-02  0.1423234E+00
          2   -1    0    0  501    0  0.00000000000E+00  0.00000000000E+00  0.48201664998E+03  0.48201664998E+03  0.00000000000E+00 0.  1.
         -2   -1    0    0    0  501 -0.00000000000E+00 -0.00000000000E+00 -0.22104005758E+01  0.22104005758E+01  0.00000000000E+00 0. -1.
          2    1    1    2  502    0  0.34452177978E+01  0.29384100416E+02  0.34218682024E+03  0.34346341119E+03  0.00000000000E+00 0.  1.
         -2    1    1    2    0  502 -0.34452177978E+01 -0.29384100416E+02  0.13761942916E+03  0.14076363936E+03  0.00000000000E+00 0. -1.
</event>
<event>
 4    1  0.6740443E+003  0.2145973E+02  0.7546771E-02  0.1512801E+00
          2   -1    0    0  501    0  0.00000000000E+00  0.00000000000E+00  0.11741794188E+04  0.11741794188E+04  0.00000000000E+00 0.  1.
         -2   -1    0    0    0  501 -0.00000000000E+00 -0.00000000000E+00 -0.14929711554E+03  0.14929711554E+03  0.00000000000E+00 0.  1.
          2    1    1    2  502    0 -0.20155348868E+02  0.73676222400E+01  0.11733096490E+04  0.11735058808E+04  0.00000000000E+00 0.  1.
         -2    1    1    2    0  502  0.20155348868E+02 -0.73676222400E+01 -0.14842734574E+03  0.14997065349E+03  0.00000000000E+00 0.  1.
</event>
<event>
 4    1  0.5565417E+003  0.3991223E+02  0.7546771E-02  0.1349001E+00
          2   -1    0    0  501    0  0.00000000000E+00  0.00000000000E+00  0.30271486786E+03  0.30271486786E+03  0.00000000000E+00 0. -1.
         -2   -1    0    0    0  501 -0.00000000000E+00 -0.00000000000E+00 -0.27212747042E+02  0.27212747042E+02  0.00000000000E+00 0. -1.
          2    1    1    2  502    0 -0.22265448959E+02  0.33124553497E+02  0.28590862946E+03  0.28868101888E+03  0.00000000000E+00 0. -1.
         -2    1    1    2    0  502  0.22265448959E+02 -0.33124553497E+02 -0.10406508638E+02  0.41246596026E+02  0.00000000000E+00 0. -1.
</event>
<event>
 4    1  0.5565417E+003  0.5268838E+02  0.7546771E-02  0.1286919E+00
          2   -1    0    0  501    0  0.00000000000E+00  0.00000000000E+00  0.28739772377E+04  0.28739772377E+04  0.00000000000E+00 0. -1.
         -2   -1    0    0    0  501 -0.00000000000E+00 -0.00000000000E+00 -0.11596677701E+01  0.11596677701E+01  0.00000000000E+00 0. -1.
          2    1    1    2  502    0 -0.32143223697E+02 -0.41747797219E+02  0.20239889225E+04  0.20246745970E+04  0.00000000000E+00 0. -1.
         -2    1    1    2    0  502  0.32143223697E+02  0.41747797219E+02  0.84882864748E+03  0.85046230851E+03  0.00000000000E+00 0. -1.
</event>
<event>
 4    1  0.5565417E+003  0.2272944E+02  0.7546771E-02  0.1495924E+00
          2   -1    0    0  501    0  0.00000000000E+00  0.00000000000E+00  0.59820869557E+02  0.59820869557E+02  0.00000000000E+00 0.  1.
         -2   -1    0    0    0  501 -0.00000000000E+00 -0.00000000000E+00 -0.27361219713E+02  0.27361219713E+02  0.00000000000E+00 0.  1.
          2    1    1    2  502    0 -0.22471458074E+02  0.34148017220E+01  0.52291030766E+02  0.57017358737E+02  0.00000000000E+00 0.  1.
         -2    1    1    2    0  502  0.22471458074E+02 -0.34148017220E+01 -0.19831380922E+02  0.30164730532E+02  0.00000000000E+00 0.  1.
</event>
<event>
 4    1  0.5565417E+003  0.2337579E+02  0.7546771E-02  0.1487832E+00
          2   -1    0    0  501    0  0.00000000000E+00  0.00000000000E+00  0.23067370564E+04  0.23067370564E+04  0.00000000000E+00 0.  1.
         -2   -1    0    0    0  501 -0.00000000000E+00 -0.00000000000E+00 -0.24615850014E+00  0.24615850014E+00  0.00000000000E+00 0.  1.
          2    1    1    2  502    0 -0.79787052615E+01  0.21971978994E+02  0.13771523734E+04  0.13773507495E+04  0.00000000000E+00 0.  1.
         -2    1    1    2    0  502  0.79787052615E+01 -0.21971978994E+02  0.92933852449E+03  0.92963246538E+03  0.00000000000E+00 0.  1.
</event>
<event>
 4    1  0.5565417E+003  0.2967605E+02  0.7546771E-02  0.1422433E+00
          2   -1    0    0  501    0  0.00000000000E+00  0.00000000000E+00  0.26819806339E+02  0.26819806339E+02  0.00000000000E+00 0. -1.
         -2   -1    0    0    0  501 -0.00000000000E+00 -0.00000000000E+00 -0.99278223141E+02  0.99278223141E+02  0.00000000000E+00 0.  1.
          2    1    1    2  502    0  0.25532708979E+02  0.15124446637E+02  0.15349659514E+02  0.33410779115E+02  0.00000000000E+00 0. -1.
         -2    1    1    2    0  502 -0.25532708979E+02 -0.15124446637E+02 -0.87808076316E+02  0.92687250365E+02  0.00000000000E+00 0.  1.
</event>
<event>
 4    1  0.5565417E+003  0.4834341E+02  0.7546771E-02  0.1305519E+00
          2   -1    0    0  501    0  0.00000000000E+00  0.00000000000E+00  0.30108211983E+04  0.30108211983E+04  0.00000000000E+00 0. -1.
         -2   -1    0    0    0  501 -0.00000000000E+00 -0.00000000000E+00 -0.13180834913E+01  0.13180834913E+01  0.00000000000E+00 0. -1.
          2    1    1    2  502    0 -0.47916504805E+02  0.64104864320E+01  0.24703911413E+04  0.24708641154E+04  0.00000000000E+00 0. -1.
         -2    1    1    2    0  502  0.47916504805E+02 -0.64104864320E+01  0.53911197351E+03  0.54127516639E+03  0.00000000000E+00 0. -1.
</event>
<event>
 4    1  0.5565417E+003  0.2931055E+02  0.7546771E-02  0.1425684E+00
          2   -1    0    0  501    0  0.00000000000E+00  0.00000000000E+00  0.81809684581E+03  0.81809684581E+03  0.00000000000E+00 0. -1.
         -2   -1    0    0    0  501 -0.00000000000E+00 -0.00000000000E+00 -0.29741797718E+01  0.29741797718E+01  0.00000000000E+00 0.  1.
          2    1    1    2  502    0 -0.28362133761E+02 -0.73957767706E+01  0.73775995768E+03  0.73834196908E+03  0.00000000000E+00 0. -1.
         -2    1    1    2    0  502  0.28362133761E+02  0.73957767706E+01  0.77362708354E+02  0.82729056500E+02  0.00000000000E+00 0.  1.
</event>
<event>
 4    1  0.5565417E+003  0.3923340E+02  0.7546771E-02  0.1353038E+00
          2   -1    0    0  501    0  0.00000000000E+00  0.00000000000E+00  0.24277382363E+03  0.24277382363E+03  0.00000000000E+00 0.  1.
         -2   -1    0    0    0  501 -0.00000000000E+00 -0.00000000000E+00 -0.65700883952E+01  0.65700883952E+01  0.00000000000E+00 0.  1.
          2    1    1    2  502    0  0.36183655652E+02  0.15165796809E+02  0.94786120643E+02  0.10258492577E+03  0.00000000000E+00 0.  1.
         -2    1    1    2    0  502 -0.36183655652E+02 -0.15165796809E+02  0.14141761459E+03  0.14675898626E+03  0.00000000000E+00 0.  1.
</event>
<event>
 4    1  0.5565417E+003  0.2242075E+02  0.7546771E-02  0.1499903E+00
          2   -1    0    0  501    0  0.00000000000E+00  0.00000000000E+00  0.46689788077E+02  0.46689788077E+02  0.00000000000E+00 0. -1.
         -2   -1    0    0    0  501 -0.00000000000E+00 -0.00000000000E+00 -0.13169019860E+03  0.13169019860E+03  0.00000000000E+00 0. -1.
          2    1    1    2  502    0  0.20374494847E+02 -0.93578926702E+01  0.42966101962E+02  0.48464173503E+02  0.00000000000E+00 0. -1.
         -2    1    1    2    0  502 -0.20374494847E+02  0.93578926702E+01 -0.12796651248E+03  0.12991581317E+03  0.00000000000E+00 0. -1.
</event>
<event>
 4    1  0.5565417E+003  0.2067183E+02  0.7546771E-02  0.1524002E+00
          2   -1    0    0  501    0  0.00000000000E+00  0.00000000000E+00  0.81603708143E+03  0.81603708143E+03  0.00000000000E+00 0. -1.
         -2   -1    0    0    0  501 -0.00000000000E+00 -0.00000000000E+00 -0.11222097637E+03  0.11222097637E+03  0.00000000000E+00 0.  1.
          2    1    1    2  502    0 -0.19998141106E+02 -0.52343970769E+01  0.81495292942E+03  0.81521506471E+03  0.00000000000E+00 0. -1.
         -2    1    1    2    0  502  0.19998141106E+02  0.52343970769E+01 -0.11113682435E+03  0.11304299309E+03  0.00000000000E+00 0.  1.
</event>
<event>
 4    1  0.5565417E+003  0.2010990E+02  0.7546771E-02  0.1532362E+00
          2   -1    0    0  501    0  0.00000000000E+00  0.00000000000E+00  0.37951144313E+03  0.37951144313E+03  0.00000000000E+00 0. -1.
         -2   -1    0    0    0  501 -0.00000000000E+00 -0.00000000000E+00 -0.10825880493E+01  0.10825880493E+01  0.00000000000E+00 0. -1.
          2    1    1    2  502    0 -0.18545398427E+02 -0.77766373238E+01  0.21305163497E+03  0.21399861461E+03  0.00000000000E+00 0. -1.
         -2    1    1    2    0  502  0.18545398427E+02  0.77766373238E+01  0.16537722011E+03  0.16659541657E+03  0.00000000000E+00 0. -1.
</event>
<event>
 4    1  0.5565417E+003  0.2311559E+02  0.7546771E-02  0.1491052E+00
          2   -1    0    0  501    0  0.00000000000E+00  0.00000000000E+00  0.15370702173E+02  0.15370702173E+02  0.00000000000E+00 0. -1.
         -2   -1    0    0    0  501 -0.00000000000E+00 -0.00000000000E+00 -0.39760555854E+03  0.39760555854E+03  0.00000000000E+00 0. -1.
          2    1    1    2  502    0 -0.33307046997E+01  0.22874368043E+02  0.61375778210E+01  0.23916525012E+02  0.00000000000E+00 0. -1.
         -2    1    1    2    0  502  0.33307046997E+01 -0.22874368043E+02 -0.38837243419E+03  0.38905973570E+03  0.00000000000E+00 0. -1.
</event>
<event>
 4    1  0.5565417E+003  0.3270378E+02  0.7546771E-02  0.1397467E+00
          2   -1    0    0  501    0  0.00000000000E+00  0.00000000000E+00  0.55603747344E+03  0.55603747344E+03  0.00000000000E+00 0. -1.
         -2   -1    0    0    0  501 -0.00000000000E+00 -0.00000000000E+00 -0.29413314125E+01  0.29413314125E+01  0.00000000000E+00 0. -1.
          2    1    1    2  502    0  0.38966127023E+01  0.32470814520E+02  0.44095933033E+03  0.44217040651E+03  0.00000000000E+00 0. -1.
         -2    1    1    2    0  502 -0.38966127023E+01 -0.32470814520E+02  0.11213681169E+03  0.11680839834E+03  0.00000000000E+00 0. -1.
</event>
<event>
 4    1  0.5565417E+003  0.2158032E+02  0.7546771E-02  0.1511138E+00
          2   -1    0    0  501    0  0.00000000000E+00  0.00000000000E+00  0.14232940907E+03  0.14232940907E+03  0.00000000000E+00 0. -1.
         -2   -1    0    0    0  501 -0.00000000000E+00 -0.00000000000E+00 -0.10793641520E+02  0.10793641520E+02  0.00000000000E+00 0. -1.
          2    1    1    2  502    0  0.21414698740E+02  0.26685316418E+01  0.12967970039E+03  0.13146305594E+03  0.00000000000E+00 0. -1.
         -2    1    1    2    0  502 -0.21414698740E+02 -0.26685316418E+01  0.18560671652E+01  0.21659994658E+02  0.00000000000E+00 0. -1.
</event>
<event>
 4    1  0.5565417E+003  0.2193222E+02  0.7546771E-02  0.1506360E+00
          2   -1    0    0  501    0  0.00000000000E+00  0.00000000000E+00  0.25988482569E+03  0.25988482569E+03  0.00000000000E+00 0. -1.
         -2   -1    0    0    0  501 -0.00000000000E+00 -0.00000000000E+00 -0.76596032418E+01  0.76596032418E+01  0.00000000000E+00 0. -1.
          2    1    1    2  502    0 -0.16140925862E+02 -0.14849006649E+02  0.24260622960E+03  0.24359557699E+03  0.00000000000E+00 0. -1.
         -2    1    1    2    0  502  0.16140925862E+02  0.14849006649E+02  0.96189928486E+01  0.23948851947E+02  0.00000000000E+00 0. -1.
</event>
<event>
 4    1  0.6673336E+003  0.2078144E+02  0.7546771E-02  0.1522408E+00
          2   -1    0    0  501    0  0.00000000000E+00  0.00000000000E+00  0.81495823775E+03  0.81495823775E+03  0.00000000000E+00 0. -1.
         -2   -1    0    0    0  501 -0.00000000000E+00 -0.00000000000E+00 -0.49044997110E+03  0.49044997110E+03  0.00000000000E+00 0.  1.
          2    1    1    2  502    0 -0.10570373760E+02 -0.17892334114E+02  0.81460552181E+03  0.81487055695E+03  0.00000000000E+00 0. -1.
         -2    1    1    2    0  502  0.10570373760E+02  0.17892334114E+02 -0.49009725516E+03  0.49053765190E+03  0.00000000000E+00 0.  1.
</event>
<event>
 4    1  0.5565417E+003  0.2029926E+02  0.7546771E-02  0.1529509E+00
          2   -1    0    0  501    0  0.00000000000E+00  0.00000000000E+00  0.32899747920E+03  0.32899747920E+03  0.00000000000E+00 0. -1.
         -2   -1    0    0    0  501 -0.00000000000E+00 -0.00000000000E+00 -0.10434183685E+02  0.10434183685E+02  0.00000000000E+00 0.  1.
          2    1    1    2  502    0  0.20294321057E+02  0.44797481119E+00  0.31848600201E+03  0.31913225100E+03  0.00000000000E+00 0. -1.
         -2    1    1    2    0  502 -0.20294321057E+02 -0.44797481119E+00  0.77293499610E-01  0.20299411885E+02  0.00000000000E+00 0.  1.
</event>
<event>
 4    1  0.5565417E+003  0.3551171E+02  0.7546771E-02  0.1377001E+00
          2   -1    0    0  501    0  0.00000000000E+00  0.00000000000E+00  0.12843011475E+04  0.12843011475E+04  0.00000000000E+00 0.  1.
         -2   -1    0    0    0  501 -0.00000000000E+00 -0.00000000000E+00 -0.11060453149E+01  0.11060453149E+01  0.00000000000E+00 0.  1.
          2    1    1    2  502    0  0.35485414343E+02  0.13658564971E+01  0.42629185264E+03  0.42776842312E+03  0.00000000000E+00 0.  1.
         -2    1    1    2    0  502 -0.35485414343E+02 -0.13658564971E+01  0.85690324953E+03  0.85763876968E+03  0.00000000000E+00 0.  1.
</event>
<event>
 4    1  0.5565417E+003  0.2154161E+02  0.7546771E-02  0.1511671E+00
          2   -1    0    0  501    0  0.00000000000E+00  0.00000000000E+00  0.29801062322E+03  0.29801062322E+03  0.00000000000E+00 0.  1.
         -2   -1    0    0    0  501 -0.00000000000E+00 -0.00000000000E+00 -0.32282937905E+02  0.32282937905E+02  0.00000000000E+00 0. -1.
          2    1    1    2  502    0  0.21420373393E+02  0.22822513394E+01  0.29397857235E+03  0.29476675876E+03  0.00000000000E+00 0.  1.
         -2    1    1    2    0  502 -0.21420373393E+02 -0.22822513394E+01 -0.28250887041E+02  0.35526802362E+02  0.00000000000E+00 0. -1.
</event>
<event>
 4    1  0.5565417E+003  0.2293611E+02  0.7546771E-02  0.1493302E+00
          2   -1    0    0  501    0  0.00000000000E+00  0.00000000000E+00  0.45993014747E+03  0.45993014747E+03  0.00000000000E+00 0.  1.
         -2   -1    0    0    0  501 -0.00000000000E+00 -0.00000000000E+00 -0.28357570474E+01  0.28357570474E+01  0.00000000000E+00 0. -1.
          2    1    1    2  502    0 -0.31768315740E+01 -0.22715040277E+02  0.40727507074E+03  0.40792039488E+03  0.00000000000E+00 0.  1.
         -2    1    1    2    0  502  0.31768315740E+01  0.22715040277E+02  0.49819319686E+02  0.54845509639E+02  0.00000000000E+00 0. -1.
</event>
<event>
 4    1  0.5565417E+003  0.5416750E+02  0.7546771E-02  0.1281049E+00
          2   -1    0    0  501    0  0.00000000000E+00  0.00000000000E+00  0.14692552145E+03  0.14692552145E+03  0.00000000000E+00 0. -1.
         -2   -1    0    0    0  501 -0.00000000000E+00 -0.00000000000E+00 -0.10680148883E+03  0.10680148883E+03  0.00000000000E+00 0.  1.
          2    1    1    2  502    0 -0.31260713708E+02  0.44236704808E+02  0.13445158201E+03  0.14495291021E+03  0.00000000000E+00 0. -1.
         -2    1    1    2    0  502  0.31260713708E+02 -0.44236704808E+02 -0.94327549381E+02  0.10877410007E+03  0.00000000000E+00 0.  1.
</event>
<event>
 4    1  0.5565417E+003  0.2852877E+02  0.7546771E-02  0.1432827E+00
          2   -1    0    0  501    0  0.00000000000E+00  0.00000000000E+00  0.12872692128E+04  0.12872692128E+04  0.00000000000E+00 0. -1.
         -2   -1    0    0    0  501 -0.00000000000E+00 -0.00000000000E+00 -0.64612155842E+01  0.64612155842E+01  0.00000000000E+00 0.  1.
          2    1    1    2  502    0 -0.26027578404E+02  0.11681439399E+02  0.12548051140E+04  0.12551293818E+04  0.00000000000E+00 0. -1.
         -2    1    1    2    0  502  0.26027578404E+02 -0.11681439399E+02  0.26002883211E+02  0.38601046609E+02  0.00000000000E+00 0.  1.
</event>
<event>
 4    1  0.5565417E+003  0.3209253E+02  0.7546771E-02  0.1402243E+00
          2   -1    0    0  501    0  0.00000000000E+00  0.00000000000E+00  0.92935843554E+03  0.92935843554E+03  0.00000000000E+00 0.  1.
         -2   -1    0    0    0  501 -0.00000000000E+00 -0.00000000000E+00 -0.15283437222E+02  0.15283437222E+02  0.00000000000E+00 0. -1.
          2    1    1    2  502    0 -0.17553210333E+02  0.26866616232E+02  0.91191200272E+03  0.91247653721E+03  0.00000000000E+00 0.  1.
         -2    1    1    2    0  502  0.17553210333E+02 -0.26866616232E+02  0.21629955950E+01  0.32165335544E+02  0.00000000000E+00 0. -1.
</event>
<event>
 4    1  0.5565417E+003  0.2042782E+02  0.7546771E-02  0.1527593E+00
          2   -1    0    0  501    0  0.00000000000E+00  0.00000000000E+00  0.27133256239E+02  0.27133256239E+02  0.00000000000E+00 0. -1.
         -2   -1    0    0    0  501 -0.00000000000E+00 -0.00000000000E+00 -0.37801180892E+03  0.37801180892E+03  0.00000000000E+00 0.  1.
          2    1    1    2  502    0  0.23141277368E+01 -0.20296319037E+02  0.22969612652E+02  0.30739207196E+02  0.00000000000E+00 0. -1.
         -2    1    1    2    0  502 -0.23141277368E+01  0.20296319037E+02 -0.37384816533E+03  0.37440585796E+03  0.00000000000E+00 0.  1.
</event>
<event>
 4    1  0.5565417E+003  0.2262185E+02  0.7546771E-02  0.1497302E+00
          2   -1    0    0  501    0  0.00000000000E+00  0.00000000000E+00  0.11475496654E+04  0.11475496654E+04  0.00000000000E+00 0. -1.
         -2   -1    0    0    0  501 -0.00000000000E+00 -0.00000000000E+00 -0.24516391389E+01  0.24516391389E+01  0.00000000000E+00 0. -1.
          2    1    1    2  502    0 -0.77769524145E+01 -0.21243046840E+02  0.10926312733E+04  0.10928654297E+04  0.00000000000E+00 0. -1.
         -2    1    1    2    0  502  0.77769524145E+01  0.21243046840E+02  0.52466752953E+02  0.57135874836E+02  0.00000000000E+00 0. -1.
</event>
<event>
 4    1  0.5565417E+003  0.2573219E+02  0.7546771E-02  0.1460777E+00
          2   -1    0    0  501    0  0.00000000000E+00  0.00000000000E+00  0.21023013057E+01  0.21023013057E+01  0.00000000000E+00 0.  1.
         -2   -1    0    0    0  501 -0.00000000000E+00 -0.00000000000E+00 -0.15793443937E+04  0.15793443937E+04  0.00000000000E+00 0.  1.
          2    1    1    2  502    0 -0.31095990760E+01 -0.25543609429E+02 -0.81122886658E+02  0.85106217921E+02  0.00000000000E+00 0.  1.
         -2    1    1    2    0  502  0.31095990760E+01  0.25543609429E+02 -0.14961192057E+04  0.14963404771E+04  0.00000000000E+00 0.  1.
</event>
<event>
 4    1  0.5565417E+003  0.2424007E+02  0.7546771E-02  0.1477487E+00
          2   -1    0    0  501    0  0.00000000000E+00  0.00000000000E+00  0.98397381564E+03  0.98397381564E+03  0.00000000000E+00 0. -1.
         -2   -1    0    0    0  501 -0.00000000000E+00 -0.00000000000E+00 -0.30024636033E+02  0.30024636033E+02  0.00000000000E+00 0. -1.
          2    1    1    2  502    0 -0.16668130078E+02 -0.17599847318E+02  0.97890671461E+03  0.97920678975E+03  0.00000000000E+00 0. -1.
         -2    1    1    2    0  502  0.16668130078E+02  0.17599847318E+02 -0.24957535003E+02  0.34791661922E+02  0.00000000000E+00 0. -1.
</event>
<event>
 4    1  0.5565417E+003  0.2112231E+02  0.7546771E-02  0.1517526E+00
          2   -1    0    0  501    0  0.00000000000E+00  0.00000000000E+00  0.14316856305E+04  0.14316856305E+04  0.00000000000E+00 0. -1.
         -2   -1    0    0    0  501 -0.00000000000E+00 -0.00000000000E+00 -0.47254929949E+00  0.47254929949E+00  0.00000000000E+00 0. -1.
          2    1    1    2  502    0 -0.60332424345E+01  0.20242333670E+02  0.11334805570E+04  0.11336773461E+04  0.00000000000E+00 0. -1.
         -2    1    1    2    0  502  0.60332424345E+01 -0.20242333670E+02  0.29773252424E+03  0.29848083368E+03  0.00000000000E+00 0. -1.
</event>
<event>
 4    1  0.5565417E+003  0.2362602E+02  0.7546771E-02  0.1484783E+00
          2   -1    0    0  501    0  0.00000000000E+00  0.00000000000E+00  0.67849971241E+03  0.67849971241E+03  0.00000000000E+00 0.  1.
         -2   -1    0    0    0  501 -0.00000000000E+00 -0.00000000000E+00 -0.18327365043E+02  0.18327365043E+02  0.00000000000E+00 0.  1.
          2    1    1    2  502    0 -0.16095642926E+02  0.17295065881E+02  0.67059011395E+03  0.67100617729E+03  0.00000000000E+00 0.  1.
         -2    1    1    2    0  502  0.16095642926E+02 -0.17295065881E+02 -0.10417766583E+02  0.25820900170E+02  0.00000000000E+00 0.  1.
</event>
<event>
 4    1  0.5565417E+003  0.4348698E+02  0.7546771E-02  0.1329181E+00
          2   -1    0    0  501    0  0.00000000000E+00  0.00000000000E+00  0.69591225049E+03  0.69591225049E+03  0.00000000000E+00 0. -1.
         -2   -1    0    0    0  501 -0.00000000000E+00 -0.00000000000E+00 -0.71454325512E+01  0.71454325512E+01  0.00000000000E+00 0. -1.
          2    1    1    2  502    0 -0.14245170252E+02  0.41087624647E+02  0.62110871351E+03  0.62262922496E+03  0.00000000000E+00 0. -1.
         -2    1    1    2    0  502  0.14245170252E+02 -0.41087624647E+02  0.67658104428E+02  0.80428458082E+02  0.00000000000E+00 0. -1.
</event>
<event>
 4    1  0.5565417E+003  0.2656236E+02  0.7546771E-02  0.1452054E+00
          2   -1    0    0  501    0  0.00000000000E+00  0.00000000000E+00  0.42622256569E+03  0.42622256569E+03  0.00000000000E+00 0. -1.
         -2   -1    0    0    0  501 -0.00000000000E+00 -0.00000000000E+00 -0.35349998658E+01  0.35349998658E+01  0.00000000000E+00 0. -1.
          2    1    1    2  502    0 -0.19405655453E+02  0.18137795143E+02  0.36803122191E+03  0.36898853557E+03  0.00000000000E+00 0. -1.
         -2    1    1    2    0  502  0.19405655453E+02 -0.18137795143E+02  0.54656343914E+02  0.60769029993E+02  0.00000000000E+00 0. -1.
</event>
<event>
 4    1  0.5565417E+003  0.3121288E+02  0.7546771E-02  0.1409341E+00
          2   -1    0    0  501    0  0.00000000000E+00  0.00000000000E+00  0.13214013095E+03  0.13214013095E+03  0.00000000000E+00 0.  1.
         -2   -1    0    0    0  501 -0.00000000000E+00 -0.00000000000E+00 -0.10339086283E+02  0.10339086283E+02  0.00000000000E+00 0. -1.
          2    1    1    2  502    0  0.63240975736E+01 -0.30565499043E+02  0.99058585319E+02  0.10385974806E+03  0.00000000000E+00 0.  1.
         -2    1    1    2    0  502 -0.63240975736E+01  0.30565499043E+02  0.22742459346E+02  0.38619469170E+02  0.00000000000E+00 0. -1.
</event>
<event>
 4    1  0.5565417E+003  0.2158941E+02  0.7546771E-02  0.1511014E+00
          2   -1    0    0  501    0  0.00000000000E+00  0.00000000000E+00  0.78884338973E+03  0.78884338973E+03  0.00000000000E+00 0. -1.
         -2   -1    0    0    0  501 -0.00000000000E+00 -0.00000000000E+00 -0.74112349452E+00  0.74112349452E+00  0.00000000000E+00 0.  1.
          2    1    1    2  502    0  0.29290774676E+01  0.21389790122E+02  0.57181273955E+03  0.57222016019E+03  0.00000000000E+00 0. -1.
         -2    1    1    2    0  502 -0.29290774676E+01 -0.21389790122E+02  0.21628952669E+03  0.21736435304E+03  0.00000000000E+00 0.  1.
</event>
<event>
 4    1  0.5565417E+003  0.3271765E+02  0.7546771E-02  0.1397360E+00
          2   -1    0    0  501    0  0.00000000000E+00  0.00000000000E+00  0.22493541048E+04  0.22493541048E+04  0.00000000000E+00 0. -1.
         -2   -1    0    0    0  501 -0.00000000000E+00 -0.00000000000E+00 -0.41729546738E+01  0.41729546738E+01  0.00000000000E+00 0.  1.
          2    1    1    2  502    0 -0.38827830574E+01  0.32486439322E+02  0.21831609256E+04  0.21834060712E+04  0.00000000000E+00 0. -1.
         -2    1    1    2    0  502  0.38827830574E+01 -0.32486439322E+02  0.62020224509E+02  0.70120988243E+02  0.00000000000E+00 0.  1.
</event>
<event>
 4    1  0.5565417E+003  0.2834242E+02  0.7546771E-02  0.1434570E+00
          2   -1    0    0  501    0  0.00000000000E+00  0.00000000000E+00  0.15338427880E+03  0.15338427880E+03  0.00000000000E+00 0. -1.
         -2   -1    0    0    0  501 -0.00000000000E+00 -0.00000000000E+00 -0.83763701562E+02  0.83763701562E+02  0.00000000000E+00 0. -1.
          2    1    1    2  502    0 -0.27505403362E+02 -0.68370730749E+01  0.14961767599E+03  0.15227850062E+03  0.00000000000E+00 0. -1.
         -2    1    1    2    0  502  0.27505403362E+02  0.68370730749E+01 -0.79997098754E+02  0.84869479741E+02  0.00000000000E+00 0. -1.
</event>
<event>
 4    1  0.5565417E+003  0.2090647E+02  0.7546771E-02  0.1520604E+00
          2   -1    0    0  501    0  0.00000000000E+00  0.00000000000E+00  0.93692110338E+03  0.93692110338E+03  0.00000000000E+00 0.  1.
         -2   -1    0    0    0  501 -0.00000000000E+00 -0.00000000000E+00 -0.15861803913E+01  0.15861803913E+01  0.00000000000E+00 0.  1.
          2    1    1    2  502    0 -0.56232031168E+01 -0.20136035922E+02  0.86192229004E+03  0.86217580251E+03  0.00000000000E+00 0.  1.
         -2    1    1    2    0  502  0.56232031168E+01  0.20136035922E+02  0.73412632949E+02  0.76331481268E+02  0.00000000000E+00 0.  1.
</event>
<event>
 4    1  0.5565417E+003  0.4025506E+02  0.7546771E-02  0.1346998E+00
          2   -1    0    0  501    0  0.00000000000E+00  0.00000000000E+00  0.26024214958E+03  0.26024214958E+03  0.00000000000E+00 0. -1.
         -2   -1    0    0    0  501 -0.00000000000E+00 -0.00000000000E+00 -0.12772700964E+02  0.12772700964E+02  0.00000000000E+00 0. -1.
          2    1    1    2  502    0  0.34119684886E+02 -0.21361578916E+02  0.22145852876E+03  0.22508742726E+03  0.00000000000E+00 0. -1.
         -2    1    1    2    0  502 -0.34119684886E+02  0.21361578916E+02  0.26010919852E+02  0.47927423278E+02  0.00000000000E+00 0. -1.
</event>
<event>
 4    1  0.5565417E+003  0.3016367E+02  0.7546771E-02  0.1418179E+00
          2   -1    0    0  501    0  0.00000000000E+00  0.00000000000E+00  0.71789843567E+03  0.71789843567E+03  0.00000000000E+00 0.  1.
         -2   -1    0    0    0  501 -0.00000000000E+00 -0.00000000000E+00 -0.49415171531E+01  0.49415171531E+01  0.00000000000E+00 0. -1.
          2    1    1    2  502    0 -0.15551943833E+01  0.30123550860E+02  0.66812330099E+03  0.66880385187E+03  0.00000000000E+00 0.  1.
         -2    1    1    2    0  502  0.15551943833E+01 -0.30123550860E+02  0.44833617525E+02  0.54036100954E+02  0.00000000000E+00 0. -1.
</event>
<event>
 4    1  0.5565417E+003  0.2093838E+02  0.7546771E-02  0.1520146E+00
          2   -1    0    0  501    0  0.00000000000E+00  0.00000000000E+00  0.75299049495E+02  0.75299049495E+02  0.00000000000E+00 0. -1.
         -2   -1    0    0    0  501 -0.00000000000E+00 -0.00000000000E+00 -0.80594082693E+01  0.80594082693E+01  0.00000000000E+00 0.  1.
          2    1    1    2  502    0 -0.20894290217E+02 -0.13580320755E+01  0.55578644391E+02  0.59391929815E+02  0.00000000000E+00 0. -1.
         -2    1    1    2    0  502  0.20894290217E+02  0.13580320755E+01  0.11660996835E+02  0.23966527949E+02  0.00000000000E+00 0.  1.
</event>
<event>
 4    1  0.5565417E+003  0.4139256E+02  0.7546771E-02  0.1340513E+00
          2   -1    0    0  501    0  0.00000000000E+00  0.00000000000E+00  0.93615224291E+03  0.93615224291E+03  0.00000000000E+00 0. -1.
         -2   -1    0    0    0  501 -0.00000000000E+00 -0.00000000000E+00 -0.14740574360E+02  0.14740574360E+02  0.00000000000E+00 0. -1.
          2    1    1    2  502    0  0.50669884872E+01  0.41081259629E+02  0.90565850132E+03  0.90660391863E+03  0.00000000000E+00 0. -1.
         -2    1    1    2    0  502 -0.50669884872E+01 -0.41081259629E+02  0.15753167234E+02  0.44288898643E+02  0.00000000000E+00 0. -1.
</event>
<event>
 4    1  0.5565417E+003  0.2949751E+02  0.7546771E-02  0.1424014E+00
          2   -1    0    0  501    0  0.00000000000E+00  0.00000000000E+00  0.91960177517E+03  0.91960177517E+03  0.00000000000E+00 0. -1.
         -2   -1    0    0    0  501 -0.00000000000E+00 -0.00000000000E+00 -0.94190681990E+01  0.94190681990E+01  0.00000000000E+00 0. -1.
          2    1    1    2  502    0  0.11645682858E+02 -0.27101308549E+02  0.89565371900E+03  0.89613932355E+03  0.00000000000E+00 0. -1.
         -2    1    1    2    0  502 -0.11645682858E+02  0.27101308549E+02  0.14528987976E+02  0.32881519824E+02  0.00000000000E+00 0. -1.
</event>
<event>
 4    1  0.5565417E+003  0.2439532E+02  0.7546771E-02  0.1475683E+00
          2   -1    0    0  501    0  0.00000000000E+00  0.00000000000E+00  0.94011312261E+02  0.94011312261E+02  0.00000000000E+00 0.  1.
         -2   -1    0    0    0  501 -0.00000000000E+00 -0.00000000000E+00 -0.22170435204E+02  0.22170435204E+02  0.00000000000E+00 0.  1.
          2    1    1    2  502    0 -0.22928421537E+02 -0.83318094830E+01  0.85022364556E+02  0.88453004686E+02  0.00000000000E+00 0.  1.
         -2    1    1    2    0  502  0.22928421537E+02  0.83318094830E+01 -0.13181487499E+02  0.27728742779E+02  0.00000000000E+00 0.  1.
</event>
<event>
 4    1  0.5565417E+003  0.2283766E+02  0.7546771E-02  0.1494547E+00
          2   -1    0    0  501    0  0.00000000000E+00  0.00000000000E+00  0.20028473475E+03  0.20028473475E+03  0.00000000000E+00 0.  1.
         -2   -1    0    0    0  501 -0.00000000000E+00 -0.00000000000E+00 -0.10059884110E+03  0.10059884110E+03  0.00000000000E+00 0.  1.
          2    1    1    2  502    0 -0.51501759238E+01 -0.22249369555E+02  0.19832481131E+03  0.19963539149E+03  0.00000000000E+00 0.  1.
         -2    1    1    2    0  502  0.51501759238E+01  0.22249369555E+02 -0.98638917661E+02  0.10124818435E+03  0.00000000000E+00 0.  1.
</event>
<event>
 4    1  0.5565417E+003  0.2191504E+02  0.7546771E-02  0.1506591E+00
          2   -1    0    0  501    0  0.00000000000E+00  0.00000000000E+00  0.55650177946E+02  0.55650177946E+02  0.00000000000E+00 0.  1.
         -2   -1    0    0    0  501 -0.00000000000E+00 -0.00000000000E+00 -0.22225378454E+02  0.22225378454E+02  0.00000000000E+00 0. -1.
          2    1    1    2  502    0  0.21316995094E+02  0.50846914044E+01 -0.13741304886E+02  0.25866809360E+02  0.00000000000E+00 0. -1.
         -2    1    1    2    0  502 -0.21316995094E+02 -0.50846914044E+01  0.47166104378E+02  0.52008747040E+02  0.00000000000E+00 0.  1.
</event>
<event>
 4    1  0.5565417E+003  0.4553218E+02  0.7546771E-02  0.1318800E+00
          2   -1    0    0  501    0  0.00000000000E+00  0.00000000000E+00  0.49195447649E+03  0.49195447649E+03  0.00000000000E+00 0. -1.
         -2   -1    0    0    0  501 -0.00000000000E+00 -0.00000000000E+00 -0.31308740609E+02  0.31308740609E+02  0.00000000000E+00 0. -1.
          2    1    1    2  502    0  0.42199324257E+02  0.17099601237E+02  0.47371052837E+03  0.47589373185E+03  0.00000000000E+00 0. -1.
         -2    1    1    2    0  502 -0.42199324257E+02 -0.17099601237E+02 -0.13064792484E+02  0.47369485250E+02  0.00000000000E+00 0. -1.
</event>
<event>
 4    1  0.5565417E+003  0.2364178E+02  0.7546771E-02  0.1484593E+00
          2   -1    0    0  501    0  0.00000000000E+00  0.00000000000E+00  0.49600818110E+02  0.49600818110E+02  0.00000000000E+00 0.  1.
         -2   -1    0    0    0  501 -0.00000000000E+00 -0.00000000000E+00 -0.14630936015E+02  0.14630936015E+02  0.00000000000E+00 0.  1.
          2    1    1    2  502    0 -0.18344043019E+02 -0.14914082636E+02  0.32880720759E+02  0.40497846520E+02  0.00000000000E+00 0.  1.
         -2    1    1    2    0  502  0.18344043019E+02  0.14914082636E+02  0.20891613364E+01  0.23733907606E+02  0.00000000000E+00 0.  1.
</event>
<event>
 4    1  0.5565417E+003  0.2858246E+02  0.7546771E-02  0.1432328E+00
          2   -1    0    0  501    0  0.00000000000E+00  0.00000000000E+00  0.82686033321E+02  0.82686033321E+02  0.00000000000E+00 0.  1.
         -2   -1    0    0    0  501 -0.00000000000E+00 -0.00000000000E+00 -0.31620357228E+02  0.31620357228E+02  0.00000000000E+00 0. -1.
          2    1    1    2  502    0  0.28327360225E+02 -0.38102097092E+01  0.72922997420E+02  0.78324457152E+02  0.00000000000E+00 0.  1.
         -2    1    1    2    0  502 -0.28327360225E+02  0.38102097092E+01 -0.21857321328E+02  0.35981933397E+02  0.00000000000E+00 0. -1.
</event>
<event>
 4    1  0.5565417E+003  0.2408198E+02  0.7546771E-02  0.1479341E+00
          2   -1    0    0  501    0  0.00000000000E+00  0.00000000000E+00  0.11704253573E+03  0.11704253573E+03  0.00000000000E+00 0.  1.
         -2   -1    0    0    0  501 -0.00000000000E+00 -0.00000000000E+00 -0.53225692757E+01  0.53225692757E+01  0.00000000000E+00 0.  1.
          2    1    1    2  502    0 -0.11544663675E+02  0.21134377785E+02  0.39780960404E+02  0.46502322462E+02  0.00000000000E+00 0.  1.
         -2    1    1    2    0  502  0.11544663675E+02 -0.21134377785E+02  0.71939006054E+02  0.75862782547E+02  0.00000000000E+00 0.  1.
</event>
<event>
 4    1  0.5565417E+003  0.3092223E+02  0.7546771E-02  0.1411748E+00
          2   -1    0    0  501    0  0.00000000000E+00  0.00000000000E+00  0.58592136561E+03  0.58592136561E+03  0.00000000000E+00 0. -1.
         -2   -1    0    0    0  501 -0.00000000000E+00 -0.00000000000E+00 -0.50662437406E+02  0.50662437406E+02  0.00000000000E+00 0.  1.
          2    1    1    2  502    0 -0.12382113638E+02 -0.28334915099E+02  0.58075301344E+03  0.58157565868E+03  0.00000000000E+00 0. -1.
         -2    1    1    2    0  502  0.12382113638E+02  0.28334915099E+02 -0.45494085235E+02  0.55008144335E+02  0.00000000000E+00 0.  1.
</event>
<event>
 4    1  0.5565417E+003  0.4130063E+02  0.7546771E-02  0.1341028E+00
          2   -1    0    0  501    0  0.00000000000E+00  0.00000000000E+00  0.15077619688E+03  0.15077619688E+03  0.00000000000E+00 0. -1.
         -2   -1    0    0    0  501 -0.00000000000E+00 -0.00000000000E+00 -0.46821964411E+02  0.46821964411E+02  0.00000000000E+00 0.  1.
          2    1    1    2  502    0  0.40073147640E+02  0.99942607850E+01  0.13801636967E+03  0.14406339128E+03  0.00000000000E+00 0. -1.
         -2    1    1    2    0  502 -0.40073147640E+02 -0.99942607850E+01 -0.34062137194E+02  0.53534770016E+02  0.00000000000E+00 0.  1.
</event>
<event>
 4    1  0.5565417E+003  0.3712377E+02  0.7546771E-02  0.1366218E+00
          2   -1    0    0  501    0  0.00000000000E+00  0.00000000000E+00  0.61611797265E+02  0.61611797265E+02  0.00000000000E+00 0. -1.
         -2   -1    0    0    0  501 -0.00000000000E+00 -0.00000000000E+00 -0.31684912097E+02  0.31684912097E+02  0.00000000000E+00 0. -1.
          2    1    1    2  502    0  0.84916181561E+01  0.36139545567E+02  0.40258188396E+02  0.54762177327E+02  0.00000000000E+00 0. -1.
         -2    1    1    2    0  502 -0.84916181561E+01 -0.36139545567E+02 -0.10331303229E+02  0.38534532034E+02  0.00000000000E+00 0. -1.
</event>
<event>
 4    1  0.5565417E+003  0.2213610E+02  0.7546771E-02  0.1503641E+00
          2   -1    0    0  501    0  0.00000000000E+00  0.00000000000E+00  0.11306106477E+04  0.11306106477E+04  0.00000000000E+00 0. -1.
         -2   -1    0    0    0  501 -0.00000000000E+00 -0.00000000000E+00 -0.43519242309E+00  0.43519242309E+00  0.00000000000E+00 0.  1.
          2    1    1    2  502    0 -0.41934631634E+01 -0.21735250193E+02  0.52879038236E+03  0.52925350703E+03  0.00000000000E+00 0. -1.
         -2    1    1    2    0  502  0.41934631634E+01  0.21735250193E+02  0.60138507296E+03  0.60179233313E+03  0.00000000000E+00 0.  1.
</event>
<event>
 4    1  0.5565417E+003  0.2208731E+02  0.7546771E-02  0.1504288E+00
          2   -1    0    0  501    0  0.00000000000E+00  0.00000000000E+00  0.13768442656E+02  0.13768442656E+02  0.00000000000E+00 0.  1.
         -2   -1    0    0    0  501 -0.00000000000E+00 -0.00000000000E+00 -0.99690790640E+02  0.99690790640E+02  0.00000000000E+00 0.  1.
          2    1    1    2  502    0 -0.21724339046E+02 -0.39877705483E+01  0.25845058136E+01  0.22238005558E+02  0.00000000000E+00 0.  1.
         -2    1    1    2    0  502  0.21724339046E+02  0.39877705483E+01 -0.88506853797E+02  0.91221227738E+02  0.00000000000E+00 0.  1.
</event>
