<event>
 4    1  0.2048241E+005  0.4130796E+02  0.7546771E-02  0.1340987E+00
          2   -1    0    0  503    0  0.00000000000E+00  0.00000000000E+00  0.19132044661E+04  0.19132044661E+04  0.00000000000E+00 0. -1.
         21   -1    0    0  501  502 -0.00000000000E+00 -0.00000000000E+00 -0.14198867397E+02  0.14198867397E+02  0.00000000000E+00 0.  1.
          2    1    1    2  501    0 -0.27898184499E+01  0.41213648652E+02  0.18824469341E+04  0.18829001056E+04  0.00000000000E+00 0. -1.
         21    1    1    2  503  502  0.27898184499E+01 -0.41213648652E+02  0.16558664628E+02  0.44503227933E+02  0.00000000000E+00 0.  1.
</event>
<event>
 4    1  0.2048241E+005  0.5751761E+02  0.7546771E-02  0.1268508E+00
          2   -1    0    0  502    0  0.00000000000E+00  0.00000000000E+00  0.12930137769E+03  0.12930137769E+03  0.00000000000E+00 0. -1.
         21   -1    0    0  503  502 -0.00000000000E+00 -0.00000000000E+00 -0.10193688068E+03  0.10193688068E+03  0.00000000000E+00 0.  1.
          2    1    1    2  501    0  0.46727456326E+02  0.33538348663E+02  0.11374482664E+03  0.12746043148E+03  0.00000000000E+00 0. -1.
         21    1    1    2  503  501 -0.46727456326E+02 -0.33538348663E+02 -0.86380329636E+02  0.10377782689E+03  0.00000000000E+00 0.  1.
</event>
<event>
 4    1  0.2048241E+005  0.3203785E+02  0.7546771E-02  0.1402677E+00
          2   -1    0    0  503    0  0.00000000000E+00  0.00000000000E+00  0.27796319265E+02  0.27796319265E+02  0.00000000000E+00 0. -1.
         21   -1    0    0  501  502 -0.00000000000E+00 -0.00000000000E+00 -0.21245922339E+03  0.21245922339E+03  0.00000000000E+00 0. -1.
          2    1    1    2  501    0  0.18476868951E+02 -0.26173062820E+02  0.16858966724E+02  0.36202881966E+02  0.00000000000E+00 0. -1.
         21    1    1    2  503  502 -0.18476868951E+02  0.26173062820E+02 -0.20152187085E+03  0.20405266069E+03  0.00000000000E+00 0. -1.
</event>
<event>
 4    1  0.2048241E+005  0.3927791E+02  0.7546771E-02  0.1352770E+00
          2   -1    0    0  503    0  0.00000000000E+00  0.00000000000E+00  0.17661130167E+04  0.17661130167E+04  0.00000000000E+00 0.  1.
         21   -1    0    0  501  502 -0.00000000000E+00 -0.00000000000E+00 -0.21752179123E+01  0.21752179123E+01  0.00000000000E+00 0. -1.
          2    1    1    2  501    0 -0.14663546300E+02 -0.36438090064E+02  0.15659199011E+04  0.15664124268E+04  0.00000000000E+00 0.  1.
         21    1    1    2  503  502  0.14663546300E+02  0.36438090064E+02  0.19801789767E+03  0.20187580785E+03  0.00000000000E+00 0. -1.
</event>
<event>
 4    1  0.2048241E+005  0.4703130E+02  0.7546771E-02  0.1311584E+00
          2   -1    0    0  503    0  0.00000000000E+00  0.00000000000E+00  0.58796708876E+03  0.58796708876E+03  0.00000000000E+00 0. -1.
         21   -1    0    0  501  502 -0.00000000000E+00 -0.00000000000E+00 -0.11898283389E+02  0.11898283389E+02  0.00000000000E+00 0.  1.
          2    1    1    2  501    0 -0.46526183635E+02 -0.68743723249E+01  0.53605868188E+03  0.53811788038E+03  0.00000000000E+00 0. -1.
         21    1    1    2  503  502  0.46526183635E+02  0.68743723249E+01  0.40010123483E+02  0.61747491768E+02  0.00000000000E+00 0.  1.
</event>
<event>
 4    1  0.2048241E+005  0.2109863E+02  0.7546771E-02  0.1517861E+00
          2   -1    0    0  503    0  0.00000000000E+00  0.00000000000E+00  0.17664705609E+03  0.17664705609E+03  0.00000000000E+00 0. -1.
         21   -1    0    0  501  502 -0.00000000000E+00 -0.00000000000E+00 -0.70372802423E+01  0.70372802423E+01  0.00000000000E+00 0.  1.
          2    1    1    2  501    0  0.19413451335E+01  0.21009124453E+02  0.15838794042E+03  0.15978702013E+03  0.00000000000E+00 0. -1.
         21    1    1    2  503  502 -0.19413451335E+01 -0.21009124453E+02  0.11221835423E+02  0.23897316198E+02  0.00000000000E+00 0.  1.
</event>
<event>
 4    1  0.2048241E+005  0.2096945E+02  0.7546771E-02  0.1519701E+00
          2   -1    0    0  502    0  0.00000000000E+00  0.00000000000E+00  0.13852870667E+04  0.13852870667E+04  0.00000000000E+00 0.  1.
         21   -1    0    0  503  502 -0.00000000000E+00 -0.00000000000E+00 -0.25581455215E+01  0.25581455215E+01  0.00000000000E+00 0. -1.
          2    1    1    2  501    0  0.23281487388E+01  0.20839811799E+02  0.13408099853E+04  0.13409739500E+04  0.00000000000E+00 0.  1.
         21    1    1    2  503  501 -0.23281487388E+01 -0.20839811799E+02  0.41918935881E+02  0.46871262174E+02  0.00000000000E+00 0. -1.
</event>
<event>
 4    1  0.2048241E+005  0.2667603E+02  0.7546771E-02  0.1450890E+00
          2   -1    0    0  503    0  0.00000000000E+00  0.00000000000E+00  0.12228789817E+04  0.12228789817E+04  0.00000000000E+00 0. -1.
         21   -1    0    0  501  502 -0.00000000000E+00 -0.00000000000E+00 -0.12122381137E+01  0.12122381137E+01  0.00000000000E+00 0. -1.
          2    1    1    2  501    0  0.25946129616E+02  0.61975121825E+01  0.10521717231E+04  0.10525098317E+04  0.00000000000E+00 0. -1.
         21    1    1    2  503  502 -0.25946129616E+02 -0.61975121825E+01  0.16949502049E+03  0.17158138818E+03  0.00000000000E+00 0. -1.
</event>
<event>
 4    1  0.2048241E+005  0.2143901E+02  0.7546771E-02  0.1513088E+00
          2   -1    0    0  502    0  0.00000000000E+00  0.00000000000E+00  0.12178396140E+04  0.12178396140E+04  0.00000000000E+00 0. -1.
         21   -1    0    0  503  502 -0.00000000000E+00 -0.00000000000E+00 -0.32859381600E+02  0.32859381600E+02  0.00000000000E+00 0. -1.
          2    1    1    2  501    0  0.46662456639E+01 -0.20925037321E+02  0.12142379339E+04  0.12144271865E+04  0.00000000000E+00 0. -1.
         21    1    1    2  503  501 -0.46662456639E+01  0.20925037321E+02 -0.29257701556E+02  0.36271809106E+02  0.00000000000E+00 0. -1.
</event>
<event>
 4    1  0.2048241E+005  0.2875830E+02  0.7546771E-02  0.1430703E+00
          2   -1    0    0  503    0  0.00000000000E+00  0.00000000000E+00  0.59617976732E+03  0.59617976732E+03  0.00000000000E+00 0. -1.
         21   -1    0    0  501  502 -0.00000000000E+00 -0.00000000000E+00 -0.19091492084E+01  0.19091492084E+01  0.00000000000E+00 0. -1.
          2    1    1    2  501    0  0.22432444284E+02  0.17995152792E+02  0.45349194980E+03  0.45440289240E+03  0.00000000000E+00 0. -1.
         21    1    1    2  503  502 -0.22432444284E+02 -0.17995152792E+02  0.14077866831E+03  0.14368602413E+03  0.00000000000E+00 0. -1.
</event>
<event>
 4    1  0.2048241E+005  0.2122527E+02  0.7546771E-02  0.1516073E+00
          2   -1    0    0  503    0  0.00000000000E+00  0.00000000000E+00  0.17725474919E+04  0.17725474919E+04  0.00000000000E+00 0.  1.
         21   -1    0    0  501  502 -0.00000000000E+00 -0.00000000000E+00 -0.36093562122E+00  0.36093562122E+00  0.00000000000E+00 0.  1.
          2    1    1    2  501    0 -0.62044959629E+01  0.20298190277E+02  0.40395054933E+03  0.40450779795E+03  0.00000000000E+00 0.  1.
         21    1    1    2  503  502  0.62044959629E+01 -0.20298190277E+02  0.13682360069E+04  0.13684006295E+04  0.00000000000E+00 0.  1.
</event>
<event>
 4    1  0.2048241E+005  0.2167745E+02  0.7546771E-02  0.1509808E+00
          2   -1    0    0  503    0  0.00000000000E+00  0.00000000000E+00  0.45906103123E+02  0.45906103123E+02  0.00000000000E+00 0.  1.
         21   -1    0    0  501  502 -0.00000000000E+00 -0.00000000000E+00 -0.21272142433E+03  0.21272142433E+03  0.00000000000E+00 0.  1.
          2    1    1    2  501    0 -0.15684796637E+02 -0.14963259454E+02  0.42756388763E+02  0.47937675779E+02  0.00000000000E+00 0.  1.
         21    1    1    2  503  502  0.15684796637E+02  0.14963259454E+02 -0.20957170997E+03  0.21068985167E+03  0.00000000000E+00 0.  1.
</event>
<event>
 4    1  0.2048241E+005  0.2110739E+02  0.7546771E-02  0.1517737E+00
          2   -1    0    0  502    0  0.00000000000E+00  0.00000000000E+00  0.31168590298E+03  0.31168590298E+03  0.00000000000E+00 0. -1.
         21   -1    0    0  503  502 -0.00000000000E+00 -0.00000000000E+00 -0.16272069178E+02  0.16272069178E+02  0.00000000000E+00 0. -1.
          2    1    1    2  501    0  0.26207836233E+01 -0.20944053197E+02  0.30431814731E+03  0.30504926922E+03  0.00000000000E+00 0. -1.
         21    1    1    2  503  501 -0.26207836233E+01  0.20944053197E+02 -0.89043135092E+01  0.22908702935E+02  0.00000000000E+00 0. -1.
</event>
<event>
 4    1  0.2048241E+005  0.2587331E+02  0.7546771E-02  0.1459266E+00
          2   -1    0    0  503    0  0.00000000000E+00  0.00000000000E+00  0.69274696097E+02  0.69274696097E+02  0.00000000000E+00 0. -1.
         21   -1    0    0  501  502 -0.00000000000E+00 -0.00000000000E+00 -0.27694212618E+02  0.27694212618E+02  0.00000000000E+00 0. -1.
          2    1    1    2  501    0  0.20107012971E+02  0.16283006718E+02  0.59911768381E+02  0.65259851892E+02  0.00000000000E+00 0. -1.
         21    1    1    2  503  502 -0.20107012971E+02 -0.16283006718E+02 -0.18331284902E+02  0.31709056823E+02  0.00000000000E+00 0. -1.
</event>
<event>
 4    1  0.2048241E+005  0.2267233E+02  0.7546771E-02  0.1496654E+00
          2   -1    0    0  502    0  0.00000000000E+00  0.00000000000E+00  0.96731243802E+03  0.96731243802E+03  0.00000000000E+00 0.  1.
         21   -1    0    0  503  502 -0.00000000000E+00 -0.00000000000E+00 -0.93187238988E+01  0.93187238988E+01  0.00000000000E+00 0.  1.
          2    1    1    2  501    0  0.15185906932E+02 -0.16835165811E+02  0.95318485304E+03  0.95345445546E+03  0.00000000000E+00 0.  1.
         21    1    1    2  503  501 -0.15185906932E+02  0.16835165811E+02  0.48088610810E+01  0.23176706456E+02  0.00000000000E+00 0.  1.
</event>
<event>
 4    1  0.2048241E+005  0.2862438E+02  0.7546771E-02  0.1431940E+00
          2   -1    0    0  503    0  0.00000000000E+00  0.00000000000E+00  0.12130797149E+04  0.12130797149E+04  0.00000000000E+00 0. -1.
         21   -1    0    0  501  502 -0.00000000000E+00 -0.00000000000E+00 -0.89860794689E+01  0.89860794689E+01  0.00000000000E+00 0. -1.
          2    1    1    2  501    0  0.12605068108E+02  0.25699562495E+02  0.11896671897E+04  0.11900115030E+04  0.00000000000E+00 0. -1.
         21    1    1    2  503  502 -0.12605068108E+02 -0.25699562495E+02  0.14426445785E+02  0.32054291326E+02  0.00000000000E+00 0. -1.
</event>
<event>
 4    1  0.2048241E+005  0.2014178E+02  0.7546771E-02  0.1531879E+00
          2   -1    0    0  503    0  0.00000000000E+00  0.00000000000E+00  0.62028696077E+03  0.62028696077E+03  0.00000000000E+00 0. -1.
         21   -1    0    0  501  502 -0.00000000000E+00 -0.00000000000E+00 -0.14081742051E+01  0.14081742051E+01  0.00000000000E+00 0.  1.
          2    1    1    2  501    0  0.71623772400E+01  0.18825292491E+02  0.53691988431E+03  0.53729754648E+03  0.00000000000E+00 0. -1.
         21    1    1    2  503  502 -0.71623772400E+01 -0.18825292491E+02  0.81958902261E+02  0.84397588502E+02  0.00000000000E+00 0.  1.
</event>
<event>
 4    1  0.2048241E+005  0.2534389E+02  0.7546771E-02  0.1464993E+00
          2   -1    0    0  503    0  0.00000000000E+00  0.00000000000E+00  0.56113825327E+03  0.56113825327E+03  0.00000000000E+00 0. -1.
         21   -1    0    0  501  502 -0.00000000000E+00 -0.00000000000E+00 -0.61347421518E+02  0.61347421518E+02  0.00000000000E+00 0.  1.
          2    1    1    2  501    0  0.22406346297E+02  0.11843496389E+02  0.55822089416E+03  0.55879591931E+03  0.00000000000E+00 0. -1.
         21    1    1    2  503  502 -0.22406346297E+02 -0.11843496389E+02 -0.58430062403E+02  0.63689755483E+02  0.00000000000E+00 0.  1.
</event>
<event>
 4    1  0.2048241E+005  0.3223729E+02  0.7546771E-02  0.1401101E+00
          2   -1    0    0  503    0  0.00000000000E+00  0.00000000000E+00  0.27749860596E+02  0.27749860596E+02  0.00000000000E+00 0.  1.
         21   -1    0    0  501  502 -0.00000000000E+00 -0.00000000000E+00 -0.61827542629E+02  0.61827542629E+02  0.00000000000E+00 0.  1.
          2    1    1    2  501    0 -0.20214072140E+02 -0.25112435120E+02  0.11084632916E+02  0.34089766749E+02  0.00000000000E+00 0.  1.
         21    1    1    2  503  502  0.20214072140E+02  0.25112435120E+02 -0.45162314948E+02  0.55487636476E+02  0.00000000000E+00 0.  1.
</event>
<event>
 4    1  0.2048241E+005  0.2069296E+02  0.7546771E-02  0.1523694E+00
          2   -1    0    0  502    0  0.00000000000E+00  0.00000000000E+00  0.17532372945E+04  0.17532372945E+04  0.00000000000E+00 0. -1.
         21   -1    0    0  503  502 -0.00000000000E+00 -0.00000000000E+00 -0.38158305775E+00  0.38158305775E+00  0.00000000000E+00 0.  1.
          2    1    1    2  501    0 -0.54675925867E+01  0.19957558401E+02  0.14024751915E+04  0.14026278414E+04  0.00000000000E+00 0. -1.
         21    1    1    2  503  501  0.54675925867E+01 -0.19957558401E+02  0.35038052001E+03  0.35099103623E+03  0.00000000000E+00 0.  1.
</event>
<event>
 4    1  0.2048241E+005  0.2475276E+02  0.7546771E-02  0.1471588E+00
          2   -1    0    0  503    0  0.00000000000E+00  0.00000000000E+00  0.24202798397E+03  0.24202798397E+03  0.00000000000E+00 0.  1.
         21   -1    0    0  501  502 -0.00000000000E+00 -0.00000000000E+00 -0.25733771845E+01  0.25733771845E+01  0.00000000000E+00 0.  1.
          2    1    1    2  501    0  0.24178031409E+02 -0.53029990894E+01  0.13532481416E+03  0.13756999793E+03  0.00000000000E+00 0.  1.
         21    1    1    2  503  502 -0.24178031409E+02  0.53029990894E+01  0.10412979263E+03  0.10703136323E+03  0.00000000000E+00 0.  1.
</event>
<event>
 4    1  0.2048241E+005  0.2892389E+02  0.7546771E-02  0.1429184E+00
          2   -1    0    0  502    0  0.00000000000E+00  0.00000000000E+00  0.74625246421E+03  0.74625246421E+03  0.00000000000E+00 0. -1.
         21   -1    0    0  503  502 -0.00000000000E+00 -0.00000000000E+00 -0.46293783698E+02  0.46293783698E+02  0.00000000000E+00 0.  1.
          2    1    1    2  501    0 -0.12058471486E+02 -0.26290385904E+02  0.74142495783E+03  0.74198892123E+03  0.00000000000E+00 0. -1.
         21    1    1    2  503  501  0.12058471486E+02  0.26290385904E+02 -0.41466277326E+02  0.50557326678E+02  0.00000000000E+00 0.  1.
</event>
<event>
 4    1  0.2048241E+005  0.2195414E+02  0.7546771E-02  0.1506066E+00
          2   -1    0    0  503    0  0.00000000000E+00  0.00000000000E+00  0.16014391935E+04  0.16014391935E+04  0.00000000000E+00 0.  1.
         21   -1    0    0  501  502 -0.00000000000E+00 -0.00000000000E+00 -0.60874793808E+00  0.60874793808E+00  0.00000000000E+00 0.  1.
          2    1    1    2  501    0 -0.21338582284E+02  0.51622647976E+01  0.13699837465E+04  0.13701596439E+04  0.00000000000E+00 0.  1.
         21    1    1    2  503  502  0.21338582284E+02 -0.51622647976E+01  0.23084669905E+03  0.23188829754E+03  0.00000000000E+00 0.  1.
</event>
<event>
 4    1  0.2048241E+005  0.4572693E+02  0.7546771E-02  0.1317844E+00
          2   -1    0    0  502    0  0.00000000000E+00  0.00000000000E+00  0.92820520279E+03  0.92820520279E+03  0.00000000000E+00 0. -1.
         21   -1    0    0  503  502 -0.00000000000E+00 -0.00000000000E+00 -0.33553449481E+01  0.33553449481E+01  0.00000000000E+00 0.  1.
          2    1    1    2  501    0  0.43448865564E+02  0.14253022134E+02  0.72943866102E+03  0.73087051709E+03  0.00000000000E+00 0. -1.
         21    1    1    2  503  501 -0.43448865564E+02 -0.14253022134E+02  0.19541119682E+03  0.20069003065E+03  0.00000000000E+00 0.  1.
</event>
<event>
 4    1  0.2048241E+005  0.2929134E+02  0.7546771E-02  0.1425856E+00
          2   -1    0    0  503    0  0.00000000000E+00  0.00000000000E+00  0.61318764342E+03  0.61318764342E+03  0.00000000000E+00 0.  1.
         21   -1    0    0  501  502 -0.00000000000E+00 -0.00000000000E+00 -0.19822446450E+02  0.19822446450E+02  0.00000000000E+00 0. -1.
          2    1    1    2  501    0 -0.26915300458E+02  0.11556352436E+02  0.60181258419E+03  0.60252499464E+03  0.00000000000E+00 0.  1.
         21    1    1    2  503  502  0.26915300458E+02 -0.11556352436E+02 -0.84473872162E+01  0.30485095230E+02  0.00000000000E+00 0. -1.
</event>
<event>
 4    1  0.2048241E+005  0.2530357E+02  0.7546771E-02  0.1465436E+00
          2   -1    0    0  503    0  0.00000000000E+00  0.00000000000E+00  0.11825865561E+04  0.11825865561E+04  0.00000000000E+00 0.  1.
         21   -1    0    0  501  502 -0.00000000000E+00 -0.00000000000E+00 -0.97850792336E+00  0.97850792336E+00  0.00000000000E+00 0. -1.
          2    1    1    2  501    0  0.20813663034E+02 -0.14389654475E+02  0.98632233426E+03  0.98664685566E+03  0.00000000000E+00 0.  1.
         21    1    1    2  503  502 -0.20813663034E+02  0.14389654475E+02  0.19528571388E+03  0.19691820833E+03  0.00000000000E+00 0. -1.
</event>
<event>
 4    1  0.2048241E+005  0.2890315E+02  0.7546771E-02  0.1429374E+00
          2   -1    0    0  502    0  0.00000000000E+00  0.00000000000E+00  0.14027392585E+04  0.14027392585E+04  0.00000000000E+00 0. -1.
         21   -1    0    0  503  502 -0.00000000000E+00 -0.00000000000E+00 -0.12443047633E+01  0.12443047633E+01  0.00000000000E+00 0. -1.
          2    1    1    2  501    0 -0.22838222077E+02 -0.17714616346E+02  0.12076344798E+04  0.12079803098E+04  0.00000000000E+00 0. -1.
         21    1    1    2  503  501  0.22838222077E+02  0.17714616346E+02  0.19386047388E+03  0.19600325343E+03  0.00000000000E+00 0. -1.
</event>
<event>
 4    1  0.2048241E+005  0.2598435E+02  0.7546771E-02  0.1458086E+00
          2   -1    0    0  503    0  0.00000000000E+00  0.00000000000E+00  0.92902730800E+03  0.92902730800E+03  0.00000000000E+00 0. -1.
         21   -1    0    0  501  502 -0.00000000000E+00 -0.00000000000E+00 -0.17551764524E+01  0.17551764524E+01  0.00000000000E+00 0. -1.
          2    1    1    2  501    0  0.15562413056E+02  0.20808593744E+02  0.81987457996E+03  0.82028623854E+03  0.00000000000E+00 0. -1.
         21    1    1    2  503  502 -0.15562413056E+02 -0.20808593744E+02  0.10739755160E+03  0.11049624592E+03  0.00000000000E+00 0. -1.
</event>
<event>
 4    1  0.2048241E+005  0.2145164E+02  0.7546771E-02  0.1512913E+00
          2   -1    0    0  503    0  0.00000000000E+00  0.00000000000E+00  0.93875928519E+03  0.93875928519E+03  0.00000000000E+00 0.  1.
         21   -1    0    0  501  502 -0.00000000000E+00 -0.00000000000E+00 -0.53902738923E+00  0.53902738923E+00  0.00000000000E+00 0. -1.
          2    1    1    2  501    0 -0.15271722320E+02  0.15064779094E+02  0.61047182941E+03  0.61084861265E+03  0.00000000000E+00 0.  1.
         21    1    1    2  503  502  0.15271722320E+02 -0.15064779094E+02  0.32774842838E+03  0.32844969992E+03  0.00000000000E+00 0. -1.
</event>
<event>
 4    1  0.2048241E+005  0.3205820E+02  0.7546771E-02  0.1402515E+00
          2   -1    0    0  503    0  0.00000000000E+00  0.00000000000E+00  0.27039898523E+04  0.27039898523E+04  0.00000000000E+00 0. -1.
         21   -1    0    0  501  502 -0.00000000000E+00 -0.00000000000E+00 -0.84613871029E+00  0.84613871029E+00  0.00000000000E+00 0. -1.
          2    1    1    2  501    0 -0.31724209703E+02 -0.46154589491E+01  0.23552887930E+04  0.23555069574E+04  0.00000000000E+00 0. -1.
         21    1    1    2  503  502  0.31724209703E+02  0.46154589491E+01  0.34785492060E+03  0.34932903362E+03  0.00000000000E+00 0. -1.
</event>
<event>
 4    1  0.2048241E+005  0.4355561E+02  0.7546771E-02  0.1328822E+00
          2   -1    0    0  503    0  0.00000000000E+00  0.00000000000E+00  0.10985613618E+04  0.10985613618E+04  0.00000000000E+00 0.  1.
         21   -1    0    0  501  502 -0.00000000000E+00 -0.00000000000E+00 -0.31480852375E+01  0.31480852375E+01  0.00000000000E+00 0.  1.
          2    1    1    2  501    0  0.38492021097E+02 -0.20382734994E+02  0.91782542784E+03  0.91885831746E+03  0.00000000000E+00 0.  1.
         21    1    1    2  503  502 -0.38492021097E+02  0.20382734994E+02  0.17758784869E+03  0.18285112955E+03  0.00000000000E+00 0.  1.
</event>
<event>
 4    1  0.2048241E+005  0.2572147E+02  0.7546771E-02  0.1460892E+00
          2   -1    0    0  503    0  0.00000000000E+00  0.00000000000E+00  0.23576487850E+03  0.23576487850E+03  0.00000000000E+00 0. -1.
         21   -1    0    0  501  502 -0.00000000000E+00 -0.00000000000E+00 -0.28049926068E+02  0.28049926068E+02  0.00000000000E+00 0. -1.
          2    1    1    2  501    0 -0.83851229709E+01  0.24316330150E+02  0.22899292986E+03  0.23043297534E+03  0.00000000000E+00 0. -1.
         21    1    1    2  503  502  0.83851229709E+01 -0.24316330150E+02 -0.21277977426E+02  0.33381829227E+02  0.00000000000E+00 0. -1.
</event>
<event>
 4    1  0.2048241E+005  0.2160504E+02  0.7546771E-02  0.1510799E+00
          2   -1    0    0  502    0  0.00000000000E+00  0.00000000000E+00  0.32163588749E+01  0.32163588749E+01  0.00000000000E+00 0. -1.
         21   -1    0    0  503  502 -0.00000000000E+00 -0.00000000000E+00 -0.31362186475E+03  0.31362186475E+03  0.00000000000E+00 0. -1.
          2    1    1    2  501    0  0.17337577561E+02 -0.12891321730E+02 -0.39084941604E+02  0.44658822553E+02  0.00000000000E+00 0. -1.
         21    1    1    2  503  501 -0.17337577561E+02  0.12891321730E+02 -0.27132056427E+03  0.27217940107E+03  0.00000000000E+00 0. -1.
</event>
<event>
 4    1  0.2048241E+005  0.2173144E+02  0.7546771E-02  0.1509073E+00
          2   -1    0    0  502    0  0.00000000000E+00  0.00000000000E+00  0.28126224846E+03  0.28126224846E+03  0.00000000000E+00 0.  1.
         21   -1    0    0  503  502 -0.00000000000E+00 -0.00000000000E+00 -0.68342261643E+02  0.68342261643E+02  0.00000000000E+00 0. -1.
          2    1    1    2  501    0  0.19618614382E+02  0.93469453606E+01  0.27910159267E+03  0.27994634209E+03  0.00000000000E+00 0.  1.
         21    1    1    2  503  501 -0.19618614382E+02 -0.93469453606E+01 -0.66181605853E+02  0.69658168014E+02  0.00000000000E+00 0. -1.
</event>
<event>
 4    1  0.2048241E+005  0.4275111E+02  0.7546771E-02  0.1333077E+00
          2   -1    0    0  502    0  0.00000000000E+00  0.00000000000E+00  0.16254670790E+04  0.16254670790E+04  0.00000000000E+00 0. -1.
         21   -1    0    0  503  502 -0.00000000000E+00 -0.00000000000E+00 -0.38913164568E+01  0.38913164568E+01  0.00000000000E+00 0. -1.
          2    1    1    2  501    0 -0.21663055166E+02 -0.36856062197E+02  0.14977570389E+04  0.14983670461E+04  0.00000000000E+00 0. -1.
         21    1    1    2  503  501  0.21663055166E+02  0.36856062197E+02  0.12381872361E+03  0.13099134932E+03  0.00000000000E+00 0. -1.
</event>
<event>
 4    1  0.2048241E+005  0.2333530E+02  0.7546771E-02  0.1488330E+00
          2   -1    0    0  502    0  0.00000000000E+00  0.00000000000E+00  0.25814104531E+03  0.25814104531E+03  0.00000000000E+00 0. -1.
         21   -1    0    0  503  502 -0.00000000000E+00 -0.00000000000E+00 -0.98580646173E+01  0.98580646173E+01  0.00000000000E+00 0. -1.
          2    1    1    2  501    0  0.13172429875E+02 -0.19261960955E+02  0.24294233019E+03  0.24406046760E+03  0.00000000000E+00 0. -1.
         21    1    1    2  503  501 -0.13172429875E+02  0.19261960955E+02  0.53406505062E+01  0.23938642327E+02  0.00000000000E+00 0. -1.
</event>
<event>
 4    1  0.2048241E+005  0.2850625E+02  0.7546771E-02  0.1433037E+00
          2   -1    0    0  503    0  0.00000000000E+00  0.00000000000E+00  0.13572071357E+04  0.13572071357E+04  0.00000000000E+00 0.  1.
         21   -1    0    0  501  502 -0.00000000000E+00 -0.00000000000E+00 -0.16592479208E+01  0.16592479208E+01  0.00000000000E+00 0. -1.
          2    1    1    2  501    0 -0.28284902739E+02  0.35454708182E+01  0.12209608604E+04  0.12212935882E+04  0.00000000000E+00 0.  1.
         21    1    1    2  503  502  0.28284902739E+02 -0.35454708182E+01  0.13458702747E+03  0.13757279546E+03  0.00000000000E+00 0. -1.
</event>
<event>
 4    1  0.2048241E+005  0.2545492E+02  0.7546771E-02  0.1463778E+00
          2   -1    0    0  503    0  0.00000000000E+00  0.00000000000E+00  0.11017666166E+04  0.11017666166E+04  0.00000000000E+00 0. -1.
         21   -1    0    0  501  502 -0.00000000000E+00 -0.00000000000E+00 -0.20667873470E+01  0.20667873470E+01  0.00000000000E+00 0.  1.
          2    1    1    2  501    0  0.21180584065E+02 -0.14118635521E+02  0.10166847723E+04  0.10170033821E+04  0.00000000000E+00 0. -1.
         21    1    1    2  503  502 -0.21180584065E+02  0.14118635521E+02  0.83015056978E+02  0.86830021856E+02  0.00000000000E+00 0.  1.
</event>
<event>
 4    1  0.2048241E+005  0.2608769E+02  0.7546771E-02  0.1456994E+00
          2   -1    0    0  503    0  0.00000000000E+00  0.00000000000E+00  0.36199938814E+03  0.36199938814E+03  0.00000000000E+00 0.  1.
         21   -1    0    0  501  502 -0.00000000000E+00 -0.00000000000E+00 -0.31274686511E+01  0.31274686511E+01  0.00000000000E+00 0. -1.
          2    1    1    2  501    0  0.22138097778E+02  0.13801167835E+02  0.29473558867E+03  0.29588787545E+03  0.00000000000E+00 0.  1.
         21    1    1    2  503  502 -0.22138097778E+02 -0.13801167835E+02  0.64136330816E+02  0.69238981343E+02  0.00000000000E+00 0. -1.
</event>
<event>
 4    1  0.2048241E+005  0.2234933E+02  0.7546771E-02  0.1500834E+00
          2   -1    0    0  502    0  0.00000000000E+00  0.00000000000E+00  0.99884909159E+03  0.99884909159E+03  0.00000000000E+00 0.  1.
         21   -1    0    0  503  502 -0.00000000000E+00 -0.00000000000E+00 -0.20890533970E+02  0.20890533970E+02  0.00000000000E+00 0.  1.
          2    1    1    2  501    0 -0.55499409490E+01  0.21649263322E+02  0.99270961369E+03  0.99296116216E+03  0.00000000000E+00 0.  1.
         21    1    1    2  503  501  0.55499409490E+01 -0.21649263322E+02 -0.14751056069E+02  0.26778463400E+02  0.00000000000E+00 0.  1.
</event>
<event>
 4    1  0.2048241E+005  0.2960716E+02  0.7546771E-02  0.1423041E+00
          2   -1    0    0  502    0  0.00000000000E+00  0.00000000000E+00  0.16914518049E+04  0.16914518049E+04  0.00000000000E+00 0.  1.
         21   -1    0    0  503  502 -0.00000000000E+00 -0.00000000000E+00 -0.67202963405E+01  0.67202963405E+01  0.00000000000E+00 0.  1.
          2    1    1    2  501    0  0.10779429133E+02  0.27575128992E+02  0.16580559202E+04  0.16583202399E+04  0.00000000000E+00 0.  1.
         21    1    1    2  503  501 -0.10779429133E+02 -0.27575128992E+02  0.26675588363E+02  0.39851861259E+02  0.00000000000E+00 0.  1.
</event>
<event>
 4    1  0.2048241E+005  0.2367913E+02  0.7546771E-02  0.1484142E+00
          2   -1    0    0  502    0  0.00000000000E+00  0.00000000000E+00  0.39402856206E+02  0.39402856206E+02  0.00000000000E+00 0. -1.
         21   -1    0    0  503  502 -0.00000000000E+00 -0.00000000000E+00 -0.10891411154E+03  0.10891411154E+03  0.00000000000E+00 0.  1.
          2    1    1    2  501    0  0.15501798037E+02  0.17899590205E+02  0.34388835868E+02  0.41752761636E+02  0.00000000000E+00 0. -1.
         21    1    1    2  503  501 -0.15501798037E+02 -0.17899590205E+02 -0.10390009120E+03  0.10656420611E+03  0.00000000000E+00 0.  1.
</event>
<event>
 4    1  0.2048241E+005  0.2405697E+02  0.7546771E-02  0.1479636E+00
          2   -1    0    0  502    0  0.00000000000E+00  0.00000000000E+00  0.11224921440E+04  0.11224921440E+04  0.00000000000E+00 0.  1.
         21   -1    0    0  503  502 -0.00000000000E+00 -0.00000000000E+00 -0.84454132447E+01  0.84454132447E+01  0.00000000000E+00 0.  1.
          2    1    1    2  501    0 -0.20739775477E+02 -0.12190147833E+02  0.11049597260E+04  0.11052215769E+04  0.00000000000E+00 0.  1.
         21    1    1    2  503  501  0.20739775477E+02  0.12190147833E+02  0.90870048158E+01  0.25715980393E+02  0.00000000000E+00 0.  1.
</event>
<event>
 4    1  0.2048241E+005  0.3656241E+02  0.7546771E-02  0.1369900E+00
          2   -1    0    0  502    0  0.00000000000E+00  0.00000000000E+00  0.13693234134E+04  0.13693234134E+04  0.00000000000E+00 0. -1.
         21   -1    0    0  503  502 -0.00000000000E+00 -0.00000000000E+00 -0.40428346396E+03  0.40428346396E+03  0.00000000000E+00 0. -1.
          2    1    1    2  501    0 -0.27962550680E+02 -0.23556431554E+02  0.13682520486E+04  0.13687404715E+04  0.00000000000E+00 0. -1.
         21    1    1    2  503  501  0.27962550680E+02  0.23556431554E+02 -0.40321209916E+03  0.40486640589E+03  0.00000000000E+00 0. -1.
</event>
<event>
 4    1  0.2048241E+005  0.2294685E+02  0.7546771E-02  0.1493167E+00
          2   -1    0    0  502    0  0.00000000000E+00  0.00000000000E+00  0.38644646666E+03  0.38644646666E+03  0.00000000000E+00 0. -1.
         21   -1    0    0  503  502 -0.00000000000E+00 -0.00000000000E+00 -0.36127574185E+01  0.36127574185E+01  0.00000000000E+00 0.  1.
          2    1    1    2  501    0 -0.26732090707E+01 -0.22790608379E+02  0.34533546107E+03  0.34609700743E+03  0.00000000000E+00 0. -1.
         21    1    1    2  503  501  0.26732090707E+01  0.22790608379E+02  0.37498248171E+02  0.43962216651E+02  0.00000000000E+00 0.  1.
</event>
<event>
 4    1  0.2048241E+005  0.3002110E+02  0.7546771E-02  0.1419413E+00
          2   -1    0    0  502    0  0.00000000000E+00  0.00000000000E+00  0.13559762807E+04  0.13559762807E+04  0.00000000000E+00 0. -1.
         21   -1    0    0  503  502 -0.00000000000E+00 -0.00000000000E+00 -0.17198245371E+01  0.17198245371E+01  0.00000000000E+00 0. -1.
          2    1    1    2  501    0  0.27299642603E+02  0.12489824898E+02  0.12088569765E+04  0.12092296952E+04  0.00000000000E+00 0. -1.
         21    1    1    2  503  501 -0.27299642603E+02 -0.12489824898E+02  0.14539947973E+03  0.14846641006E+03  0.00000000000E+00 0. -1.
</event>
<event>
 4    1  0.2048241E+005  0.2423917E+02  0.7546771E-02  0.1477498E+00
          2   -1    0    0  503    0  0.00000000000E+00  0.00000000000E+00  0.62165099930E+02  0.62165099930E+02  0.00000000000E+00 0. -1.
         21   -1    0    0  501  502 -0.00000000000E+00 -0.00000000000E+00 -0.18691634186E+02  0.18691634186E+02  0.00000000000E+00 0. -1.
          2    1    1    2  501    0  0.15433092335E+02 -0.18691092496E+02  0.50162213280E+02  0.55711622835E+02  0.00000000000E+00 0. -1.
         21    1    1    2  503  502 -0.15433092335E+02  0.18691092496E+02 -0.66887475365E+01  0.25145111281E+02  0.00000000000E+00 0. -1.
</event>
<event>
 4    1  0.2048241E+005  0.2909288E+02  0.7546771E-02  0.1427646E+00
          2   -1    0    0  502    0  0.00000000000E+00  0.00000000000E+00  0.14075603367E+04  0.14075603367E+04  0.00000000000E+00 0. -1.
         21   -1    0    0  503  502 -0.00000000000E+00 -0.00000000000E+00 -0.65075794975E+00  0.65075794975E+00  0.00000000000E+00 0. -1.
          2    1    1    2  501    0  0.29073121164E+02 -0.10719539855E+01  0.89752293804E+03  0.89799433170E+03  0.00000000000E+00 0. -1.
         21    1    1    2  503  501 -0.29073121164E+02  0.10719539855E+01  0.50938664067E+03  0.51021676291E+03  0.00000000000E+00 0. -1.
</event>
<event>
 4    1  0.2048241E+005  0.3397040E+02  0.7546771E-02  0.1387950E+00
          2   -1    0    0  503    0  0.00000000000E+00  0.00000000000E+00  0.75042445225E+03  0.75042445225E+03  0.00000000000E+00 0.  1.
         21   -1    0    0  501  502 -0.00000000000E+00 -0.00000000000E+00 -0.40842611413E+01  0.40842611413E+01  0.00000000000E+00 0.  1.
          2    1    1    2  501    0  0.60468959961E+01 -0.33427883935E+02  0.67105443351E+03  0.67191371552E+03  0.00000000000E+00 0.  1.
         21    1    1    2  503  502 -0.60468959961E+01  0.33427883935E+02  0.75285757603E+02  0.82594997871E+02  0.00000000000E+00 0.  1.
</event>
<event>
 4    1  0.2048241E+005  0.2115344E+02  0.7546771E-02  0.1517085E+00
          2   -1    0    0  503    0  0.00000000000E+00  0.00000000000E+00  0.22697974679E+04  0.22697974679E+04  0.00000000000E+00 0. -1.
         21   -1    0    0  501  502 -0.00000000000E+00 -0.00000000000E+00 -0.19738713536E+00  0.19738713536E+00  0.00000000000E+00 0. -1.
          2    1    1    2  501    0  0.76151839163E+01  0.19735174816E+02  0.10946491540E+04  0.10948535238E+04  0.00000000000E+00 0. -1.
         21    1    1    2  503  502 -0.76151839163E+01 -0.19735174816E+02  0.11749509267E+04  0.11751413312E+04  0.00000000000E+00 0. -1.
</event>
<event>
 4    1  0.2048241E+005  0.2382454E+02  0.7546771E-02  0.1482396E+00
          2   -1    0    0  503    0  0.00000000000E+00  0.00000000000E+00  0.74914563849E+01  0.74914563849E+01  0.00000000000E+00 0.  1.
         21   -1    0    0  501  502 -0.00000000000E+00 -0.00000000000E+00 -0.70169583179E+03  0.70169583179E+03  0.00000000000E+00 0.  1.
          2    1    1    2  501    0  0.22425985577E+02 -0.80426307527E+01 -0.12199362045E+02  0.26766269311E+02  0.00000000000E+00 0.  1.
         21    1    1    2  503  502 -0.22425985577E+02  0.80426307527E+01 -0.68200501336E+03  0.68242101887E+03  0.00000000000E+00 0.  1.
</event>
<event>
 4    1  0.2048241E+005  0.2280875E+02  0.7546771E-02  0.1494914E+00
          2   -1    0    0  502    0  0.00000000000E+00  0.00000000000E+00  0.55741235861E+02  0.55741235861E+02  0.00000000000E+00 0. -1.
         21   -1    0    0  503  502 -0.00000000000E+00 -0.00000000000E+00 -0.21505784220E+02  0.21505784220E+02  0.00000000000E+00 0.  1.
          2    1    1    2  501    0  0.12560266336E+02 -0.19038874497E+02  0.46175819116E+02  0.51501896116E+02  0.00000000000E+00 0. -1.
         21    1    1    2  503  501 -0.12560266336E+02  0.19038874497E+02 -0.11940367475E+02  0.25745123965E+02  0.00000000000E+00 0.  1.
</event>
<event>
 4    1  0.2048241E+005  0.2622391E+02  0.7546771E-02  0.1455564E+00
          2   -1    0    0  503    0  0.00000000000E+00  0.00000000000E+00  0.15341787994E+04  0.15341787994E+04  0.00000000000E+00 0.  1.
         21   -1    0    0  501  502 -0.00000000000E+00 -0.00000000000E+00 -0.78380118385E+01  0.78380118385E+01  0.00000000000E+00 0.  1.
          2    1    1    2  501    0  0.26106557168E+02 -0.24780813361E+01  0.15118076270E+04  0.15120350506E+04  0.00000000000E+00 0.  1.
         21    1    1    2  503  502 -0.26106557168E+02  0.24780813361E+01  0.14533160553E+02  0.29981760621E+02  0.00000000000E+00 0.  1.
</event>
<event>
 4    1  0.2048241E+005  0.2923489E+02  0.7546771E-02  0.1426364E+00
          2   -1    0    0  503    0  0.00000000000E+00  0.00000000000E+00  0.16588814840E+03  0.16588814840E+03  0.00000000000E+00 0. -1.
         21   -1    0    0  501  502 -0.00000000000E+00 -0.00000000000E+00 -0.53923442251E+01  0.53923442251E+01  0.00000000000E+00 0. -1.
          2    1    1    2  501    0 -0.22746106040E+01 -0.29146270927E+02  0.98322949242E+02  0.10257719683E+03  0.00000000000E+00 0. -1.
         21    1    1    2  503  502  0.22746106040E+01  0.29146270927E+02  0.62172854934E+02  0.68703295794E+02  0.00000000000E+00 0. -1.
</event>
<event>
 4    1  0.2048241E+005  0.2467680E+02  0.7546771E-02  0.1472452E+00
          2   -1    0    0  503    0  0.00000000000E+00  0.00000000000E+00  0.26219206892E+04  0.26219206892E+04  0.00000000000E+00 0. -1.
         21   -1    0    0  501  502 -0.00000000000E+00 -0.00000000000E+00 -0.23614131321E+00  0.23614131321E+00  0.00000000000E+00 0. -1.
          2    1    1    2  501    0 -0.14292344544E+02 -0.20116497498E+02  0.11425685974E+04  0.11428350468E+04  0.00000000000E+00 0. -1.
         21    1    1    2  503  502  0.14292344544E+02  0.20116497498E+02  0.14791159505E+04  0.14793217837E+04  0.00000000000E+00 0. -1.
</event>
<event>
 4    1  0.2048241E+005  0.2916463E+02  0.7546771E-02  0.1426997E+00
          2   -1    0    0  502    0  0.00000000000E+00  0.00000000000E+00  0.20845730657E+04  0.20845730657E+04  0.00000000000E+00 0. -1.
         21   -1    0    0  503  502 -0.00000000000E+00 -0.00000000000E+00 -0.85193533384E+00  0.85193533384E+00  0.00000000000E+00 0. -1.
          2    1    1    2  501    0  0.22950518438E+02 -0.17995810728E+02  0.17945308455E+04  0.17947678209E+04  0.00000000000E+00 0. -1.
         21    1    1    2  503  501 -0.22950518438E+02  0.17995810728E+02  0.28919028490E+03  0.29065718016E+03  0.00000000000E+00 0. -1.
</event>
<event>
 4    1  0.2048241E+005  0.3046958E+02  0.7546771E-02  0.1415559E+00
          2   -1    0    0  503    0  0.00000000000E+00  0.00000000000E+00  0.33216103464E+02  0.33216103464E+02  0.00000000000E+00 0. -1.
         21   -1    0    0  501  502 -0.00000000000E+00 -0.00000000000E+00 -0.66711891932E+02  0.66711891932E+02  0.00000000000E+00 0.  1.
          2    1    1    2  501    0  0.14727079246E+01 -0.30433965433E+02  0.21337388682E+02  0.37197839674E+02  0.00000000000E+00 0. -1.
         21    1    1    2  503  502 -0.14727079246E+01  0.30433965433E+02 -0.54833177150E+02  0.62730155722E+02  0.00000000000E+00 0.  1.
</event>
<event>
 4    1  0.2048241E+005  0.4473189E+02  0.7546771E-02  0.1322786E+00
          2   -1    0    0  503    0  0.00000000000E+00  0.00000000000E+00  0.49259929757E+03  0.49259929757E+03  0.00000000000E+00 0. -1.
         21   -1    0    0  501  502 -0.00000000000E+00 -0.00000000000E+00 -0.25205386378E+02  0.25205386378E+02  0.00000000000E+00 0. -1.
          2    1    1    2  501    0 -0.44517086052E+02  0.43784290074E+01  0.47082149748E+03  0.47294167091E+03  0.00000000000E+00 0. -1.
         21    1    1    2  503  502  0.44517086052E+02 -0.43784290074E+01 -0.34275862894E+01  0.44863013039E+02  0.00000000000E+00 0. -1.
</event>
<event>
 4    1  0.2048241E+005  0.2049265E+02  0.7546771E-02  0.1526633E+00
          2   -1    0    0  503    0  0.00000000000E+00  0.00000000000E+00  0.73573725040E+03  0.73573725040E+03  0.00000000000E+00 0.  1.
         21   -1    0    0  501  502 -0.00000000000E+00 -0.00000000000E+00 -0.20936049346E+01  0.20936049346E+01  0.00000000000E+00 0.  1.
          2    1    1    2  501    0  0.39665234985E+01 -0.20105112181E+02  0.68145428017E+03  0.68176233748E+03  0.00000000000E+00 0.  1.
         21    1    1    2  503  502 -0.39665234985E+01  0.20105112181E+02  0.52189365300E+02  0.56068517859E+02  0.00000000000E+00 0.  1.
</event>
<event>
 4    1  0.2048241E+005  0.2931872E+02  0.7546771E-02  0.1425611E+00
          2   -1    0    0  502    0  0.00000000000E+00  0.00000000000E+00  0.54302919011E+03  0.54302919011E+03  0.00000000000E+00 0.  1.
         21   -1    0    0  503  502 -0.00000000000E+00 -0.00000000000E+00 -0.85679328033E+01  0.85679328033E+01  0.00000000000E+00 0.  1.
          2    1    1    2  501    0  0.10786717483E+02 -0.27262321440E+02  0.51625203209E+03  0.51708388882E+03  0.00000000000E+00 0.  1.
         21    1    1    2  503  501 -0.10786717483E+02  0.27262321440E+02  0.18209225217E+02  0.34513234090E+02  0.00000000000E+00 0.  1.
</event>
<event>
 4    1  0.2048241E+005  0.6046859E+02  0.7546771E-02  0.1258249E+00
          2   -1    0    0  503    0  0.00000000000E+00  0.00000000000E+00  0.11713265106E+04  0.11713265106E+04  0.00000000000E+00 0.  1.
         21   -1    0    0  501  502 -0.00000000000E+00 -0.00000000000E+00 -0.10553699571E+02  0.10553699571E+02  0.00000000000E+00 0. -1.
          2    1    1    2  501    0  0.22104369366E+02 -0.56283632651E+02  0.10762884777E+04  0.10779857780E+04  0.00000000000E+00 0.  1.
         21    1    1    2  503  502 -0.22104369366E+02  0.56283632651E+02  0.84484333375E+02  0.10389443217E+03  0.00000000000E+00 0. -1.
</event>
<event>
 4    1  0.2048241E+005  0.4335694E+02  0.7546771E-02  0.1329863E+00
          2   -1    0    0  502    0  0.00000000000E+00  0.00000000000E+00  0.16587132045E+04  0.16587132045E+04  0.00000000000E+00 0. -1.
         21   -1    0    0  503  502 -0.00000000000E+00 -0.00000000000E+00 -0.30147520313E+02  0.30147520313E+02  0.00000000000E+00 0.  1.
          2    1    1    2  501    0  0.23411904395E+02  0.36492564389E+02  0.16426892938E+04  0.16432613731E+04  0.00000000000E+00 0. -1.
         21    1    1    2  503  501 -0.23411904395E+02 -0.36492564389E+02 -0.14123609616E+02  0.45599351658E+02  0.00000000000E+00 0.  1.
</event>
<event>
 4    1  0.2048241E+005  0.3337240E+02  0.7546771E-02  0.1392381E+00
          2   -1    0    0  502    0  0.00000000000E+00  0.00000000000E+00  0.12180605849E+04  0.12180605849E+04  0.00000000000E+00 0. -1.
         21   -1    0    0  503  502 -0.00000000000E+00 -0.00000000000E+00 -0.13327960491E+03  0.13327960491E+03  0.00000000000E+00 0.  1.
          2    1    1    2  501    0  0.19153339137E+02  0.27328859020E+02  0.12157389511E+04  0.12161969060E+04  0.00000000000E+00 0. -1.
         21    1    1    2  503  501 -0.19153339137E+02 -0.27328859020E+02 -0.13095797116E+03  0.13514328376E+03  0.00000000000E+00 0.  1.
</event>
<event>
 4    1  0.2048241E+005  0.2032852E+02  0.7546771E-02  0.1529072E+00
          2   -1    0    0  503    0  0.00000000000E+00  0.00000000000E+00  0.48117777159E+03  0.48117777159E+03  0.00000000000E+00 0. -1.
         21   -1    0    0  501  502 -0.00000000000E+00 -0.00000000000E+00 -0.62736842261E+01  0.62736842261E+01  0.00000000000E+00 0. -1.
          2    1    1    2  501    0 -0.13496298471E+02  0.15201924426E+02  0.46388182320E+03  0.46432703396E+03  0.00000000000E+00 0. -1.
         21    1    1    2  503  502  0.13496298471E+02 -0.15201924426E+02  0.11022264171E+02  0.23124421855E+02  0.00000000000E+00 0. -1.
</event>
<event>
 4    1  0.2048241E+005  0.3154696E+02  0.7546771E-02  0.1406613E+00
          2   -1    0    0  503    0  0.00000000000E+00  0.00000000000E+00  0.89864179638E+02  0.89864179638E+02  0.00000000000E+00 0.  1.
         21   -1    0    0  501  502 -0.00000000000E+00 -0.00000000000E+00 -0.13596596570E+02  0.13596596570E+02  0.00000000000E+00 0. -1.
          2    1    1    2  501    0 -0.29801835156E+02  0.10347037730E+02  0.60413124411E+02  0.68153915291E+02  0.00000000000E+00 0.  1.
         21    1    1    2  503  502  0.29801835156E+02 -0.10347037730E+02  0.15854458657E+02  0.35306860916E+02  0.00000000000E+00 0. -1.
</event>
<event>
 4    1  0.2048241E+005  0.3117790E+02  0.7546771E-02  0.1409629E+00
          2   -1    0    0  503    0  0.00000000000E+00  0.00000000000E+00  0.12246067453E+04  0.12246067453E+04  0.00000000000E+00 0.  1.
         21   -1    0    0  501  502 -0.00000000000E+00 -0.00000000000E+00 -0.23402693503E+01  0.23402693503E+01  0.00000000000E+00 0.  1.
          2    1    1    2  501    0  0.30950962913E+02 -0.37549020058E+01  0.11098306950E+04  0.11102685409E+04  0.00000000000E+00 0.  1.
         21    1    1    2  503  502 -0.30950962913E+02  0.37549020058E+01  0.11243578098E+03  0.11667847376E+03  0.00000000000E+00 0.  1.
</event>
<event>
 4    1  0.2048241E+005  0.2465238E+02  0.7546771E-02  0.1472730E+00
          2   -1    0    0  502    0  0.00000000000E+00  0.00000000000E+00  0.13874189026E+03  0.13874189026E+03  0.00000000000E+00 0. -1.
         21   -1    0    0  503  502 -0.00000000000E+00 -0.00000000000E+00 -0.14897521394E+02  0.14897521394E+02  0.00000000000E+00 0. -1.
          2    1    1    2  501    0  0.12431402107E+02 -0.21288501285E+02  0.12646751183E+03  0.12884786221E+03  0.00000000000E+00 0. -1.
         21    1    1    2  503  501 -0.12431402107E+02  0.21288501285E+02 -0.26231429644E+01  0.24791549454E+02  0.00000000000E+00 0. -1.
</event>
<event>
 4    1  0.2048241E+005  0.2374375E+02  0.7546771E-02  0.1483364E+00
          2   -1    0    0  502    0  0.00000000000E+00  0.00000000000E+00  0.39647651491E+02  0.39647651491E+02  0.00000000000E+00 0.  1.
         21   -1    0    0  503  502 -0.00000000000E+00 -0.00000000000E+00 -0.24289703678E+02  0.24289703678E+02  0.00000000000E+00 0. -1.
          2    1    1    2  501    0 -0.11167582127E+02  0.20953534659E+02  0.28263222384E+02  0.36913076880E+02  0.00000000000E+00 0.  1.
         21    1    1    2  503  501  0.11167582127E+02 -0.20953534659E+02 -0.12905274570E+02  0.27024278288E+02  0.00000000000E+00 0. -1.
</event>
<event>
 4    1  0.2048241E+005  0.2724389E+02  0.7546771E-02  0.1445173E+00
          2   -1    0    0  502    0  0.00000000000E+00  0.00000000000E+00  0.12565773123E+04  0.12565773123E+04  0.00000000000E+00 0. -1.
         21   -1    0    0  503  502 -0.00000000000E+00 -0.00000000000E+00 -0.18395134292E+01  0.18395134292E+01  0.00000000000E+00 0. -1.
          2    1    1    2  501    0 -0.27160811511E+02 -0.21260024131E+01  0.11458059854E+04  0.11461298293E+04  0.00000000000E+00 0. -1.
         21    1    1    2  503  501  0.27160811511E+02  0.21260024131E+01  0.10893181353E+03  0.11228699643E+03  0.00000000000E+00 0. -1.
</event>
<event>
 4    1  0.2048241E+005  0.4111167E+02  0.7546771E-02  0.1342092E+00
          2   -1    0    0  503    0  0.00000000000E+00  0.00000000000E+00  0.10390159141E+04  0.10390159141E+04  0.00000000000E+00 0.  1.
         21   -1    0    0  501  502 -0.00000000000E+00 -0.00000000000E+00 -0.21340014152E+01  0.21340014152E+01  0.00000000000E+00 0.  1.
          2    1    1    2  501    0  0.34935706139E+02 -0.21671773113E+02  0.77225642248E+03  0.77334995402E+03  0.00000000000E+00 0.  1.
         21    1    1    2  503  502 -0.34935706139E+02  0.21671773113E+02  0.26462549019E+03  0.26779996148E+03  0.00000000000E+00 0.  1.
</event>
<event>
 4    1  0.2048241E+005  0.2127192E+02  0.7546771E-02  0.1515418E+00
          2   -1    0    0  503    0  0.00000000000E+00  0.00000000000E+00  0.41876671058E+03  0.41876671058E+03  0.00000000000E+00 0. -1.
         21   -1    0    0  501  502 -0.00000000000E+00 -0.00000000000E+00 -0.31059764512E+01  0.31059764512E+01  0.00000000000E+00 0.  1.
          2    1    1    2  501    0 -0.21270496980E+02  0.24633506813E+00  0.37816835239E+03  0.37876615143E+03  0.00000000000E+00 0. -1.
         21    1    1    2  503  502  0.21270496980E+02 -0.24633506813E+00  0.37492381738E+02  0.43106535597E+02  0.00000000000E+00 0.  1.
</event>
<event>
 4    1  0.2048241E+005  0.4093348E+02  0.7546771E-02  0.1343101E+00
          2   -1    0    0  502    0  0.00000000000E+00  0.00000000000E+00  0.21890369680E+04  0.21890369680E+04  0.00000000000E+00 0. -1.
         21   -1    0    0  503  502 -0.00000000000E+00 -0.00000000000E+00 -0.98796338780E+00  0.98796338780E+00  0.00000000000E+00 0. -1.
          2    1    1    2  501    0  0.38529335554E+02 -0.13821728808E+02  0.16137192340E+04  0.16142383083E+04  0.00000000000E+00 0. -1.
         21    1    1    2  503  501 -0.38529335554E+02  0.13821728808E+02  0.57432977060E+03  0.57578662304E+03  0.00000000000E+00 0. -1.
</event>
<event>
 4    1  0.2048241E+005  0.2232031E+02  0.7546771E-02  0.1501214E+00
          2   -1    0    0  502    0  0.00000000000E+00  0.00000000000E+00  0.18147963300E+03  0.18147963300E+03  0.00000000000E+00 0. -1.
         21   -1    0    0  503  502 -0.00000000000E+00 -0.00000000000E+00 -0.62126478976E+01  0.62126478976E+01  0.00000000000E+00 0.  1.
          2    1    1    2  501    0 -0.11316112314E+02 -0.19239075120E+02  0.15774406748E+03  0.15931537037E+03  0.00000000000E+00 0. -1.
         21    1    1    2  503  501  0.11316112314E+02  0.19239075120E+02  0.17522917622E+02  0.28376910532E+02  0.00000000000E+00 0.  1.
</event>
<event>
 4    1  0.2048241E+005  0.2159310E+02  0.7546771E-02  0.1510963E+00
          2   -1    0    0  503    0  0.00000000000E+00  0.00000000000E+00  0.56462771393E+02  0.56462771393E+02  0.00000000000E+00 0.  1.
         21   -1    0    0  501  502 -0.00000000000E+00 -0.00000000000E+00 -0.52057923263E+02  0.52057923263E+02  0.00000000000E+00 0. -1.
          2    1    1    2  501    0  0.19009639280E+02  0.10241861786E+02  0.51973436905E+02  0.56280549590E+02  0.00000000000E+00 0.  1.
         21    1    1    2  503  502 -0.19009639280E+02 -0.10241861786E+02 -0.47568588775E+02  0.52240145065E+02  0.00000000000E+00 0. -1.
</event>
<event>
 4    1  0.2048241E+005  0.2212427E+02  0.7546771E-02  0.1503798E+00
          2   -1    0    0  502    0  0.00000000000E+00  0.00000000000E+00  0.98048538232E+03  0.98048538232E+03  0.00000000000E+00 0. -1.
         21   -1    0    0  503  502 -0.00000000000E+00 -0.00000000000E+00 -0.12907965989E+02  0.12907965989E+02  0.00000000000E+00 0.  1.
          2    1    1    2  501    0  0.12798179198E+02 -0.18046882669E+02  0.97078560708E+03  0.97103768119E+03  0.00000000000E+00 0. -1.
         21    1    1    2  503  501 -0.12798179198E+02  0.18046882669E+02 -0.32081907477E+01  0.22355667127E+02  0.00000000000E+00 0.  1.
</event>
<event>
 4    1  0.2048241E+005  0.2872110E+02  0.7546771E-02  0.1431045E+00
          2   -1    0    0  503    0  0.00000000000E+00  0.00000000000E+00  0.13765417668E+04  0.13765417668E+04  0.00000000000E+00 0.  1.
         21   -1    0    0  501  502 -0.00000000000E+00 -0.00000000000E+00 -0.66605558723E+00  0.66605558723E+00  0.00000000000E+00 0.  1.
          2    1    1    2  501    0 -0.19090797739E+01  0.28657579169E+02  0.90600986093E+03  0.90646498528E+03  0.00000000000E+00 0.  1.
         21    1    1    2  503  502  0.19090797739E+01 -0.28657579169E+02  0.46986585031E+03  0.47074283714E+03  0.00000000000E+00 0.  1.
</event>
<event>
 4    1  0.2048241E+005  0.2738723E+02  0.7546771E-02  0.1443757E+00
          2   -1    0    0  503    0  0.00000000000E+00  0.00000000000E+00  0.17937350477E+04  0.17937350477E+04  0.00000000000E+00 0.  1.
         21   -1    0    0  501  502 -0.00000000000E+00 -0.00000000000E+00 -0.70983048747E+01  0.70983048747E+01  0.00000000000E+00 0. -1.
          2    1    1    2  501    0 -0.24735722696E+02 -0.11756029694E+02  0.17668110956E+04  0.17670233467E+04  0.00000000000E+00 0.  1.
         21    1    1    2  503  502  0.24735722696E+02  0.11756029694E+02  0.19825647276E+02  0.33810005935E+02  0.00000000000E+00 0. -1.
</event>
<event>
 4    1  0.2048241E+005  0.2148180E+02  0.7546771E-02  0.1512496E+00
          2   -1    0    0  503    0  0.00000000000E+00  0.00000000000E+00  0.15041928938E+04  0.15041928938E+04  0.00000000000E+00 0.  1.
         21   -1    0    0  501  502 -0.00000000000E+00 -0.00000000000E+00 -0.63194465831E+01  0.63194465831E+01  0.00000000000E+00 0. -1.
          2    1    1    2  501    0 -0.44827698637E+01 -0.21008864833E+02  0.14856322749E+04  0.14857875769E+04  0.00000000000E+00 0.  1.
         21    1    1    2  503  502  0.44827698637E+01  0.21008864833E+02  0.12241172342E+02  0.24724763447E+02  0.00000000000E+00 0. -1.
</event>
<event>
 4    1  0.2048241E+005  0.2407449E+02  0.7546771E-02  0.1479429E+00
          2   -1    0    0  503    0  0.00000000000E+00  0.00000000000E+00  0.70995751086E+03  0.70995751086E+03  0.00000000000E+00 0.  1.
         21   -1    0    0  501  502 -0.00000000000E+00 -0.00000000000E+00 -0.93011411772E+00  0.93011411772E+00  0.00000000000E+00 0.  1.
          2    1    1    2  501    0 -0.16773611887E+01  0.24015987148E+02  0.47881786583E+03  0.47942270473E+03  0.00000000000E+00 0.  1.
         21    1    1    2  503  502  0.16773611887E+01 -0.24015987148E+02  0.23020953091E+03  0.23146492024E+03  0.00000000000E+00 0.  1.
</event>
<event>
 4    1  0.2048241E+005  0.3242779E+02  0.7546771E-02  0.1399608E+00
          2   -1    0    0  503    0  0.00000000000E+00  0.00000000000E+00  0.19998894657E+03  0.19998894657E+03  0.00000000000E+00 0. -1.
         21   -1    0    0  501  502 -0.00000000000E+00 -0.00000000000E+00 -0.69866946218E+01  0.69866946218E+01  0.00000000000E+00 0.  1.
          2    1    1    2  501    0 -0.27387583643E+02 -0.17363227060E+02  0.14797658709E+03  0.15148805801E+03  0.00000000000E+00 0. -1.
         21    1    1    2  503  502  0.27387583643E+02  0.17363227060E+02  0.45025664856E+02  0.55487583183E+02  0.00000000000E+00 0.  1.
</event>
<event>
 4    1  0.2048241E+005  0.2894081E+02  0.7546771E-02  0.1429029E+00
          2   -1    0    0  502    0  0.00000000000E+00  0.00000000000E+00  0.35944280311E+03  0.35944280311E+03  0.00000000000E+00 0. -1.
         21   -1    0    0  503  502 -0.00000000000E+00 -0.00000000000E+00 -0.18070270354E+02  0.18070270354E+02  0.00000000000E+00 0.  1.
          2    1    1    2  501    0  0.96408736388E+01 -0.27287796751E+02  0.34685268989E+03  0.34805798192E+03  0.00000000000E+00 0. -1.
         21    1    1    2  503  501 -0.96408736388E+01  0.27287796751E+02 -0.54801571264E+01  0.29455091549E+02  0.00000000000E+00 0.  1.
</event>
<event>
 4    1  0.2048241E+005  0.3351965E+02  0.7546771E-02  0.1391280E+00
          2   -1    0    0  503    0  0.00000000000E+00  0.00000000000E+00  0.78542187353E+03  0.78542187353E+03  0.00000000000E+00 0. -1.
         21   -1    0    0  501  502 -0.00000000000E+00 -0.00000000000E+00 -0.14379565255E+01  0.14379565255E+01  0.00000000000E+00 0. -1.
          2    1    1    2  501    0 -0.32283110826E+02 -0.90204200254E+01  0.42027161237E+03  0.42160620890E+03  0.00000000000E+00 0. -1.
         21    1    1    2  503  502  0.32283110826E+02  0.90204200254E+01  0.36371230463E+03  0.36525362115E+03  0.00000000000E+00 0. -1.
</event>
<event>
 4    1  0.2048241E+005  0.3802738E+02  0.7546771E-02  0.1360450E+00
          2   -1    0    0  502    0  0.00000000000E+00  0.00000000000E+00  0.77986296315E+03  0.77986296315E+03  0.00000000000E+00 0. -1.
         21   -1    0    0  503  502 -0.00000000000E+00 -0.00000000000E+00 -0.20846440245E+02  0.20846440245E+02  0.00000000000E+00 0.  1.
          2    1    1    2  501    0 -0.37374430465E+02 -0.70166732135E+01  0.76164271939E+03  0.76259144616E+03  0.00000000000E+00 0. -1.
         21    1    1    2  503  501  0.37374430465E+02  0.70166732135E+01 -0.26261964887E+01  0.38117957233E+02  0.00000000000E+00 0.  1.
</event>
<event>
 4    1  0.2048241E+005  0.2009960E+02  0.7546771E-02  0.1532519E+00
          2   -1    0    0  503    0  0.00000000000E+00  0.00000000000E+00  0.51412420357E+01  0.51412420357E+01  0.00000000000E+00 0.  1.
         21   -1    0    0  501  502 -0.00000000000E+00 -0.00000000000E+00 -0.92035767374E+02  0.92035767374E+02  0.00000000000E+00 0. -1.
          2    1    1    2  501    0 -0.62675919733E+01  0.19097416932E+02 -0.24868175166E+02  0.31975305764E+02  0.00000000000E+00 0.  1.
         21    1    1    2  503  502  0.62675919733E+01 -0.19097416932E+02 -0.62026350173E+02  0.65201703646E+02  0.00000000000E+00 0. -1.
</event>
<event>
 4    1  0.2048241E+005  0.2321760E+02  0.7546771E-02  0.1489784E+00
          2   -1    0    0  503    0  0.00000000000E+00  0.00000000000E+00  0.64009279761E+01  0.64009279761E+01  0.00000000000E+00 0. -1.
         21   -1    0    0  501  502 -0.00000000000E+00 -0.00000000000E+00 -0.84345946002E+02  0.84345946002E+02  0.00000000000E+00 0. -1.
          2    1    1    2  501    0  0.17622721248E+02  0.15116108550E+02 -0.37187809644E+02  0.43840508984E+02  0.00000000000E+00 0. -1.
         21    1    1    2  503  502 -0.17622721248E+02 -0.15116108550E+02 -0.40757208382E+02  0.46906364994E+02  0.00000000000E+00 0. -1.
</event>
<event>
 4    1  0.2048241E+005  0.2424880E+02  0.7546771E-02  0.1477385E+00
          2   -1    0    0  503    0  0.00000000000E+00  0.00000000000E+00  0.11358768404E+04  0.11358768404E+04  0.00000000000E+00 0. -1.
         21   -1    0    0  501  502 -0.00000000000E+00 -0.00000000000E+00 -0.29554897890E+01  0.29554897890E+01  0.00000000000E+00 0. -1.
          2    1    1    2  501    0 -0.21758542869E+02 -0.10703740647E+02  0.10836103555E+04  0.10838816388E+04  0.00000000000E+00 0. -1.
         21    1    1    2  503  502  0.21758542869E+02  0.10703740647E+02  0.49310995092E+02  0.54950691429E+02  0.00000000000E+00 0. -1.
</event>
<event>
 4    1  0.2048241E+005  0.3572207E+02  0.7546771E-02  0.1375557E+00
          2   -1    0    0  503    0  0.00000000000E+00  0.00000000000E+00  0.55637066880E+03  0.55637066880E+03  0.00000000000E+00 0.  1.
         21   -1    0    0  501  502 -0.00000000000E+00 -0.00000000000E+00 -0.10904288455E+03  0.10904288455E+03  0.00000000000E+00 0.  1.
          2    1    1    2  501    0  0.11878081938E+02  0.33689424485E+02  0.55285307901E+03  0.55400595044E+03  0.00000000000E+00 0.  1.
         21    1    1    2  503  502 -0.11878081938E+02 -0.33689424485E+02 -0.10552529476E+03  0.11140760291E+03  0.00000000000E+00 0.  1.
</event>
<event>
 4    1  0.2048241E+005  0.2484362E+02  0.7546771E-02  0.1470560E+00
          2   -1    0    0  503    0  0.00000000000E+00  0.00000000000E+00  0.90266723939E+01  0.90266723939E+01  0.00000000000E+00 0. -1.
         21   -1    0    0  501  502 -0.00000000000E+00 -0.00000000000E+00 -0.13830532079E+03  0.13830532079E+03  0.00000000000E+00 0.  1.
          2    1    1    2  501    0  0.54820852095E+01 -0.24231224456E+02 -0.12257809201E+02  0.27703057291E+02  0.00000000000E+00 0. -1.
         21    1    1    2  503  502 -0.54820852095E+01  0.24231224456E+02 -0.11702083919E+03  0.11962893589E+03  0.00000000000E+00 0.  1.
</event>
<event>
 4    1  0.2048241E+005  0.2803150E+02  0.7546771E-02  0.1437513E+00
          2   -1    0    0  502    0  0.00000000000E+00  0.00000000000E+00  0.42567763839E+01  0.42567763839E+01  0.00000000000E+00 0. -1.
         21   -1    0    0  503  502 -0.00000000000E+00 -0.00000000000E+00 -0.36474861975E+03  0.36474861975E+03  0.00000000000E+00 0. -1.
          2    1    1    2  501    0  0.65268233731E+01 -0.27261066312E+02 -0.50578316981E+02  0.57826735239E+02  0.00000000000E+00 0. -1.
         21    1    1    2  503  501 -0.65268233731E+01  0.27261066312E+02 -0.30991352639E+03  0.31117866090E+03  0.00000000000E+00 0. -1.
</event>
<event>
 4    1  0.2048241E+005  0.2001519E+02  0.7546771E-02  0.1533804E+00
          2   -1    0    0  503    0  0.00000000000E+00  0.00000000000E+00  0.24967387675E+03  0.24967387675E+03  0.00000000000E+00 0. -1.
         21   -1    0    0  501  502 -0.00000000000E+00 -0.00000000000E+00 -0.39630039005E+01  0.39630039005E+01  0.00000000000E+00 0. -1.
          2    1    1    2  501    0  0.78881064541E+01  0.18395258020E+02  0.22068863272E+03  0.22159440506E+03  0.00000000000E+00 0. -1.
         21    1    1    2  503  502 -0.78881064541E+01 -0.18395258020E+02  0.25022240131E+02  0.32042475594E+02  0.00000000000E+00 0. -1.
</event>
<event>
 4    1  0.2048241E+005  0.2008224E+02  0.7546771E-02  0.1532782E+00
          2   -1    0    0  502    0  0.00000000000E+00  0.00000000000E+00  0.11251127615E+04  0.11251127615E+04  0.00000000000E+00 0. -1.
         21   -1    0    0  503  502 -0.00000000000E+00 -0.00000000000E+00 -0.11001100993E+01  0.11001100993E+01  0.00000000000E+00 0.  1.
          2    1    1    2  501    0  0.37310399107E+01  0.19732608671E+02  0.10243606414E+04  0.10245574753E+04  0.00000000000E+00 0. -1.
         21    1    1    2  503  501 -0.37310399107E+01 -0.19732608671E+02  0.99652010058E+02  0.10165539638E+03  0.00000000000E+00 0.  1.
</event>
<event>
 4    1  0.2048241E+005  0.2186206E+02  0.7546771E-02  0.1507304E+00
          2   -1    0    0  503    0  0.00000000000E+00  0.00000000000E+00  0.40156077673E+03  0.40156077673E+03  0.00000000000E+00 0.  1.
         21   -1    0    0  501  502 -0.00000000000E+00 -0.00000000000E+00 -0.60876940223E+01  0.60876940223E+01  0.00000000000E+00 0.  1.
          2    1    1    2  501    0 -0.18138200945E+01  0.21786683561E+02  0.38055290176E+03  0.38118035175E+03  0.00000000000E+00 0.  1.
         21    1    1    2  503  502  0.18138200945E+01 -0.21786683561E+02  0.14920180949E+02  0.26468119001E+02  0.00000000000E+00 0.  1.
</event>
<event>
 4    1  0.2048241E+005  0.2127665E+02  0.7546771E-02  0.1515352E+00
          2   -1    0    0  503    0  0.00000000000E+00  0.00000000000E+00  0.41886210579E+03  0.41886210579E+03  0.00000000000E+00 0. -1.
         21   -1    0    0  501  502 -0.00000000000E+00 -0.00000000000E+00 -0.12907764755E+01  0.12907764755E+01  0.00000000000E+00 0. -1.
          2    1    1    2  501    0  0.86140355856E+01  0.19454923101E+02  0.29352072210E+03  0.29429085943E+03  0.00000000000E+00 0. -1.
         21    1    1    2  503  502 -0.86140355856E+01 -0.19454923101E+02  0.12405060721E+03  0.12586202283E+03  0.00000000000E+00 0. -1.
</event>
<event>
 4    1  0.2048241E+005  0.2891833E+02  0.7546771E-02  0.1429235E+00
          2   -1    0    0  502    0  0.00000000000E+00  0.00000000000E+00  0.36311274436E+02  0.36311274436E+02  0.00000000000E+00 0.  1.
         21   -1    0    0  503  502 -0.00000000000E+00 -0.00000000000E+00 -0.24035764918E+02  0.24035764918E+02  0.00000000000E+00 0.  1.
          2    1    1    2  501    0 -0.15833842376E+02  0.24198337418E+02 -0.32707155276E-01  0.28918353479E+02  0.00000000000E+00 0.  1.
         21    1    1    2  503  501  0.15833842376E+02 -0.24198337418E+02  0.12308216674E+02  0.31428685876E+02  0.00000000000E+00 0.  1.
</event>
<event>
 4    1  0.2048241E+005  0.2044502E+02  0.7546771E-02  0.1527338E+00
          2   -1    0    0  502    0  0.00000000000E+00  0.00000000000E+00  0.92607839596E+03  0.92607839596E+03  0.00000000000E+00 0. -1.
         21   -1    0    0  503  502 -0.00000000000E+00 -0.00000000000E+00 -0.31327707083E+02  0.31327707083E+02  0.00000000000E+00 0. -1.
          2    1    1    2  501    0 -0.20441309366E+02 -0.38930908388E+00  0.92261734823E+03  0.92284384916E+03  0.00000000000E+00 0. -1.
         21    1    1    2  503  501  0.20441309366E+02  0.38930908388E+00 -0.27866659348E+02  0.34562253881E+02  0.00000000000E+00 0. -1.
</event>
<event>
 4    1  0.2048241E+005  0.3210601E+02  0.7546771E-02  0.1402137E+00
          2   -1    0    0  503    0  0.00000000000E+00  0.00000000000E+00  0.16448902931E+02  0.16448902931E+02  0.00000000000E+00 0.  1.
         21   -1    0    0  501  502 -0.00000000000E+00 -0.00000000000E+00 -0.22724727765E+03  0.22724727765E+03  0.00000000000E+00 0. -1.
          2    1    1    2  501    0 -0.47295285953E+01 -0.31755743860E+02 -0.17039298185E+01  0.32151191046E+02  0.00000000000E+00 0.  1.
         21    1    1    2  503  502  0.47295285953E+01  0.31755743860E+02 -0.20909444490E+03  0.21154498953E+03  0.00000000000E+00 0. -1.
</event>
<event>
 4    1  0.2048241E+005  0.2568898E+02  0.7546771E-02  0.1461241E+00
          2   -1    0    0  503    0  0.00000000000E+00  0.00000000000E+00  0.41474399851E+03  0.41474399851E+03  0.00000000000E+00 0. -1.
         21   -1    0    0  501  502 -0.00000000000E+00 -0.00000000000E+00 -0.30465075639E+01  0.30465075639E+01  0.00000000000E+00 0.  1.
          2    1    1    2  501    0  0.21172708192E+02 -0.14547852962E+02  0.35023005245E+03  0.35117091741E+03  0.00000000000E+00 0. -1.
         21    1    1    2  503  502 -0.21172708192E+02  0.14547852962E+02  0.61467438498E+02  0.66619588662E+02  0.00000000000E+00 0.  1.
</event>
<event>
 4    1  0.2048241E+005  0.3578652E+02  0.7546771E-02  0.1375117E+00
          2   -1    0    0  503    0  0.00000000000E+00  0.00000000000E+00  0.63567662006E+02  0.63567662006E+02  0.00000000000E+00 0.  1.
         21   -1    0    0  501  502 -0.00000000000E+00 -0.00000000000E+00 -0.25336080381E+02  0.25336080381E+02  0.00000000000E+00 0.  1.
          2    1    1    2  501    0  0.24729054247E+02 -0.25867906882E+02  0.39233598106E+02  0.53103200946E+02  0.00000000000E+00 0.  1.
         21    1    1    2  503  502 -0.24729054247E+02  0.25867906882E+02 -0.10020164806E+01  0.35800541441E+02  0.00000000000E+00 0.  1.
</event>
<event>
 4    1  0.2048241E+005  0.2078163E+02  0.7546771E-02  0.1522406E+00
          2   -1    0    0  503    0  0.00000000000E+00  0.00000000000E+00  0.56088354630E+02  0.56088354630E+02  0.00000000000E+00 0. -1.
         21   -1    0    0  501  502 -0.00000000000E+00 -0.00000000000E+00 -0.20208233400E+02  0.20208233400E+02  0.00000000000E+00 0.  1.
          2    1    1    2  501    0  0.40655723264E+01  0.20380072806E+02  0.47953115267E+02  0.52262582311E+02  0.00000000000E+00 0. -1.
         21    1    1    2  503  502 -0.40655723264E+01 -0.20380072806E+02 -0.12072994037E+02  0.24034005719E+02  0.00000000000E+00 0.  1.
</event>
<event>
 4    1  0.2054721E+005  0.2623526E+02  0.7546771E-02  0.1455445E+00
          2   -1    0    0  502    0  0.00000000000E+00  0.00000000000E+00  0.92108913194E+03  0.92108913194E+03  0.00000000000E+00 0.  1.
         21   -1    0    0  503  502 -0.00000000000E+00 -0.00000000000E+00 -0.67106429347E+02  0.67106429347E+02  0.00000000000E+00 0. -1.
          2    1    1    2  501    0  0.28819920836E+01 -0.26076480705E+02  0.91833044854E+03  0.91870512214E+03  0.00000000000E+00 0.  1.
         21    1    1    2  503  501 -0.28819920836E+01  0.26076480705E+02 -0.64347745949E+02  0.69490439149E+02  0.00000000000E+00 0. -1.
</event>
<event>
 4    1  0.2048241E+005  0.2468175E+02  0.7546771E-02  0.1472395E+00
          2   -1    0    0  503    0  0.00000000000E+00  0.00000000000E+00  0.13356565212E+02  0.13356565212E+02  0.00000000000E+00 0. -1.
         21   -1    0    0  501  502 -0.00000000000E+00 -0.00000000000E+00 -0.70737423424E+02  0.70737423424E+02  0.00000000000E+00 0.  1.
          2    1    1    2  501    0 -0.10947665038E+02  0.22120968567E+02 -0.36300803041E+01  0.24947266447E+02  0.00000000000E+00 0. -1.
         21    1    1    2  503  502  0.10947665038E+02 -0.22120968567E+02 -0.53750777908E+02  0.59146722190E+02  0.00000000000E+00 0.  1.
</event>
<event>
 4    1  0.2048241E+005  0.2012489E+02  0.7546771E-02  0.1532135E+00
          2   -1    0    0  503    0  0.00000000000E+00  0.00000000000E+00  0.95254090394E+03  0.95254090394E+03  0.00000000000E+00 0. -1.
         21   -1    0    0  501  502 -0.00000000000E+00 -0.00000000000E+00 -0.12527864483E+01  0.12527864483E+01  0.00000000000E+00 0. -1.
          2    1    1    2  501    0 -0.91864217752E+01 -0.17905894359E+02  0.86325416223E+03  0.86348871446E+03  0.00000000000E+00 0. -1.
         21    1    1    2  503  502  0.91864217752E+01  0.17905894359E+02  0.88033955263E+02  0.90304975926E+02  0.00000000000E+00 0. -1.
</event>
<event>
 4    1  0.2048241E+005  0.2191811E+02  0.7546771E-02  0.1506549E+00
          2   -1    0    0  502    0  0.00000000000E+00  0.00000000000E+00  0.33829457847E+03  0.33829457847E+03  0.00000000000E+00 0.  1.
         21   -1    0    0  503  502 -0.00000000000E+00 -0.00000000000E+00 -0.42225793134E+02  0.42225793134E+02  0.00000000000E+00 0.  1.
          2    1    1    2  501    0  0.28812855889E+01 -0.21727903355E+02  0.33506794506E+03  0.33578405471E+03  0.00000000000E+00 0.  1.
         21    1    1    2  503  501 -0.28812855889E+01  0.21727903355E+02 -0.38999159719E+02  0.44736316899E+02  0.00000000000E+00 0.  1.
</event>
<event>
 4    1  0.2048241E+005  0.3406684E+02  0.7546771E-02  0.1387245E+00
          2   -1    0    0  503    0  0.00000000000E+00  0.00000000000E+00  0.93411946386E+03  0.93411946386E+03  0.00000000000E+00 0. -1.
         21   -1    0    0  501  502 -0.00000000000E+00 -0.00000000000E+00 -0.16523443205E+01  0.16523443205E+01  0.00000000000E+00 0.  1.
          2    1    1    2  501    0 -0.74325580928E+01 -0.33246150467E+02  0.69928535464E+03  0.70011467393E+03  0.00000000000E+00 0. -1.
         21    1    1    2  503  502  0.74325580928E+01  0.33246150467E+02  0.23318176490E+03  0.23565713425E+03  0.00000000000E+00 0.  1.
</event>
<event>
 4    1  0.2048241E+005  0.3580053E+02  0.7546771E-02  0.1375021E+00
          2   -1    0    0  502    0  0.00000000000E+00  0.00000000000E+00  0.16183784308E+02  0.16183784308E+02  0.00000000000E+00 0.  1.
         21   -1    0    0  503  502 -0.00000000000E+00 -0.00000000000E+00 -0.38416488961E+03  0.38416488961E+03  0.00000000000E+00 0.  1.
          2    1    1    2  501    0 -0.29273395809E+02 -0.20609372797E+02 -0.56385845511E+01  0.36241848532E+02  0.00000000000E+00 0.  1.
         21    1    1    2  503  501  0.29273395809E+02  0.20609372797E+02 -0.36234252075E+03  0.36410682538E+03  0.00000000000E+00 0.  1.
</event>
<event>
 4    1  0.2048241E+005  0.2295885E+02  0.7546771E-02  0.1493016E+00
          2   -1    0    0  502    0  0.00000000000E+00  0.00000000000E+00  0.10875751853E+03  0.10875751853E+03  0.00000000000E+00 0.  1.
         21   -1    0    0  503  502 -0.00000000000E+00 -0.00000000000E+00 -0.30295850664E+02  0.30295850664E+02  0.00000000000E+00 0.  1.
          2    1    1    2  501    0 -0.66063395871E+01  0.21987837912E+02  0.10295396214E+03  0.10548282827E+03  0.00000000000E+00 0.  1.
         21    1    1    2  503  501  0.66063395871E+01 -0.21987837912E+02 -0.24492294279E+02  0.33570540922E+02  0.00000000000E+00 0.  1.
</event>
<event>
 4    1  0.2048241E+005  0.2416829E+02  0.7546771E-02  0.1478327E+00
          2   -1    0    0  503    0  0.00000000000E+00  0.00000000000E+00  0.36506740637E+01  0.36506740637E+01  0.00000000000E+00 0. -1.
         21   -1    0    0  501  502 -0.00000000000E+00 -0.00000000000E+00 -0.17813407076E+03  0.17813407076E+03  0.00000000000E+00 0. -1.
          2    1    1    2  501    0  0.86992246393E+00  0.24152629395E+02 -0.58241112376E+02  0.63056589208E+02  0.00000000000E+00 0. -1.
         21    1    1    2  503  502 -0.86992246393E+00 -0.24152629395E+02 -0.11624228432E+03  0.11872815561E+03  0.00000000000E+00 0. -1.
</event>
<event>
 4    1  0.2048241E+005  0.3275964E+02  0.7546771E-02  0.1397037E+00
          2   -1    0    0  502    0  0.00000000000E+00  0.00000000000E+00  0.36629818166E+03  0.36629818166E+03  0.00000000000E+00 0.  1.
         21   -1    0    0  503  502 -0.00000000000E+00 -0.00000000000E+00 -0.14908337875E+02  0.14908337875E+02  0.00000000000E+00 0. -1.
          2    1    1    2  501    0 -0.56575328226E+01  0.32267418630E+02  0.34654569331E+03  0.34809066568E+03  0.00000000000E+00 0.  1.
         21    1    1    2  503  501  0.56575328226E+01 -0.32267418630E+02  0.48441504759E+01  0.33115853854E+02  0.00000000000E+00 0. -1.
</event>
<event>
 4    1  0.2048241E+005  0.5155192E+02  0.7546771E-02  0.1291581E+00
          2   -1    0    0  502    0  0.00000000000E+00  0.00000000000E+00  0.52810699981E+03  0.52810699981E+03  0.00000000000E+00 0. -1.
         21   -1    0    0  503  502 -0.00000000000E+00 -0.00000000000E+00 -0.52643868783E+01  0.52643868783E+01  0.00000000000E+00 0. -1.
          2    1    1    2  501    0 -0.25069818240E+02 -0.45045587574E+02  0.31741474412E+03  0.32157381817E+03  0.00000000000E+00 0. -1.
         21    1    1    2  503  501  0.25069818240E+02  0.45045587574E+02  0.20542786881E+03  0.21179756852E+03  0.00000000000E+00 0. -1.
</event>
<event>
 4    1  0.2048241E+005  0.2690598E+02  0.7546771E-02  0.1448555E+00
          2   -1    0    0  502    0  0.00000000000E+00  0.00000000000E+00  0.14786989900E+04  0.14786989900E+04  0.00000000000E+00 0.  1.
         21   -1    0    0  503  502 -0.00000000000E+00 -0.00000000000E+00 -0.42103534326E+01  0.42103534326E+01  0.00000000000E+00 0. -1.
          2    1    1    2  501    0 -0.25634136494E+02  0.81745335623E+01  0.14342596270E+04  0.14345119761E+04  0.00000000000E+00 0.  1.
         21    1    1    2  503  501  0.25634136494E+02 -0.81745335623E+01  0.40229009537E+02  0.48397367295E+02  0.00000000000E+00 0. -1.
</event>
<event>
 4    1  0.2048241E+005  0.2278550E+02  0.7546771E-02  0.1495209E+00
          2   -1    0    0  502    0  0.00000000000E+00  0.00000000000E+00  0.26446093349E+03  0.26446093349E+03  0.00000000000E+00 0. -1.
         21   -1    0    0  503  502 -0.00000000000E+00 -0.00000000000E+00 -0.99551949720E+02  0.99551949720E+02  0.00000000000E+00 0. -1.
          2    1    1    2  501    0 -0.10100996607E+02  0.20424217337E+02  0.26265741965E+03  0.26364388649E+03  0.00000000000E+00 0. -1.
         21    1    1    2  503  501  0.10100996607E+02 -0.20424217337E+02 -0.97748435879E+02  0.10036899672E+03  0.00000000000E+00 0. -1.
</event>
<event>
 4    1  0.2048241E+005  0.2384751E+02  0.7546771E-02  0.1482122E+00
          2   -1    0    0  503    0  0.00000000000E+00  0.00000000000E+00  0.23403881003E+03  0.23403881003E+03  0.00000000000E+00 0. -1.
         21   -1    0    0  501  502 -0.00000000000E+00 -0.00000000000E+00 -0.26298694351E+01  0.26298694351E+01  0.00000000000E+00 0.  1.
          2    1    1    2  501    0 -0.13306344869E+02  0.19790016271E+02  0.14833069259E+03  0.15023547491E+03  0.00000000000E+00 0. -1.
         21    1    1    2  503  502  0.13306344869E+02 -0.19790016271E+02  0.83078248004E+02  0.86433204552E+02  0.00000000000E+00 0.  1.
</event>
<event>
 4    1  0.2048241E+005  0.4762207E+02  0.7546771E-02  0.1308825E+00
          2   -1    0    0  502    0  0.00000000000E+00  0.00000000000E+00  0.18880812497E+03  0.18880812497E+03  0.00000000000E+00 0.  1.
         21   -1    0    0  503  502 -0.00000000000E+00 -0.00000000000E+00 -0.88372894182E+02  0.88372894182E+02  0.00000000000E+00 0. -1.
          2    1    1    2  501    0  0.32908263114E+02  0.34422485762E+02  0.17904583049E+03  0.18527080376E+03  0.00000000000E+00 0.  1.
         21    1    1    2  503  501 -0.32908263114E+02 -0.34422485762E+02 -0.78610599708E+02  0.91910215393E+02  0.00000000000E+00 0. -1.
</event>
<event>
 4    1  0.2048241E+005  0.2054220E+02  0.7546771E-02  0.1525902E+00
          2   -1    0    0  503    0  0.00000000000E+00  0.00000000000E+00  0.29166082226E+03  0.29166082226E+03  0.00000000000E+00 0. -1.
         21   -1    0    0  501  502 -0.00000000000E+00 -0.00000000000E+00 -0.20846467893E+01  0.20846467893E+01  0.00000000000E+00 0. -1.
          2    1    1    2  501    0  0.13954887280E+02  0.15074586971E+02  0.22602899290E+03  0.22696054212E+03  0.00000000000E+00 0. -1.
         21    1    1    2  503  502 -0.13954887280E+02 -0.15074586971E+02  0.63547182577E+02  0.66784926928E+02  0.00000000000E+00 0. -1.
</event>
<event>
 4    1  0.2048241E+005  0.3383805E+02  0.7546771E-02  0.1388921E+00
          2   -1    0    0  503    0  0.00000000000E+00  0.00000000000E+00  0.25210904214E+02  0.25210904214E+02  0.00000000000E+00 0. -1.
         21   -1    0    0  501  502 -0.00000000000E+00 -0.00000000000E+00 -0.10638721965E+03  0.10638721965E+03  0.00000000000E+00 0. -1.
          2    1    1    2  501    0 -0.28694845273E+02 -0.17933761042E+02  0.92236609195E+01  0.35072636786E+02  0.00000000000E+00 0. -1.
         21    1    1    2  503  502  0.28694845273E+02  0.17933761042E+02 -0.90399976352E+02  0.96525487074E+02  0.00000000000E+00 0. -1.
</event>
<event>
 4    1  0.2048241E+005  0.2461627E+02  0.7546771E-02  0.1473142E+00
          2   -1    0    0  503    0  0.00000000000E+00  0.00000000000E+00  0.10293927287E+04  0.10293927287E+04  0.00000000000E+00 0.  1.
         21   -1    0    0  501  502 -0.00000000000E+00 -0.00000000000E+00 -0.59372176270E+00  0.59372176270E+00  0.00000000000E+00 0.  1.
          2    1    1    2  501    0  0.23531478926E+02  0.72270373861E+01  0.56195864431E+03  0.56249753643E+03  0.00000000000E+00 0.  1.
         21    1    1    2  503  502 -0.23531478926E+02 -0.72270373861E+01  0.46684036262E+03  0.46748891403E+03  0.00000000000E+00 0.  1.
</event>
<event>
 4    1  0.2048241E+005  0.3816355E+02  0.7546771E-02  0.1359597E+00
          2   -1    0    0  503    0  0.00000000000E+00  0.00000000000E+00  0.35437073620E+03  0.35437073620E+03  0.00000000000E+00 0.  1.
         21   -1    0    0  501  502 -0.00000000000E+00 -0.00000000000E+00 -0.15438888875E+02  0.15438888875E+02  0.00000000000E+00 0. -1.
          2    1    1    2  501    0  0.37712138818E+02 -0.58524403302E+01  0.32785828918E+03  0.33007198345E+03  0.00000000000E+00 0.  1.
         21    1    1    2  503  502 -0.37712138818E+02  0.58524403302E+01  0.11073558141E+02  0.39737641625E+02  0.00000000000E+00 0. -1.
</event>
<event>
 4    1  0.2048241E+005  0.2171595E+02  0.7546771E-02  0.1509284E+00
          2   -1    0    0  503    0  0.00000000000E+00  0.00000000000E+00  0.25652201145E+04  0.25652201145E+04  0.00000000000E+00 0. -1.
         21   -1    0    0  501  502 -0.00000000000E+00 -0.00000000000E+00 -0.18527022621E+00  0.18527022621E+00  0.00000000000E+00 0. -1.
          2    1    1    2  501    0  0.80289411757E+01  0.20177180979E+02  0.11697012915E+04  0.11699028566E+04  0.00000000000E+00 0. -1.
         21    1    1    2  503  502 -0.80289411757E+01 -0.20177180979E+02  0.13953335528E+04  0.13955025281E+04  0.00000000000E+00 0. -1.
</event>
<event>
 4    1  0.2048241E+005  0.5614280E+02  0.7546771E-02  0.1273533E+00
          2   -1    0    0  503    0  0.00000000000E+00  0.00000000000E+00  0.29173516633E+02  0.29173516633E+02  0.00000000000E+00 0.  1.
         21   -1    0    0  501  502 -0.00000000000E+00 -0.00000000000E+00 -0.23116578935E+03  0.23116578935E+03  0.00000000000E+00 0. -1.
          2    1    1    2  501    0  0.28176226255E+02  0.48560418432E+02 -0.59978005244E+01  0.56462266828E+02  0.00000000000E+00 0.  1.
         21    1    1    2  503  502 -0.28176226255E+02 -0.48560418432E+02 -0.19599447219E+03  0.20387703915E+03  0.00000000000E+00 0. -1.
</event>
<event>
 4    1  0.2048241E+005  0.2540378E+02  0.7546771E-02  0.1464337E+00
          2   -1    0    0  503    0  0.00000000000E+00  0.00000000000E+00  0.59907616031E+02  0.59907616031E+02  0.00000000000E+00 0.  1.
         21   -1    0    0  501  502 -0.00000000000E+00 -0.00000000000E+00 -0.28313317671E+02  0.28313317671E+02  0.00000000000E+00 0. -1.
          2    1    1    2  501    0  0.23275537854E+02  0.10178473422E+02  0.50516513994E+02  0.56544408828E+02  0.00000000000E+00 0.  1.
         21    1    1    2  503  502 -0.23275537854E+02 -0.10178473422E+02 -0.18922215634E+02  0.31676524874E+02  0.00000000000E+00 0. -1.
</event>
<event>
 4    1  0.2048241E+005  0.8502026E+02  0.7546771E-02  0.1192649E+00
          2   -1    0    0  503    0  0.00000000000E+00  0.00000000000E+00  0.47817509670E+02  0.47817509670E+02  0.00000000000E+00 0. -1.
         21   -1    0    0  501  502 -0.00000000000E+00 -0.00000000000E+00 -0.15421364032E+03  0.15421364032E+03  0.00000000000E+00 0. -1.
          2    1    1    2  501    0 -0.55299184015E+02  0.64578978720E+02 -0.39000445735E+02  0.93538649834E+02  0.00000000000E+00 0. -1.
         21    1    1    2  503  502  0.55299184015E+02 -0.64578978720E+02 -0.67395684919E+02  0.10849250016E+03  0.00000000000E+00 0. -1.
</event>
<event>
 4    1  0.2048241E+005  0.2566090E+02  0.7546771E-02  0.1461544E+00
          2   -1    0    0  503    0  0.00000000000E+00  0.00000000000E+00  0.17670201408E+04  0.17670201408E+04  0.00000000000E+00 0. -1.
         21   -1    0    0  501  502 -0.00000000000E+00 -0.00000000000E+00 -0.48644254580E+00  0.48644254580E+00  0.00000000000E+00 0. -1.
          2    1    1    2  501    0  0.25430763823E+02  0.34290224515E+01  0.13107019031E+04  0.13109530734E+04  0.00000000000E+00 0. -1.
         21    1    1    2  503  502 -0.25430763823E+02 -0.34290224515E+01  0.45583179513E+03  0.45655350990E+03  0.00000000000E+00 0. -1.
</event>
<event>
 4    1  0.2048241E+005  0.2130883E+02  0.7546771E-02  0.1514901E+00
          2   -1    0    0  502    0  0.00000000000E+00  0.00000000000E+00  0.41479441222E+02  0.41479441222E+02  0.00000000000E+00 0. -1.
         21   -1    0    0  503  502 -0.00000000000E+00 -0.00000000000E+00 -0.17838964941E+02  0.17838964941E+02  0.00000000000E+00 0. -1.
          2    1    1    2  501    0 -0.53227044158E+01 -0.20633350683E+02  0.30255660588E+02  0.37006368916E+02  0.00000000000E+00 0. -1.
         21    1    1    2  503  501  0.53227044158E+01  0.20633350683E+02 -0.66151843061E+01  0.22312037247E+02  0.00000000000E+00 0. -1.
</event>
<event>
 4    1  0.2048241E+005  0.2773781E+02  0.7546771E-02  0.1440334E+00
          2   -1    0    0  503    0  0.00000000000E+00  0.00000000000E+00  0.15680047056E+04  0.15680047056E+04  0.00000000000E+00 0. -1.
         21   -1    0    0  501  502 -0.00000000000E+00 -0.00000000000E+00 -0.17004021368E+01  0.17004021368E+01  0.00000000000E+00 0.  1.
          2    1    1    2  501    0 -0.13543687010E+02 -0.24206496228E+02  0.14451481589E+04  0.14454143305E+04  0.00000000000E+00 0. -1.
         21    1    1    2  503  502  0.13543687010E+02  0.24206496228E+02  0.12115614463E+03  0.12429077721E+03  0.00000000000E+00 0.  1.
</event>
<event>
 4    1  0.2048241E+005  0.2257897E+02  0.7546771E-02  0.1497854E+00
          2   -1    0    0  502    0  0.00000000000E+00  0.00000000000E+00  0.20400136996E+03  0.20400136996E+03  0.00000000000E+00 0. -1.
         21   -1    0    0  503  502 -0.00000000000E+00 -0.00000000000E+00 -0.27556804545E+01  0.27556804545E+01  0.00000000000E+00 0.  1.
          2    1    1    2  501    0  0.19388243240E+02 -0.11571765471E+02  0.13217067905E+03  0.13408541357E+03  0.00000000000E+00 0. -1.
         21    1    1    2  503  501 -0.19388243240E+02  0.11571765471E+02  0.69075010456E+02  0.72671636843E+02  0.00000000000E+00 0.  1.
</event>
<event>
 4    1  0.2048241E+005  0.3339238E+02  0.7546771E-02  0.1392232E+00
          2   -1    0    0  502    0  0.00000000000E+00  0.00000000000E+00  0.10337386261E+02  0.10337386261E+02  0.00000000000E+00 0. -1.
         21   -1    0    0  503  502 -0.00000000000E+00 -0.00000000000E+00 -0.11001658434E+03  0.11001658434E+03  0.00000000000E+00 0. -1.
          2    1    1    2  501    0  0.18709428726E+02 -0.27658789448E+02 -0.41425825569E+02  0.53208555525E+02  0.00000000000E+00 0. -1.
         21    1    1    2  503  501 -0.18709428726E+02  0.27658789448E+02 -0.58253372515E+02  0.67145415081E+02  0.00000000000E+00 0. -1.
</event>
<event>
 4    1  0.2048241E+005  0.4013985E+02  0.7546771E-02  0.1347668E+00
          2   -1    0    0  502    0  0.00000000000E+00  0.00000000000E+00  0.46917501623E+02  0.46917501623E+02  0.00000000000E+00 0.  1.
         21   -1    0    0  503  502 -0.00000000000E+00 -0.00000000000E+00 -0.24134668465E+03  0.24134668465E+03  0.00000000000E+00 0.  1.
          2    1    1    2  501    0  0.23725708646E+02  0.32377434063E+02  0.36269914205E+02  0.54099114260E+02  0.00000000000E+00 0.  1.
         21    1    1    2  503  501 -0.23725708646E+02 -0.32377434063E+02 -0.23069909723E+03  0.23416507201E+03  0.00000000000E+00 0.  1.
</event>
<event>
 4    1  0.2048241E+005  0.2952979E+02  0.7546771E-02  0.1423727E+00
          2   -1    0    0  502    0  0.00000000000E+00  0.00000000000E+00  0.82872001224E+03  0.82872001224E+03  0.00000000000E+00 0. -1.
         21   -1    0    0  503  502 -0.00000000000E+00 -0.00000000000E+00 -0.10995112962E+01  0.10995112962E+01  0.00000000000E+00 0. -1.
          2    1    1    2  501    0  0.29276560145E+02 -0.38589473073E+01  0.49984505241E+03  0.50071657139E+03  0.00000000000E+00 0. -1.
         21    1    1    2  503  501 -0.29276560145E+02  0.38589473073E+01  0.32777544853E+03  0.32910295214E+03  0.00000000000E+00 0. -1.
</event>
<event>
 4    1  0.2048241E+005  0.2139440E+02  0.7546771E-02  0.1513708E+00
          2   -1    0    0  503    0  0.00000000000E+00  0.00000000000E+00  0.13729346900E+02  0.13729346900E+02  0.00000000000E+00 0. -1.
         21   -1    0    0  501  502 -0.00000000000E+00 -0.00000000000E+00 -0.10843463480E+03  0.10843463480E+03  0.00000000000E+00 0.  1.
          2    1    1    2  501    0  0.57712227635E+01 -0.20601293782E+02  0.34793353276E+01  0.21675472129E+02  0.00000000000E+00 0. -1.
         21    1    1    2  503  502 -0.57712227635E+01  0.20601293782E+02 -0.98184623230E+02  0.10048850957E+03  0.00000000000E+00 0.  1.
</event>
<event>
 4    1  0.2048241E+005  0.3068945E+02  0.7546771E-02  0.1413698E+00
          2   -1    0    0  503    0  0.00000000000E+00  0.00000000000E+00  0.12985482476E+04  0.12985482476E+04  0.00000000000E+00 0.  1.
         21   -1    0    0  501  502 -0.00000000000E+00 -0.00000000000E+00 -0.41954138421E+01  0.41954138421E+01  0.00000000000E+00 0. -1.
          2    1    1    2  501    0  0.24307863988E+02 -0.18734196799E+02  0.12395738579E+04  0.12399537055E+04  0.00000000000E+00 0.  1.
         21    1    1    2  503  502 -0.24307863988E+02  0.18734196799E+02  0.54778975821E+02  0.62789955991E+02  0.00000000000E+00 0. -1.
</event>
<event>
 4    1  0.2048241E+005  0.4212899E+02  0.7546771E-02  0.1336442E+00
          2   -1    0    0  503    0  0.00000000000E+00  0.00000000000E+00  0.21393938987E+04  0.21393938987E+04  0.00000000000E+00 0.  1.
         21   -1    0    0  501  502 -0.00000000000E+00 -0.00000000000E+00 -0.83034291592E+00  0.83034291592E+00  0.00000000000E+00 0.  1.
          2    1    1    2  501    0 -0.36744571568E+02  0.20607973435E+02  0.10373831603E+04  0.10382382547E+04  0.00000000000E+00 0.  1.
         21    1    1    2  503  502  0.36744571568E+02 -0.20607973435E+02  0.11011803954E+04  0.11019859869E+04  0.00000000000E+00 0.  1.
</event>
<event>
 4    1  0.2048241E+005  0.3389506E+02  0.7546771E-02  0.1388502E+00
          2   -1    0    0  502    0  0.00000000000E+00  0.00000000000E+00  0.12325729454E+04  0.12325729454E+04  0.00000000000E+00 0. -1.
         21   -1    0    0  503  502 -0.00000000000E+00 -0.00000000000E+00 -0.10274496181E+01  0.10274496181E+01  0.00000000000E+00 0. -1.
          2    1    1    2  501    0  0.27150096284E+02  0.20291557130E+02  0.80367639684E+03  0.80439084148E+03  0.00000000000E+00 0. -1.
         21    1    1    2  503  501 -0.27150096284E+02 -0.20291557130E+02  0.42786909890E+03  0.42920955350E+03  0.00000000000E+00 0. -1.
</event>
<event>
 4    1  0.2048241E+005  0.2309865E+02  0.7546771E-02  0.1491263E+00
          2   -1    0    0  502    0  0.00000000000E+00  0.00000000000E+00  0.11496958178E+04  0.11496958178E+04  0.00000000000E+00 0.  1.
         21   -1    0    0  503  502 -0.00000000000E+00 -0.00000000000E+00 -0.30846154158E+01  0.30846154158E+01  0.00000000000E+00 0. -1.
          2    1    1    2  501    0 -0.22312277104E+02 -0.59757890757E+01  0.11045707493E+04  0.11048122410E+04  0.00000000000E+00 0.  1.
         21    1    1    2  503  501  0.22312277104E+02  0.59757890757E+01  0.42040453126E+02  0.47968192208E+02  0.00000000000E+00 0. -1.
</event>
<event>
 4    1  0.2048241E+005  0.2877499E+02  0.7546771E-02  0.1430549E+00
          2   -1    0    0  502    0  0.00000000000E+00  0.00000000000E+00  0.40262081141E+03  0.40262081141E+03  0.00000000000E+00 0.  1.
         21   -1    0    0  503  502 -0.00000000000E+00 -0.00000000000E+00 -0.16658994799E+02  0.16658994799E+02  0.00000000000E+00 0. -1.
          2    1    1    2  501    0 -0.81607033966E+01 -0.27593531597E+02  0.38925487570E+03  0.39031699723E+03  0.00000000000E+00 0.  1.
         21    1    1    2  503  501  0.81607033966E+01  0.27593531597E+02 -0.32930590915E+01  0.28962808982E+02  0.00000000000E+00 0. -1.
</event>
<event>
 4    1  0.2048241E+005  0.2096618E+02  0.7546771E-02  0.1519748E+00
          2   -1    0    0  503    0  0.00000000000E+00  0.00000000000E+00  0.84648943528E+03  0.84648943528E+03  0.00000000000E+00 0. -1.
         21   -1    0    0  501  502 -0.00000000000E+00 -0.00000000000E+00 -0.54642472525E+00  0.54642472525E+00  0.00000000000E+00 0.  1.
          2    1    1    2  501    0  0.96182084506E+01 -0.18629836847E+02  0.51733428754E+03  0.51775896498E+03  0.00000000000E+00 0. -1.
         21    1    1    2  503  502 -0.96182084506E+01  0.18629836847E+02  0.32860872301E+03  0.32927689502E+03  0.00000000000E+00 0.  1.
</event>
<event>
 4    1  0.2048241E+005  0.4077638E+02  0.7546771E-02  0.1343995E+00
          2   -1    0    0  502    0  0.00000000000E+00  0.00000000000E+00  0.63161275372E+03  0.63161275372E+03  0.00000000000E+00 0. -1.
         21   -1    0    0  503  502 -0.00000000000E+00 -0.00000000000E+00 -0.92177693119E+01  0.92177693119E+01  0.00000000000E+00 0. -1.
          2    1    1    2  501    0 -0.27258440963E+02 -0.30326405507E+02  0.58202165979E+03  0.58344830614E+03  0.00000000000E+00 0. -1.
         21    1    1    2  503  501  0.27258440963E+02  0.30326405507E+02  0.40373324624E+02  0.57382216896E+02  0.00000000000E+00 0. -1.
</event>
<event>
 4    1  0.2048241E+005  0.2098543E+02  0.7546771E-02  0.1519473E+00
          2   -1    0    0  503    0  0.00000000000E+00  0.00000000000E+00  0.45884106725E+02  0.45884106725E+02  0.00000000000E+00 0.  1.
         21   -1    0    0  501  502 -0.00000000000E+00 -0.00000000000E+00 -0.12257104632E+03  0.12257104632E+03  0.00000000000E+00 0. -1.
          2    1    1    2  501    0  0.21362690256E+01 -0.20876416125E+02  0.42519201138E+02  0.47415934673E+02  0.00000000000E+00 0.  1.
         21    1    1    2  503  502 -0.21362690256E+01  0.20876416125E+02 -0.11920614074E+03  0.12103921838E+03  0.00000000000E+00 0. -1.
</event>
<event>
 4    1  0.2048241E+005  0.2966604E+02  0.7546771E-02  0.1422521E+00
          2   -1    0    0  502    0  0.00000000000E+00  0.00000000000E+00  0.16890303850E+04  0.16890303850E+04  0.00000000000E+00 0. -1.
         21   -1    0    0  503  502 -0.00000000000E+00 -0.00000000000E+00 -0.93011515564E+00  0.93011515564E+00  0.00000000000E+00 0.  1.
          2    1    1    2  501    0 -0.24398528144E+02 -0.16875593806E+02  0.14044177242E+04  0.14047310127E+04  0.00000000000E+00 0. -1.
         21    1    1    2  503  501  0.24398528144E+02  0.16875593806E+02  0.28368254565E+03  0.28522948752E+03  0.00000000000E+00 0.  1.
</event>
<event>
 4    1  0.2048241E+005  0.2255969E+02  0.7546771E-02  0.1498102E+00
          2   -1    0    0  502    0  0.00000000000E+00  0.00000000000E+00  0.25791020890E+01  0.25791020890E+01  0.00000000000E+00 0. -1.
         21   -1    0    0  503  502 -0.00000000000E+00 -0.00000000000E+00 -0.53062427132E+03  0.53062427132E+03  0.00000000000E+00 0. -1.
          2    1    1    2  501    0  0.22193388858E+02  0.40488310845E+01 -0.52731138263E+02  0.57354271721E+02  0.00000000000E+00 0. -1.
         21    1    1    2  503  501 -0.22193388858E+02 -0.40488310845E+01 -0.47531403097E+03  0.47584910169E+03  0.00000000000E+00 0. -1.
</event>
<event>
 4    1  0.2048241E+005  0.2165186E+02  0.7546771E-02  0.1510158E+00
          2   -1    0    0  503    0  0.00000000000E+00  0.00000000000E+00  0.26356827542E+03  0.26356827542E+03  0.00000000000E+00 0.  1.
         21   -1    0    0  501  502 -0.00000000000E+00 -0.00000000000E+00 -0.18244124872E+01  0.18244124872E+01  0.00000000000E+00 0.  1.
          2    1    1    2  501    0 -0.20477110017E+02  0.70349691162E+01  0.10986202244E+03  0.11197529549E+03  0.00000000000E+00 0.  1.
         21    1    1    2  503  502  0.20477110017E+02 -0.70349691162E+01  0.15188184050E+03  0.15341739243E+03  0.00000000000E+00 0.  1.
</event>
<event>
 4    1  0.2048241E+005  0.2022853E+02  0.7546771E-02  0.1530571E+00
          2   -1    0    0  503    0  0.00000000000E+00  0.00000000000E+00  0.86745552931E+03  0.86745552931E+03  0.00000000000E+00 0. -1.
         21   -1    0    0  501  502 -0.00000000000E+00 -0.00000000000E+00 -0.45347068363E+02  0.45347068363E+02  0.00000000000E+00 0.  1.
          2    1    1    2  501    0 -0.20216149340E+02 -0.70752612493E+00  0.86507549732E+03  0.86531197227E+03  0.00000000000E+00 0. -1.
         21    1    1    2  503  502  0.20216149340E+02  0.70752612493E+00 -0.42967036369E+02  0.47490625408E+02  0.00000000000E+00 0.  1.
</event>
<event>
 4    1  0.2048241E+005  0.2901120E+02  0.7546771E-02  0.1428388E+00
          2   -1    0    0  502    0  0.00000000000E+00  0.00000000000E+00  0.10385554145E+04  0.10385554145E+04  0.00000000000E+00 0. -1.
         21   -1    0    0  503  502 -0.00000000000E+00 -0.00000000000E+00 -0.11403185496E+02  0.11403185496E+02  0.00000000000E+00 0. -1.
          2    1    1    2  501    0  0.23621967155E+02  0.16841977830E+02  0.10195569760E+04  0.10199696451E+04  0.00000000000E+00 0. -1.
         21    1    1    2  503  501 -0.23621967155E+02 -0.16841977830E+02  0.75952530035E+01  0.29988954928E+02  0.00000000000E+00 0. -1.
</event>
<event>
 4    1  0.2048241E+005  0.2799185E+02  0.7546771E-02  0.1437891E+00
          2   -1    0    0  502    0  0.00000000000E+00  0.00000000000E+00  0.11788982871E+04  0.11788982871E+04  0.00000000000E+00 0.  1.
         21   -1    0    0  503  502 -0.00000000000E+00 -0.00000000000E+00 -0.24058712227E+02  0.24058712227E+02  0.00000000000E+00 0.  1.
          2    1    1    2  501    0  0.25354177092E+02 -0.11862097631E+02  0.11705319457E+04  0.11708665934E+04  0.00000000000E+00 0.  1.
         21    1    1    2  503  501 -0.25354177092E+02  0.11862097631E+02 -0.15692370760E+02  0.32090405985E+02  0.00000000000E+00 0.  1.
</event>
<event>
 4    1  0.2048241E+005  0.2371639E+02  0.7546771E-02  0.1483693E+00
          2   -1    0    0  503    0  0.00000000000E+00  0.00000000000E+00  0.21179691757E+02  0.21179691757E+02  0.00000000000E+00 0.  1.
         21   -1    0    0  501  502 -0.00000000000E+00 -0.00000000000E+00 -0.26996925425E+02  0.26996925425E+02  0.00000000000E+00 0.  1.
          2    1    1    2  501    0  0.21499469832E+02 -0.10011990877E+02  0.16665268277E+00  0.23716975724E+02  0.00000000000E+00 0.  1.
         21    1    1    2  503  502 -0.21499469832E+02  0.10011990877E+02 -0.59838863504E+01  0.24459641458E+02  0.00000000000E+00 0.  1.
</event>
<event>
 4    1  0.2048241E+005  0.2178361E+02  0.7546771E-02  0.1508365E+00
          2   -1    0    0  502    0  0.00000000000E+00  0.00000000000E+00  0.48678495371E+01  0.48678495371E+01  0.00000000000E+00 0. -1.
         21   -1    0    0  503  502 -0.00000000000E+00 -0.00000000000E+00 -0.15397863445E+03  0.15397863445E+03  0.00000000000E+00 0. -1.
          2    1    1    2  501    0 -0.37846784266E+01  0.21452312802E+02 -0.26445941663E+02  0.34262418855E+02  0.00000000000E+00 0. -1.
         21    1    1    2  503  501  0.37846784266E+01 -0.21452312802E+02 -0.12266484325E+03  0.12458406513E+03  0.00000000000E+00 0. -1.
</event>
<event>
 4    1  0.2048241E+005  0.2171854E+02  0.7546771E-02  0.1509248E+00
          2   -1    0    0  503    0  0.00000000000E+00  0.00000000000E+00  0.20365068279E+04  0.20365068279E+04  0.00000000000E+00 0.  1.
         21   -1    0    0  501  502 -0.00000000000E+00 -0.00000000000E+00 -0.23496514182E+00  0.23496514182E+00  0.00000000000E+00 0.  1.
          2    1    1    2  501    0 -0.28503362515E+01 -0.21530691170E+02  0.11396514341E+04  0.11398583624E+04  0.00000000000E+00 0.  1.
         21    1    1    2  503  502  0.28503362515E+01  0.21530691170E+02  0.89662042870E+03  0.89688343069E+03  0.00000000000E+00 0.  1.
</event>
<event>
 4    1  0.2048241E+005  0.4842613E+02  0.7546771E-02  0.1305144E+00
          2   -1    0    0  502    0  0.00000000000E+00  0.00000000000E+00  0.43793885890E+03  0.43793885890E+03  0.00000000000E+00 0.  1.
         21   -1    0    0  503  502 -0.00000000000E+00 -0.00000000000E+00 -0.65915405828E+01  0.65915405828E+01  0.00000000000E+00 0. -1.
          2    1    1    2  501    0 -0.48248061328E+02 -0.41490324108E+01  0.31194817453E+03  0.31568457910E+03  0.00000000000E+00 0.  1.
         21    1    1    2  503  501  0.48248061328E+02  0.41490324108E+01  0.11939914379E+03  0.12884582038E+03  0.00000000000E+00 0. -1.
</event>
<event>
 4    1  0.2048241E+005  0.2467888E+02  0.7546771E-02  0.1472428E+00
          2   -1    0    0  502    0  0.00000000000E+00  0.00000000000E+00  0.33698988799E+02  0.33698988799E+02  0.00000000000E+00 0.  1.
         21   -1    0    0  503  502 -0.00000000000E+00 -0.00000000000E+00 -0.14860485781E+03  0.14860485781E+03  0.00000000000E+00 0. -1.
          2    1    1    2  501    0 -0.36824842776E+01 -0.24402594727E+02  0.27976458727E+02  0.37305891797E+02  0.00000000000E+00 0.  1.
         21    1    1    2  503  501  0.36824842776E+01  0.24402594727E+02 -0.14288232774E+03  0.14499795482E+03  0.00000000000E+00 0. -1.
</event>
<event>
 4    1  0.2048241E+005  0.2694027E+02  0.7546771E-02  0.1448209E+00
          2   -1    0    0  502    0  0.00000000000E+00  0.00000000000E+00  0.15140921438E+04  0.15140921438E+04  0.00000000000E+00 0. -1.
         21   -1    0    0  503  502 -0.00000000000E+00 -0.00000000000E+00 -0.81149932304E+00  0.81149932304E+00  0.00000000000E+00 0.  1.
          2    1    1    2  501    0  0.25430407426E+02  0.88922755051E+01  0.12412347685E+04  0.12415270954E+04  0.00000000000E+00 0. -1.
         21    1    1    2  503  501 -0.25430407426E+02 -0.88922755051E+01  0.27204587600E+03  0.27337654770E+03  0.00000000000E+00 0.  1.
</event>
<event>
 4    1  0.2048241E+005  0.2381985E+02  0.7546771E-02  0.1482452E+00
          2   -1    0    0  503    0  0.00000000000E+00  0.00000000000E+00  0.31132129285E+03  0.31132129285E+03  0.00000000000E+00 0. -1.
         21   -1    0    0  501  502 -0.00000000000E+00 -0.00000000000E+00 -0.21745202392E+02  0.21745202392E+02  0.00000000000E+00 0. -1.
          2    1    1    2  501    0  0.18793267321E+02 -0.14635518701E+02  0.30418986291E+03  0.30512105467E+03  0.00000000000E+00 0. -1.
         21    1    1    2  503  502 -0.18793267321E+02  0.14635518701E+02 -0.14613772446E+02  0.27945440582E+02  0.00000000000E+00 0. -1.
</event>
<event>
 4    1  0.2048241E+005  0.2031234E+02  0.7546771E-02  0.1529313E+00
          2   -1    0    0  503    0  0.00000000000E+00  0.00000000000E+00  0.12914749653E+04  0.12914749653E+04  0.00000000000E+00 0. -1.
         21   -1    0    0  501  502 -0.00000000000E+00 -0.00000000000E+00 -0.89090469914E+02  0.89090469914E+02  0.00000000000E+00 0. -1.
          2    1    1    2  501    0 -0.17623156318E+02  0.10100269738E+02  0.12902361987E+04  0.12903960786E+04  0.00000000000E+00 0. -1.
         21    1    1    2  503  502  0.17623156318E+02 -0.10100269738E+02 -0.87851703369E+02  0.90169356614E+02  0.00000000000E+00 0. -1.
</event>
<event>
 4    1  0.2048241E+005  0.3253085E+02  0.7546771E-02  0.1398806E+00
          2   -1    0    0  503    0  0.00000000000E+00  0.00000000000E+00  0.17868977184E+04  0.17868977184E+04  0.00000000000E+00 0. -1.
         21   -1    0    0  501  502 -0.00000000000E+00 -0.00000000000E+00 -0.12343639026E+01  0.12343639026E+01  0.00000000000E+00 0.  1.
          2    1    1    2  501    0 -0.80230329929E+01 -0.31525977940E+02  0.15376842429E+04  0.15380283116E+04  0.00000000000E+00 0. -1.
         21    1    1    2  503  502  0.80230329929E+01  0.31525977940E+02  0.24797911161E+03  0.25010377074E+03  0.00000000000E+00 0.  1.
</event>
<event>
 4    1  0.2048241E+005  0.3885731E+02  0.7546771E-02  0.1355315E+00
          2   -1    0    0  503    0  0.00000000000E+00  0.00000000000E+00  0.25007144244E+02  0.25007144244E+02  0.00000000000E+00 0. -1.
         21   -1    0    0  501  502 -0.00000000000E+00 -0.00000000000E+00 -0.50837562211E+03  0.50837562211E+03  0.00000000000E+00 0. -1.
          2    1    1    2  501    0 -0.98008855928E+01  0.37600971289E+02  0.86696283749E+01  0.39812722293E+02  0.00000000000E+00 0. -1.
         21    1    1    2  503  502  0.98008855928E+01 -0.37600971289E+02 -0.49203810624E+03  0.49357004406E+03  0.00000000000E+00 0. -1.
</event>
<event>
 4    1  0.2048241E+005  0.2084219E+02  0.7546771E-02  0.1521530E+00
          2   -1    0    0  503    0  0.00000000000E+00  0.00000000000E+00  0.89142633040E+02  0.89142633040E+02  0.00000000000E+00 0.  1.
         21   -1    0    0  501  502 -0.00000000000E+00 -0.00000000000E+00 -0.27264558975E+02  0.27264558975E+02  0.00000000000E+00 0.  1.
          2    1    1    2  501    0  0.34570904914E+01 -0.20553477985E+02  0.83685362946E+02  0.86241735276E+02  0.00000000000E+00 0.  1.
         21    1    1    2  503  502 -0.34570904914E+01  0.20553477985E+02 -0.21807288881E+02  0.30165456740E+02  0.00000000000E+00 0.  1.
</event>
<event>
 4    1  0.2048241E+005  0.4351478E+02  0.7546771E-02  0.1329035E+00
          2   -1    0    0  502    0  0.00000000000E+00  0.00000000000E+00  0.15722936763E+04  0.15722936763E+04  0.00000000000E+00 0.  1.
         21   -1    0    0  503  502 -0.00000000000E+00 -0.00000000000E+00 -0.40254316880E+02  0.40254316880E+02  0.00000000000E+00 0. -1.
          2    1    1    2  501    0 -0.25104093388E+02 -0.35543224181E+02  0.15601411802E+04  0.15607479100E+04  0.00000000000E+00 0.  1.
         21    1    1    2  503  501  0.25104093388E+02  0.35543224181E+02 -0.28101820782E+02  0.51800083217E+02  0.00000000000E+00 0. -1.
</event>
<event>
 4    1  0.2048241E+005  0.2011806E+02  0.7546771E-02  0.1532239E+00
          2   -1    0    0  503    0  0.00000000000E+00  0.00000000000E+00  0.56979632368E+02  0.56979632368E+02  0.00000000000E+00 0. -1.
         21   -1    0    0  501  502 -0.00000000000E+00 -0.00000000000E+00 -0.83184317518E+01  0.83184317518E+01  0.00000000000E+00 0. -1.
          2    1    1    2  501    0  0.90639867794E+01 -0.17960523486E+02  0.36809713613E+02  0.41948674312E+02  0.00000000000E+00 0. -1.
         21    1    1    2  503  502 -0.90639867794E+01  0.17960523486E+02  0.11851487003E+02  0.23349389808E+02  0.00000000000E+00 0. -1.
</event>
<event>
 4    1  0.2048241E+005  0.2328999E+02  0.7546771E-02  0.1488888E+00
          2   -1    0    0  502    0  0.00000000000E+00  0.00000000000E+00  0.18285332860E+04  0.18285332860E+04  0.00000000000E+00 0.  1.
         21   -1    0    0  503  502 -0.00000000000E+00 -0.00000000000E+00 -0.10183415709E+01  0.10183415709E+01  0.00000000000E+00 0.  1.
          2    1    1    2  501    0  0.31386407610E+01  0.23077536948E+02  0.16838545960E+04  0.16840156544E+04  0.00000000000E+00 0.  1.
         21    1    1    2  503  501 -0.31386407610E+01 -0.23077536948E+02  0.14366034843E+03  0.14553597317E+03  0.00000000000E+00 0.  1.
</event>
<event>
 4    1  0.2048241E+005  0.2325063E+02  0.7546771E-02  0.1489375E+00
          2   -1    0    0  502    0  0.00000000000E+00  0.00000000000E+00  0.94275015952E+03  0.94275015952E+03  0.00000000000E+00 0.  1.
         21   -1    0    0  503  502 -0.00000000000E+00 -0.00000000000E+00 -0.36129555641E+01  0.36129555641E+01  0.00000000000E+00 0.  1.
          2    1    1    2  501    0  0.16838455863E+02  0.16033038828E+02  0.90357896943E+03  0.90387805921E+03  0.00000000000E+00 0.  1.
         21    1    1    2  503  501 -0.16838455863E+02 -0.16033038828E+02  0.35558234534E+02  0.42485055879E+02  0.00000000000E+00 0.  1.
</event>
<event>
 4    1  0.2048241E+005  0.6573020E+02  0.7546771E-02  0.1241515E+00
          2   -1    0    0  502    0  0.00000000000E+00  0.00000000000E+00  0.24818763928E+03  0.24818763928E+03  0.00000000000E+00 0.  1.
         21   -1    0    0  503  502 -0.00000000000E+00 -0.00000000000E+00 -0.74491500520E+02  0.74491500520E+02  0.00000000000E+00 0.  1.
          2    1    1    2  501    0 -0.12790170754E+02 -0.64473795920E+02  0.22808318945E+03  0.23736554117E+03  0.00000000000E+00 0.  1.
         21    1    1    2  503  501  0.12790170754E+02  0.64473795920E+02 -0.54387050687E+02  0.85313598627E+02  0.00000000000E+00 0.  1.
</event>
<event>
 4    1  0.2048241E+005  0.2155128E+02  0.7546771E-02  0.1511538E+00
          2   -1    0    0  502    0  0.00000000000E+00  0.00000000000E+00  0.15711688026E+04  0.15711688026E+04  0.00000000000E+00 0. -1.
         21   -1    0    0  503  502 -0.00000000000E+00 -0.00000000000E+00 -0.29932245640E+01  0.29932245640E+01  0.00000000000E+00 0. -1.
          2    1    1    2  501    0  0.40587457750E+01 -0.21165637037E+02  0.15312923417E+04  0.15314439896E+04  0.00000000000E+00 0. -1.
         21    1    1    2  503  501 -0.40587457750E+01  0.21165637037E+02  0.36883236326E+02  0.42718037529E+02  0.00000000000E+00 0. -1.
</event>
<event>
 4    1  0.2048241E+005  0.4837971E+02  0.7546771E-02  0.1305355E+00
          2   -1    0    0  503    0  0.00000000000E+00  0.00000000000E+00  0.10968365891E+04  0.10968365891E+04  0.00000000000E+00 0. -1.
         21   -1    0    0  501  502 -0.00000000000E+00 -0.00000000000E+00 -0.41559716464E+02  0.41559716464E+02  0.00000000000E+00 0. -1.
          2    1    1    2  501    0 -0.27418190816E+02  0.39860249673E+02  0.10820308200E+04  0.10831118557E+04  0.00000000000E+00 0. -1.
         21    1    1    2  503  502  0.27418190816E+02 -0.39860249673E+02 -0.26753947347E+02  0.55284449805E+02  0.00000000000E+00 0. -1.
</event>
<event>
 4    1  0.2048241E+005  0.2096345E+02  0.7546771E-02  0.1519787E+00
          2   -1    0    0  502    0  0.00000000000E+00  0.00000000000E+00  0.11082807099E+02  0.11082807099E+02  0.00000000000E+00 0. -1.
         21   -1    0    0  503  502 -0.00000000000E+00 -0.00000000000E+00 -0.56915164497E+02  0.56915164497E+02  0.00000000000E+00 0.  1.
          2    1    1    2  501    0 -0.20786679022E+02  0.27166218120E+01 -0.41921133954E+01  0.21378490910E+02  0.00000000000E+00 0. -1.
         21    1    1    2  503  501  0.20786679022E+02 -0.27166218120E+01 -0.41640244002E+02  0.46619480686E+02  0.00000000000E+00 0.  1.
</event>
<event>
 4    1  0.2048241E+005  0.2075082E+02  0.7546771E-02  0.1522852E+00
          2   -1    0    0  503    0  0.00000000000E+00  0.00000000000E+00  0.15638079309E+04  0.15638079309E+04  0.00000000000E+00 0. -1.
         21   -1    0    0  501  502 -0.00000000000E+00 -0.00000000000E+00 -0.42181646587E+00  0.42181646587E+00  0.00000000000E+00 0.  1.
          2    1    1    2  501    0 -0.18107976172E+02  0.10133979623E+02  0.12425606247E+04  0.12427338824E+04  0.00000000000E+00 0. -1.
         21    1    1    2  503  502  0.18107976172E+02 -0.10133979623E+02  0.32082548969E+03  0.32149586495E+03  0.00000000000E+00 0.  1.
</event>
<event>
 4    1  0.2048241E+005  0.2879662E+02  0.7546771E-02  0.1430350E+00
          2   -1    0    0  503    0  0.00000000000E+00  0.00000000000E+00  0.92126186306E+03  0.92126186306E+03  0.00000000000E+00 0.  1.
         21   -1    0    0  501  502 -0.00000000000E+00 -0.00000000000E+00 -0.52468814114E+01  0.52468814114E+01  0.00000000000E+00 0.  1.
          2    1    1    2  501    0 -0.26386207788E+02  0.11533141262E+02  0.87965724745E+03  0.88012846693E+03  0.00000000000E+00 0.  1.
         21    1    1    2  503  502  0.26386207788E+02 -0.11533141262E+02  0.36357734200E+02  0.46380277543E+02  0.00000000000E+00 0.  1.
</event>
<event>
 4    1  0.2048241E+005  0.1603710E+03  0.7546771E-02  0.1087438E+00
          2   -1    0    0  503    0  0.00000000000E+00  0.00000000000E+00  0.10699212293E+04  0.10699212293E+04  0.00000000000E+00 0. -1.
         21   -1    0    0  501  502 -0.00000000000E+00 -0.00000000000E+00 -0.28829734809E+02  0.28829734809E+02  0.00000000000E+00 0. -1.
          2    1    1    2  501    0 -0.16036079099E+03  0.18117032257E+01  0.74451641353E+03  0.76159277542E+03  0.00000000000E+00 0. -1.
         21    1    1    2  503  502  0.16036079099E+03 -0.18117032257E+01  0.29657508097E+03  0.33715818870E+03  0.00000000000E+00 0. -1.
</event>
<event>
 4    1  0.2048241E+005  0.4119417E+02  0.7546771E-02  0.1341627E+00
          2   -1    0    0  502    0  0.00000000000E+00  0.00000000000E+00  0.85354684749E+03  0.85354684749E+03  0.00000000000E+00 0.  1.
         21   -1    0    0  503  502 -0.00000000000E+00 -0.00000000000E+00 -0.22293133013E+02  0.22293133013E+02  0.00000000000E+00 0.  1.
          2    1    1    2  501    0  0.40577433981E+02  0.71014863204E+01  0.83356381920E+03  0.83458109249E+03  0.00000000000E+00 0.  1.
         21    1    1    2  503  501 -0.40577433981E+02 -0.71014863204E+01 -0.23101047241E+01  0.41258888016E+02  0.00000000000E+00 0.  1.
</event>
<event>
 4    1  0.2048241E+005  0.2190888E+02  0.7546771E-02  0.1506673E+00
          2   -1    0    0  502    0  0.00000000000E+00  0.00000000000E+00  0.16179605151E+02  0.16179605151E+02  0.00000000000E+00 0. -1.
         21   -1    0    0  503  502 -0.00000000000E+00 -0.00000000000E+00 -0.78730695894E+02  0.78730695894E+02  0.00000000000E+00 0.  1.
          2    1    1    2  501    0  0.75146883484E+01 -0.20579811791E+02  0.61865232589E+01  0.22765593873E+02  0.00000000000E+00 0. -1.
         21    1    1    2  503  501 -0.75146883484E+01  0.20579811791E+02 -0.68737614002E+02  0.72144707173E+02  0.00000000000E+00 0.  1.
</event>
<event>
 4    1  0.2048241E+005  0.4092463E+02  0.7546771E-02  0.1343151E+00
          2   -1    0    0  503    0  0.00000000000E+00  0.00000000000E+00  0.12844065322E+04  0.12844065322E+04  0.00000000000E+00 0. -1.
         21   -1    0    0  501  502 -0.00000000000E+00 -0.00000000000E+00 -0.22520466671E+01  0.22520466671E+01  0.00000000000E+00 0.  1.
          2    1    1    2  501    0  0.18338467059E+02 -0.36585875889E+02  0.10584909428E+04  0.10592817857E+04  0.00000000000E+00 0. -1.
         21    1    1    2  503  502 -0.18338467059E+02  0.36585875889E+02  0.22366354279E+03  0.22737679315E+03  0.00000000000E+00 0.  1.
</event>
<event>
 4    1  0.2048241E+005  0.2664870E+02  0.7546771E-02  0.1451169E+00
          2   -1    0    0  503    0  0.00000000000E+00  0.00000000000E+00  0.78200111399E+03  0.78200111399E+03  0.00000000000E+00 0. -1.
         21   -1    0    0  501  502 -0.00000000000E+00 -0.00000000000E+00 -0.15625275516E+01  0.15625275516E+01  0.00000000000E+00 0. -1.
          2    1    1    2  501    0  0.21303211764E+02 -0.16010190817E+02  0.64376348156E+03  0.64431480911E+03  0.00000000000E+00 0. -1.
         21    1    1    2  503  502 -0.21303211764E+02  0.16010190817E+02  0.13667510487E+03  0.13924883243E+03  0.00000000000E+00 0. -1.
</event>
<event>
 4    1  0.2048241E+005  0.2176355E+02  0.7546771E-02  0.1508637E+00
          2   -1    0    0  502    0  0.00000000000E+00  0.00000000000E+00  0.88227946983E+03  0.88227946983E+03  0.00000000000E+00 0.  1.
         21   -1    0    0  503  502 -0.00000000000E+00 -0.00000000000E+00 -0.11126666931E+01  0.11126666931E+01  0.00000000000E+00 0.  1.
          2    1    1    2  501    0 -0.18105164030E+02 -0.12077047187E+02  0.75833151945E+03  0.75864375397E+03  0.00000000000E+00 0.  1.
         21    1    1    2  503  501  0.18105164030E+02  0.12077047187E+02  0.12283528369E+03  0.12474838256E+03  0.00000000000E+00 0.  1.
</event>
<event>
 4    1  0.2048241E+005  0.2162900E+02  0.7546771E-02  0.1510471E+00
          2   -1    0    0  503    0  0.00000000000E+00  0.00000000000E+00  0.52804264257E+03  0.52804264257E+03  0.00000000000E+00 0. -1.
         21   -1    0    0  501  502 -0.00000000000E+00 -0.00000000000E+00 -0.21079279838E+01  0.21079279838E+01  0.00000000000E+00 0. -1.
          2    1    1    2  501    0  0.21100006955E+02  0.47543071301E+01  0.46479234962E+03  0.46529532772E+03  0.00000000000E+00 0. -1.
         21    1    1    2  503  502 -0.21100006955E+02 -0.47543071301E+01  0.61142364965E+02  0.64855242836E+02  0.00000000000E+00 0. -1.
</event>
<event>
 4    1  0.2048241E+005  0.2280976E+02  0.7546771E-02  0.1494901E+00
          2   -1    0    0  502    0  0.00000000000E+00  0.00000000000E+00  0.96854493394E+03  0.96854493394E+03  0.00000000000E+00 0. -1.
         21   -1    0    0  503  502 -0.00000000000E+00 -0.00000000000E+00 -0.11974869862E+02  0.11974869862E+02  0.00000000000E+00 0.  1.
          2    1    1    2  501    0  0.13318343666E+02  0.18517748198E+02  0.95742244727E+03  0.95769412017E+03  0.00000000000E+00 0. -1.
         21    1    1    2  503  501 -0.13318343666E+02 -0.18517748198E+02 -0.85238318693E+00  0.22825683635E+02  0.00000000000E+00 0.  1.
</event>
<event>
 4    1  0.2048241E+005  0.6324958E+02  0.7546771E-02  0.1249174E+00
          2   -1    0    0  502    0  0.00000000000E+00  0.00000000000E+00  0.10278517031E+04  0.10278517031E+04  0.00000000000E+00 0. -1.
         21   -1    0    0  503  502 -0.00000000000E+00 -0.00000000000E+00 -0.12861308304E+02  0.12861308304E+02  0.00000000000E+00 0.  1.
          2    1    1    2  501    0  0.51470178593E+01  0.63039806417E+02  0.94204073624E+03  0.94416166927E+03  0.00000000000E+00 0. -1.
         21    1    1    2  503  501 -0.51470178593E+01 -0.63039806417E+02  0.72949658599E+02  0.96551342174E+02  0.00000000000E+00 0.  1.
</event>
<event>
 4    1  0.2048241E+005  0.2627470E+02  0.7546771E-02  0.1455033E+00
          2   -1    0    0  503    0  0.00000000000E+00  0.00000000000E+00  0.40785960248E+03  0.40785960248E+03  0.00000000000E+00 0.  1.
         21   -1    0    0  501  502 -0.00000000000E+00 -0.00000000000E+00 -0.17258601921E+01  0.17258601921E+01  0.00000000000E+00 0.  1.
          2    1    1    2  501    0  0.16292619798E+02  0.20613349528E+02  0.17465432064E+03  0.17661962336E+03  0.00000000000E+00 0.  1.
         21    1    1    2  503  502 -0.16292619798E+02 -0.20613349528E+02  0.23147942165E+03  0.23296583931E+03  0.00000000000E+00 0.  1.
</event>
<event>
 4    1  0.2048241E+005  0.4634720E+02  0.7546771E-02  0.1314837E+00
          2   -1    0    0  503    0  0.00000000000E+00  0.00000000000E+00  0.34833561341E+03  0.34833561341E+03  0.00000000000E+00 0.  1.
         21   -1    0    0  501  502 -0.00000000000E+00 -0.00000000000E+00 -0.20527782443E+02  0.20527782443E+02  0.00000000000E+00 0.  1.
          2    1    1    2  501    0 -0.40193887092E+02  0.23076275281E+02  0.31816590334E+03  0.32152387950E+03  0.00000000000E+00 0.  1.
         21    1    1    2  503  502  0.40193887092E+02 -0.23076275281E+02  0.96419276306E+01  0.47339516356E+02  0.00000000000E+00 0.  1.
</event>
<event>
 4    1  0.2048241E+005  0.2935130E+02  0.7546771E-02  0.1425319E+00
          2   -1    0    0  503    0  0.00000000000E+00  0.00000000000E+00  0.15469872378E+04  0.15469872378E+04  0.00000000000E+00 0. -1.
         21   -1    0    0  501  502 -0.00000000000E+00 -0.00000000000E+00 -0.57172384574E+00  0.57172384574E+00  0.00000000000E+00 0. -1.
          2    1    1    2  501    0 -0.26271764874E+02  0.13087911283E+02  0.89785314480E+03  0.89833277168E+03  0.00000000000E+00 0. -1.
         21    1    1    2  503  502  0.26271764874E+02 -0.13087911283E+02  0.64856236920E+03  0.64922619000E+03  0.00000000000E+00 0. -1.
</event>
<event>
 4    1  0.2048241E+005  0.2374706E+02  0.7546771E-02  0.1483324E+00
          2   -1    0    0  503    0  0.00000000000E+00  0.00000000000E+00  0.16651604780E+04  0.16651604780E+04  0.00000000000E+00 0. -1.
         21   -1    0    0  501  502 -0.00000000000E+00 -0.00000000000E+00 -0.41781390386E+00  0.41781390386E+00  0.00000000000E+00 0.  1.
          2    1    1    2  501    0  0.10493227537E+02  0.21302932945E+02  0.11948484183E+04  0.11950843759E+04  0.00000000000E+00 0. -1.
         21    1    1    2  503  502 -0.10493227537E+02 -0.21302932945E+02  0.46989424585E+03  0.47049391607E+03  0.00000000000E+00 0.  1.
</event>
<event>
 4    1  0.2048241E+005  0.3128912E+02  0.7546771E-02  0.1408715E+00
          2   -1    0    0  503    0  0.00000000000E+00  0.00000000000E+00  0.25056552440E+03  0.25056552440E+03  0.00000000000E+00 0.  1.
         21   -1    0    0  501  502 -0.00000000000E+00 -0.00000000000E+00 -0.39139923369E+01  0.39139923369E+01  0.00000000000E+00 0.  1.
          2    1    1    2  501    0  0.25202752478E+02  0.18542654757E+02  0.12862764107E+03  0.13237854368E+03  0.00000000000E+00 0.  1.
         21    1    1    2  503  502 -0.25202752478E+02 -0.18542654757E+02  0.11802389099E+03  0.12210097306E+03  0.00000000000E+00 0.  1.
</event>
<event>
 4    1  0.2048241E+005  0.2428215E+02  0.7546771E-02  0.1476997E+00
          2   -1    0    0  503    0  0.00000000000E+00  0.00000000000E+00  0.17776496828E+04  0.17776496828E+04  0.00000000000E+00 0. -1.
         21   -1    0    0  501  502 -0.00000000000E+00 -0.00000000000E+00 -0.18738337401E+02  0.18738337401E+02  0.00000000000E+00 0. -1.
          2    1    1    2  501    0 -0.24196232164E+02 -0.20408803057E+01  0.17696647371E+04  0.17698313209E+04  0.00000000000E+00 0. -1.
         21    1    1    2  503  502  0.24196232164E+02  0.20408803057E+01 -0.10753391691E+02  0.26556699272E+02  0.00000000000E+00 0. -1.
</event>
<event>
 4    1  0.2048241E+005  0.2199530E+02  0.7546771E-02  0.1505515E+00
          2   -1    0    0  502    0  0.00000000000E+00  0.00000000000E+00  0.13771124964E+04  0.13771124964E+04  0.00000000000E+00 0.  1.
         21   -1    0    0  503  502 -0.00000000000E+00 -0.00000000000E+00 -0.64226323618E+01  0.64226323618E+01  0.00000000000E+00 0.  1.
          2    1    1    2  501    0  0.20057487703E+02  0.90272032235E+01  0.13579270466E+04  0.13581051716E+04  0.00000000000E+00 0.  1.
         21    1    1    2  503  501 -0.20057487703E+02 -0.90272032235E+01  0.12762817366E+02  0.25429957100E+02  0.00000000000E+00 0.  1.
</event>
<event>
 4    1  0.2048241E+005  0.3301092E+02  0.7546771E-02  0.1395113E+00
          2   -1    0    0  503    0  0.00000000000E+00  0.00000000000E+00  0.13455197805E+02  0.13455197805E+02  0.00000000000E+00 0. -1.
         21   -1    0    0  501  502 -0.00000000000E+00 -0.00000000000E+00 -0.17850535418E+03  0.17850535418E+03  0.00000000000E+00 0. -1.
          2    1    1    2  501    0 -0.31534644613E+02  0.97614980799E+01 -0.11584374946E+02  0.34984545139E+02  0.00000000000E+00 0. -1.
         21    1    1    2  503  502  0.31534644613E+02 -0.97614980799E+01 -0.15346578143E+03  0.15697600684E+03  0.00000000000E+00 0. -1.
</event>
<event>
 4    1  0.2048241E+005  0.2023892E+02  0.7546771E-02  0.1530414E+00
          2   -1    0    0  503    0  0.00000000000E+00  0.00000000000E+00  0.17188469266E+02  0.17188469266E+02  0.00000000000E+00 0.  1.
         21   -1    0    0  501  502 -0.00000000000E+00 -0.00000000000E+00 -0.29352514398E+02  0.29352514398E+02  0.00000000000E+00 0.  1.
          2    1    1    2  501    0  0.72910665124E+00  0.20225780516E+02  0.40110309446E+01  0.20632551059E+02  0.00000000000E+00 0.  1.
         21    1    1    2  503  502 -0.72910665124E+00 -0.20225780516E+02 -0.16175076077E+02  0.25908432605E+02  0.00000000000E+00 0.  1.
</event>
<event>
 4    1  0.2048241E+005  0.3910005E+02  0.7546771E-02  0.1353842E+00
          2   -1    0    0  503    0  0.00000000000E+00  0.00000000000E+00  0.11880799726E+03  0.11880799726E+03  0.00000000000E+00 0.  1.
         21   -1    0    0  501  502 -0.00000000000E+00 -0.00000000000E+00 -0.23681476633E+03  0.23681476633E+03  0.00000000000E+00 0.  1.
          2    1    1    2  501    0  0.39027061114E+02  0.23879764727E+01  0.11390960745E+03  0.12043343639E+03  0.00000000000E+00 0.  1.
         21    1    1    2  503  502 -0.39027061114E+02 -0.23879764727E+01 -0.23191637652E+03  0.23518932720E+03  0.00000000000E+00 0.  1.
</event>
<event>
 4    1  0.2048241E+005  0.2057441E+02  0.7546771E-02  0.1525429E+00
          2   -1    0    0  503    0  0.00000000000E+00  0.00000000000E+00  0.98520538477E+02  0.98520538477E+02  0.00000000000E+00 0.  1.
         21   -1    0    0  501  502 -0.00000000000E+00 -0.00000000000E+00 -0.47094185121E+01  0.47094185121E+01  0.00000000000E+00 0.  1.
          2    1    1    2  501    0 -0.19530559567E+02 -0.64702048748E+01  0.62186704108E+02  0.65501850935E+02  0.00000000000E+00 0.  1.
         21    1    1    2  503  502  0.19530559567E+02  0.64702048748E+01  0.31624415857E+02  0.37728106054E+02  0.00000000000E+00 0.  1.
</event>
<event>
 4    1  0.2048241E+005  0.2359744E+02  0.7546771E-02  0.1485129E+00
          2   -1    0    0  503    0  0.00000000000E+00  0.00000000000E+00  0.51011778424E+02  0.51011778424E+02  0.00000000000E+00 0.  1.
         21   -1    0    0  501  502 -0.00000000000E+00 -0.00000000000E+00 -0.13757864613E+02  0.13757864613E+02  0.00000000000E+00 0.  1.
          2    1    1    2  501    0 -0.15325939563E+02  0.17943100721E+02  0.33345865302E+02  0.40850777468E+02  0.00000000000E+00 0.  1.
         21    1    1    2  503  502  0.15325939563E+02 -0.17943100721E+02  0.39080485087E+01  0.23918865570E+02  0.00000000000E+00 0.  1.
</event>
<event>
 4    1  0.2048241E+005  0.2322401E+02  0.7546771E-02  0.1489704E+00
          2   -1    0    0  503    0  0.00000000000E+00  0.00000000000E+00  0.20063475684E+03  0.20063475684E+03  0.00000000000E+00 0.  1.
         21   -1    0    0  501  502 -0.00000000000E+00 -0.00000000000E+00 -0.48742737610E+01  0.48742737610E+01  0.00000000000E+00 0.  1.
          2    1    1    2  501    0  0.15040238293E+02  0.17695930132E+02  0.16669383290E+03  0.16830385806E+03  0.00000000000E+00 0.  1.
         21    1    1    2  503  502 -0.15040238293E+02 -0.17695930132E+02  0.29066650179E+02  0.37205172541E+02  0.00000000000E+00 0.  1.
</event>
<event>
 4    1  0.2048241E+005  0.2171135E+02  0.7546771E-02  0.1509346E+00
          2   -1    0    0  502    0  0.00000000000E+00  0.00000000000E+00  0.22276410221E+02  0.22276410221E+02  0.00000000000E+00 0. -1.
         21   -1    0    0  503  502 -0.00000000000E+00 -0.00000000000E+00 -0.16534371807E+03  0.16534371807E+03  0.00000000000E+00 0.  1.
          2    1    1    2  501    0 -0.21630484400E+02 -0.18721811055E+01  0.16068087951E+02  0.27010486258E+02  0.00000000000E+00 0. -1.
         21    1    1    2  503  501  0.21630484400E+02  0.18721811055E+01 -0.15913539580E+03  0.16060964203E+03  0.00000000000E+00 0.  1.
</event>
<event>
 4    1  0.2048241E+005  0.2485214E+02  0.7546771E-02  0.1470464E+00
          2   -1    0    0  503    0  0.00000000000E+00  0.00000000000E+00  0.42427082945E+03  0.42427082945E+03  0.00000000000E+00 0. -1.
         21   -1    0    0  501  502 -0.00000000000E+00 -0.00000000000E+00 -0.80161384694E+02  0.80161384694E+02  0.00000000000E+00 0. -1.
          2    1    1    2  501    0  0.24843670250E+02 -0.64891082112E+00  0.42197019605E+03  0.42270140216E+03  0.00000000000E+00 0. -1.
         21    1    1    2  503  502 -0.24843670250E+02  0.64891082112E+00 -0.77860751288E+02  0.81730811986E+02  0.00000000000E+00 0. -1.
</event>
<event>
 4    1  0.2048241E+005  0.2740986E+02  0.7546771E-02  0.1443534E+00
          2   -1    0    0  503    0  0.00000000000E+00  0.00000000000E+00  0.15200688159E+03  0.15200688159E+03  0.00000000000E+00 0. -1.
         21   -1    0    0  501  502 -0.00000000000E+00 -0.00000000000E+00 -0.92035936986E+01  0.92035936986E+01  0.00000000000E+00 0.  1.
          2    1    1    2  501    0 -0.24059904412E+02 -0.13130929434E+02  0.12624739336E+03  0.12918863974E+03  0.00000000000E+00 0. -1.
         21    1    1    2  503  502  0.24059904412E+02  0.13130929434E+02  0.16555894533E+02  0.32021835549E+02  0.00000000000E+00 0.  1.
</event>
<event>
 4    1  0.2048241E+005  0.3299439E+02  0.7546771E-02  0.1395239E+00
          2   -1    0    0  502    0  0.00000000000E+00  0.00000000000E+00  0.58367215610E+03  0.58367215610E+03  0.00000000000E+00 0.  1.
         21   -1    0    0  503  502 -0.00000000000E+00 -0.00000000000E+00 -0.49423827453E+02  0.49423827453E+02  0.00000000000E+00 0.  1.
          2    1    1    2  501    0  0.19082399473E+02 -0.26916386731E+02  0.57764182725E+03  0.57858336516E+03  0.00000000000E+00 0.  1.
         21    1    1    2  503  501 -0.19082399473E+02  0.26916386731E+02 -0.43393498600E+02  0.54512618402E+02  0.00000000000E+00 0.  1.
</event>
<event>
 4    1  0.2048241E+005  0.2139107E+02  0.7546771E-02  0.1513754E+00
          2   -1    0    0  502    0  0.00000000000E+00  0.00000000000E+00  0.13775560103E+02  0.13775560103E+02  0.00000000000E+00 0.  1.
         21   -1    0    0  503  502 -0.00000000000E+00 -0.00000000000E+00 -0.31157968722E+03  0.31157968722E+03  0.00000000000E+00 0. -1.
          2    1    1    2  501    0  0.18702714684E+02  0.10382022358E+02  0.48599424946E+01  0.21936202174E+02  0.00000000000E+00 0.  1.
         21    1    1    2  503  501 -0.18702714684E+02 -0.10382022358E+02 -0.30266406961E+03  0.30341904515E+03  0.00000000000E+00 0. -1.
</event>
<event>
 4    1  0.2048241E+005  0.2800515E+02  0.7546771E-02  0.1437764E+00
          2   -1    0    0  503    0  0.00000000000E+00  0.00000000000E+00  0.67190037455E+02  0.67190037455E+02  0.00000000000E+00 0.  1.
         21   -1    0    0  501  502 -0.00000000000E+00 -0.00000000000E+00 -0.19363582999E+02  0.19363582999E+02  0.00000000000E+00 0. -1.
          2    1    1    2  501    0 -0.52393838005E+00 -0.28000243922E+02  0.51187356590E+02  0.58347524761E+02  0.00000000000E+00 0.  1.
         21    1    1    2  503  502  0.52393838005E+00  0.28000243922E+02 -0.33609021345E+01  0.28206095693E+02  0.00000000000E+00 0. -1.
</event>
<event>
 4    1  0.2048241E+005  0.2015324E+02  0.7546771E-02  0.1531706E+00
          2   -1    0    0  502    0  0.00000000000E+00  0.00000000000E+00  0.46992897721E+01  0.46992897721E+01  0.00000000000E+00 0. -1.
         21   -1    0    0  503  502 -0.00000000000E+00 -0.00000000000E+00 -0.25820606105E+03  0.25820606105E+03  0.00000000000E+00 0.  1.
          2    1    1    2  501    0  0.94849609873E+01 -0.17781687185E+02 -0.19534980252E+02  0.28067211074E+02  0.00000000000E+00 0. -1.
         21    1    1    2  503  501 -0.94849609873E+01  0.17781687185E+02 -0.23397179103E+03  0.23483813975E+03  0.00000000000E+00 0.  1.
</event>
<event>
 4    1  0.2048241E+005  0.2217220E+02  0.7546771E-02  0.1503163E+00
          2   -1    0    0  503    0  0.00000000000E+00  0.00000000000E+00  0.10181739963E+04  0.10181739963E+04  0.00000000000E+00 0. -1.
         21   -1    0    0  501  502 -0.00000000000E+00 -0.00000000000E+00 -0.12055733119E+01  0.12055733119E+01  0.00000000000E+00 0.  1.
          2    1    1    2  501    0 -0.18641008029E+02 -0.12004962506E+02  0.90312389849E+03  0.90339602741E+03  0.00000000000E+00 0. -1.
         21    1    1    2  503  502  0.18641008029E+02  0.12004962506E+02  0.11384452454E+03  0.11598354225E+03  0.00000000000E+00 0.  1.
</event>
<event>
 4    1  0.2048241E+005  0.3141331E+02  0.7546771E-02  0.1407700E+00
          2   -1    0    0  503    0  0.00000000000E+00  0.00000000000E+00  0.37572277330E+03  0.37572277330E+03  0.00000000000E+00 0. -1.
         21   -1    0    0  501  502 -0.00000000000E+00 -0.00000000000E+00 -0.80661323902E+01  0.80661323902E+01  0.00000000000E+00 0. -1.
          2    1    1    2  501    0  0.18178149283E+02 -0.25619348080E+02  0.34141472513E+03  0.34285683695E+03  0.00000000000E+00 0. -1.
         21    1    1    2  503  502 -0.18178149283E+02  0.25619348080E+02  0.26241915774E+02  0.40932068735E+02  0.00000000000E+00 0. -1.
</event>
<event>
 4    1  0.2048241E+005  0.2394221E+02  0.7546771E-02  0.1480994E+00
          2   -1    0    0  503    0  0.00000000000E+00  0.00000000000E+00  0.84554776284E+03  0.84554776284E+03  0.00000000000E+00 0. -1.
         21   -1    0    0  501  502 -0.00000000000E+00 -0.00000000000E+00 -0.40552579258E+01  0.40552579258E+01  0.00000000000E+00 0. -1.
          2    1    1    2  501    0 -0.13624066747E+02 -0.19687925521E+02  0.80841684967E+03  0.80877131035E+03  0.00000000000E+00 0. -1.
         21    1    1    2  503  502  0.13624066747E+02  0.19687925521E+02  0.33075655243E+02  0.40831710420E+02  0.00000000000E+00 0. -1.
</event>
<event>
 4    1  0.2048241E+005  0.2955109E+02  0.7546771E-02  0.1423538E+00
          2   -1    0    0  502    0  0.00000000000E+00  0.00000000000E+00  0.11642248535E+04  0.11642248535E+04  0.00000000000E+00 0. -1.
         21   -1    0    0  503  502 -0.00000000000E+00 -0.00000000000E+00 -0.45123098707E+01  0.45123098707E+01  0.00000000000E+00 0.  1.
          2    1    1    2  501    0  0.27651732843E+02  0.10423457226E+02  0.11134488931E+04  0.11138409691E+04  0.00000000000E+00 0. -1.
         21    1    1    2  503  501 -0.27651732843E+02 -0.10423457226E+02  0.46263650482E+02  0.54896194273E+02  0.00000000000E+00 0.  1.
</event>
<event>
 4    1  0.2048241E+005  0.2967548E+02  0.7546771E-02  0.1422438E+00
          2   -1    0    0  502    0  0.00000000000E+00  0.00000000000E+00  0.77252272514E+03  0.77252272514E+03  0.00000000000E+00 0. -1.
         21   -1    0    0  503  502 -0.00000000000E+00 -0.00000000000E+00 -0.67940343471E+03  0.67940343471E+03  0.00000000000E+00 0. -1.
          2    1    1    2  501    0  0.18654404449E+02  0.23079155658E+02  0.77191343607E+03  0.77248364839E+03  0.00000000000E+00 0. -1.
         21    1    1    2  503  501 -0.18654404449E+02 -0.23079155658E+02 -0.67879414564E+03  0.67944251146E+03  0.00000000000E+00 0. -1.
</event>
<event>
 4    1  0.2048241E+005  0.2956106E+02  0.7546771E-02  0.1423450E+00
          2   -1    0    0  503    0  0.00000000000E+00  0.00000000000E+00  0.69936595807E+03  0.69936595807E+03  0.00000000000E+00 0.  1.
         21   -1    0    0  501  502 -0.00000000000E+00 -0.00000000000E+00 -0.11471004961E+03  0.11471004961E+03  0.00000000000E+00 0.  1.
          2    1    1    2  501    0  0.22731620094E+02 -0.18897869832E+02  0.69714302487E+03  0.69776948425E+03  0.00000000000E+00 0.  1.
         21    1    1    2  503  502 -0.22731620094E+02  0.18897869832E+02 -0.11248711640E+03  0.11630652343E+03  0.00000000000E+00 0.  1.
</event>
<event>
 4    1  0.2048241E+005  0.2336694E+02  0.7546771E-02  0.1487941E+00
          2   -1    0    0  503    0  0.00000000000E+00  0.00000000000E+00  0.13063340934E+04  0.13063340934E+04  0.00000000000E+00 0.  1.
         21   -1    0    0  501  502 -0.00000000000E+00 -0.00000000000E+00 -0.95288788272E+01  0.95288788272E+01  0.00000000000E+00 0.  1.
          2    1    1    2  501    0 -0.11333639484E+02  0.20434341974E+02  0.12917425601E+04  0.12919538906E+04  0.00000000000E+00 0.  1.
         21    1    1    2  503  502  0.11333639484E+02 -0.20434341974E+02  0.50626544518E+01  0.23909081663E+02  0.00000000000E+00 0.  1.
</event>
<event>
 4    1  0.2048241E+005  0.2382823E+02  0.7546771E-02  0.1482352E+00
          2   -1    0    0  503    0  0.00000000000E+00  0.00000000000E+00  0.52424831662E+03  0.52424831662E+03  0.00000000000E+00 0.  1.
         21   -1    0    0  501  502 -0.00000000000E+00 -0.00000000000E+00 -0.17565298519E+01  0.17565298519E+01  0.00000000000E+00 0.  1.
          2    1    1    2  501    0 -0.12599626953E+02 -0.20224584872E+02  0.42409896379E+03  0.42476783720E+03  0.00000000000E+00 0.  1.
         21    1    1    2  503  502  0.12599626953E+02  0.20224584872E+02  0.98392822986E+02  0.10123700928E+03  0.00000000000E+00 0.  1.
</event>
<event>
 4    1  0.2048241E+005  0.2295076E+02  0.7546771E-02  0.1493117E+00
          2   -1    0    0  503    0  0.00000000000E+00  0.00000000000E+00  0.17757175739E+02  0.17757175739E+02  0.00000000000E+00 0. -1.
         21   -1    0    0  501  502 -0.00000000000E+00 -0.00000000000E+00 -0.16995223691E+03  0.16995223691E+03  0.00000000000E+00 0. -1.
          2    1    1    2  501    0 -0.22804499809E+02 -0.25869601574E+01  0.91740326998E+01  0.24716400433E+02  0.00000000000E+00 0. -1.
         21    1    1    2  503  502  0.22804499809E+02  0.25869601574E+01 -0.16136909387E+03  0.16299301222E+03  0.00000000000E+00 0. -1.
</event>
<event>
 4    1  0.2048241E+005  0.2499357E+02  0.7546771E-02  0.1468875E+00
          2   -1    0    0  503    0  0.00000000000E+00  0.00000000000E+00  0.17298471999E+03  0.17298471999E+03  0.00000000000E+00 0.  1.
         21   -1    0    0  501  502 -0.00000000000E+00 -0.00000000000E+00 -0.67046821873E+01  0.67046821873E+01  0.00000000000E+00 0.  1.
          2    1    1    2  501    0  0.16075285337E+02 -0.19138023797E+02  0.14416795290E+03  0.14631841100E+03  0.00000000000E+00 0.  1.
         21    1    1    2  503  502 -0.16075285337E+02  0.19138023797E+02  0.22112084902E+02  0.33370991179E+02  0.00000000000E+00 0.  1.
</event>
<event>
 4    1  0.2048241E+005  0.2342276E+02  0.7546771E-02  0.1487257E+00
          2   -1    0    0  503    0  0.00000000000E+00  0.00000000000E+00  0.75447063311E+02  0.75447063311E+02  0.00000000000E+00 0.  1.
         21   -1    0    0  501  502 -0.00000000000E+00 -0.00000000000E+00 -0.32387546225E+03  0.32387546225E+03  0.00000000000E+00 0.  1.
          2    1    1    2  501    0  0.19679612204E+02  0.12701905730E+02  0.73192938599E+02  0.76849409929E+02  0.00000000000E+00 0.  1.
         21    1    1    2  503  502 -0.19679612204E+02 -0.12701905730E+02 -0.32162133754E+03  0.32247311563E+03  0.00000000000E+00 0.  1.
</event>
<event>
 4    1  0.2048241E+005  0.2539216E+02  0.7546771E-02  0.1464464E+00
          2   -1    0    0  502    0  0.00000000000E+00  0.00000000000E+00  0.37323442229E+03  0.37323442229E+03  0.00000000000E+00 0. -1.
         21   -1    0    0  503  502 -0.00000000000E+00 -0.00000000000E+00 -0.48776383955E+02  0.48776383955E+02  0.00000000000E+00 0.  1.
          2    1    1    2  501    0  0.16436877573E+02 -0.19354343317E+02  0.36946418368E+03  0.37033571874E+03  0.00000000000E+00 0. -1.
         21    1    1    2  503  501 -0.16436877573E+02  0.19354343317E+02 -0.45006145348E+02  0.51675087505E+02  0.00000000000E+00 0.  1.
</event>
<event>
 4    1  0.2048241E+005  0.2104752E+02  0.7546771E-02  0.1518587E+00
          2   -1    0    0  503    0  0.00000000000E+00  0.00000000000E+00  0.10483653385E+04  0.10483653385E+04  0.00000000000E+00 0.  1.
         21   -1    0    0  501  502 -0.00000000000E+00 -0.00000000000E+00 -0.44210689436E+00  0.44210689436E+00  0.00000000000E+00 0. -1.
          2    1    1    2  501    0  0.15107102001E+02  0.14655148441E+02  0.63422571274E+03  0.63457485973E+03  0.00000000000E+00 0.  1.
         21    1    1    2  503  502 -0.15107102001E+02 -0.14655148441E+02  0.41369751882E+03  0.41423258562E+03  0.00000000000E+00 0. -1.
</event>
<event>
 4    1  0.2048241E+005  0.3480224E+02  0.7546771E-02  0.1381959E+00
          2   -1    0    0  503    0  0.00000000000E+00  0.00000000000E+00  0.48202234362E+03  0.48202234362E+03  0.00000000000E+00 0. -1.
         21   -1    0    0  501  502 -0.00000000000E+00 -0.00000000000E+00 -0.41445038507E+01  0.41445038507E+01  0.00000000000E+00 0. -1.
          2    1    1    2  501    0  0.32594934275E+02  0.12196974380E+02  0.39146635701E+03  0.39301031105E+03  0.00000000000E+00 0. -1.
         21    1    1    2  503  502 -0.32594934275E+02 -0.12196974380E+02  0.86411482762E+02  0.93156536419E+02  0.00000000000E+00 0. -1.
</event>
<event>
 4    1  0.2048241E+005  0.2029832E+02  0.7546771E-02  0.1529523E+00
          2   -1    0    0  503    0  0.00000000000E+00  0.00000000000E+00  0.20388101899E+03  0.20388101899E+03  0.00000000000E+00 0.  1.
         21   -1    0    0  501  502 -0.00000000000E+00 -0.00000000000E+00 -0.41238930900E+01  0.41238930900E+01  0.00000000000E+00 0. -1.
          2    1    1    2  501    0 -0.13052759107E+01  0.20256311656E+02  0.17414788326E+03  0.17532685804E+03  0.00000000000E+00 0.  1.
         21    1    1    2  503  502  0.13052759107E+01 -0.20256311656E+02  0.25609242643E+02  0.32678054041E+02  0.00000000000E+00 0. -1.
</event>
<event>
 4    1  0.2048241E+005  0.2185511E+02  0.7546771E-02  0.1507398E+00
          2   -1    0    0  503    0  0.00000000000E+00  0.00000000000E+00  0.11786165996E+03  0.11786165996E+03  0.00000000000E+00 0.  1.
         21   -1    0    0  501  502 -0.00000000000E+00 -0.00000000000E+00 -0.46384096057E+03  0.46384096057E+03  0.00000000000E+00 0.  1.
          2    1    1    2  501    0  0.20696233010E+02 -0.70222420153E+01  0.11658828236E+03  0.11861902683E+03  0.00000000000E+00 0.  1.
         21    1    1    2  503  502 -0.20696233010E+02  0.70222420153E+01 -0.46256758296E+03  0.46308359370E+03  0.00000000000E+00 0.  1.
</event>
<event>
 4    1  0.2048241E+005  0.2352014E+02  0.7546771E-02  0.1486068E+00
          2   -1    0    0  502    0  0.00000000000E+00  0.00000000000E+00  0.84700110721E+02  0.84700110721E+02  0.00000000000E+00 0. -1.
         21   -1    0    0  503  502 -0.00000000000E+00 -0.00000000000E+00 -0.29287634154E+02  0.29287634154E+02  0.00000000000E+00 0.  1.
          2    1    1    2  501    0 -0.19718555457E+02 -0.12820905438E+02  0.77944859417E+02  0.81416203271E+02  0.00000000000E+00 0. -1.
         21    1    1    2  503  501  0.19718555457E+02  0.12820905438E+02 -0.22532382851E+02  0.32571541604E+02  0.00000000000E+00 0.  1.
</event>
<event>
 4    1  0.2048241E+005  0.2681847E+02  0.7546771E-02  0.1449440E+00
          2   -1    0    0  503    0  0.00000000000E+00  0.00000000000E+00  0.79358447577E+02  0.79358447577E+02  0.00000000000E+00 0.  1.
         21   -1    0    0  501  502 -0.00000000000E+00 -0.00000000000E+00 -0.12287302675E+03  0.12287302675E+03  0.00000000000E+00 0.  1.
          2    1    1    2  501    0  0.20496374308E+01 -0.26740034723E+02  0.75557897068E+02  0.80176220164E+02  0.00000000000E+00 0.  1.
         21    1    1    2  503  502 -0.20496374308E+01  0.26740034723E+02 -0.11907247624E+03  0.12205525416E+03  0.00000000000E+00 0.  1.
</event>
<event>
 4    1  0.2048241E+005  0.2395647E+02  0.7546771E-02  0.1480825E+00
          2   -1    0    0  502    0  0.00000000000E+00  0.00000000000E+00  0.50861521341E+02  0.50861521341E+02  0.00000000000E+00 0. -1.
         21   -1    0    0  503  502 -0.00000000000E+00 -0.00000000000E+00 -0.41093526748E+02  0.41093526748E+02  0.00000000000E+00 0.  1.
          2    1    1    2  501    0  0.14458332417E+02 -0.19101542762E+02  0.44043549402E+02  0.50137277111E+02  0.00000000000E+00 0. -1.
         21    1    1    2  503  501 -0.14458332417E+02  0.19101542762E+02 -0.34275554809E+02  0.41817770979E+02  0.00000000000E+00 0.  1.
</event>
<event>
 4    1  0.2048241E+005  0.5233923E+02  0.7546771E-02  0.1288337E+00
          2   -1    0    0  502    0  0.00000000000E+00  0.00000000000E+00  0.27292990674E+03  0.27292990674E+03  0.00000000000E+00 0.  1.
         21   -1    0    0  503  502 -0.00000000000E+00 -0.00000000000E+00 -0.37235950093E+02  0.37235950093E+02  0.00000000000E+00 0. -1.
          2    1    1    2  501    0  0.91575387497E+01  0.51531873377E+02  0.25039062975E+03  0.25580238849E+03  0.00000000000E+00 0.  1.
         21    1    1    2  503  501 -0.91575387497E+01 -0.51531873377E+02 -0.14696673107E+02  0.54363468341E+02  0.00000000000E+00 0. -1.
</event>
<event>
 4    1  0.2048241E+005  0.2488331E+02  0.7546771E-02  0.1470113E+00
          2   -1    0    0  502    0  0.00000000000E+00  0.00000000000E+00  0.12309121317E+02  0.12309121317E+02  0.00000000000E+00 0.  1.
         21   -1    0    0  503  502 -0.00000000000E+00 -0.00000000000E+00 -0.38158401902E+03  0.38158401902E+03  0.00000000000E+00 0. -1.
          2    1    1    2  501    0  0.18070869677E+02  0.17106226511E+02 -0.11307379295E+01  0.24908992043E+02  0.00000000000E+00 0.  1.
         21    1    1    2  503  501 -0.18070869677E+02 -0.17106226511E+02 -0.36814415978E+03  0.36898414830E+03  0.00000000000E+00 0. -1.
</event>
<event>
 4    1  0.2048241E+005  0.2860628E+02  0.7546771E-02  0.1432107E+00
          2   -1    0    0  502    0  0.00000000000E+00  0.00000000000E+00  0.13382691504E+03  0.13382691504E+03  0.00000000000E+00 0. -1.
         21   -1    0    0  503  502 -0.00000000000E+00 -0.00000000000E+00 -0.21079725605E+02  0.21079725605E+02  0.00000000000E+00 0. -1.
          2    1    1    2  501    0  0.27957151576E+02  0.60594638572E+01  0.12163334827E+03  0.12495195412E+03  0.00000000000E+00 0. -1.
         21    1    1    2  503  501 -0.27957151576E+02 -0.60594638572E+01 -0.88861588305E+01  0.29954686532E+02  0.00000000000E+00 0. -1.
</event>
<event>
 4    1  0.2048241E+005  0.2190090E+02  0.7546771E-02  0.1506781E+00
          2   -1    0    0  503    0  0.00000000000E+00  0.00000000000E+00  0.39010124107E+03  0.39010124107E+03  0.00000000000E+00 0.  1.
         21   -1    0    0  501  502 -0.00000000000E+00 -0.00000000000E+00 -0.14291443434E+02  0.14291443434E+02  0.00000000000E+00 0. -1.
          2    1    1    2  501    0  0.16356703830E+02 -0.14563917515E+02  0.38120776589E+03  0.38183636577E+03  0.00000000000E+00 0.  1.
         21    1    1    2  503  502 -0.16356703830E+02  0.14563917515E+02 -0.53979682499E+01  0.22556318734E+02  0.00000000000E+00 0. -1.
</event>
<event>
 4    1  0.2048241E+005  0.2064084E+02  0.7546771E-02  0.1524455E+00
          2   -1    0    0  503    0  0.00000000000E+00  0.00000000000E+00  0.14012898658E+04  0.14012898658E+04  0.00000000000E+00 0. -1.
         21   -1    0    0  501  502 -0.00000000000E+00 -0.00000000000E+00 -0.49440204147E+00  0.49440204147E+00  0.00000000000E+00 0. -1.
          2    1    1    2  501    0 -0.73114652537E+01  0.19302503672E+02  0.11353128356E+04  0.11355004531E+04  0.00000000000E+00 0. -1.
         21    1    1    2  503  502  0.73114652537E+01 -0.19302503672E+02  0.26548262818E+03  0.26628381482E+03  0.00000000000E+00 0. -1.
</event>
<event>
 4    1  0.2048241E+005  0.2095330E+02  0.7546771E-02  0.1519933E+00
          2   -1    0    0  503    0  0.00000000000E+00  0.00000000000E+00  0.65135653749E+02  0.65135653749E+02  0.00000000000E+00 0.  1.
         21   -1    0    0  501  502 -0.00000000000E+00 -0.00000000000E+00 -0.88100400347E+01  0.88100400347E+01  0.00000000000E+00 0.  1.
          2    1    1    2  501    0  0.15120633666E+02 -0.14505414134E+02  0.46082929240E+02  0.50622889773E+02  0.00000000000E+00 0.  1.
         21    1    1    2  503  502 -0.15120633666E+02  0.14505414134E+02  0.10242684474E+02  0.23322804010E+02  0.00000000000E+00 0.  1.
</event>
<event>
 4    1  0.2048241E+005  0.2238259E+02  0.7546771E-02  0.1500400E+00
          2   -1    0    0  503    0  0.00000000000E+00  0.00000000000E+00  0.14118210491E+04  0.14118210491E+04  0.00000000000E+00 0.  1.
         21   -1    0    0  501  502 -0.00000000000E+00 -0.00000000000E+00 -0.84975482797E+00  0.84975482797E+00  0.00000000000E+00 0.  1.
          2    1    1    2  501    0  0.91722147310E+01  0.20416926147E+02  0.12445322781E+04  0.12447335344E+04  0.00000000000E+00 0.  1.
         21    1    1    2  503  502 -0.91722147310E+01 -0.20416926147E+02  0.16643901618E+03  0.16793726955E+03  0.00000000000E+00 0.  1.
</event>
<event>
 4    1  0.2048241E+005  0.2441582E+02  0.7546771E-02  0.1475446E+00
          2   -1    0    0  502    0  0.00000000000E+00  0.00000000000E+00  0.16205310851E+03  0.16205310851E+03  0.00000000000E+00 0. -1.
         21   -1    0    0  503  502 -0.00000000000E+00 -0.00000000000E+00 -0.34456114859E+02  0.34456114859E+02  0.00000000000E+00 0.  1.
          2    1    1    2  501    0  0.19485121087E+02  0.14712656452E+02  0.15666014910E+03  0.15855136241E+03  0.00000000000E+00 0. -1.
         21    1    1    2  503  501 -0.19485121087E+02 -0.14712656452E+02 -0.29063155456E+02  0.37957860961E+02  0.00000000000E+00 0.  1.
</event>
<event>
 4    1  0.2048241E+005  0.2317441E+02  0.7546771E-02  0.1490320E+00
          2   -1    0    0  503    0  0.00000000000E+00  0.00000000000E+00  0.57338657637E+03  0.57338657637E+03  0.00000000000E+00 0.  1.
         21   -1    0    0  501  502 -0.00000000000E+00 -0.00000000000E+00 -0.38259936854E+02  0.38259936854E+02  0.00000000000E+00 0.  1.
          2    1    1    2  501    0 -0.22836396532E+02 -0.39436619957E+01  0.56961998087E+03  0.57009119979E+03  0.00000000000E+00 0.  1.
         21    1    1    2  503  502  0.22836396532E+02  0.39436619957E+01 -0.34493341354E+02  0.41555313430E+02  0.00000000000E+00 0.  1.
</event>
<event>
 4    1  0.2048241E+005  0.2325563E+02  0.7546771E-02  0.1489313E+00
          2   -1    0    0  503    0  0.00000000000E+00  0.00000000000E+00  0.72035681945E+03  0.72035681945E+03  0.00000000000E+00 0.  1.
         21   -1    0    0  501  502 -0.00000000000E+00 -0.00000000000E+00 -0.47673702988E+01  0.47673702988E+01  0.00000000000E+00 0.  1.
          2    1    1    2  501    0  0.16793708558E+02  0.16087133668E+02  0.69058612498E+03  0.69097758324E+03  0.00000000000E+00 0.  1.
         21    1    1    2  503  502 -0.16793708558E+02 -0.16087133668E+02  0.25003324167E+02  0.34146606510E+02  0.00000000000E+00 0.  1.
</event>
<event>
 4    1  0.2048241E+005  0.6642105E+02  0.7546771E-02  0.1239449E+00
          2   -1    0    0  502    0  0.00000000000E+00  0.00000000000E+00  0.14347237343E+03  0.14347237343E+03  0.00000000000E+00 0.  1.
         21   -1    0    0  503  502 -0.00000000000E+00 -0.00000000000E+00 -0.84624287033E+02  0.84624287033E+02  0.00000000000E+00 0. -1.
          2    1    1    2  501    0 -0.63896646887E+02  0.18137651951E+02  0.12042222979E+03  0.13752552247E+03  0.00000000000E+00 0.  1.
         21    1    1    2  503  501  0.63896646887E+02 -0.18137651951E+02 -0.61574143399E+02  0.90571137991E+02  0.00000000000E+00 0. -1.
</event>
<event>
 4    1  0.2048241E+005  0.2674949E+02  0.7546771E-02  0.1450141E+00
          2   -1    0    0  503    0  0.00000000000E+00  0.00000000000E+00  0.62162681858E+03  0.62162681858E+03  0.00000000000E+00 0. -1.
         21   -1    0    0  501  502 -0.00000000000E+00 -0.00000000000E+00 -0.36172888131E+01  0.36172888131E+01  0.00000000000E+00 0.  1.
          2    1    1    2  501    0  0.15221451231E+02  0.21996421618E+02  0.56713801012E+03  0.56776848949E+03  0.00000000000E+00 0. -1.
         21    1    1    2  503  502 -0.15221451231E+02 -0.21996421618E+02  0.50871519656E+02  0.57475617906E+02  0.00000000000E+00 0.  1.
</event>
<event>
 4    1  0.2048241E+005  0.2055105E+02  0.7546771E-02  0.1525772E+00
          2   -1    0    0  502    0  0.00000000000E+00  0.00000000000E+00  0.48874025128E+03  0.48874025128E+03  0.00000000000E+00 0.  1.
         21   -1    0    0  503  502 -0.00000000000E+00 -0.00000000000E+00 -0.11301487925E+01  0.11301487925E+01  0.00000000000E+00 0.  1.
          2    1    1    2  501    0 -0.34398912636E+00 -0.20548166661E+02  0.36263399351E+03  0.36321585694E+03  0.00000000000E+00 0.  1.
         21    1    1    2  503  501  0.34398912636E+00  0.20548166661E+02  0.12497610897E+03  0.12665454313E+03  0.00000000000E+00 0.  1.
</event>
<event>
 4    1  0.2048241E+005  0.2682240E+02  0.7546771E-02  0.1449400E+00
          2   -1    0    0  502    0  0.00000000000E+00  0.00000000000E+00  0.60620265800E+02  0.60620265800E+02  0.00000000000E+00 0. -1.
         21   -1    0    0  503  502 -0.00000000000E+00 -0.00000000000E+00 -0.23766418357E+02  0.23766418357E+02  0.00000000000E+00 0. -1.
          2    1    1    2  501    0  0.34940527736E+01 -0.26593851529E+02  0.48281208170E+02  0.55231480211E+02  0.00000000000E+00 0. -1.
         21    1    1    2  503  501 -0.34940527736E+01  0.26593851529E+02 -0.11427360727E+02  0.29155203946E+02  0.00000000000E+00 0. -1.
</event>
<event>
 4    1  0.2048241E+005  0.4201285E+02  0.7546771E-02  0.1337078E+00
          2   -1    0    0  503    0  0.00000000000E+00  0.00000000000E+00  0.20790715214E+04  0.20790715214E+04  0.00000000000E+00 0. -1.
         21   -1    0    0  501  502 -0.00000000000E+00 -0.00000000000E+00 -0.10110262613E+01  0.10110262613E+01  0.00000000000E+00 0. -1.
          2    1    1    2  501    0  0.28889644137E+02 -0.30503573802E+02  0.14554158341E+04  0.14560220910E+04  0.00000000000E+00 0. -1.
         21    1    1    2  503  502 -0.28889644137E+02  0.30503573802E+02  0.62264466106E+03  0.62406045660E+03  0.00000000000E+00 0. -1.
</event>
<event>
 4    1  0.2048241E+005  0.2661556E+02  0.7546771E-02  0.1451509E+00
          2   -1    0    0  503    0  0.00000000000E+00  0.00000000000E+00  0.65835433736E+03  0.65835433736E+03  0.00000000000E+00 0.  1.
         21   -1    0    0  501  502 -0.00000000000E+00 -0.00000000000E+00 -0.10613883322E+02  0.10613883322E+02  0.00000000000E+00 0. -1.
          2    1    1    2  501    0 -0.26604768762E+02 -0.75783760990E+00  0.64094696531E+03  0.64149933778E+03  0.00000000000E+00 0.  1.
         21    1    1    2  503  502  0.26604768762E+02  0.75783760990E+00  0.67934887334E+01  0.27468882902E+02  0.00000000000E+00 0. -1.
</event>
<event>
 4    1  0.2048241E+005  0.2221340E+02  0.7546771E-02  0.1502619E+00
          2   -1    0    0  502    0  0.00000000000E+00  0.00000000000E+00  0.78701541484E+03  0.78701541484E+03  0.00000000000E+00 0. -1.
         21   -1    0    0  503  502 -0.00000000000E+00 -0.00000000000E+00 -0.33911699048E+02  0.33911699048E+02  0.00000000000E+00 0.  1.
          2    1    1    2  501    0  0.10722251142E+02  0.19454268338E+02  0.78320332281E+03  0.78351827042E+03  0.00000000000E+00 0. -1.
         21    1    1    2  503  501 -0.10722251142E+02 -0.19454268338E+02 -0.30099607023E+02  0.37408843461E+02  0.00000000000E+00 0.  1.
</event>
<event>
 4    1  0.2048241E+005  0.3730809E+02  0.7546771E-02  0.1365026E+00
          2   -1    0    0  503    0  0.00000000000E+00  0.00000000000E+00  0.73301985292E+03  0.73301985292E+03  0.00000000000E+00 0.  1.
         21   -1    0    0  501  502 -0.00000000000E+00 -0.00000000000E+00 -0.26487182424E+01  0.26487182424E+01  0.00000000000E+00 0. -1.
          2    1    1    2  501    0 -0.15599228201E+02  0.33890373496E+02  0.56090203280E+03  0.56214142681E+03  0.00000000000E+00 0.  1.
         21    1    1    2  503  502  0.15599228201E+02 -0.33890373496E+02  0.16946910188E+03  0.17352714435E+03  0.00000000000E+00 0. -1.
</event>
<event>
 4    1  0.2048241E+005  0.2947446E+02  0.7546771E-02  0.1424219E+00
          2   -1    0    0  502    0  0.00000000000E+00  0.00000000000E+00  0.12322625086E+04  0.12322625086E+04  0.00000000000E+00 0.  1.
         21   -1    0    0  503  502 -0.00000000000E+00 -0.00000000000E+00 -0.37348312344E+02  0.37348312344E+02  0.00000000000E+00 0.  1.
          2    1    1    2  501    0  0.16944884558E+02 -0.24116690035E+02  0.12262425669E+04  0.12265967458E+04  0.00000000000E+00 0.  1.
         21    1    1    2  503  501 -0.16944884558E+02  0.24116690035E+02 -0.31328370678E+02  0.43014075142E+02  0.00000000000E+00 0.  1.
</event>
<event>
 4    1  0.2048241E+005  0.2354465E+02  0.7546771E-02  0.1485770E+00
          2   -1    0    0  503    0  0.00000000000E+00  0.00000000000E+00  0.52660939723E+03  0.52660939723E+03  0.00000000000E+00 0. -1.
         21   -1    0    0  501  502 -0.00000000000E+00 -0.00000000000E+00 -0.22612173014E+01  0.22612173014E+01  0.00000000000E+00 0.  1.
          2    1    1    2  501    0  0.13092551737E+02  0.19568741679E+02  0.45549486709E+03  0.45610297577E+03  0.00000000000E+00 0. -1.
         21    1    1    2  503  502 -0.13092551737E+02 -0.19568741679E+02  0.68853312838E+02  0.72767638760E+02  0.00000000000E+00 0.  1.
</event>
<event>
 4    1  0.2048241E+005  0.2794299E+02  0.7546771E-02  0.1438359E+00
          2   -1    0    0  503    0  0.00000000000E+00  0.00000000000E+00  0.85223319742E+03  0.85223319742E+03  0.00000000000E+00 0. -1.
         21   -1    0    0  501  502 -0.00000000000E+00 -0.00000000000E+00 -0.76870484907E+01  0.76870484907E+01  0.00000000000E+00 0. -1.
          2    1    1    2  501    0  0.27925340025E+02 -0.99298854503E+00  0.82579777113E+03  0.82627039729E+03  0.00000000000E+00 0. -1.
         21    1    1    2  503  502 -0.27925340025E+02  0.99298854503E+00  0.18748377798E+02  0.33649848614E+02  0.00000000000E+00 0. -1.
</event>
<event>
 4    1  0.2048241E+005  0.2084024E+02  0.7546771E-02  0.1521558E+00
          2   -1    0    0  502    0  0.00000000000E+00  0.00000000000E+00  0.17322044930E+01  0.17322044930E+01  0.00000000000E+00 0. -1.
         21   -1    0    0  503  502 -0.00000000000E+00 -0.00000000000E+00 -0.66394035716E+03  0.66394035716E+03  0.00000000000E+00 0. -1.
          2    1    1    2  501    0  0.12578677879E+02  0.16616025677E+02 -0.68530038732E+02  0.71628776724E+02  0.00000000000E+00 0. -1.
         21    1    1    2  503  501 -0.12578677879E+02 -0.16616025677E+02 -0.59367811394E+03  0.59404378493E+03  0.00000000000E+00 0. -1.
</event>
<event>
 4    1  0.2048241E+005  0.5104590E+02  0.7546771E-02  0.1293700E+00
          2   -1    0    0  502    0  0.00000000000E+00  0.00000000000E+00  0.83342489370E+03  0.83342489370E+03  0.00000000000E+00 0. -1.
         21   -1    0    0  503  502 -0.00000000000E+00 -0.00000000000E+00 -0.32443295829E+02  0.32443295829E+02  0.00000000000E+00 0.  1.
          2    1    1    2  501    0 -0.10374914866E+02  0.49980442054E+02  0.81203617844E+03  0.81363900997E+03  0.00000000000E+00 0. -1.
         21    1    1    2  503  501  0.10374914866E+02 -0.49980442054E+02 -0.11054580567E+02  0.52229179564E+02  0.00000000000E+00 0.  1.
</event>
<event>
 4    1  0.2048241E+005  0.2833494E+02  0.7546771E-02  0.1434640E+00
          2   -1    0    0  503    0  0.00000000000E+00  0.00000000000E+00  0.41205551654E+03  0.41205551654E+03  0.00000000000E+00 0. -1.
         21   -1    0    0  501  502 -0.00000000000E+00 -0.00000000000E+00 -0.11335223502E+02  0.11335223502E+02  0.00000000000E+00 0. -1.
          2    1    1    2  501    0 -0.26995716460E+02 -0.86081395146E+01  0.39300372190E+03  0.39402384979E+03  0.00000000000E+00 0. -1.
         21    1    1    2  503  502  0.26995716460E+02  0.86081395146E+01  0.77165711352E+01  0.29366890254E+02  0.00000000000E+00 0. -1.
</event>
<event>
 4    1  0.2048241E+005  0.2123760E+02  0.7546771E-02  0.1515899E+00
          2   -1    0    0  503    0  0.00000000000E+00  0.00000000000E+00  0.44972866043E+03  0.44972866043E+03  0.00000000000E+00 0. -1.
         21   -1    0    0  501  502 -0.00000000000E+00 -0.00000000000E+00 -0.96763600229E+02  0.96763600229E+02  0.00000000000E+00 0. -1.
          2    1    1    2  501    0 -0.20784766370E+02  0.43622171486E+01  0.44830894328E+03  0.44881170225E+03  0.00000000000E+00 0. -1.
         21    1    1    2  503  502  0.20784766370E+02 -0.43622171486E+01 -0.95343883077E+02  0.97680558412E+02  0.00000000000E+00 0. -1.
</event>
<event>
 4    1  0.2048241E+005  0.3564191E+02  0.7546771E-02  0.1376106E+00
          2   -1    0    0  502    0  0.00000000000E+00  0.00000000000E+00  0.53049818967E+03  0.53049818967E+03  0.00000000000E+00 0.  1.
         21   -1    0    0  503  502 -0.00000000000E+00 -0.00000000000E+00 -0.19338389251E+02  0.19338389251E+02  0.00000000000E+00 0. -1.
          2    1    1    2  501    0 -0.35629520535E+02  0.93962598453E+00  0.51291462886E+03  0.51415149726E+03  0.00000000000E+00 0.  1.
         21    1    1    2  503  501  0.35629520535E+02 -0.93962598453E+00 -0.17548284429E+01  0.35685081665E+02  0.00000000000E+00 0. -1.
</event>
<event>
 4    1  0.2048241E+005  0.2197102E+02  0.7546771E-02  0.1505840E+00
          2   -1    0    0  503    0  0.00000000000E+00  0.00000000000E+00  0.25514162716E+03  0.25514162716E+03  0.00000000000E+00 0. -1.
         21   -1    0    0  501  502 -0.00000000000E+00 -0.00000000000E+00 -0.92500562447E+01  0.92500562447E+01  0.00000000000E+00 0.  1.
          2    1    1    2  501    0  0.21637203684E+02  0.38153532902E+01  0.24084948792E+03  0.24184954276E+03  0.00000000000E+00 0. -1.
         21    1    1    2  503  502 -0.21637203684E+02 -0.38153532902E+01  0.50420830032E+01  0.22542140648E+02  0.00000000000E+00 0.  1.
</event>
<event>
 4    1  0.2048241E+005  0.2175782E+02  0.7546771E-02  0.1508714E+00
          2   -1    0    0  503    0  0.00000000000E+00  0.00000000000E+00  0.21506649506E+03  0.21506649506E+03  0.00000000000E+00 0. -1.
         21   -1    0    0  501  502 -0.00000000000E+00 -0.00000000000E+00 -0.31300019573E+01  0.31300019573E+01  0.00000000000E+00 0. -1.
          2    1    1    2  501    0 -0.20005451322E+02 -0.85548152920E+01  0.16539863655E+03  0.16682359522E+03  0.00000000000E+00 0. -1.
         21    1    1    2  503  502  0.20005451322E+02  0.85548152920E+01  0.46537856553E+02  0.51372901804E+02  0.00000000000E+00 0. -1.
</event>
<event>
 4    1  0.2165357E+005  0.2495418E+02  0.7546771E-02  0.1469317E+00
          2   -1    0    0  503    0  0.00000000000E+00  0.00000000000E+00  0.54645716760E+03  0.54645716760E+03  0.00000000000E+00 0.  1.
         21   -1    0    0  501  502 -0.00000000000E+00 -0.00000000000E+00 -0.28756243994E+03  0.28756243994E+03  0.00000000000E+00 0. -1.
          2    1    1    2  501    0 -0.21994059312E+02 -0.11788656818E+02  0.54563009151E+03  0.54620042826E+03  0.00000000000E+00 0.  1.
         21    1    1    2  503  502  0.21994059312E+02  0.11788656818E+02 -0.28673536386E+03  0.28781917928E+03  0.00000000000E+00 0. -1.
</event>
<event>
 4    1  0.2048241E+005  0.2403916E+02  0.7546771E-02  0.1479846E+00
          2   -1    0    0  503    0  0.00000000000E+00  0.00000000000E+00  0.18632458485E+04  0.18632458485E+04  0.00000000000E+00 0.  1.
         21   -1    0    0  501  502 -0.00000000000E+00 -0.00000000000E+00 -0.18156605298E+01  0.18156605298E+01  0.00000000000E+00 0. -1.
          2    1    1    2  501    0  0.10963220059E+02 -0.21393663542E+02  0.17798722956E+04  0.17800346260E+04  0.00000000000E+00 0.  1.
         21    1    1    2  503  502 -0.10963220059E+02  0.21393663542E+02  0.81557892376E+02  0.85026883058E+02  0.00000000000E+00 0. -1.
</event>
<event>
 4    1  0.2048241E+005  0.3102833E+02  0.7546771E-02  0.1410866E+00
          2   -1    0    0  503    0  0.00000000000E+00  0.00000000000E+00  0.65743990781E+03  0.65743990781E+03  0.00000000000E+00 0. -1.
         21   -1    0    0  501  502 -0.00000000000E+00 -0.00000000000E+00 -0.11580239329E+02  0.11580239329E+02  0.00000000000E+00 0. -1.
          2    1    1    2  501    0 -0.18634822082E+02  0.24809282120E+02  0.63557471865E+03  0.63633165885E+03  0.00000000000E+00 0. -1.
         21    1    1    2  503  502  0.18634822082E+02 -0.24809282120E+02  0.10284949833E+02  0.32688488286E+02  0.00000000000E+00 0. -1.
</event>
<event>
 4    1  0.2048241E+005  0.2604504E+02  0.7546771E-02  0.1457444E+00
          2   -1    0    0  502    0  0.00000000000E+00  0.00000000000E+00  0.40981601491E+03  0.40981601491E+03  0.00000000000E+00 0. -1.
         21   -1    0    0  503  502 -0.00000000000E+00 -0.00000000000E+00 -0.14239874160E+02  0.14239874160E+02  0.00000000000E+00 0.  1.
          2    1    1    2  501    0 -0.22808233587E+02 -0.12574922461E+02  0.39711239944E+03  0.39796557890E+03  0.00000000000E+00 0. -1.
         21    1    1    2  503  501  0.22808233587E+02  0.12574922461E+02 -0.15362586925E+01  0.26090310175E+02  0.00000000000E+00 0.  1.
</event>
<event>
 4    1  0.2048241E+005  0.2327099E+02  0.7546771E-02  0.1489123E+00
          2   -1    0    0  503    0  0.00000000000E+00  0.00000000000E+00  0.68481373483E+03  0.68481373483E+03  0.00000000000E+00 0.  1.
         21   -1    0    0  501  502 -0.00000000000E+00 -0.00000000000E+00 -0.19718875538E+01  0.19718875538E+01  0.00000000000E+00 0.  1.
          2    1    1    2  501    0 -0.56675292745E+01  0.22570296837E+02  0.60718376840E+03  0.60762954816E+03  0.00000000000E+00 0.  1.
         21    1    1    2  503  502  0.56675292745E+01 -0.22570296837E+02  0.75658078869E+02  0.79156074217E+02  0.00000000000E+00 0.  1.
</event>
<event>
 4    1  0.2048241E+005  0.2391599E+02  0.7546771E-02  0.1481306E+00
          2   -1    0    0  503    0  0.00000000000E+00  0.00000000000E+00  0.23205026955E+03  0.23205026955E+03  0.00000000000E+00 0. -1.
         21   -1    0    0  501  502 -0.00000000000E+00 -0.00000000000E+00 -0.64001236522E+01  0.64001236522E+01  0.00000000000E+00 0. -1.
          2    1    1    2  501    0  0.39786969829E+01  0.23582715710E+02  0.20631397276E+03  0.20769552202E+03  0.00000000000E+00 0. -1.
         21    1    1    2  503  502 -0.39786969829E+01 -0.23582715710E+02  0.19336173135E+02  0.30754871182E+02  0.00000000000E+00 0. -1.
</event>
<event>
 4    1  0.2048241E+005  0.2164224E+02  0.7546771E-02  0.1510290E+00
          2   -1    0    0  503    0  0.00000000000E+00  0.00000000000E+00  0.18466375728E+04  0.18466375728E+04  0.00000000000E+00 0.  1.
         21   -1    0    0  501  502 -0.00000000000E+00 -0.00000000000E+00 -0.31547658999E+00  0.31547658999E+00  0.00000000000E+00 0. -1.
          2    1    1    2  501    0  0.18648487099E+02  0.10982738329E+02  0.13320022695E+04  0.13321780784E+04  0.00000000000E+00 0.  1.
         21    1    1    2  503  502 -0.18648487099E+02 -0.10982738329E+02  0.51431982668E+03  0.51477497096E+03  0.00000000000E+00 0. -1.
</event>
<event>
 4    1  0.2048241E+005  0.2609908E+02  0.7546771E-02  0.1456874E+00
          2   -1    0    0  503    0  0.00000000000E+00  0.00000000000E+00  0.45092160425E+03  0.45092160425E+03  0.00000000000E+00 0. -1.
         21   -1    0    0  501  502 -0.00000000000E+00 -0.00000000000E+00 -0.46636162239E+01  0.46636162239E+01  0.00000000000E+00 0.  1.
          2    1    1    2  501    0  0.22912415612E+02 -0.12497318316E+02  0.41043055461E+03  0.41125953109E+03  0.00000000000E+00 0. -1.
         21    1    1    2  503  502 -0.22912415612E+02  0.12497318316E+02  0.35827433418E+02  0.44325689386E+02  0.00000000000E+00 0.  1.
</event>
<event>
 4    1  0.2048241E+005  0.2189121E+02  0.7546771E-02  0.1506911E+00
          2   -1    0    0  503    0  0.00000000000E+00  0.00000000000E+00  0.84333387109E+01  0.84333387109E+01  0.00000000000E+00 0.  1.
         21   -1    0    0  501  502 -0.00000000000E+00 -0.00000000000E+00 -0.61792246612E+02  0.61792246612E+02  0.00000000000E+00 0.  1.
          2    1    1    2  501    0  0.15039194041E+02  0.15907478466E+02 -0.36634707371E+02  0.42677008011E+02  0.00000000000E+00 0.  1.
         21    1    1    2  503  502 -0.15039194041E+02 -0.15907478466E+02 -0.16724200529E+02  0.27548577312E+02  0.00000000000E+00 0.  1.
</event>
<event>
 4    1  0.2048241E+005  0.2261681E+02  0.7546771E-02  0.1497367E+00
          2   -1    0    0  502    0  0.00000000000E+00  0.00000000000E+00  0.16077764346E+04  0.16077764346E+04  0.00000000000E+00 0. -1.
         21   -1    0    0  503  502 -0.00000000000E+00 -0.00000000000E+00 -0.20169074128E+01  0.20169074128E+01  0.00000000000E+00 0. -1.
          2    1    1    2  501    0 -0.15219207118E+02 -0.16730086870E+02  0.15415699945E+04  0.15417358944E+04  0.00000000000E+00 0. -1.
         21    1    1    2  503  501  0.15219207118E+02  0.16730086870E+02  0.64189532692E+02  0.68057447639E+02  0.00000000000E+00 0. -1.
</event>
<event>
 4    1  0.2048241E+005  0.2714258E+02  0.7546771E-02  0.1446181E+00
          2   -1    0    0  503    0  0.00000000000E+00  0.00000000000E+00  0.15188011473E+04  0.15188011473E+04  0.00000000000E+00 0.  1.
         21   -1    0    0  501  502 -0.00000000000E+00 -0.00000000000E+00 -0.27775393866E+02  0.27775393866E+02  0.00000000000E+00 0. -1.
          2    1    1    2  501    0  0.26397257903E+02 -0.63170039454E+01  0.15120190930E+04  0.15122626946E+04  0.00000000000E+00 0.  1.
         21    1    1    2  503  502 -0.26397257903E+02  0.63170039454E+01 -0.20993339557E+02  0.34313846613E+02  0.00000000000E+00 0. -1.
</event>
<event>
 4    1  0.2048241E+005  0.2103011E+02  0.7546771E-02  0.1518835E+00
          2   -1    0    0  502    0  0.00000000000E+00  0.00000000000E+00  0.85662691611E+01  0.85662691611E+01  0.00000000000E+00 0.  1.
         21   -1    0    0  503  502 -0.00000000000E+00 -0.00000000000E+00 -0.53266287618E+02  0.53266287618E+02  0.00000000000E+00 0.  1.
          2    1    1    2  501    0 -0.13137663694E+02  0.16421550667E+02 -0.16929247984E+02  0.26997499346E+02  0.00000000000E+00 0.  1.
         21    1    1    2  503  501  0.13137663694E+02 -0.16421550667E+02 -0.27770770473E+02  0.34835057433E+02  0.00000000000E+00 0.  1.
</event>
<event>
 4    1  0.2048241E+005  0.2057187E+02  0.7546771E-02  0.1525466E+00
          2   -1    0    0  503    0  0.00000000000E+00  0.00000000000E+00  0.99171254094E+03  0.99171254094E+03  0.00000000000E+00 0.  1.
         21   -1    0    0  501  502 -0.00000000000E+00 -0.00000000000E+00 -0.32603640426E+02  0.32603640426E+02  0.00000000000E+00 0. -1.
          2    1    1    2  501    0  0.47897472641E+01  0.20006501574E+02  0.98834976646E+03  0.98856383843E+03  0.00000000000E+00 0.  1.
         21    1    1    2  503  502 -0.47897472641E+01 -0.20006501574E+02 -0.29240865949E+02  0.35752342937E+02  0.00000000000E+00 0. -1.
</event>
<event>
 4    1  0.2048241E+005  0.2595059E+02  0.7546771E-02  0.1458444E+00
          2   -1    0    0  503    0  0.00000000000E+00  0.00000000000E+00  0.16470034330E+04  0.16470034330E+04  0.00000000000E+00 0. -1.
         21   -1    0    0  501  502 -0.00000000000E+00 -0.00000000000E+00 -0.14223313854E+02  0.14223313854E+02  0.00000000000E+00 0.  1.
          2    1    1    2  501    0 -0.21603535652E+02  0.14377774617E+02  0.16349773685E+04  0.16351833013E+04  0.00000000000E+00 0. -1.
         21    1    1    2  503  502  0.21603535652E+02 -0.14377774617E+02 -0.21972493358E+01  0.26043445629E+02  0.00000000000E+00 0.  1.
</event>
<event>
 4    1  0.2048241E+005  0.3177143E+02  0.7546771E-02  0.1404803E+00
          2   -1    0    0  503    0  0.00000000000E+00  0.00000000000E+00  0.12704375106E+04  0.12704375106E+04  0.00000000000E+00 0.  1.
         21   -1    0    0  501  502 -0.00000000000E+00 -0.00000000000E+00 -0.83709498935E+01  0.83709498935E+01  0.00000000000E+00 0. -1.
          2    1    1    2  501    0 -0.30463154378E+02  0.90233035670E+01  0.12393358226E+04  0.12397429996E+04  0.00000000000E+00 0.  1.
         21    1    1    2  503  502  0.30463154378E+02 -0.90233035670E+01  0.22730738075E+02  0.39065460900E+02  0.00000000000E+00 0. -1.
</event>
<event>
 4    1  0.2048241E+005  0.2383892E+02  0.7546771E-02  0.1482224E+00
          2   -1    0    0  503    0  0.00000000000E+00  0.00000000000E+00  0.32810013686E+03  0.32810013686E+03  0.00000000000E+00 0.  1.
         21   -1    0    0  501  502 -0.00000000000E+00 -0.00000000000E+00 -0.39468613702E+01  0.39468613702E+01  0.00000000000E+00 0. -1.
          2    1    1    2  501    0  0.23836298025E+02  0.35373062034E+00  0.28644487894E+03  0.28743514555E+03  0.00000000000E+00 0.  1.
         21    1    1    2  503  502 -0.23836298025E+02 -0.35373062034E+00  0.37708396555E+02  0.44611852681E+02  0.00000000000E+00 0. -1.
</event>
<event>
 4    1  0.2048241E+005  0.2670826E+02  0.7546771E-02  0.1450561E+00
          2   -1    0    0  502    0  0.00000000000E+00  0.00000000000E+00  0.88732512423E+03  0.88732512423E+03  0.00000000000E+00 0.  1.
         21   -1    0    0  503  502 -0.00000000000E+00 -0.00000000000E+00 -0.25210120989E+01  0.25210120989E+01  0.00000000000E+00 0.  1.
          2    1    1    2  501    0 -0.14324507186E+02  0.22541948676E+02  0.80959583631E+03  0.81003626408E+03  0.00000000000E+00 0.  1.
         21    1    1    2  503  501  0.14324507186E+02 -0.22541948676E+02  0.75208275822E+02  0.79809872249E+02  0.00000000000E+00 0.  1.
</event>
<event>
 4    1  0.2048241E+005  0.3593521E+02  0.7546771E-02  0.1374105E+00
          2   -1    0    0  503    0  0.00000000000E+00  0.00000000000E+00  0.51857546887E+03  0.51857546887E+03  0.00000000000E+00 0.  1.
         21   -1    0    0  501  502 -0.00000000000E+00 -0.00000000000E+00 -0.81803912341E+01  0.81803912341E+01  0.00000000000E+00 0. -1.
          2    1    1    2  501    0 -0.26685301529E+02  0.24067276467E+02  0.47486061595E+03  0.47621837816E+03  0.00000000000E+00 0.  1.
         21    1    1    2  503  502  0.26685301529E+02 -0.24067276467E+02  0.35534461687E+02  0.50537481948E+02  0.00000000000E+00 0. -1.
</event>
<event>
 4    1  0.2048241E+005  0.5583961E+02  0.7546771E-02  0.1274663E+00
          2   -1    0    0  503    0  0.00000000000E+00  0.00000000000E+00  0.25180546547E+04  0.25180546547E+04  0.00000000000E+00 0.  1.
         21   -1    0    0  501  502 -0.00000000000E+00 -0.00000000000E+00 -0.84158068381E+01  0.84158068381E+01  0.00000000000E+00 0.  1.
          2    1    1    2  501    0 -0.14579805654E+01 -0.55820571240E+02  0.24214240665E+04  0.24220678297E+04  0.00000000000E+00 0.  1.
         21    1    1    2  503  502  0.14579805654E+01  0.55820571240E+02  0.88214781318E+02  0.10440263179E+03  0.00000000000E+00 0.  1.
</event>
<event>
 4    1  0.2048241E+005  0.2144542E+02  0.7546771E-02  0.1512999E+00
          2   -1    0    0  502    0  0.00000000000E+00  0.00000000000E+00  0.32337436824E+03  0.32337436824E+03  0.00000000000E+00 0.  1.
         21   -1    0    0  503  502 -0.00000000000E+00 -0.00000000000E+00 -0.33409867807E+01  0.33409867807E+01  0.00000000000E+00 0. -1.
          2    1    1    2  501    0 -0.96310943536E+01 -0.19161113258E+02  0.28381491236E+03  0.28462398128E+03  0.00000000000E+00 0.  1.
         21    1    1    2  503  501  0.96310943536E+01  0.19161113258E+02  0.36218469096E+02  0.42091373741E+02  0.00000000000E+00 0. -1.
</event>
<event>
 4    1  0.2048241E+005  0.3123336E+02  0.7546771E-02  0.1409173E+00
          2   -1    0    0  502    0  0.00000000000E+00  0.00000000000E+00  0.98057519533E+03  0.98057519533E+03  0.00000000000E+00 0.  1.
         21   -1    0    0  503  502 -0.00000000000E+00 -0.00000000000E+00 -0.40671380520E+01  0.40671380520E+01  0.00000000000E+00 0. -1.
          2    1    1    2  501    0 -0.28773508654E+02 -0.12149409833E+02  0.91614702774E+03  0.91667927837E+03  0.00000000000E+00 0.  1.
         21    1    1    2  503  501  0.28773508654E+02  0.12149409833E+02  0.60361029546E+02  0.67963055018E+02  0.00000000000E+00 0. -1.
</event>
<event>
 4    1  0.2048241E+005  0.2579502E+02  0.7546771E-02  0.1460103E+00
          2   -1    0    0  502    0  0.00000000000E+00  0.00000000000E+00  0.78474651440E+03  0.78474651440E+03  0.00000000000E+00 0. -1.
         21   -1    0    0  503  502 -0.00000000000E+00 -0.00000000000E+00 -0.27385353697E+02  0.27385353697E+02  0.00000000000E+00 0. -1.
          2    1    1    2  501    0  0.54264048991E+01  0.25217792904E+02  0.77841085515E+03  0.77883813618E+03  0.00000000000E+00 0. -1.
         21    1    1    2  503  501 -0.54264048991E+01 -0.25217792904E+02 -0.21049694444E+02  0.33293731922E+02  0.00000000000E+00 0. -1.
</event>
<event>
 4    1  0.2048241E+005  0.2135640E+02  0.7546771E-02  0.1514237E+00
          2   -1    0    0  503    0  0.00000000000E+00  0.00000000000E+00  0.31988859801E+02  0.31988859801E+02  0.00000000000E+00 0. -1.
         21   -1    0    0  501  502 -0.00000000000E+00 -0.00000000000E+00 -0.47701740052E+02  0.47701740052E+02  0.00000000000E+00 0. -1.
          2    1    1    2  501    0  0.21110479584E+02 -0.32316590533E+01  0.25506756235E+02  0.33266959316E+02  0.00000000000E+00 0. -1.
         21    1    1    2  503  502 -0.21110479584E+02  0.32316590533E+01 -0.41219636487E+02  0.46423640536E+02  0.00000000000E+00 0. -1.
</event>
<event>
 4    1  0.2048241E+005  0.2231499E+02  0.7546771E-02  0.1501284E+00
          2   -1    0    0  503    0  0.00000000000E+00  0.00000000000E+00  0.93510293793E+03  0.93510293793E+03  0.00000000000E+00 0. -1.
         21   -1    0    0  501  502 -0.00000000000E+00 -0.00000000000E+00 -0.54348153043E+00  0.54348153043E+00  0.00000000000E+00 0.  1.
          2    1    1    2  501    0 -0.73953889121E+01  0.21053908497E+02  0.53372606862E+03  0.53419235783E+03  0.00000000000E+00 0. -1.
         21    1    1    2  503  502  0.73953889121E+01 -0.21053908497E+02  0.40083338778E+03  0.40145406163E+03  0.00000000000E+00 0.  1.
</event>
<event>
 4    1  0.2048241E+005  0.3877503E+02  0.7546771E-02  0.1355818E+00
          2   -1    0    0  502    0  0.00000000000E+00  0.00000000000E+00  0.37819561139E+02  0.37819561139E+02  0.00000000000E+00 0. -1.
         21   -1    0    0  503  502 -0.00000000000E+00 -0.00000000000E+00 -0.19218628188E+03  0.19218628188E+03  0.00000000000E+00 0.  1.
          2    1    1    2  501    0  0.30431408584E+02 -0.24029817191E+02  0.25236753823E+02  0.46264419225E+02  0.00000000000E+00 0. -1.
         21    1    1    2  503  501 -0.30431408584E+02  0.24029817191E+02 -0.17960347457E+03  0.18374142380E+03  0.00000000000E+00 0.  1.
</event>
<event>
 4    1  0.2048241E+005  0.2115343E+02  0.7546771E-02  0.1517085E+00
          2   -1    0    0  502    0  0.00000000000E+00  0.00000000000E+00  0.10365678311E+03  0.10365678311E+03  0.00000000000E+00 0. -1.
         21   -1    0    0  503  502 -0.00000000000E+00 -0.00000000000E+00 -0.21572332081E+02  0.21572332081E+02  0.00000000000E+00 0. -1.
          2    1    1    2  501    0  0.21076819932E+02 -0.17987028109E+01  0.97042569464E+02  0.99321336874E+02  0.00000000000E+00 0. -1.
         21    1    1    2  503  501 -0.21076819932E+02  0.17987028109E+01 -0.14958118435E+02  0.25907778317E+02  0.00000000000E+00 0. -1.
</event>
<event>
 4    1  0.2048241E+005  0.5107680E+02  0.7546771E-02  0.1293570E+00
          2   -1    0    0  502    0  0.00000000000E+00  0.00000000000E+00  0.11646050028E+04  0.11646050028E+04  0.00000000000E+00 0. -1.
         21   -1    0    0  503  502 -0.00000000000E+00 -0.00000000000E+00 -0.26255984166E+02  0.26255984166E+02  0.00000000000E+00 0.  1.
          2    1    1    2  501    0 -0.35486713087E+02 -0.36735990100E+02  0.11386383442E+04  0.11397833648E+04  0.00000000000E+00 0. -1.
         21    1    1    2  503  501  0.35486713087E+02  0.36735990100E+02 -0.28932559782E+00  0.51077622142E+02  0.00000000000E+00 0.  1.
</event>
<event>
 4    1  0.2048241E+005  0.2114709E+02  0.7546771E-02  0.1517175E+00
          2   -1    0    0  502    0  0.00000000000E+00  0.00000000000E+00  0.23155922142E+03  0.23155922142E+03  0.00000000000E+00 0. -1.
         21   -1    0    0  503  502 -0.00000000000E+00 -0.00000000000E+00 -0.51200413070E+01  0.51200413070E+01  0.00000000000E+00 0. -1.
          2    1    1    2  501    0 -0.58515640889E+01  0.20321386819E+02  0.20661086146E+03  0.20769026852E+03  0.00000000000E+00 0. -1.
         21    1    1    2  503  501  0.58515640889E+01 -0.20321386819E+02  0.19828318652E+02  0.28988994206E+02  0.00000000000E+00 0. -1.
</event>
<event>
 4    1  0.2048241E+005  0.2653874E+02  0.7546771E-02  0.1452297E+00
          2   -1    0    0  502    0  0.00000000000E+00  0.00000000000E+00  0.30539445203E+03  0.30539445203E+03  0.00000000000E+00 0. -1.
         21   -1    0    0  503  502 -0.00000000000E+00 -0.00000000000E+00 -0.49293208356E+01  0.49293208356E+01  0.00000000000E+00 0. -1.
          2    1    1    2  501    0  0.15622445377E+02 -0.21453301835E+02  0.26342033413E+03  0.26475380525E+03  0.00000000000E+00 0. -1.
         21    1    1    2  503  501 -0.15622445377E+02  0.21453301835E+02  0.37044797058E+02  0.45569967613E+02  0.00000000000E+00 0. -1.
</event>
<event>
 4    1  0.2048241E+005  0.2171353E+02  0.7546771E-02  0.1509317E+00
          2   -1    0    0  503    0  0.00000000000E+00  0.00000000000E+00  0.50713252971E+03  0.50713252971E+03  0.00000000000E+00 0.  1.
         21   -1    0    0  501  502 -0.00000000000E+00 -0.00000000000E+00 -0.15277171197E+01  0.15277171197E+01  0.00000000000E+00 0.  1.
          2    1    1    2  501    0 -0.28437148486E+01  0.21526514251E+02  0.41192641209E+03  0.41249829879E+03  0.00000000000E+00 0.  1.
         21    1    1    2  503  502  0.28437148486E+01 -0.21526514251E+02  0.93678400505E+02  0.96161948041E+02  0.00000000000E+00 0.  1.
</event>
<event>
 4    1  0.2048241E+005  0.4215020E+02  0.7546771E-02  0.1336326E+00
          2   -1    0    0  502    0  0.00000000000E+00  0.00000000000E+00  0.12096133575E+03  0.12096133575E+03  0.00000000000E+00 0.  1.
         21   -1    0    0  503  502 -0.00000000000E+00 -0.00000000000E+00 -0.16234341331E+02  0.16234341331E+02  0.00000000000E+00 0. -1.
          2    1    1    2  501    0 -0.17967794887E+02  0.38128695237E+02  0.73537034739E+02  0.84760453820E+02  0.00000000000E+00 0.  1.
         21    1    1    2  503  501  0.17967794887E+02 -0.38128695237E+02  0.31189959679E+02  0.52435223260E+02  0.00000000000E+00 0. -1.
</event>
<event>
 4    1  0.2048241E+005  0.2409553E+02  0.7546771E-02  0.1479181E+00
          2   -1    0    0  502    0  0.00000000000E+00  0.00000000000E+00  0.35929062321E+03  0.35929062321E+03  0.00000000000E+00 0.  1.
         21   -1    0    0  503  502 -0.00000000000E+00 -0.00000000000E+00 -0.55773639623E+02  0.55773639623E+02  0.00000000000E+00 0.  1.
          2    1    1    2  501    0  0.22572719949E+02 -0.84301155638E+01  0.35626207912E+03  0.35707599129E+03  0.00000000000E+00 0.  1.
         21    1    1    2  503  501 -0.22572719949E+02  0.84301155638E+01 -0.52745095532E+02  0.57988271547E+02  0.00000000000E+00 0.  1.
</event>
<event>
 4    1  0.2048241E+005  0.2029766E+02  0.7546771E-02  0.1529533E+00
          2   -1    0    0  502    0  0.00000000000E+00  0.00000000000E+00  0.29857068195E+01  0.29857068195E+01  0.00000000000E+00 0. -1.
         21   -1    0    0  503  502 -0.00000000000E+00 -0.00000000000E+00 -0.32386653766E+03  0.32386653766E+03  0.00000000000E+00 0.  1.
          2    1    1    2  501    0  0.19672492575E+02  0.49987953173E+01 -0.36631532305E+02  0.41879160423E+02  0.00000000000E+00 0. -1.
         21    1    1    2  503  501 -0.19672492575E+02 -0.49987953173E+01 -0.28424929853E+03  0.28497308406E+03  0.00000000000E+00 0.  1.
</event>
<event>
 4    1  0.2048241E+005  0.2135642E+02  0.7546771E-02  0.1514236E+00
          2   -1    0    0  503    0  0.00000000000E+00  0.00000000000E+00  0.30327013441E+02  0.30327013441E+02  0.00000000000E+00 0.  1.
         21   -1    0    0  501  502 -0.00000000000E+00 -0.00000000000E+00 -0.26137087610E+02  0.26137087610E+02  0.00000000000E+00 0.  1.
          2    1    1    2  501    0  0.83979181953E-01 -0.21356257193E+02  0.20491336083E+02  0.29597155746E+02  0.00000000000E+00 0.  1.
         21    1    1    2  503  502 -0.83979181953E-01  0.21356257193E+02 -0.16301410252E+02  0.26866945305E+02  0.00000000000E+00 0.  1.
</event>
<event>
 4    1  0.2048241E+005  0.2279996E+02  0.7546771E-02  0.1495025E+00
          2   -1    0    0  503    0  0.00000000000E+00  0.00000000000E+00  0.26859330443E+04  0.26859330443E+04  0.00000000000E+00 0.  1.
         21   -1    0    0  501  502 -0.00000000000E+00 -0.00000000000E+00 -0.19376146006E+00  0.19376146006E+00  0.00000000000E+00 0.  1.
          2    1    1    2  501    0  0.51351253153E+01  0.22214155645E+02  0.13881705958E+04  0.13883578218E+04  0.00000000000E+00 0.  1.
         21    1    1    2  503  502 -0.51351253153E+01 -0.22214155645E+02  0.12975686870E+04  0.12977689840E+04  0.00000000000E+00 0.  1.
</event>
<event>
 4    1  0.2048241E+005  0.3229354E+02  0.7546771E-02  0.1400659E+00
          2   -1    0    0  502    0  0.00000000000E+00  0.00000000000E+00  0.90593425039E+02  0.90593425039E+02  0.00000000000E+00 0. -1.
         21   -1    0    0  503  502 -0.00000000000E+00 -0.00000000000E+00 -0.25914544786E+02  0.25914544786E+02  0.00000000000E+00 0.  1.
          2    1    1    2  501    0 -0.31745066575E+02 -0.59264905195E+01  0.75768452089E+02  0.82363407370E+02  0.00000000000E+00 0. -1.
         21    1    1    2  503  501  0.31745066575E+02  0.59264905195E+01 -0.11089571836E+02  0.34144562455E+02  0.00000000000E+00 0.  1.
</event>
<event>
 4    1  0.2388759E+005  0.2600387E+02  0.7546771E-02  0.1457879E+00
          2   -1    0    0  502    0  0.00000000000E+00  0.00000000000E+00  0.11261030933E+04  0.11261030933E+04  0.00000000000E+00 0.  1.
         21   -1    0    0  503  502 -0.00000000000E+00 -0.00000000000E+00 -0.12628064114E+03  0.12628064114E+03  0.00000000000E+00 0.  1.
          2    1    1    2  501    0  0.17548605074E+02  0.19189775938E+02  0.11246125124E+04  0.11249131096E+04  0.00000000000E+00 0.  1.
         21    1    1    2  503  501 -0.17548605074E+02 -0.19189775938E+02 -0.12479006030E+03  0.12747062481E+03  0.00000000000E+00 0.  1.
</event>
<event>
 4    1  0.2048241E+005  0.2960064E+02  0.7546771E-02  0.1423099E+00
          2   -1    0    0  503    0  0.00000000000E+00  0.00000000000E+00  0.49052743500E+03  0.49052743500E+03  0.00000000000E+00 0.  1.
         21   -1    0    0  501  502 -0.00000000000E+00 -0.00000000000E+00 -0.28979816815E+01  0.28979816815E+01  0.00000000000E+00 0.  1.
          2    1    1    2  501    0 -0.20208642738E+02 -0.21628879157E+02  0.39662286040E+03  0.39772589939E+03  0.00000000000E+00 0.  1.
         21    1    1    2  503  502  0.20208642738E+02  0.21628879157E+02  0.91006592917E+02  0.95699517289E+02  0.00000000000E+00 0.  1.
</event>
<event>
 4    1  0.2048241E+005  0.2036155E+02  0.7546771E-02  0.1528579E+00
          2   -1    0    0  503    0  0.00000000000E+00  0.00000000000E+00  0.15047202299E+01  0.15047202299E+01  0.00000000000E+00 0.  1.
         21   -1    0    0  501  502 -0.00000000000E+00 -0.00000000000E+00 -0.28393018388E+03  0.28393018388E+03  0.00000000000E+00 0.  1.
          2    1    1    2  501    0  0.16611371663E+02  0.11775185633E+02 -0.11666193975E+03  0.11842550761E+03  0.00000000000E+00 0.  1.
         21    1    1    2  503  502 -0.16611371663E+02 -0.11775185633E+02 -0.16576352390E+03  0.16700939651E+03  0.00000000000E+00 0.  1.
</event>
<event>
 4    1  0.2048241E+005  0.2384445E+02  0.7546771E-02  0.1482158E+00
          2   -1    0    0  502    0  0.00000000000E+00  0.00000000000E+00  0.15995981678E+04  0.15995981678E+04  0.00000000000E+00 0. -1.
         21   -1    0    0  503  502 -0.00000000000E+00 -0.00000000000E+00 -0.49240898425E+01  0.49240898425E+01  0.00000000000E+00 0. -1.
          2    1    1    2  501    0 -0.23807716984E+02 -0.13230456561E+01  0.15701008969E+04  0.15702819442E+04  0.00000000000E+00 0. -1.
         21    1    1    2  503  501  0.23807716984E+02  0.13230456561E+01  0.24573181084E+02  0.34240313468E+02  0.00000000000E+00 0. -1.
</event>
<event>
 4    1  0.2048241E+005  0.3071198E+02  0.7546771E-02  0.1413508E+00
          2   -1    0    0  502    0  0.00000000000E+00  0.00000000000E+00  0.13081697244E+04  0.13081697244E+04  0.00000000000E+00 0. -1.
         21   -1    0    0  503  502 -0.00000000000E+00 -0.00000000000E+00 -0.13380213101E+01  0.13380213101E+01  0.00000000000E+00 0. -1.
          2    1    1    2  501    0 -0.39426354597E+01  0.30457861651E+02  0.10980339483E+04  0.10984633709E+04  0.00000000000E+00 0. -1.
         21    1    1    2  503  501  0.39426354597E+01 -0.30457861651E+02  0.20879775486E+03  0.21104437482E+03  0.00000000000E+00 0. -1.
</event>
<event>
 4    1  0.2048241E+005  0.2834287E+02  0.7546771E-02  0.1434566E+00
          2   -1    0    0  502    0  0.00000000000E+00  0.00000000000E+00  0.21509578561E+03  0.21509578561E+03  0.00000000000E+00 0. -1.
         21   -1    0    0  503  502 -0.00000000000E+00 -0.00000000000E+00 -0.53082964971E+01  0.53082964971E+01  0.00000000000E+00 0.  1.
          2    1    1    2  501    0 -0.14555079275E+02  0.24320112224E+02  0.16489478304E+03  0.16731290346E+03  0.00000000000E+00 0. -1.
         21    1    1    2  503  501  0.14555079275E+02 -0.24320112224E+02  0.44892706071E+02  0.53091178643E+02  0.00000000000E+00 0.  1.
</event>
<event>
 4    1  0.2048241E+005  0.2211615E+02  0.7546771E-02  0.1503905E+00
          2   -1    0    0  502    0  0.00000000000E+00  0.00000000000E+00  0.40346260458E+02  0.40346260458E+02  0.00000000000E+00 0.  1.
         21   -1    0    0  503  502 -0.00000000000E+00 -0.00000000000E+00 -0.15122626379E+03  0.15122626379E+03  0.00000000000E+00 0. -1.
          2    1    1    2  501    0  0.14998551365E+02 -0.16253231274E+02  0.36426679895E+02  0.42614869213E+02  0.00000000000E+00 0.  1.
         21    1    1    2  503  501 -0.14998551365E+02  0.16253231274E+02 -0.14730668323E+03  0.14895765504E+03  0.00000000000E+00 0. -1.
</event>
<event>
 4    1  0.2048241E+005  0.2841842E+02  0.7546771E-02  0.1433858E+00
          2   -1    0    0  503    0  0.00000000000E+00  0.00000000000E+00  0.75840368096E+02  0.75840368096E+02  0.00000000000E+00 0. -1.
         21   -1    0    0  501  502 -0.00000000000E+00 -0.00000000000E+00 -0.15260981693E+02  0.15260981693E+02  0.00000000000E+00 0.  1.
          2    1    1    2  501    0  0.28071271885E+02  0.44283264304E+01  0.55331078799E+02  0.62202368615E+02  0.00000000000E+00 0. -1.
         21    1    1    2  503  502 -0.28071271885E+02 -0.44283264304E+01  0.52483076030E+01  0.28898981174E+02  0.00000000000E+00 0.  1.
</event>
<event>
 4    1  0.2048241E+005  0.3544738E+02  0.7546771E-02  0.1377445E+00
          2   -1    0    0  503    0  0.00000000000E+00  0.00000000000E+00  0.39636916134E+03  0.39636916134E+03  0.00000000000E+00 0. -1.
         21   -1    0    0  501  502 -0.00000000000E+00 -0.00000000000E+00 -0.31701558215E+01  0.31701558215E+01  0.00000000000E+00 0. -1.
          2    1    1    2  501    0  0.30681365317E+02  0.17753043788E+02  0.19554122960E+03  0.19872817922E+03  0.00000000000E+00 0. -1.
         21    1    1    2  503  502 -0.30681365317E+02 -0.17753043788E+02  0.19765777592E+03  0.20081113794E+03  0.00000000000E+00 0. -1.
</event>
<event>
 4    1  0.2048241E+005  0.3484842E+02  0.7546771E-02  0.1381632E+00
          2   -1    0    0  502    0  0.00000000000E+00  0.00000000000E+00  0.66294282079E+03  0.66294282079E+03  0.00000000000E+00 0. -1.
         21   -1    0    0  503  502 -0.00000000000E+00 -0.00000000000E+00 -0.62550368203E+01  0.62550368203E+01  0.00000000000E+00 0.  1.
          2    1    1    2  501    0 -0.16783857764E+02  0.30540379221E+02  0.60971350312E+03  0.61070857906E+03  0.00000000000E+00 0. -1.
         21    1    1    2  503  501  0.16783857764E+02 -0.30540379221E+02  0.46974280842E+02  0.58489278548E+02  0.00000000000E+00 0.  1.
</event>
<event>
 4    1  0.2048241E+005  0.2336789E+02  0.7546771E-02  0.1487930E+00
          2   -1    0    0  503    0  0.00000000000E+00  0.00000000000E+00  0.80537355929E+03  0.80537355929E+03  0.00000000000E+00 0. -1.
         21   -1    0    0  501  502 -0.00000000000E+00 -0.00000000000E+00 -0.67875844270E+00  0.67875844270E+00  0.00000000000E+00 0. -1.
          2    1    1    2  501    0 -0.59918598608E+01  0.22586629132E+02  0.38904087636E+03  0.38974204505E+03  0.00000000000E+00 0. -1.
         21    1    1    2  503  502  0.59918598608E+01 -0.22586629132E+02  0.41565392449E+03  0.41631027268E+03  0.00000000000E+00 0. -1.
</event>
<event>
 4    1  0.2048241E+005  0.2928484E+02  0.7546771E-02  0.1425915E+00
          2   -1    0    0  503    0  0.00000000000E+00  0.00000000000E+00  0.39279372212E+03  0.39279372212E+03  0.00000000000E+00 0.  1.
         21   -1    0    0  501  502 -0.00000000000E+00 -0.00000000000E+00 -0.10070673873E+03  0.10070673873E+03  0.00000000000E+00 0. -1.
          2    1    1    2  501    0  0.21331875380E+02  0.20063716726E+02  0.39010427279E+03  0.39120192393E+03  0.00000000000E+00 0.  1.
         21    1    1    2  503  502 -0.21331875380E+02 -0.20063716726E+02 -0.98017289402E+02  0.10229853693E+03  0.00000000000E+00 0. -1.
</event>
<event>
 4    1  0.2048241E+005  0.4038794E+02  0.7546771E-02  0.1346227E+00
          2   -1    0    0  502    0  0.00000000000E+00  0.00000000000E+00  0.89245808978E+01  0.89245808978E+01  0.00000000000E+00 0.  1.
         21   -1    0    0  503  502 -0.00000000000E+00 -0.00000000000E+00 -0.18284049179E+03  0.18284049179E+03  0.00000000000E+00 0.  1.
          2    1    1    2  501    0  0.40209146880E+02  0.37960636320E+01 -0.85136036078E+02  0.94230198084E+02  0.00000000000E+00 0.  1.
         21    1    1    2  503  501 -0.40209146880E+02 -0.37960636320E+01 -0.88779874814E+02  0.97534874604E+02  0.00000000000E+00 0.  1.
</event>
<event>
 4    1  0.2048241E+005  0.2319822E+02  0.7546771E-02  0.1490024E+00
          2   -1    0    0  503    0  0.00000000000E+00  0.00000000000E+00  0.19268267659E+04  0.19268267659E+04  0.00000000000E+00 0. -1.
         21   -1    0    0  501  502 -0.00000000000E+00 -0.00000000000E+00 -0.29477342778E+00  0.29477342778E+00  0.00000000000E+00 0. -1.
          2    1    1    2  501    0 -0.38817227988E+01 -0.22871149255E+02  0.11840502450E+04  0.11842774759E+04  0.00000000000E+00 0. -1.
         21    1    1    2  503  502  0.38817227988E+01  0.22871149255E+02  0.74248174752E+03  0.74284406348E+03  0.00000000000E+00 0. -1.
</event>
<event>
 4    1  0.2048241E+005  0.2270046E+02  0.7546771E-02  0.1496294E+00
          2   -1    0    0  503    0  0.00000000000E+00  0.00000000000E+00  0.87752002658E+00  0.87752002658E+00  0.00000000000E+00 0. -1.
         21   -1    0    0  501  502 -0.00000000000E+00 -0.00000000000E+00 -0.59004151606E+03  0.59004151606E+03  0.00000000000E+00 0. -1.
          2    1    1    2  501    0  0.95995727669E+00 -0.22680158098E+02 -0.31495645760E+03  0.31577346512E+03  0.00000000000E+00 0. -1.
         21    1    1    2  503  502 -0.95995727669E+00  0.22680158098E+02 -0.27420753843E+03  0.27514557096E+03  0.00000000000E+00 0. -1.
</event>
<event>
 4    1  0.2048241E+005  0.3318416E+02  0.7546771E-02  0.1393799E+00
          2   -1    0    0  503    0  0.00000000000E+00  0.00000000000E+00  0.50995537311E+02  0.50995537311E+02  0.00000000000E+00 0.  1.
         21   -1    0    0  501  502 -0.00000000000E+00 -0.00000000000E+00 -0.48819906452E+02  0.48819906452E+02  0.00000000000E+00 0.  1.
          2    1    1    2  501    0 -0.32655575068E+02 -0.58993328750E+01  0.38358025796E+02  0.50720083343E+02  0.00000000000E+00 0.  1.
         21    1    1    2  503  502  0.32655575068E+02  0.58993328750E+01 -0.36182394936E+02  0.49095360420E+02  0.00000000000E+00 0.  1.
</event>
<event>
 4    1  0.2048241E+005  0.8550751E+02  0.7546771E-02  0.1191608E+00
          2   -1    0    0  503    0  0.00000000000E+00  0.00000000000E+00  0.53070707251E+03  0.53070707251E+03  0.00000000000E+00 0.  1.
         21   -1    0    0  501  502 -0.00000000000E+00 -0.00000000000E+00 -0.13780629315E+02  0.13780629315E+02  0.00000000000E+00 0.  1.
          2    1    1    2  501    0 -0.19665198558E+02 -0.83215467539E+02  0.26290108315E+03  0.27645707369E+03  0.00000000000E+00 0.  1.
         21    1    1    2  503  502  0.19665198558E+02  0.83215467539E+02  0.25402536004E+03  0.26803062813E+03  0.00000000000E+00 0.  1.
</event>
<event>
 4    1  0.2677642E+005  0.2875304E+02  0.7546771E-02  0.1430751E+00
          2   -1    0    0  502    0  0.00000000000E+00  0.00000000000E+00  0.17964398206E+04  0.17964398206E+04  0.00000000000E+00 0.  1.
         21   -1    0    0  503  502 -0.00000000000E+00 -0.00000000000E+00 -0.18016625153E+03  0.18016625153E+03  0.00000000000E+00 0.  1.
          2    1    1    2  501    0  0.20203009386E+01  0.28681978181E+02  0.17951767743E+04  0.17954070259E+04  0.00000000000E+00 0.  1.
         21    1    1    2  503  501 -0.20203009386E+01 -0.28681978181E+02 -0.17890320529E+03  0.18119904622E+03  0.00000000000E+00 0.  1.
</event>
<event>
 4    1  0.2048241E+005  0.3025557E+02  0.7546771E-02  0.1417388E+00
          2   -1    0    0  503    0  0.00000000000E+00  0.00000000000E+00  0.13073960610E+04  0.13073960610E+04  0.00000000000E+00 0. -1.
         21   -1    0    0  501  502 -0.00000000000E+00 -0.00000000000E+00 -0.74304417961E+00  0.74304417961E+00  0.00000000000E+00 0. -1.
          2    1    1    2  501    0  0.30254289929E+02  0.27851585708E+00  0.81044019600E+03  0.81100475395E+03  0.00000000000E+00 0. -1.
         21    1    1    2  503  502 -0.30254289929E+02 -0.27851585708E+00  0.49621282084E+03  0.49713435126E+03  0.00000000000E+00 0. -1.
</event>
<event>
 4    1  0.2048241E+005  0.2180711E+02  0.7546771E-02  0.1508046E+00
          2   -1    0    0  503    0  0.00000000000E+00  0.00000000000E+00  0.18961608267E+03  0.18961608267E+03  0.00000000000E+00 0.  1.
         21   -1    0    0  501  502 -0.00000000000E+00 -0.00000000000E+00 -0.44884758470E+01  0.44884758470E+01  0.00000000000E+00 0.  1.
          2    1    1    2  501    0  0.11502136441E+02  0.18527030837E+02  0.15703195014E+03  0.15853890178E+03  0.00000000000E+00 0.  1.
         21    1    1    2  503  502 -0.11502136441E+02 -0.18527030837E+02  0.28095656682E+02  0.35565656732E+02  0.00000000000E+00 0.  1.
</event>
<event>
 4    1  0.2048241E+005  0.2102551E+02  0.7546771E-02  0.1518901E+00
          2   -1    0    0  503    0  0.00000000000E+00  0.00000000000E+00  0.52091722408E+01  0.52091722408E+01  0.00000000000E+00 0. -1.
         21   -1    0    0  501  502 -0.00000000000E+00 -0.00000000000E+00 -0.13589323416E+03  0.13589323416E+03  0.00000000000E+00 0. -1.
          2    1    1    2  501    0 -0.68463819996E+01  0.19879615764E+02 -0.22109136092E+02  0.30510423926E+02  0.00000000000E+00 0. -1.
         21    1    1    2  503  502  0.68463819996E+01 -0.19879615764E+02 -0.10857492583E+03  0.11059198248E+03  0.00000000000E+00 0. -1.
</event>
<event>
 4    1  0.2048241E+005  0.2111222E+02  0.7546771E-02  0.1517669E+00
          2   -1    0    0  503    0  0.00000000000E+00  0.00000000000E+00  0.35512079081E+01  0.35512079081E+01  0.00000000000E+00 0.  1.
         21   -1    0    0  501  502 -0.00000000000E+00 -0.00000000000E+00 -0.12687911017E+03  0.12687911017E+03  0.00000000000E+00 0.  1.
          2    1    1    2  501    0 -0.16570948819E+02  0.13081640233E+02 -0.54898969619E+02  0.58818555926E+02  0.00000000000E+00 0.  1.
         21    1    1    2  503  502  0.16570948819E+02 -0.13081640233E+02 -0.68428932640E+02  0.71611762150E+02  0.00000000000E+00 0.  1.
</event>
<event>
 4    1  0.2048241E+005  0.3653179E+02  0.7546771E-02  0.1370103E+00
          2   -1    0    0  503    0  0.00000000000E+00  0.00000000000E+00  0.15680923214E+02  0.15680923214E+02  0.00000000000E+00 0.  1.
         21   -1    0    0  501  502 -0.00000000000E+00 -0.00000000000E+00 -0.19559800756E+03  0.19559800756E+03  0.00000000000E+00 0.  1.
          2    1    1    2  501    0 -0.34468767020E+02  0.12102728057E+02 -0.10561286063E+02  0.38027788387E+02  0.00000000000E+00 0.  1.
         21    1    1    2  503  502  0.34468767020E+02 -0.12102728057E+02 -0.16935579828E+03  0.17325114239E+03  0.00000000000E+00 0.  1.
</event>
<event>
 4    1  0.2048241E+005  0.2141232E+02  0.7546771E-02  0.1513459E+00
          2   -1    0    0  502    0  0.00000000000E+00  0.00000000000E+00  0.26717165035E+03  0.26717165035E+03  0.00000000000E+00 0. -1.
         21   -1    0    0  503  502 -0.00000000000E+00 -0.00000000000E+00 -0.20515538478E+01  0.20515538478E+01  0.00000000000E+00 0. -1.
          2    1    1    2  501    0  0.64402511500E+01  0.20420839393E+02  0.18699418746E+03  0.18821613549E+03  0.00000000000E+00 0. -1.
         21    1    1    2  503  501 -0.64402511500E+01 -0.20420839393E+02  0.78125909048E+02  0.81007068710E+02  0.00000000000E+00 0. -1.
</event>
<event>
 4    1  0.2048241E+005  0.2833587E+02  0.7546771E-02  0.1434632E+00
          2   -1    0    0  503    0  0.00000000000E+00  0.00000000000E+00  0.15838535051E+04  0.15838535051E+04  0.00000000000E+00 0. -1.
         21   -1    0    0  501  502 -0.00000000000E+00 -0.00000000000E+00 -0.37553196541E+01  0.37553196541E+01  0.00000000000E+00 0. -1.
          2    1    1    2  501    0  0.25690645689E+02 -0.11954601198E+02  0.15283328517E+04  0.15285955081E+04  0.00000000000E+00 0. -1.
         21    1    1    2  503  502 -0.25690645689E+02  0.11954601198E+02  0.51765333731E+02  0.59013316650E+02  0.00000000000E+00 0. -1.
</event>
<event>
 4    1  0.2048241E+005  0.2532802E+02  0.7546771E-02  0.1465167E+00
          2   -1    0    0  503    0  0.00000000000E+00  0.00000000000E+00  0.45784391223E+03  0.45784391223E+03  0.00000000000E+00 0. -1.
         21   -1    0    0  501  502 -0.00000000000E+00 -0.00000000000E+00 -0.49327326437E+01  0.49327326437E+01  0.00000000000E+00 0. -1.
          2    1    1    2  501    0  0.11713664135E+02 -0.22456589905E+02  0.42224188453E+03  0.42300084800E+03  0.00000000000E+00 0. -1.
         21    1    1    2  503  502 -0.11713664135E+02  0.22456589905E+02  0.30669295055E+02  0.39775796872E+02  0.00000000000E+00 0. -1.
</event>
<event>
 4    1  0.2048241E+005  0.2123945E+02  0.7546771E-02  0.1515873E+00
          2   -1    0    0  503    0  0.00000000000E+00  0.00000000000E+00  0.45137356005E+03  0.45137356005E+03  0.00000000000E+00 0.  1.
         21   -1    0    0  501  502 -0.00000000000E+00 -0.00000000000E+00 -0.13224636968E+03  0.13224636968E+03  0.00000000000E+00 0. -1.
          2    1    1    2  501    0  0.17797199197E+02  0.11591978760E+02  0.45026882108E+03  0.45076948157E+03  0.00000000000E+00 0.  1.
         21    1    1    2  503  502 -0.17797199197E+02 -0.11591978760E+02 -0.13114163071E+03  0.13285044816E+03  0.00000000000E+00 0. -1.
</event>
<event>
 4    1  0.2048241E+005  0.2402138E+02  0.7546771E-02  0.1480056E+00
          2   -1    0    0  503    0  0.00000000000E+00  0.00000000000E+00  0.94131289748E+02  0.94131289748E+02  0.00000000000E+00 0. -1.
         21   -1    0    0  501  502 -0.00000000000E+00 -0.00000000000E+00 -0.63324536425E+01  0.63324536425E+01  0.00000000000E+00 0. -1.
          2    1    1    2  501    0 -0.28268630325E+01 -0.23854466699E+02  0.52880613694E+02  0.58080857782E+02  0.00000000000E+00 0. -1.
         21    1    1    2  503  502  0.28268630325E+01  0.23854466699E+02  0.34918222412E+02  0.42382885608E+02  0.00000000000E+00 0. -1.
</event>
<event>
 4    1  0.2048241E+005  0.2315619E+02  0.7546771E-02  0.1490546E+00
          2   -1    0    0  503    0  0.00000000000E+00  0.00000000000E+00  0.14680649849E+03  0.14680649849E+03  0.00000000000E+00 0.  1.
         21   -1    0    0  501  502 -0.00000000000E+00 -0.00000000000E+00 -0.85691462492E+01  0.85691462492E+01  0.00000000000E+00 0. -1.
          2    1    1    2  501    0 -0.10823584948E+02  0.20470930421E+02  0.12796497847E+03  0.13004324165E+03  0.00000000000E+00 0.  1.
         21    1    1    2  503  502  0.10823584948E+02 -0.20470930421E+02  0.10272373768E+02  0.25332403089E+02  0.00000000000E+00 0. -1.
</event>
<event>
 4    1  0.2048241E+005  0.4540208E+02  0.7546771E-02  0.1319441E+00
          2   -1    0    0  502    0  0.00000000000E+00  0.00000000000E+00  0.33216929570E+04  0.33216929570E+04  0.00000000000E+00 0.  1.
         21   -1    0    0  503  502 -0.00000000000E+00 -0.00000000000E+00 -0.29836742873E+01  0.29836742873E+01  0.00000000000E+00 0.  1.
          2    1    1    2  501    0  0.22886796430E+02 -0.39211519353E+02  0.31387525337E+04  0.31390808872E+04  0.00000000000E+00 0.  1.
         21    1    1    2  503  501 -0.22886796430E+02  0.39211519353E+02  0.17995674902E+03  0.18559574408E+03  0.00000000000E+00 0.  1.
</event>
<event>
 4    1  0.2048241E+005  0.2206949E+02  0.7546771E-02  0.1504525E+00
          2   -1    0    0  503    0  0.00000000000E+00  0.00000000000E+00  0.22570474801E+02  0.22570474801E+02  0.00000000000E+00 0. -1.
         21   -1    0    0  501  502 -0.00000000000E+00 -0.00000000000E+00 -0.58615392854E+02  0.58615392854E+02  0.00000000000E+00 0.  1.
          2    1    1    2  501    0  0.12567294115E+02 -0.18141812050E+02  0.14244297942E+02  0.26267132498E+02  0.00000000000E+00 0. -1.
         21    1    1    2  503  502 -0.12567294115E+02  0.18141812050E+02 -0.50289215995E+02  0.54918735157E+02  0.00000000000E+00 0.  1.
</event>
<event>
 4    1  0.2048241E+005  0.3187915E+02  0.7546771E-02  0.1403940E+00
          2   -1    0    0  502    0  0.00000000000E+00  0.00000000000E+00  0.15981395464E+04  0.15981395464E+04  0.00000000000E+00 0.  1.
         21   -1    0    0  503  502 -0.00000000000E+00 -0.00000000000E+00 -0.14326846096E+01  0.14326846096E+01  0.00000000000E+00 0.  1.
          2    1    1    2  501    0  0.16369264256E+01 -0.31837094663E+02  0.13947911173E+04  0.13951553824E+04  0.00000000000E+00 0.  1.
         21    1    1    2  503  501 -0.16369264256E+01  0.31837094663E+02  0.20191574449E+03  0.20441684862E+03  0.00000000000E+00 0.  1.
</event>
<event>
 4    1  0.2048241E+005  0.4034042E+02  0.7546771E-02  0.1346502E+00
          2   -1    0    0  502    0  0.00000000000E+00  0.00000000000E+00  0.41456926512E+03  0.41456926512E+03  0.00000000000E+00 0.  1.
         21   -1    0    0  503  502 -0.00000000000E+00 -0.00000000000E+00 -0.39291258192E+01  0.39291258192E+01  0.00000000000E+00 0.  1.
          2    1    1    2  501    0 -0.75905390276E+01 -0.39619856216E+02  0.21176552737E+03  0.21557362518E+03  0.00000000000E+00 0.  1.
         21    1    1    2  503  501  0.75905390276E+01  0.39619856216E+02  0.19887461193E+03  0.20292476576E+03  0.00000000000E+00 0.  1.
</event>
<event>
 4    1  0.2048241E+005  0.2211466E+02  0.7546771E-02  0.1503925E+00
          2   -1    0    0  503    0  0.00000000000E+00  0.00000000000E+00  0.12017338702E+03  0.12017338702E+03  0.00000000000E+00 0. -1.
         21   -1    0    0  501  502 -0.00000000000E+00 -0.00000000000E+00 -0.23701445281E+02  0.23701445281E+02  0.00000000000E+00 0.  1.
          2    1    1    2  501    0 -0.14798125216E+02  0.16433918929E+02  0.11370681305E+03  0.11583737538E+03  0.00000000000E+00 0. -1.
         21    1    1    2  503  502  0.14798125216E+02 -0.16433918929E+02 -0.17234871312E+02  0.28037456918E+02  0.00000000000E+00 0.  1.
</event>
<event>
 4    1  0.2048241E+005  0.4782135E+02  0.7546771E-02  0.1307905E+00
          2   -1    0    0  503    0  0.00000000000E+00  0.00000000000E+00  0.11029527129E+04  0.11029527129E+04  0.00000000000E+00 0. -1.
         21   -1    0    0  501  502 -0.00000000000E+00 -0.00000000000E+00 -0.55246155840E+01  0.55246155840E+01  0.00000000000E+00 0.  1.
          2    1    1    2  501    0  0.45509032830E+02  0.14690469391E+02  0.98677112659E+03  0.98792921722E+03  0.00000000000E+00 0. -1.
         21    1    1    2  503  502 -0.45509032830E+02 -0.14690469391E+02  0.11065697075E+03  0.12054811129E+03  0.00000000000E+00 0.  1.
</event>
<event>
 4    1  0.2048241E+005  0.2833788E+02  0.7546771E-02  0.1434613E+00
          2   -1    0    0  503    0  0.00000000000E+00  0.00000000000E+00  0.35667600110E+03  0.35667600110E+03  0.00000000000E+00 0.  1.
         21   -1    0    0  501  502 -0.00000000000E+00 -0.00000000000E+00 -0.24168709939E+01  0.24168709939E+01  0.00000000000E+00 0.  1.
          2    1    1    2  501    0 -0.27458962416E+02  0.70029262910E+01  0.13015585146E+03  0.13320503468E+03  0.00000000000E+00 0.  1.
         21    1    1    2  503  502  0.27458962416E+02 -0.70029262910E+01  0.22410327865E+03  0.22588783742E+03  0.00000000000E+00 0.  1.
</event>
<event>
 4    1  0.2048241E+005  0.3858277E+02  0.7546771E-02  0.1356997E+00
          2   -1    0    0  502    0  0.00000000000E+00  0.00000000000E+00  0.15986136474E+03  0.15986136474E+03  0.00000000000E+00 0.  1.
         21   -1    0    0  503  502 -0.00000000000E+00 -0.00000000000E+00 -0.10363759554E+03  0.10363759554E+03  0.00000000000E+00 0.  1.
          2    1    1    2  501    0  0.36978843069E+02 -0.11008858737E+02  0.15380312516E+03  0.15856869526E+03  0.00000000000E+00 0.  1.
         21    1    1    2  503  501 -0.36978843069E+02  0.11008858737E+02 -0.97579355964E+02  0.10493026501E+03  0.00000000000E+00 0.  1.
</event>
<event>
 4    1  0.2048241E+005  0.2182484E+02  0.7546771E-02  0.1507807E+00
          2   -1    0    0  502    0  0.00000000000E+00  0.00000000000E+00  0.67799194106E+02  0.67799194106E+02  0.00000000000E+00 0. -1.
         21   -1    0    0  503  502 -0.00000000000E+00 -0.00000000000E+00 -0.78616407651E+02  0.78616407651E+02  0.00000000000E+00 0.  1.
          2    1    1    2  501    0 -0.29127481727E+01 -0.21629594161E+02  0.64451571345E+02  0.68046517136E+02  0.00000000000E+00 0. -1.
         21    1    1    2  503  501  0.29127481727E+01  0.21629594161E+02 -0.75268784890E+02  0.78369084621E+02  0.00000000000E+00 0.  1.
</event>
<event>
 4    1  0.2048241E+005  0.2375414E+02  0.7546771E-02  0.1483239E+00
          2   -1    0    0  502    0  0.00000000000E+00  0.00000000000E+00  0.69198613193E+01  0.69198613193E+01  0.00000000000E+00 0.  1.
         21   -1    0    0  503  502 -0.00000000000E+00 -0.00000000000E+00 -0.35952415486E+03  0.35952415486E+03  0.00000000000E+00 0.  1.
          2    1    1    2  501    0 -0.22629959116E+02  0.72210993299E+01 -0.15192308777E+02  0.28196907119E+02  0.00000000000E+00 0.  1.
         21    1    1    2  503  501  0.22629959116E+02 -0.72210993299E+01 -0.33741198476E+03  0.33824710906E+03  0.00000000000E+00 0.  1.
</event>
<event>
 4    1  0.2048241E+005  0.2613733E+02  0.7546771E-02  0.1456472E+00
          2   -1    0    0  502    0  0.00000000000E+00  0.00000000000E+00  0.26276374865E+02  0.26276374865E+02  0.00000000000E+00 0.  1.
         21   -1    0    0  503  502 -0.00000000000E+00 -0.00000000000E+00 -0.75883652784E+02  0.75883652784E+02  0.00000000000E+00 0. -1.
          2    1    1    2  501    0  0.25940699333E+02 -0.32000386364E+01  0.16611608410E+02  0.30969431108E+02  0.00000000000E+00 0.  1.
         21    1    1    2  503  501 -0.25940699333E+02  0.32000386364E+01 -0.66218886329E+02  0.71190596541E+02  0.00000000000E+00 0. -1.
</event>
<event>
 4    1  0.2048241E+005  0.2918979E+02  0.7546771E-02  0.1426770E+00
          2   -1    0    0  502    0  0.00000000000E+00  0.00000000000E+00  0.51093297020E+02  0.51093297020E+02  0.00000000000E+00 0. -1.
         21   -1    0    0  503  502 -0.00000000000E+00 -0.00000000000E+00 -0.44210948303E+02  0.44210948303E+02  0.00000000000E+00 0.  1.
          2    1    1    2  501    0 -0.20412557916E+02  0.20865556599E+02  0.41047213429E+02  0.50367824086E+02  0.00000000000E+00 0. -1.
         21    1    1    2  503  501  0.20412557916E+02 -0.20865556599E+02 -0.34164864711E+02  0.44936421237E+02  0.00000000000E+00 0.  1.
</event>
<event>
 4    1  0.2048241E+005  0.2353998E+02  0.7546771E-02  0.1485827E+00
          2   -1    0    0  502    0  0.00000000000E+00  0.00000000000E+00  0.84050334277E+03  0.84050334277E+03  0.00000000000E+00 0.  1.
         21   -1    0    0  503  502 -0.00000000000E+00 -0.00000000000E+00 -0.17304712598E+02  0.17304712598E+02  0.00000000000E+00 0. -1.
          2    1    1    2  501    0 -0.18339689390E+02  0.14757597538E+02  0.83225369256E+03  0.83258653585E+03  0.00000000000E+00 0.  1.
         21    1    1    2  503  501  0.18339689390E+02 -0.14757597538E+02 -0.90550623903E+01  0.25221519520E+02  0.00000000000E+00 0. -1.
</event>
<event>
 4    1  0.2048241E+005  0.2049873E+02  0.7546771E-02  0.1526544E+00
          2   -1    0    0  502    0  0.00000000000E+00  0.00000000000E+00  0.13403482050E+04  0.13403482050E+04  0.00000000000E+00 0.  1.
         21   -1    0    0  503  502 -0.00000000000E+00 -0.00000000000E+00 -0.49273806205E+02  0.49273806205E+02  0.00000000000E+00 0. -1.
          2    1    1    2  501    0  0.20075538454E+02  0.41437303605E+01  0.13381343503E+04  0.13382913499E+04  0.00000000000E+00 0.  1.
         21    1    1    2  503  501 -0.20075538454E+02 -0.41437303605E+01 -0.47059951553E+02  0.51330661264E+02  0.00000000000E+00 0. -1.
</event>
<event>
 4    1  0.2048241E+005  0.3589436E+02  0.7546771E-02  0.1374382E+00
          2   -1    0    0  503    0  0.00000000000E+00  0.00000000000E+00  0.37185868301E+02  0.37185868301E+02  0.00000000000E+00 0. -1.
         21   -1    0    0  501  502 -0.00000000000E+00 -0.00000000000E+00 -0.39667719554E+02  0.39667719554E+02  0.00000000000E+00 0.  1.
          2    1    1    2  501    0  0.32599484947E+02 -0.15022604381E+02  0.12429056459E+02  0.37985345934E+02  0.00000000000E+00 0. -1.
         21    1    1    2  503  502 -0.32599484947E+02  0.15022604381E+02 -0.14910907712E+02  0.38868241921E+02  0.00000000000E+00 0.  1.
</event>
<event>
 4    1  0.2048241E+005  0.2323768E+02  0.7546771E-02  0.1489535E+00
          2   -1    0    0  503    0  0.00000000000E+00  0.00000000000E+00  0.49641294930E+03  0.49641294930E+03  0.00000000000E+00 0. -1.
         21   -1    0    0  501  502 -0.00000000000E+00 -0.00000000000E+00 -0.37212720977E+01  0.37212720977E+01  0.00000000000E+00 0. -1.
          2    1    1    2  501    0  0.17232033860E+02  0.15589951640E+02  0.45671235862E+03  0.45730314683E+03  0.00000000000E+00 0. -1.
         21    1    1    2  503  502 -0.17232033860E+02 -0.15589951640E+02  0.35979318579E+02  0.42831074566E+02  0.00000000000E+00 0. -1.
</event>
<event>
 4    1  0.2048241E+005  0.2100875E+02  0.7546771E-02  0.1519140E+00
          2   -1    0    0  502    0  0.00000000000E+00  0.00000000000E+00  0.26616497561E+03  0.26616497561E+03  0.00000000000E+00 0.  1.
         21   -1    0    0  503  502 -0.00000000000E+00 -0.00000000000E+00 -0.98954092017E+01  0.98954092017E+01  0.00000000000E+00 0.  1.
          2    1    1    2  501    0 -0.72442535032E+01  0.19720252814E+02  0.25406965164E+03  0.25493676758E+03  0.00000000000E+00 0.  1.
         21    1    1    2  503  501  0.72442535032E+01 -0.19720252814E+02  0.21999147661E+01  0.21123617229E+02  0.00000000000E+00 0.  1.
</event>
<event>
 4    1  0.2048241E+005  0.3627154E+02  0.7546771E-02  0.1371838E+00
          2   -1    0    0  503    0  0.00000000000E+00  0.00000000000E+00  0.40739069535E+04  0.40739069535E+04  0.00000000000E+00 0.  1.
         21   -1    0    0  501  502 -0.00000000000E+00 -0.00000000000E+00 -0.33108729281E+00  0.33108729281E+00  0.00000000000E+00 0.  1.
          2    1    1    2  501    0 -0.19349297510E+02 -0.30679459859E+02  0.23563616432E+04  0.23566407911E+04  0.00000000000E+00 0.  1.
         21    1    1    2  503  502  0.19349297510E+02  0.30679459859E+02  0.17172142230E+04  0.17175972497E+04  0.00000000000E+00 0.  1.
</event>
<event>
 4    1  0.2048241E+005  0.8101427E+02  0.7546771E-02  0.1201512E+00
          2   -1    0    0  502    0  0.00000000000E+00  0.00000000000E+00  0.17026558122E+04  0.17026558122E+04  0.00000000000E+00 0. -1.
         21   -1    0    0  503  502 -0.00000000000E+00 -0.00000000000E+00 -0.59050512461E+01  0.59050512461E+01  0.00000000000E+00 0. -1.
          2    1    1    2  501    0  0.79172586151E+02 -0.17175949992E+02  0.13517571844E+04  0.13541827046E+04  0.00000000000E+00 0. -1.
         21    1    1    2  503  501 -0.79172586151E+02  0.17175949992E+02  0.34499357648E+03  0.35437815885E+03  0.00000000000E+00 0. -1.
</event>
<event>
 4    1  0.2048241E+005  0.2090656E+02  0.7546771E-02  0.1520603E+00
          2   -1    0    0  502    0  0.00000000000E+00  0.00000000000E+00  0.33079536798E+03  0.33079536798E+03  0.00000000000E+00 0.  1.
         21   -1    0    0  503  502 -0.00000000000E+00 -0.00000000000E+00 -0.23577733798E+03  0.23577733798E+03  0.00000000000E+00 0. -1.
          2    1    1    2  501    0  0.18895646562E+02  0.89464473818E+01  0.33000047402E+03  0.33066205895E+03  0.00000000000E+00 0.  1.
         21    1    1    2  503  501 -0.18895646562E+02 -0.89464473818E+01 -0.23498244401E+03  0.23591064701E+03  0.00000000000E+00 0. -1.
</event>
<event>
 4    1  0.2048241E+005  0.3360944E+02  0.7546771E-02  0.1390612E+00
          2   -1    0    0  503    0  0.00000000000E+00  0.00000000000E+00  0.86920992538E+03  0.86920992538E+03  0.00000000000E+00 0.  1.
         21   -1    0    0  501  502 -0.00000000000E+00 -0.00000000000E+00 -0.13021760449E+01  0.13021760449E+01  0.00000000000E+00 0. -1.
          2    1    1    2  501    0 -0.27856471496E+02  0.18804568134E+02  0.45344415427E+03  0.45468802032E+03  0.00000000000E+00 0.  1.
         21    1    1    2  503  502  0.27856471496E+02 -0.18804568134E+02  0.41446359507E+03  0.41582408110E+03  0.00000000000E+00 0. -1.
</event>
<event>
 4    1  0.2048241E+005  0.2017859E+02  0.7546771E-02  0.1531323E+00
          2   -1    0    0  503    0  0.00000000000E+00  0.00000000000E+00  0.11061357247E+02  0.11061357247E+02  0.00000000000E+00 0. -1.
         21   -1    0    0  501  502 -0.00000000000E+00 -0.00000000000E+00 -0.17262809037E+03  0.17262809037E+03  0.00000000000E+00 0. -1.
          2    1    1    2  501    0  0.16499862881E+01 -0.20111021338E+02  0.68260979634E+00  0.20190135961E+02  0.00000000000E+00 0. -1.
         21    1    1    2  503  502 -0.16499862881E+01  0.20111021338E+02 -0.16224934292E+03  0.16349931165E+03  0.00000000000E+00 0. -1.
</event>
<event>
 4    1  0.2048241E+005  0.4797029E+02  0.7546771E-02  0.1307221E+00
          2   -1    0    0  502    0  0.00000000000E+00  0.00000000000E+00  0.28372153927E+04  0.28372153927E+04  0.00000000000E+00 0. -1.
         21   -1    0    0  503  502 -0.00000000000E+00 -0.00000000000E+00 -0.43907080335E+01  0.43907080335E+01  0.00000000000E+00 0. -1.
          2    1    1    2  501    0  0.34009378820E+02  0.33830625880E+02  0.26992946777E+04  0.26997208941E+04  0.00000000000E+00 0. -1.
         21    1    1    2  503  501 -0.34009378820E+02 -0.33830625880E+02  0.13353000698E+03  0.14188520662E+03  0.00000000000E+00 0. -1.
</event>
<event>
 4    1  0.2048241E+005  0.2058456E+02  0.7546771E-02  0.1525280E+00
          2   -1    0    0  503    0  0.00000000000E+00  0.00000000000E+00  0.10816098467E+03  0.10816098467E+03  0.00000000000E+00 0.  1.
         21   -1    0    0  501  502 -0.00000000000E+00 -0.00000000000E+00 -0.26568129538E+02  0.26568129538E+02  0.00000000000E+00 0.  1.
          2    1    1    2  501    0 -0.20475861835E+02  0.21126641272E+01  0.10299648522E+03  0.10503332917E+03  0.00000000000E+00 0.  1.
         21    1    1    2  503  502  0.20475861835E+02 -0.21126641272E+01 -0.21403630097E+02  0.29695785036E+02  0.00000000000E+00 0.  1.
</event>
<event>
 4    1  0.2048241E+005  0.2638395E+02  0.7546771E-02  0.1453897E+00
          2   -1    0    0  503    0  0.00000000000E+00  0.00000000000E+00  0.22445424945E+03  0.22445424945E+03  0.00000000000E+00 0.  1.
         21   -1    0    0  501  502 -0.00000000000E+00 -0.00000000000E+00 -0.48459201690E+01  0.48459201690E+01  0.00000000000E+00 0. -1.
          2    1    1    2  501    0  0.25141962619E+02  0.79996579240E+01  0.17859483992E+03  0.18053318160E+03  0.00000000000E+00 0.  1.
         21    1    1    2  503  502 -0.25141962619E+02 -0.79996579240E+01  0.41013489361E+02  0.48766988023E+02  0.00000000000E+00 0. -1.
</event>
<event>
 4    1  0.2048241E+005  0.2103346E+02  0.7546771E-02  0.1518788E+00
          2   -1    0    0  502    0  0.00000000000E+00  0.00000000000E+00  0.54405576374E+03  0.54405576374E+03  0.00000000000E+00 0.  1.
         21   -1    0    0  503  502 -0.00000000000E+00 -0.00000000000E+00 -0.83864832817E+02  0.83864832817E+02  0.00000000000E+00 0. -1.
          2    1    1    2  501    0 -0.55335263886E+01 -0.20292520383E+02  0.54252995770E+03  0.54293752983E+03  0.00000000000E+00 0.  1.
         21    1    1    2  503  501  0.55335263886E+01  0.20292520383E+02 -0.82339026782E+02  0.84983066721E+02  0.00000000000E+00 0. -1.
</event>
<event>
 4    1  0.2048241E+005  0.3113876E+02  0.7546771E-02  0.1409952E+00
          2   -1    0    0  503    0  0.00000000000E+00  0.00000000000E+00  0.53953640857E+01  0.53953640857E+01  0.00000000000E+00 0.  1.
         21   -1    0    0  501  502 -0.00000000000E+00 -0.00000000000E+00 -0.18085528153E+03  0.18085528153E+03  0.00000000000E+00 0.  1.
          2    1    1    2  501    0 -0.25281434407E+02  0.18178869136E+02 -0.80332075116E+02  0.86156047386E+02  0.00000000000E+00 0.  1.
         21    1    1    2  503  502  0.25281434407E+02 -0.18178869136E+02 -0.95127842329E+02  0.10009459823E+03  0.00000000000E+00 0.  1.
</event>
<event>
 4    1  0.2048241E+005  0.2531985E+02  0.7546771E-02  0.1465257E+00
          2   -1    0    0  503    0  0.00000000000E+00  0.00000000000E+00  0.14780247201E+02  0.14780247201E+02  0.00000000000E+00 0. -1.
         21   -1    0    0  501  502 -0.00000000000E+00 -0.00000000000E+00 -0.68124844895E+03  0.68124844895E+03  0.00000000000E+00 0. -1.
          2    1    1    2  501    0  0.52515201716E+01 -0.24769257447E+02  0.35190110818E+01  0.25563216104E+02  0.00000000000E+00 0. -1.
         21    1    1    2  503  502 -0.52515201716E+01  0.24769257447E+02 -0.66998721283E+03  0.67046548004E+03  0.00000000000E+00 0. -1.
</event>
<event>
 4    1  0.2048241E+005  0.2753279E+02  0.7546771E-02  0.1442328E+00
          2   -1    0    0  502    0  0.00000000000E+00  0.00000000000E+00  0.67803402931E+03  0.67803402931E+03  0.00000000000E+00 0.  1.
         21   -1    0    0  503  502 -0.00000000000E+00 -0.00000000000E+00 -0.98098570706E+01  0.98098570706E+01  0.00000000000E+00 0.  1.
          2    1    1    2  501    0 -0.19141994329E+02  0.19789858027E+02  0.65784315251E+03  0.65841906696E+03  0.00000000000E+00 0.  1.
         21    1    1    2  503  501  0.19141994329E+02 -0.19789858027E+02  0.10381019732E+02  0.29424819427E+02  0.00000000000E+00 0.  1.
</event>
<event>
 4    1  0.2048241E+005  0.2431870E+02  0.7546771E-02  0.1476571E+00
          2   -1    0    0  503    0  0.00000000000E+00  0.00000000000E+00  0.18252664526E+04  0.18252664526E+04  0.00000000000E+00 0. -1.
         21   -1    0    0  501  502 -0.00000000000E+00 -0.00000000000E+00 -0.58327634603E+00  0.58327634603E+00  0.00000000000E+00 0.  1.
          2    1    1    2  501    0 -0.22505294642E+02  0.92147113468E+01  0.15209996808E+04  0.15211940797E+04  0.00000000000E+00 0. -1.
         21    1    1    2  503  502  0.22505294642E+02 -0.92147113468E+01  0.30368349549E+03  0.30465564926E+03  0.00000000000E+00 0.  1.
</event>
<event>
 4    1  0.2048241E+005  0.2477049E+02  0.7546771E-02  0.1471387E+00
          2   -1    0    0  503    0  0.00000000000E+00  0.00000000000E+00  0.52331064649E+01  0.52331064649E+01  0.00000000000E+00 0.  1.
         21   -1    0    0  501  502 -0.00000000000E+00 -0.00000000000E+00 -0.55482091207E+03  0.55482091207E+03  0.00000000000E+00 0.  1.
          2    1    1    2  501    0 -0.44258016912E+01 -0.24371894515E+02 -0.26109707360E+02  0.35990190070E+02  0.00000000000E+00 0.  1.
         21    1    1    2  503  502  0.44258016912E+01  0.24371894515E+02 -0.52347809825E+03  0.52406382847E+03  0.00000000000E+00 0.  1.
</event>
<event>
 4    1  0.2048241E+005  0.2224222E+02  0.7546771E-02  0.1502239E+00
          2   -1    0    0  503    0  0.00000000000E+00  0.00000000000E+00  0.19075301995E+04  0.19075301995E+04  0.00000000000E+00 0. -1.
         21   -1    0    0  501  502 -0.00000000000E+00 -0.00000000000E+00 -0.26146420637E+00  0.26146420637E+00  0.00000000000E+00 0. -1.
          2    1    1    2  501    0 -0.13666703963E+02 -0.17548154271E+02  0.86784249809E+03  0.86812747797E+03  0.00000000000E+00 0. -1.
         21    1    1    2  503  502  0.13666703963E+02  0.17548154271E+02  0.10394262372E+04  0.10396641857E+04  0.00000000000E+00 0. -1.
</event>
<event>
 4    1  0.2048241E+005  0.2020143E+02  0.7546771E-02  0.1530979E+00
          2   -1    0    0  503    0  0.00000000000E+00  0.00000000000E+00  0.72400856916E+03  0.72400856916E+03  0.00000000000E+00 0. -1.
         21   -1    0    0  501  502 -0.00000000000E+00 -0.00000000000E+00 -0.63707360078E+01  0.63707360078E+01  0.00000000000E+00 0. -1.
          2    1    1    2  501    0  0.19710889475E+02 -0.44247594541E+01  0.70747902419E+03  0.70776738221E+03  0.00000000000E+00 0. -1.
         21    1    1    2  503  502 -0.19710889475E+02  0.44247594541E+01  0.10158808965E+02  0.22611922955E+02  0.00000000000E+00 0. -1.
</event>
<event>
 4    1  0.2048241E+005  0.3014495E+02  0.7546771E-02  0.1418341E+00
          2   -1    0    0  502    0  0.00000000000E+00  0.00000000000E+00  0.10629945234E+03  0.10629945234E+03  0.00000000000E+00 0. -1.
         21   -1    0    0  503  502 -0.00000000000E+00 -0.00000000000E+00 -0.80091219989E+02  0.80091219989E+02  0.00000000000E+00 0. -1.
          2    1    1    2  501    0 -0.26219966877E+02 -0.14873856812E+02  0.10118546394E+03  0.10558037882E+03  0.00000000000E+00 0. -1.
         21    1    1    2  503  501  0.26219966877E+02  0.14873856812E+02 -0.74977231590E+02  0.80810293506E+02  0.00000000000E+00 0. -1.
</event>
<event>
 4    1  0.2048241E+005  0.2792335E+02  0.7546771E-02  0.1438547E+00
          2   -1    0    0  503    0  0.00000000000E+00  0.00000000000E+00  0.41416411444E+03  0.41416411444E+03  0.00000000000E+00 0.  1.
         21   -1    0    0  501  502 -0.00000000000E+00 -0.00000000000E+00 -0.21501861747E+02  0.21501861747E+02  0.00000000000E+00 0.  1.
          2    1    1    2  501    0  0.16918072268E+02  0.22214687221E+02  0.40440939691E+03  0.40537226571E+03  0.00000000000E+00 0.  1.
         21    1    1    2  503  502 -0.16918072268E+02 -0.22214687221E+02 -0.11747144212E+02  0.30293710481E+02  0.00000000000E+00 0.  1.
</event>
<event>
 4    1  0.2048241E+005  0.2681006E+02  0.7546771E-02  0.1449526E+00
          2   -1    0    0  503    0  0.00000000000E+00  0.00000000000E+00  0.15254936376E+04  0.15254936376E+04  0.00000000000E+00 0. -1.
         21   -1    0    0  501  502 -0.00000000000E+00 -0.00000000000E+00 -0.75446627775E+00  0.75446627775E+00  0.00000000000E+00 0. -1.
          2    1    1    2  501    0 -0.15485892030E+02  0.21885298198E+02  0.12299857154E+04  0.12302778707E+04  0.00000000000E+00 0. -1.
         21    1    1    2  503  502  0.15485892030E+02 -0.21885298198E+02  0.29475345591E+03  0.29597023313E+03  0.00000000000E+00 0. -1.
</event>
<event>
 4    1  0.2048241E+005  0.2189121E+02  0.7546771E-02  0.1506911E+00
          2   -1    0    0  502    0  0.00000000000E+00  0.00000000000E+00  0.12531002958E+04  0.12531002958E+04  0.00000000000E+00 0.  1.
         21   -1    0    0  503  502 -0.00000000000E+00 -0.00000000000E+00 -0.43389122864E+00  0.43389122864E+00  0.00000000000E+00 0.  1.
          2    1    1    2  501    0 -0.20191151016E+02 -0.84582719743E+01  0.84218206884E+03  0.84246653466E+03  0.00000000000E+00 0.  1.
         21    1    1    2  503  501  0.20191151016E+02  0.84582719743E+01  0.41048433571E+03  0.41106765235E+03  0.00000000000E+00 0.  1.
</event>
<event>
 4    1  0.2048241E+005  0.3873802E+02  0.7546771E-02  0.1356044E+00
          2   -1    0    0  502    0  0.00000000000E+00  0.00000000000E+00  0.31575692497E+03  0.31575692497E+03  0.00000000000E+00 0.  1.
         21   -1    0    0  503  502 -0.00000000000E+00 -0.00000000000E+00 -0.23054290997E+02  0.23054290997E+02  0.00000000000E+00 0.  1.
          2    1    1    2  501    0  0.12844388887E+02  0.36546621060E+02  0.29728936497E+03  0.29980260233E+03  0.00000000000E+00 0.  1.
         21    1    1    2  503  501 -0.12844388887E+02 -0.36546621060E+02 -0.45867309997E+01  0.39008613640E+02  0.00000000000E+00 0.  1.
</event>
<event>
 4    1  0.2048241E+005  0.2866031E+02  0.7546771E-02  0.1431607E+00
          2   -1    0    0  503    0  0.00000000000E+00  0.00000000000E+00  0.20395363934E+02  0.20395363934E+02  0.00000000000E+00 0.  1.
         21   -1    0    0  501  502 -0.00000000000E+00 -0.00000000000E+00 -0.54810817913E+02  0.54810817913E+02  0.00000000000E+00 0.  1.
          2    1    1    2  501    0 -0.24582080618E+02 -0.14735497689E+02  0.21572616774E+01  0.28741387538E+02  0.00000000000E+00 0.  1.
         21    1    1    2  503  502  0.24582080618E+02  0.14735497689E+02 -0.36572715657E+02  0.46464794309E+02  0.00000000000E+00 0.  1.
</event>
<event>
 4    1  0.2048241E+005  0.4131697E+02  0.7546771E-02  0.1340937E+00
          2   -1    0    0  502    0  0.00000000000E+00  0.00000000000E+00  0.11375473569E+04  0.11375473569E+04  0.00000000000E+00 0.  1.
         21   -1    0    0  503  502 -0.00000000000E+00 -0.00000000000E+00 -0.17215429716E+01  0.17215429716E+01  0.00000000000E+00 0. -1.
          2    1    1    2  501    0  0.69097346883E+01  0.40735093475E+02  0.77194606444E+03  0.77305098064E+03  0.00000000000E+00 0.  1.
         21    1    1    2  503  501 -0.69097346883E+01 -0.40735093475E+02  0.36387974949E+03  0.36621791923E+03  0.00000000000E+00 0. -1.
</event>
<event>
 4    1  0.2048241E+005  0.4053417E+02  0.7546771E-02  0.1345384E+00
          2   -1    0    0  503    0  0.00000000000E+00  0.00000000000E+00  0.73629719906E+03  0.73629719906E+03  0.00000000000E+00 0.  1.
         21   -1    0    0  501  502 -0.00000000000E+00 -0.00000000000E+00 -0.45005463379E+02  0.45005463379E+02  0.00000000000E+00 0.  1.
          2    1    1    2  501    0 -0.36592327618E+02  0.17436175096E+02  0.72648944291E+03  0.72761935743E+03  0.00000000000E+00 0.  1.
         21    1    1    2  503  502  0.36592327618E+02 -0.17436175096E+02 -0.35197707231E+02  0.53683305010E+02  0.00000000000E+00 0.  1.
</event>
<event>
 4    1  0.2048241E+005  0.3300591E+02  0.7546771E-02  0.1395152E+00
          2   -1    0    0  503    0  0.00000000000E+00  0.00000000000E+00  0.31028621391E+02  0.31028621391E+02  0.00000000000E+00 0. -1.
         21   -1    0    0  501  502 -0.00000000000E+00 -0.00000000000E+00 -0.35488193001E+02  0.35488193001E+02  0.00000000000E+00 0.  1.
          2    1    1    2  501    0 -0.32642950717E+02  0.48813746115E+01  0.12071826906E+01  0.33027978134E+02  0.00000000000E+00 0. -1.
         21    1    1    2  503  502  0.32642950717E+02 -0.48813746115E+01 -0.56667542999E+01  0.33488836258E+02  0.00000000000E+00 0.  1.
</event>
<event>
 4    1  0.2048241E+005  0.2605201E+02  0.7546771E-02  0.1457370E+00
          2   -1    0    0  502    0  0.00000000000E+00  0.00000000000E+00  0.65706732196E+03  0.65706732196E+03  0.00000000000E+00 0.  1.
         21   -1    0    0  503  502 -0.00000000000E+00 -0.00000000000E+00 -0.44399341514E+01  0.44399341514E+01  0.00000000000E+00 0. -1.
          2    1    1    2  501    0 -0.17988757206E+02  0.18844411375E+02  0.61604966970E+03  0.61660027795E+03  0.00000000000E+00 0.  1.
         21    1    1    2  503  501  0.17988757206E+02 -0.18844411375E+02  0.36577718108E+02  0.44906978165E+02  0.00000000000E+00 0. -1.
</event>
<event>
 4    1  0.2048241E+005  0.2968740E+02  0.7546771E-02  0.1422333E+00
          2   -1    0    0  503    0  0.00000000000E+00  0.00000000000E+00  0.15403707115E+03  0.15403707115E+03  0.00000000000E+00 0.  1.
         21   -1    0    0  501  502 -0.00000000000E+00 -0.00000000000E+00 -0.18129078233E+03  0.18129078233E+03  0.00000000000E+00 0. -1.
          2    1    1    2  501    0 -0.28470343776E+02 -0.84131571303E+01  0.15137008421E+03  0.15425383004E+03  0.00000000000E+00 0.  1.
         21    1    1    2  503  502  0.28470343776E+02  0.84131571303E+01 -0.17862379539E+03  0.18107402344E+03  0.00000000000E+00 0. -1.
</event>
<event>
 4    1  0.2048241E+005  0.4239767E+02  0.7546771E-02  0.1334981E+00
          2   -1    0    0  503    0  0.00000000000E+00  0.00000000000E+00  0.63024144483E+03  0.63024144483E+03  0.00000000000E+00 0. -1.
         21   -1    0    0  501  502 -0.00000000000E+00 -0.00000000000E+00 -0.41950629337E+01  0.41950629337E+01  0.00000000000E+00 0.  1.
          2    1    1    2  501    0 -0.14605248343E+02 -0.39802627064E+02  0.49249982492E+03  0.49432139338E+03  0.00000000000E+00 0. -1.
         21    1    1    2  503  502  0.14605248343E+02  0.39802627064E+02  0.13354655697E+03  0.14011511438E+03  0.00000000000E+00 0.  1.
</event>
<event>
 4    1  0.2048241E+005  0.2313600E+02  0.7546771E-02  0.1490797E+00
          2   -1    0    0  503    0  0.00000000000E+00  0.00000000000E+00  0.34883463640E+03  0.34883463640E+03  0.00000000000E+00 0. -1.
         21   -1    0    0  501  502 -0.00000000000E+00 -0.00000000000E+00 -0.30245297388E+01  0.30245297388E+01  0.00000000000E+00 0.  1.
          2    1    1    2  501    0  0.28217209650E+01  0.22963285659E+02  0.29638956507E+03  0.29729118534E+03  0.00000000000E+00 0. -1.
         21    1    1    2  503  502 -0.28217209650E+01 -0.22963285659E+02  0.49420541590E+02  0.54567980799E+02  0.00000000000E+00 0.  1.
</event>
<event>
 4    1  0.2048241E+005  0.2334634E+02  0.7546771E-02  0.1488194E+00
          2   -1    0    0  503    0  0.00000000000E+00  0.00000000000E+00  0.47209895878E+03  0.47209895878E+03  0.00000000000E+00 0. -1.
         21   -1    0    0  501  502 -0.00000000000E+00 -0.00000000000E+00 -0.28899710482E+02  0.28899710482E+02  0.00000000000E+00 0.  1.
          2    1    1    2  501    0  0.19957465416E+02  0.12114087524E+02  0.46704430355E+03  0.46762745110E+03  0.00000000000E+00 0. -1.
         21    1    1    2  503  502 -0.19957465416E+02 -0.12114087524E+02 -0.23845055246E+02  0.33371218169E+02  0.00000000000E+00 0.  1.
</event>
<event>
 4    1  0.2048241E+005  0.2074702E+02  0.7546771E-02  0.1522908E+00
          2   -1    0    0  503    0  0.00000000000E+00  0.00000000000E+00  0.37614497940E+02  0.37614497940E+02  0.00000000000E+00 0. -1.
         21   -1    0    0  501  502 -0.00000000000E+00 -0.00000000000E+00 -0.18691533009E+03  0.18691533009E+03  0.00000000000E+00 0.  1.
          2    1    1    2  501    0  0.15274850049E+02  0.14039857842E+02  0.34123655161E+02  0.39935729539E+02  0.00000000000E+00 0. -1.
         21    1    1    2  503  502 -0.15274850049E+02 -0.14039857842E+02 -0.18342448731E+03  0.18459409849E+03  0.00000000000E+00 0.  1.
</event>
<event>
 4    1  0.2048241E+005  0.2312036E+02  0.7546771E-02  0.1490992E+00
          2   -1    0    0  503    0  0.00000000000E+00  0.00000000000E+00  0.14146105595E+03  0.14146105595E+03  0.00000000000E+00 0. -1.
         21   -1    0    0  501  502 -0.00000000000E+00 -0.00000000000E+00 -0.38042674472E+01  0.38042674472E+01  0.00000000000E+00 0. -1.
          2    1    1    2  501    0  0.21528480349E+02 -0.84306382984E+01  0.74772742393E+02  0.78265663821E+02  0.00000000000E+00 0. -1.
         21    1    1    2  503  502 -0.21528480349E+02  0.84306382984E+01  0.62884046107E+02  0.66999659574E+02  0.00000000000E+00 0. -1.
</event>
<event>
 4    1  0.2048241E+005  0.2652287E+02  0.7546771E-02  0.1452461E+00
          2   -1    0    0  502    0  0.00000000000E+00  0.00000000000E+00  0.11652810201E+03  0.11652810201E+03  0.00000000000E+00 0. -1.
         21   -1    0    0  503  502 -0.00000000000E+00 -0.00000000000E+00 -0.17313793683E+02  0.17313793683E+02  0.00000000000E+00 0.  1.
          2    1    1    2  501    0 -0.26468404318E+02 -0.16989131136E+01  0.10361559755E+03  0.10695632187E+03  0.00000000000E+00 0. -1.
         21    1    1    2  503  501  0.26468404318E+02  0.16989131136E+01 -0.44012892207E+01  0.26885573822E+02  0.00000000000E+00 0.  1.
</event>
<event>
 4    1  0.2048241E+005  0.2657810E+02  0.7546771E-02  0.1451893E+00
          2   -1    0    0  502    0  0.00000000000E+00  0.00000000000E+00  0.41749469267E+03  0.41749469267E+03  0.00000000000E+00 0. -1.
         21   -1    0    0  503  502 -0.00000000000E+00 -0.00000000000E+00 -0.52422655796E+01  0.52422655796E+01  0.00000000000E+00 0. -1.
          2    1    1    2  501    0 -0.21618230052E+02 -0.15461170275E+02  0.38007120155E+03  0.38099936208E+03  0.00000000000E+00 0. -1.
         21    1    1    2  503  501  0.21618230052E+02  0.15461170275E+02  0.32181225543E+02  0.41737596173E+02  0.00000000000E+00 0. -1.
</event>
<event>
 4    1  0.2048241E+005  0.3370393E+02  0.7546771E-02  0.1389911E+00
          2   -1    0    0  503    0  0.00000000000E+00  0.00000000000E+00  0.15869995093E+03  0.15869995093E+03  0.00000000000E+00 0. -1.
         21   -1    0    0  501  502 -0.00000000000E+00 -0.00000000000E+00 -0.35577900093E+02  0.35577900093E+02  0.00000000000E+00 0.  1.
          2    1    1    2  501    0 -0.18188342864E+02 -0.28374968139E+02  0.14838014102E+03  0.15215985306E+03  0.00000000000E+00 0. -1.
         21    1    1    2  503  502  0.18188342864E+02  0.28374968139E+02 -0.25258090183E+02  0.42117997967E+02  0.00000000000E+00 0.  1.
</event>
<event>
 4    1  0.2048241E+005  0.2188296E+02  0.7546771E-02  0.1507022E+00
          2   -1    0    0  502    0  0.00000000000E+00  0.00000000000E+00  0.35798173653E+03  0.35798173653E+03  0.00000000000E+00 0. -1.
         21   -1    0    0  503  502 -0.00000000000E+00 -0.00000000000E+00 -0.93272683531E+01  0.93272683531E+01  0.00000000000E+00 0.  1.
          2    1    1    2  501    0  0.15929099868E+02 -0.15004253553E+02  0.34430285411E+03  0.34499756405E+03  0.00000000000E+00 0. -1.
         21    1    1    2  503  501 -0.15929099868E+02  0.15004253553E+02  0.43516140643E+01  0.22311440838E+02  0.00000000000E+00 0.  1.
</event>
<event>
 4    1  0.2048241E+005  0.1061318E+03  0.7546771E-02  0.1153587E+00
          2   -1    0    0  502    0  0.00000000000E+00  0.00000000000E+00  0.23599950809E+03  0.23599950809E+03  0.00000000000E+00 0.  1.
         21   -1    0    0  503  502 -0.00000000000E+00 -0.00000000000E+00 -0.65574936222E+02  0.65574936222E+02  0.00000000000E+00 0. -1.
          2    1    1    2  501    0 -0.33139426938E+02  0.10082526109E+03  0.16387495068E+03  0.19524075996E+03  0.00000000000E+00 0.  1.
         21    1    1    2  503  501  0.33139426938E+02 -0.10082526109E+03  0.65496211958E+01  0.10633368436E+03  0.00000000000E+00 0. -1.
</event>
<event>
 4    1  0.2048241E+005  0.2709545E+02  0.7546771E-02  0.1446652E+00
          2   -1    0    0  503    0  0.00000000000E+00  0.00000000000E+00  0.18941867631E+04  0.18941867631E+04  0.00000000000E+00 0.  1.
         21   -1    0    0  501  502 -0.00000000000E+00 -0.00000000000E+00 -0.99798194366E+01  0.99798194366E+01  0.00000000000E+00 0.  1.
          2    1    1    2  501    0  0.82564982040E+01 -0.25806848118E+02  0.18755155936E+04  0.18757113065E+04  0.00000000000E+00 0.  1.
         21    1    1    2  503  502 -0.82564982040E+01  0.25806848118E+02  0.86913500404E+01  0.28455276100E+02  0.00000000000E+00 0.  1.
</event>
<event>
 4    1  0.2048241E+005  0.2256522E+02  0.7546771E-02  0.1498031E+00
          2   -1    0    0  503    0  0.00000000000E+00  0.00000000000E+00  0.56208106483E+01  0.56208106483E+01  0.00000000000E+00 0. -1.
         21   -1    0    0  501  502 -0.00000000000E+00 -0.00000000000E+00 -0.24004003887E+03  0.24004003887E+03  0.00000000000E+00 0. -1.
          2    1    1    2  501    0  0.10789733236E+02  0.19818450433E+02 -0.20289904585E+02  0.30345832481E+02  0.00000000000E+00 0. -1.
         21    1    1    2  503  502 -0.10789733236E+02 -0.19818450433E+02 -0.21412932364E+03  0.21531501704E+03  0.00000000000E+00 0. -1.
</event>
<event>
 4    1  0.2048241E+005  0.3284837E+02  0.7546771E-02  0.1396355E+00
          2   -1    0    0  502    0  0.00000000000E+00  0.00000000000E+00  0.80043406594E+02  0.80043406594E+02  0.00000000000E+00 0.  1.
         21   -1    0    0  503  502 -0.00000000000E+00 -0.00000000000E+00 -0.15469134302E+03  0.15469134302E+03  0.00000000000E+00 0.  1.
          2    1    1    2  501    0  0.32254031640E+02  0.62203609857E+01  0.74812944405E+02  0.81706744509E+02  0.00000000000E+00 0.  1.
         21    1    1    2  503  501 -0.32254031640E+02 -0.62203609857E+01 -0.14946088083E+03  0.15302800510E+03  0.00000000000E+00 0.  1.
</event>
<event>
 4    1  0.2048241E+005  0.2230026E+02  0.7546771E-02  0.1501477E+00
          2   -1    0    0  503    0  0.00000000000E+00  0.00000000000E+00  0.17994335379E+02  0.17994335379E+02  0.00000000000E+00 0. -1.
         21   -1    0    0  501  502 -0.00000000000E+00 -0.00000000000E+00 -0.32440550283E+02  0.32440550283E+02  0.00000000000E+00 0. -1.
          2    1    1    2  501    0  0.20679894520E+02  0.83452804748E+01  0.24810416503E+01  0.22437854426E+02  0.00000000000E+00 0. -1.
         21    1    1    2  503  502 -0.20679894520E+02 -0.83452804748E+01 -0.16927256555E+02  0.27997031236E+02  0.00000000000E+00 0. -1.
</event>
<event>
 4    1  0.2048241E+005  0.2533965E+02  0.7546771E-02  0.1465039E+00
          2   -1    0    0  502    0  0.00000000000E+00  0.00000000000E+00  0.50406564936E+02  0.50406564936E+02  0.00000000000E+00 0. -1.
         21   -1    0    0  503  502 -0.00000000000E+00 -0.00000000000E+00 -0.44899691511E+02  0.44899691511E+02  0.00000000000E+00 0.  1.
          2    1    1    2  501    0 -0.15550267814E+02  0.20007174807E+02  0.43084217178E+02  0.49983473696E+02  0.00000000000E+00 0. -1.
         21    1    1    2  503  501  0.15550267814E+02 -0.20007174807E+02 -0.37577343753E+02  0.45322782752E+02  0.00000000000E+00 0.  1.
</event>
<event>
 4    1  0.2048241E+005  0.3254988E+02  0.7546771E-02  0.1398658E+00
          2   -1    0    0  502    0  0.00000000000E+00  0.00000000000E+00  0.16327450724E+02  0.16327450724E+02  0.00000000000E+00 0. -1.
         21   -1    0    0  503  502 -0.00000000000E+00 -0.00000000000E+00 -0.48144076709E+03  0.48144076709E+03  0.00000000000E+00 0.  1.
          2    1    1    2  501    0  0.32432809121E+02  0.27581890308E+01 -0.10521243989E+01  0.32566880107E+02  0.00000000000E+00 0. -1.
         21    1    1    2  503  501 -0.32432809121E+02 -0.27581890308E+01 -0.46406119197E+03  0.46520133771E+03  0.00000000000E+00 0.  1.
</event>
<event>
 4    1  0.2048241E+005  0.3231593E+02  0.7546771E-02  0.1400483E+00
          2   -1    0    0  502    0  0.00000000000E+00  0.00000000000E+00  0.15012639458E+04  0.15012639458E+04  0.00000000000E+00 0. -1.
         21   -1    0    0  503  502 -0.00000000000E+00 -0.00000000000E+00 -0.15352979049E+02  0.15352979049E+02  0.00000000000E+00 0.  1.
          2    1    1    2  501    0  0.13819207796E+02 -0.29212136237E+02  0.14838857515E+04  0.14842375965E+04  0.00000000000E+00 0. -1.
         21    1    1    2  503  501 -0.13819207796E+02  0.29212136237E+02  0.20252152704E+01  0.32379328352E+02  0.00000000000E+00 0.  1.
</event>
<event>
 4    1  0.2048241E+005  0.2157655E+02  0.7546771E-02  0.1511190E+00
          2   -1    0    0  503    0  0.00000000000E+00  0.00000000000E+00  0.42998365901E+01  0.42998365901E+01  0.00000000000E+00 0.  1.
         21   -1    0    0  501  502 -0.00000000000E+00 -0.00000000000E+00 -0.16337889721E+03  0.16337889721E+03  0.00000000000E+00 0. -1.
          2    1    1    2  501    0  0.64886456948E+00 -0.21566792051E+02 -0.30847600486E+02  0.37644680904E+02  0.00000000000E+00 0.  1.
         21    1    1    2  503  502 -0.64886456948E+00  0.21566792051E+02 -0.12823146013E+03  0.13003405289E+03  0.00000000000E+00 0. -1.
</event>
<event>
 4    1  0.2048241E+005  0.3310261E+02  0.7546771E-02  0.1394417E+00
          2   -1    0    0  503    0  0.00000000000E+00  0.00000000000E+00  0.91337920076E+02  0.91337920076E+02  0.00000000000E+00 0. -1.
         21   -1    0    0  501  502 -0.00000000000E+00 -0.00000000000E+00 -0.10592418881E+03  0.10592418881E+03  0.00000000000E+00 0. -1.
          2    1    1    2  501    0 -0.30291437284E+02 -0.13349595416E+02  0.85584622545E+02  0.91763339557E+02  0.00000000000E+00 0. -1.
         21    1    1    2  503  502  0.30291437284E+02  0.13349595416E+02 -0.10017089128E+03  0.10549876933E+03  0.00000000000E+00 0. -1.
</event>
<event>
 4    1  0.2048241E+005  0.2283447E+02  0.7546771E-02  0.1494587E+00
          2   -1    0    0  503    0  0.00000000000E+00  0.00000000000E+00  0.50020252533E+03  0.50020252533E+03  0.00000000000E+00 0. -1.
         21   -1    0    0  501  502 -0.00000000000E+00 -0.00000000000E+00 -0.20412509465E+01  0.20412509465E+01  0.00000000000E+00 0.  1.
          2    1    1    2  501    0 -0.21850084310E+02 -0.66322493506E+01  0.42474591525E+03  0.42535926631E+03  0.00000000000E+00 0. -1.
         21    1    1    2  503  502  0.21850084310E+02  0.66322493506E+01  0.73415359132E+02  0.76884509963E+02  0.00000000000E+00 0.  1.
</event>
<event>
 4    1  0.2048241E+005  0.2401739E+02  0.7546771E-02  0.1480103E+00
          2   -1    0    0  503    0  0.00000000000E+00  0.00000000000E+00  0.66192815362E+02  0.66192815362E+02  0.00000000000E+00 0. -1.
         21   -1    0    0  501  502 -0.00000000000E+00 -0.00000000000E+00 -0.87956400251E+02  0.87956400251E+02  0.00000000000E+00 0. -1.
          2    1    1    2  501    0 -0.58454306388E+01  0.23295191595E+02  0.62275080781E+02  0.66745941428E+02  0.00000000000E+00 0. -1.
         21    1    1    2  503  502  0.58454306388E+01 -0.23295191595E+02 -0.84038665670E+02  0.87403274186E+02  0.00000000000E+00 0. -1.
</event>
<event>
 4    1  0.2048241E+005  0.5591580E+02  0.7546771E-02  0.1274378E+00
          2   -1    0    0  503    0  0.00000000000E+00  0.00000000000E+00  0.34170122224E+03  0.34170122224E+03  0.00000000000E+00 0.  1.
         21   -1    0    0  501  502 -0.00000000000E+00 -0.00000000000E+00 -0.10415907564E+02  0.10415907564E+02  0.00000000000E+00 0.  1.
          2    1    1    2  501    0 -0.51441657851E+02  0.21916501482E+02  0.22701943249E+03  0.23380419143E+03  0.00000000000E+00 0.  1.
         21    1    1    2  503  502  0.51441657851E+02 -0.21916501482E+02  0.10426588218E+03  0.11831293837E+03  0.00000000000E+00 0.  1.
</event>
<event>
 4    1  0.2048241E+005  0.2566861E+02  0.7546771E-02  0.1461461E+00
          2   -1    0    0  502    0  0.00000000000E+00  0.00000000000E+00  0.13825394305E+04  0.13825394305E+04  0.00000000000E+00 0. -1.
         21   -1    0    0  503  502 -0.00000000000E+00 -0.00000000000E+00 -0.66982450152E+00  0.66982450152E+00  0.00000000000E+00 0. -1.
          2    1    1    2  501    0  0.19486602987E+02  0.16707771155E+02  0.10624202300E+04  0.10627302680E+04  0.00000000000E+00 0. -1.
         21    1    1    2  503  501 -0.19486602987E+02 -0.16707771155E+02  0.31944937598E+03  0.32047898703E+03  0.00000000000E+00 0. -1.
</event>
<event>
 4    1  0.2048241E+005  0.2403323E+02  0.7546771E-02  0.1479916E+00
          2   -1    0    0  502    0  0.00000000000E+00  0.00000000000E+00  0.65278008432E+03  0.65278008432E+03  0.00000000000E+00 0. -1.
         21   -1    0    0  503  502 -0.00000000000E+00 -0.00000000000E+00 -0.12880527314E+01  0.12880527314E+01  0.00000000000E+00 0. -1.
          2    1    1    2  501    0 -0.23496950611E+02 -0.50487210225E+01  0.50872502078E+03  0.50929239444E+03  0.00000000000E+00 0. -1.
         21    1    1    2  503  501  0.23496950611E+02  0.50487210225E+01  0.14276701081E+03  0.14477574261E+03  0.00000000000E+00 0. -1.
</event>
<event>
 4    1  0.2048241E+005  0.3413154E+02  0.7546771E-02  0.1386774E+00
          2   -1    0    0  503    0  0.00000000000E+00  0.00000000000E+00  0.82663138526E+03  0.82663138526E+03  0.00000000000E+00 0. -1.
         21   -1    0    0  501  502 -0.00000000000E+00 -0.00000000000E+00 -0.69478912392E+03  0.69478912392E+03  0.00000000000E+00 0.  1.
          2    1    1    2  501    0 -0.33898598399E+02 -0.39808247070E+01  0.82585949332E+03  0.82656449515E+03  0.00000000000E+00 0. -1.
         21    1    1    2  503  502  0.33898598399E+02  0.39808247070E+01 -0.69401723198E+03  0.69485601403E+03  0.00000000000E+00 0.  1.
</event>
<event>
 4    1  0.2048241E+005  0.4401852E+02  0.7546771E-02  0.1326421E+00
          2   -1    0    0  503    0  0.00000000000E+00  0.00000000000E+00  0.36161566108E+03  0.36161566108E+03  0.00000000000E+00 0. -1.
         21   -1    0    0  501  502 -0.00000000000E+00 -0.00000000000E+00 -0.21257344336E+02  0.21257344336E+02  0.00000000000E+00 0.  1.
          2    1    1    2  501    0 -0.37126968386E+02  0.23647805935E+02  0.33573949965E+03  0.33861282039E+03  0.00000000000E+00 0. -1.
         21    1    1    2  503  502  0.37126968386E+02 -0.23647805935E+02  0.46188170931E+01  0.44260185025E+02  0.00000000000E+00 0.  1.
</event>
<event>
 4    1  0.2048241E+005  0.2540759E+02  0.7546771E-02  0.1464295E+00
          2   -1    0    0  502    0  0.00000000000E+00  0.00000000000E+00  0.79915899409E+03  0.79915899409E+03  0.00000000000E+00 0. -1.
         21   -1    0    0  503  502 -0.00000000000E+00 -0.00000000000E+00 -0.11411869641E+01  0.11411869641E+01  0.00000000000E+00 0.  1.
          2    1    1    2  501    0 -0.23550457269E+02 -0.95352905226E+01  0.61529615126E+03  0.61582050920E+03  0.00000000000E+00 0. -1.
         21    1    1    2  503  501  0.23550457269E+02  0.95352905226E+01  0.18272165587E+03  0.18447967185E+03  0.00000000000E+00 0.  1.
</event>
<event>
 4    1  0.2048241E+005  0.2228359E+02  0.7546771E-02  0.1501696E+00
          2   -1    0    0  503    0  0.00000000000E+00  0.00000000000E+00  0.11315615667E+03  0.11315615667E+03  0.00000000000E+00 0.  1.
         21   -1    0    0  501  502 -0.00000000000E+00 -0.00000000000E+00 -0.33280164162E+02  0.33280164162E+02  0.00000000000E+00 0. -1.
          2    1    1    2  501    0  0.61929524478E+01 -0.21405739382E+02  0.10815838436E+03  0.11043004322E+03  0.00000000000E+00 0.  1.
         21    1    1    2  503  502 -0.61929524478E+01  0.21405739382E+02 -0.28282391852E+02  0.36006277610E+02  0.00000000000E+00 0. -1.
</event>
<event>
 4    1  0.2048241E+005  0.2231510E+02  0.7546771E-02  0.1501282E+00
          2   -1    0    0  502    0  0.00000000000E+00  0.00000000000E+00  0.66373050004E+02  0.66373050004E+02  0.00000000000E+00 0.  1.
         21   -1    0    0  503  502 -0.00000000000E+00 -0.00000000000E+00 -0.47910855435E+03  0.47910855435E+03  0.00000000000E+00 0. -1.
          2    1    1    2  501    0 -0.89403676888E+01  0.20445871182E+02  0.64229160157E+02  0.67995211870E+02  0.00000000000E+00 0.  1.
         21    1    1    2  503  501  0.89403676888E+01 -0.20445871182E+02 -0.47696466450E+03  0.47748639248E+03  0.00000000000E+00 0. -1.
</event>
<event>
 4    1  0.2048241E+005  0.2454323E+02  0.7546771E-02  0.1473979E+00
          2   -1    0    0  502    0  0.00000000000E+00  0.00000000000E+00  0.20362135332E+02  0.20362135332E+02  0.00000000000E+00 0. -1.
         21   -1    0    0  503  502 -0.00000000000E+00 -0.00000000000E+00 -0.54198308974E+03  0.54198308974E+03  0.00000000000E+00 0. -1.
          2    1    1    2  501    0 -0.18951449444E+01 -0.24469952877E+02  0.12580896067E+02  0.27579867911E+02  0.00000000000E+00 0. -1.
         21    1    1    2  503  501  0.18951449444E+01  0.24469952877E+02 -0.53420185048E+03  0.53476535716E+03  0.00000000000E+00 0. -1.
</event>
<event>
 4    1  0.2048241E+005  0.4968171E+02  0.7546771E-02  0.1299558E+00
          2   -1    0    0  503    0  0.00000000000E+00  0.00000000000E+00  0.17325292306E+03  0.17325292306E+03  0.00000000000E+00 0. -1.
         21   -1    0    0  501  502 -0.00000000000E+00 -0.00000000000E+00 -0.14443052220E+02  0.14443052220E+02  0.00000000000E+00 0. -1.
          2    1    1    2  501    0 -0.15834162200E+02  0.47090888439E+02  0.90348955988E+02  0.10310774129E+03  0.00000000000E+00 0. -1.
         21    1    1    2  503  502  0.15834162200E+02 -0.47090888439E+02  0.68460914855E+02  0.84588233989E+02  0.00000000000E+00 0. -1.
</event>
<event>
 4    1  0.2218664E+005  0.2278737E+02  0.7546771E-02  0.1495185E+00
          2   -1    0    0  503    0  0.00000000000E+00  0.00000000000E+00  0.10666056883E+04  0.10666056883E+04  0.00000000000E+00 0.  1.
         21   -1    0    0  501  502 -0.00000000000E+00 -0.00000000000E+00 -0.24030838182E+03  0.24030838182E+03  0.00000000000E+00 0. -1.
          2    1    1    2  501    0  0.11016559593E+02  0.19947426571E+02  0.10659434369E+04  0.10661869794E+04  0.00000000000E+00 0.  1.
         21    1    1    2  503  502 -0.11016559593E+02 -0.19947426571E+02 -0.23964613038E+03  0.24072709074E+03  0.00000000000E+00 0. -1.
</event>
<event>
 4    1  0.2048241E+005  0.2240594E+02  0.7546771E-02  0.1500096E+00
          2   -1    0    0  503    0  0.00000000000E+00  0.00000000000E+00  0.39347494059E+03  0.39347494059E+03  0.00000000000E+00 0. -1.
         21   -1    0    0  501  502 -0.00000000000E+00 -0.00000000000E+00 -0.12778975308E+01  0.12778975308E+01  0.00000000000E+00 0. -1.
          2    1    1    2  501    0  0.22277092588E+02  0.23994056749E+01  0.20394504981E+03  0.20517214564E+03  0.00000000000E+00 0. -1.
         21    1    1    2  503  502 -0.22277092588E+02 -0.23994056749E+01  0.18825199324E+03  0.18958069248E+03  0.00000000000E+00 0. -1.
</event>
<event>
 4    1  0.2048241E+005  0.3872731E+02  0.7546771E-02  0.1356109E+00
          2   -1    0    0  503    0  0.00000000000E+00  0.00000000000E+00  0.18443302609E+04  0.18443302609E+04  0.00000000000E+00 0.  1.
         21   -1    0    0  501  502 -0.00000000000E+00 -0.00000000000E+00 -0.11215984989E+01  0.11215984989E+01  0.00000000000E+00 0.  1.
          2    1    1    2  501    0  0.26418253166E+02  0.28317499809E+02  0.14054555624E+04  0.14059890265E+04  0.00000000000E+00 0.  1.
         21    1    1    2  503  502 -0.26418253166E+02 -0.28317499809E+02  0.43775310006E+03  0.43946283290E+03  0.00000000000E+00 0.  1.
</event>
<event>
 4    1  0.2048241E+005  0.2104701E+02  0.7546771E-02  0.1518595E+00
          2   -1    0    0  503    0  0.00000000000E+00  0.00000000000E+00  0.95815957257E+03  0.95815957257E+03  0.00000000000E+00 0.  1.
         21   -1    0    0  501  502 -0.00000000000E+00 -0.00000000000E+00 -0.66944451355E+00  0.66944451355E+00  0.00000000000E+00 0. -1.
          2    1    1    2  501    0 -0.85768670383E+01  0.19220146409E+02  0.74541205197E+03  0.74570912821E+03  0.00000000000E+00 0.  1.
         21    1    1    2  503  502  0.85768670383E+01 -0.19220146409E+02  0.21207807608E+03  0.21311988887E+03  0.00000000000E+00 0. -1.
</event>
<event>
 4    1  0.2048241E+005  0.3915655E+02  0.7546771E-02  0.1353500E+00
          2   -1    0    0  502    0  0.00000000000E+00  0.00000000000E+00  0.19523917696E+04  0.19523917696E+04  0.00000000000E+00 0.  1.
         21   -1    0    0  503  502 -0.00000000000E+00 -0.00000000000E+00 -0.94265381856E+00  0.94265381856E+00  0.00000000000E+00 0.  1.
          2    1    1    2  501    0  0.38900824413E+02  0.44678369599E+01  0.13747432738E+04  0.13753008051E+04  0.00000000000E+00 0.  1.
         21    1    1    2  503  501 -0.38900824413E+02 -0.44678369599E+01  0.57670584198E+03  0.57803361830E+03  0.00000000000E+00 0.  1.
</event>
<event>
 4    1  0.2048241E+005  0.3997433E+02  0.7546771E-02  0.1348636E+00
          2   -1    0    0  502    0  0.00000000000E+00  0.00000000000E+00  0.42533178836E+03  0.42533178836E+03  0.00000000000E+00 0. -1.
         21   -1    0    0  503  502 -0.00000000000E+00 -0.00000000000E+00 -0.16987911153E+03  0.16987911153E+03  0.00000000000E+00 0. -1.
          2    1    1    2  501    0 -0.39310191307E+02  0.72564131781E+01  0.42202256065E+03  0.42391153366E+03  0.00000000000E+00 0. -1.
         21    1    1    2  503  501  0.39310191307E+02 -0.72564131781E+01 -0.16656988382E+03  0.17129936623E+03  0.00000000000E+00 0. -1.
</event>
<event>
 4    1  0.2048241E+005  0.2556426E+02  0.7546771E-02  0.1462589E+00
          2   -1    0    0  503    0  0.00000000000E+00  0.00000000000E+00  0.20659970242E+03  0.20659970242E+03  0.00000000000E+00 0. -1.
         21   -1    0    0  501  502 -0.00000000000E+00 -0.00000000000E+00 -0.14452907737E+03  0.14452907737E+03  0.00000000000E+00 0.  1.
          2    1    1    2  501    0 -0.96427153861E+01 -0.23675929180E+02  0.20466780455E+03  0.20625819209E+03  0.00000000000E+00 0. -1.
         21    1    1    2  503  502  0.96427153861E+01  0.23675929180E+02 -0.14259717950E+03  0.14487058771E+03  0.00000000000E+00 0.  1.
</event>
<event>
 4    1  0.2048241E+005  0.4091309E+02  0.7546771E-02  0.1343217E+00
          2   -1    0    0  502    0  0.00000000000E+00  0.00000000000E+00  0.20008418437E+03  0.20008418437E+03  0.00000000000E+00 0. -1.
         21   -1    0    0  503  502 -0.00000000000E+00 -0.00000000000E+00 -0.10182172770E+02  0.10182172770E+02  0.00000000000E+00 0. -1.
          2    1    1    2  501    0 -0.39916651357E+02 -0.89745293193E+01  0.13935396560E+03  0.14523570140E+03  0.00000000000E+00 0. -1.
         21    1    1    2  503  501  0.39916651357E+02  0.89745293193E+01  0.50548046004E+02  0.65030655747E+02  0.00000000000E+00 0. -1.
</event>
<event>
 4    1  0.2048241E+005  0.2069599E+02  0.7546771E-02  0.1523650E+00
          2   -1    0    0  502    0  0.00000000000E+00  0.00000000000E+00  0.17503005151E+03  0.17503005151E+03  0.00000000000E+00 0. -1.
         21   -1    0    0  503  502 -0.00000000000E+00 -0.00000000000E+00 -0.17012331691E+02  0.17012331691E+02  0.00000000000E+00 0. -1.
          2    1    1    2  501    0 -0.14263873841E+02 -0.14995533248E+02  0.16785594444E+03  0.16912700020E+03  0.00000000000E+00 0. -1.
         21    1    1    2  503  501  0.14263873841E+02  0.14995533248E+02 -0.98382246184E+01  0.22915382999E+02  0.00000000000E+00 0. -1.
</event>
<event>
 4    1  0.2048241E+005  0.2120837E+02  0.7546771E-02  0.1516311E+00
          2   -1    0    0  503    0  0.00000000000E+00  0.00000000000E+00  0.60893704504E+02  0.60893704504E+02  0.00000000000E+00 0.  1.
         21   -1    0    0  501  502 -0.00000000000E+00 -0.00000000000E+00 -0.27310700160E+02  0.27310700160E+02  0.00000000000E+00 0.  1.
          2    1    1    2  501    0  0.13768865221E+02  0.16131130149E+02  0.54460464173E+02  0.58444308254E+02  0.00000000000E+00 0.  1.
         21    1    1    2  503  502 -0.13768865221E+02 -0.16131130149E+02 -0.20877459830E+02  0.29760096410E+02  0.00000000000E+00 0.  1.
</event>
<event>
 4    1  0.2048241E+005  0.2544218E+02  0.7546771E-02  0.1463917E+00
          2   -1    0    0  502    0  0.00000000000E+00  0.00000000000E+00  0.16825350754E+04  0.16825350754E+04  0.00000000000E+00 0. -1.
         21   -1    0    0  503  502 -0.00000000000E+00 -0.00000000000E+00 -0.51646373828E+02  0.51646373828E+02  0.00000000000E+00 0.  1.
          2    1    1    2  501    0 -0.24051900227E+02  0.82952313260E+01  0.16792995081E+04  0.16794922276E+04  0.00000000000E+00 0. -1.
         21    1    1    2  503  501  0.24051900227E+02 -0.82952313260E+01 -0.48410806542E+02  0.54689221583E+02  0.00000000000E+00 0.  1.
</event>
<event>
 4    1  0.2048241E+005  0.2153101E+02  0.7546771E-02  0.1511817E+00
          2   -1    0    0  503    0  0.00000000000E+00  0.00000000000E+00  0.15609268571E+02  0.15609268571E+02  0.00000000000E+00 0. -1.
         21   -1    0    0  501  502 -0.00000000000E+00 -0.00000000000E+00 -0.32389625323E+02  0.32389625323E+02  0.00000000000E+00 0. -1.
          2    1    1    2  501    0  0.20503894327E+02  0.65707487059E+01 -0.14734566440E+01  0.21581369179E+02  0.00000000000E+00 0. -1.
         21    1    1    2  503  502 -0.20503894327E+02 -0.65707487059E+01 -0.15306900108E+02  0.26417524715E+02  0.00000000000E+00 0. -1.
</event>
<event>
 4    1  0.2048241E+005  0.2284449E+02  0.7546771E-02  0.1494460E+00
          2   -1    0    0  503    0  0.00000000000E+00  0.00000000000E+00  0.98475681650E+03  0.98475681650E+03  0.00000000000E+00 0.  1.
         21   -1    0    0  501  502 -0.00000000000E+00 -0.00000000000E+00 -0.63229493960E+01  0.63229493960E+01  0.00000000000E+00 0. -1.
          2    1    1    2  501    0  0.18510265869E+02  0.13388080528E+02  0.96353596377E+03  0.96380673587E+03  0.00000000000E+00 0.  1.
         21    1    1    2  503  502 -0.18510265869E+02 -0.13388080528E+02  0.14897903337E+02  0.27273030022E+02  0.00000000000E+00 0. -1.
</event>
<event>
 4    1  0.2048241E+005  0.2086626E+02  0.7546771E-02  0.1521183E+00
          2   -1    0    0  502    0  0.00000000000E+00  0.00000000000E+00  0.59079508631E+03  0.59079508631E+03  0.00000000000E+00 0. -1.
         21   -1    0    0  503  502 -0.00000000000E+00 -0.00000000000E+00 -0.96358590629E+01  0.96358590629E+01  0.00000000000E+00 0. -1.
          2    1    1    2  501    0 -0.94490724992E+01 -0.18604189634E+02  0.57908613957E+03  0.57946195552E+03  0.00000000000E+00 0. -1.
         21    1    1    2  503  501  0.94490724992E+01  0.18604189634E+02  0.20730876698E+01  0.20968989854E+02  0.00000000000E+00 0. -1.
</event>
<event>
 4    1  0.2048241E+005  0.2668369E+02  0.7546771E-02  0.1450812E+00
          2   -1    0    0  503    0  0.00000000000E+00  0.00000000000E+00  0.10291621204E+04  0.10291621204E+04  0.00000000000E+00 0. -1.
         21   -1    0    0  501  502 -0.00000000000E+00 -0.00000000000E+00 -0.13982129097E+01  0.13982129097E+01  0.00000000000E+00 0. -1.
          2    1    1    2  501    0 -0.21383947629E+02 -0.15960766629E+02  0.88012776416E+03  0.88053216894E+03  0.00000000000E+00 0. -1.
         21    1    1    2  503  502  0.21383947629E+02  0.15960766629E+02  0.14763614334E+03  0.15002816438E+03  0.00000000000E+00 0. -1.
</event>
<event>
 4    1  0.2048241E+005  0.2518581E+02  0.7546771E-02  0.1466735E+00
          2   -1    0    0  502    0  0.00000000000E+00  0.00000000000E+00  0.65774567419E+01  0.65774567419E+01  0.00000000000E+00 0. -1.
         21   -1    0    0  503  502 -0.00000000000E+00 -0.00000000000E+00 -0.11604249171E+03  0.11604249171E+03  0.00000000000E+00 0. -1.
          2    1    1    2  501    0 -0.13271671087E+02 -0.21405324895E+02 -0.29533347595E+02  0.38814221717E+02  0.00000000000E+00 0. -1.
         21    1    1    2  503  501  0.13271671087E+02  0.21405324895E+02 -0.79931687378E+02  0.83805726740E+02  0.00000000000E+00 0. -1.
</event>
<event>
 4    1  0.2048241E+005  0.3026717E+02  0.7546771E-02  0.1417289E+00
          2   -1    0    0  502    0  0.00000000000E+00  0.00000000000E+00  0.47451846101E+02  0.47451846101E+02  0.00000000000E+00 0.  1.
         21   -1    0    0  503  502 -0.00000000000E+00 -0.00000000000E+00 -0.37982990339E+02  0.37982990339E+02  0.00000000000E+00 0. -1.
          2    1    1    2  501    0 -0.30248231108E+02  0.10704572909E+01  0.34689118720E+02  0.46037336169E+02  0.00000000000E+00 0.  1.
         21    1    1    2  503  501  0.30248231108E+02 -0.10704572909E+01 -0.25220262958E+02  0.39397500271E+02  0.00000000000E+00 0. -1.
</event>
<event>
 4    1  0.2048241E+005  0.2089695E+02  0.7546771E-02  0.1520741E+00
          2   -1    0    0  502    0  0.00000000000E+00  0.00000000000E+00  0.20419296342E+03  0.20419296342E+03  0.00000000000E+00 0.  1.
         21   -1    0    0  503  502 -0.00000000000E+00 -0.00000000000E+00 -0.31470251438E+01  0.31470251438E+01  0.00000000000E+00 0.  1.
          2    1    1    2  501    0  0.20306823486E+02  0.49310846442E+01  0.15920828366E+03  0.16057384675E+03  0.00000000000E+00 0.  1.
         21    1    1    2  503  501 -0.20306823486E+02 -0.49310846442E+01  0.41837654615E+02  0.46766141807E+02  0.00000000000E+00 0.  1.
</event>
<event>
 4    1  0.2048241E+005  0.4649257E+02  0.7546771E-02  0.1314140E+00
          2   -1    0    0  503    0  0.00000000000E+00  0.00000000000E+00  0.76267834058E+03  0.76267834058E+03  0.00000000000E+00 0. -1.
         21   -1    0    0  501  502 -0.00000000000E+00 -0.00000000000E+00 -0.31832017216E+01  0.31832017216E+01  0.00000000000E+00 0. -1.
          2    1    1    2  501    0  0.27539849294E+02 -0.37458188653E+02  0.50654818162E+03  0.50867732356E+03  0.00000000000E+00 0. -1.
         21    1    1    2  503  502 -0.27539849294E+02  0.37458188653E+02  0.25294695724E+03  0.25718421875E+03  0.00000000000E+00 0. -1.
</event>
<event>
 4    1  0.2048241E+005  0.3086365E+02  0.7546771E-02  0.1412237E+00
          2   -1    0    0  503    0  0.00000000000E+00  0.00000000000E+00  0.25704558361E+03  0.25704558361E+03  0.00000000000E+00 0.  1.
         21   -1    0    0  501  502 -0.00000000000E+00 -0.00000000000E+00 -0.72437825512E+01  0.72437825512E+01  0.00000000000E+00 0.  1.
          2    1    1    2  501    0 -0.22059581020E+02  0.21585639501E+02  0.21725231245E+03  0.21943366245E+03  0.00000000000E+00 0.  1.
         21    1    1    2  503  502  0.22059581020E+02 -0.21585639501E+02  0.32549488604E+02  0.44855703716E+02  0.00000000000E+00 0.  1.
</event>
<event>
 4    1  0.2048241E+005  0.3968432E+02  0.7546771E-02  0.1350346E+00
          2   -1    0    0  503    0  0.00000000000E+00  0.00000000000E+00  0.17538653209E+04  0.17538653209E+04  0.00000000000E+00 0.  1.
         21   -1    0    0  501  502 -0.00000000000E+00 -0.00000000000E+00 -0.25223952332E+01  0.25223952332E+01  0.00000000000E+00 0.  1.
          2    1    1    2  501    0  0.38972979980E+02 -0.74801085519E+01  0.15804282602E+04  0.15809264154E+04  0.00000000000E+00 0.  1.
         21    1    1    2  503  502 -0.38972979980E+02  0.74801085519E+01  0.17091466552E+03  0.17546130081E+03  0.00000000000E+00 0.  1.
</event>
<event>
 4    1  0.2048241E+005  0.4736830E+02  0.7546771E-02  0.1310004E+00
          2   -1    0    0  502    0  0.00000000000E+00  0.00000000000E+00  0.29042024931E+02  0.29042024931E+02  0.00000000000E+00 0. -1.
         21   -1    0    0  503  502 -0.00000000000E+00 -0.00000000000E+00 -0.11225246359E+03  0.11225246359E+03  0.00000000000E+00 0. -1.
          2    1    1    2  501    0  0.23354497034E+01 -0.47310693035E+02 -0.21602942173E+01  0.47417537598E+02  0.00000000000E+00 0. -1.
         21    1    1    2  503  501 -0.23354497034E+01  0.47310693035E+02 -0.81050144441E+02  0.93876950924E+02  0.00000000000E+00 0. -1.
</event>
<event>
 4    1  0.2048241E+005  0.7825947E+02  0.7546771E-02  0.1207947E+00
          2   -1    0    0  502    0  0.00000000000E+00  0.00000000000E+00  0.74226859684E+03  0.74226859684E+03  0.00000000000E+00 0.  1.
         21   -1    0    0  503  502 -0.00000000000E+00 -0.00000000000E+00 -0.92958662129E+01  0.92958662129E+01  0.00000000000E+00 0.  1.
          2    1    1    2  501    0  0.24784269967E+02  0.74231290937E+02  0.49246516320E+03  0.49864464457E+03  0.00000000000E+00 0.  1.
         21    1    1    2  503  501 -0.24784269967E+02 -0.74231290937E+02  0.24050756742E+03  0.25291981848E+03  0.00000000000E+00 0.  1.
</event>
<event>
 4    1  0.2048241E+005  0.5713376E+02  0.7546771E-02  0.1269895E+00
          2   -1    0    0  503    0  0.00000000000E+00  0.00000000000E+00  0.80377122328E+02  0.80377122328E+02  0.00000000000E+00 0.  1.
         21   -1    0    0  501  502 -0.00000000000E+00 -0.00000000000E+00 -0.94009836619E+02  0.94009836619E+02  0.00000000000E+00 0.  1.
          2    1    1    2  501    0  0.48237117165E+02  0.30617751058E+02  0.58897910676E+02  0.82056261395E+02  0.00000000000E+00 0.  1.
         21    1    1    2  503  502 -0.48237117165E+02 -0.30617751058E+02 -0.72530624967E+02  0.92330697551E+02  0.00000000000E+00 0.  1.
</event>
<event>
 4    1  0.2048241E+005  0.2073462E+02  0.7546771E-02  0.1523088E+00
          2   -1    0    0  502    0  0.00000000000E+00  0.00000000000E+00  0.28195240148E+02  0.28195240148E+02  0.00000000000E+00 0.  1.
         21   -1    0    0  503  502 -0.00000000000E+00 -0.00000000000E+00 -0.15795581023E+02  0.15795581023E+02  0.00000000000E+00 0.  1.
          2    1    1    2  501    0  0.20647333459E+02 -0.19005712345E+01  0.21049716559E+01  0.20841196118E+02  0.00000000000E+00 0.  1.
         21    1    1    2  503  501 -0.20647333459E+02  0.19005712345E+01  0.10294687469E+02  0.23149625052E+02  0.00000000000E+00 0.  1.
</event>
<event>
 4    1  0.2048241E+005  0.2314872E+02  0.7546771E-02  0.1490639E+00
          2   -1    0    0  503    0  0.00000000000E+00  0.00000000000E+00  0.18058366015E+01  0.18058366015E+01  0.00000000000E+00 0.  1.
         21   -1    0    0  501  502 -0.00000000000E+00 -0.00000000000E+00 -0.47249064610E+03  0.47249064610E+03  0.00000000000E+00 0.  1.
          2    1    1    2  501    0  0.19772831590E+02 -0.12037368153E+02 -0.37997705470E+03  0.38068152726E+03  0.00000000000E+00 0.  1.
         21    1    1    2  503  502 -0.19772831590E+02  0.12037368153E+02 -0.90707754805E+02  0.93614955444E+02  0.00000000000E+00 0.  1.
</event>
<event>
 4    1  0.2048241E+005  0.2281787E+02  0.7546771E-02  0.1494798E+00
          2   -1    0    0  503    0  0.00000000000E+00  0.00000000000E+00  0.16801853129E+04  0.16801853129E+04  0.00000000000E+00 0.  1.
         21   -1    0    0  501  502 -0.00000000000E+00 -0.00000000000E+00 -0.39065775321E+00  0.39065775321E+00  0.00000000000E+00 0.  1.
          2    1    1    2  501    0  0.22365394767E+02 -0.45215221025E+01  0.45779730634E+03  0.45836560597E+03  0.00000000000E+00 0.  1.
         21    1    1    2  503  502 -0.22365394767E+02  0.45215221025E+01  0.12219973488E+04  0.12222103647E+04  0.00000000000E+00 0.  1.
</event>
<event>
 4    1  0.2048241E+005  0.2830085E+02  0.7546771E-02  0.1434961E+00
          2   -1    0    0  502    0  0.00000000000E+00  0.00000000000E+00  0.94708102945E+03  0.94708102945E+03  0.00000000000E+00 0.  1.
         21   -1    0    0  503  502 -0.00000000000E+00 -0.00000000000E+00 -0.26378344798E+02  0.26378344798E+02  0.00000000000E+00 0. -1.
          2    1    1    2  501    0  0.13407981383E+02  0.24923168519E+02  0.93921517859E+03  0.93964146885E+03  0.00000000000E+00 0.  1.
         21    1    1    2  503  501 -0.13407981383E+02 -0.24923168519E+02 -0.18512493936E+02  0.33817905398E+02  0.00000000000E+00 0. -1.
</event>
<event>
 4    1  0.2048241E+005  0.2246368E+02  0.7546771E-02  0.1499345E+00
          2   -1    0    0  502    0  0.00000000000E+00  0.00000000000E+00  0.84912142419E+03  0.84912142419E+03  0.00000000000E+00 0.  1.
         21   -1    0    0  503  502 -0.00000000000E+00 -0.00000000000E+00 -0.10758563626E+02  0.10758563626E+02  0.00000000000E+00 0. -1.
          2    1    1    2  501    0  0.17237482487E+02 -0.14404382635E+02  0.83707824224E+03  0.83737960369E+03  0.00000000000E+00 0.  1.
         21    1    1    2  503  501 -0.17237482487E+02  0.14404382635E+02  0.12846183228E+01  0.22500384126E+02  0.00000000000E+00 0. -1.
</event>
<event>
 4    1  0.2048241E+005  0.2455279E+02  0.7546771E-02  0.1473869E+00
          2   -1    0    0  502    0  0.00000000000E+00  0.00000000000E+00  0.28805569782E+01  0.28805569782E+01  0.00000000000E+00 0. -1.
         21   -1    0    0  503  502 -0.00000000000E+00 -0.00000000000E+00 -0.23902740451E+03  0.23902740451E+03  0.00000000000E+00 0. -1.
          2    1    1    2  501    0 -0.14494651597E+02  0.19817789819E+02 -0.75402790925E+02  0.79299562404E+02  0.00000000000E+00 0. -1.
         21    1    1    2  503  501  0.14494651597E+02 -0.19817789819E+02 -0.16074405661E+03  0.16260839909E+03  0.00000000000E+00 0. -1.
</event>
<event>
 4    1  0.2048241E+005  0.2164460E+02  0.7546771E-02  0.1510257E+00
          2   -1    0    0  503    0  0.00000000000E+00  0.00000000000E+00  0.88293369509E+01  0.88293369509E+01  0.00000000000E+00 0.  1.
         21   -1    0    0  501  502 -0.00000000000E+00 -0.00000000000E+00 -0.21284528170E+03  0.21284528170E+03  0.00000000000E+00 0.  1.
          2    1    1    2  501    0 -0.35060884479E+01  0.21358749340E+02 -0.59747064104E+01  0.22454085291E+02  0.00000000000E+00 0.  1.
         21    1    1    2  503  502  0.35060884479E+01 -0.21358749340E+02 -0.19804123834E+03  0.19922053336E+03  0.00000000000E+00 0.  1.
</event>
<event>
 4    1  0.2048241E+005  0.2558820E+02  0.7546771E-02  0.1462330E+00
          2   -1    0    0  502    0  0.00000000000E+00  0.00000000000E+00  0.18979141541E+03  0.18979141541E+03  0.00000000000E+00 0. -1.
         21   -1    0    0  503  502 -0.00000000000E+00 -0.00000000000E+00 -0.36735298477E+01  0.36735298477E+01  0.00000000000E+00 0. -1.
          2    1    1    2  501    0 -0.20076758257E+02 -0.15864423837E+02  0.11692728109E+03  0.11969438262E+03  0.00000000000E+00 0. -1.
         21    1    1    2  503  501  0.20076758257E+02  0.15864423837E+02  0.69190604470E+02  0.73770562643E+02  0.00000000000E+00 0. -1.
</event>
<event>
 4    1  0.2048241E+005  0.2066446E+02  0.7546771E-02  0.1524110E+00
          2   -1    0    0  503    0  0.00000000000E+00  0.00000000000E+00  0.12907453215E+04  0.12907453215E+04  0.00000000000E+00 0.  1.
         21   -1    0    0  501  502 -0.00000000000E+00 -0.00000000000E+00 -0.45189270313E+00  0.45189270313E+00  0.00000000000E+00 0.  1.
          2    1    1    2  501    0 -0.18381951109E+02 -0.94405463069E+01  0.97930040292E+03  0.97951840166E+03  0.00000000000E+00 0.  1.
         21    1    1    2  503  502  0.18381951109E+02  0.94405463069E+01  0.31099302591E+03  0.31167881257E+03  0.00000000000E+00 0.  1.
</event>
<event>
 4    1  0.2048241E+005  0.2701929E+02  0.7546771E-02  0.1447414E+00
          2   -1    0    0  503    0  0.00000000000E+00  0.00000000000E+00  0.19687421624E+03  0.19687421624E+03  0.00000000000E+00 0.  1.
         21   -1    0    0  501  502 -0.00000000000E+00 -0.00000000000E+00 -0.17854449101E+03  0.17854449101E+03  0.00000000000E+00 0. -1.
          2    1    1    2  501    0 -0.15628948417E+02  0.22040366242E+02  0.19491473528E+03  0.19677854507E+03  0.00000000000E+00 0.  1.
         21    1    1    2  503  502  0.15628948417E+02 -0.22040366242E+02 -0.17658501005E+03  0.17864016219E+03  0.00000000000E+00 0. -1.
</event>
<event>
 4    1  0.2048241E+005  0.2370980E+02  0.7546771E-02  0.1483772E+00
          2   -1    0    0  503    0  0.00000000000E+00  0.00000000000E+00  0.57771079481E+03  0.57771079481E+03  0.00000000000E+00 0. -1.
         21   -1    0    0  501  502 -0.00000000000E+00 -0.00000000000E+00 -0.35743595849E+01  0.35743595849E+01  0.00000000000E+00 0.  1.
          2    1    1    2  501    0  0.16321810257E+02 -0.17197471670E+02  0.53501258844E+03  0.53553769644E+03  0.00000000000E+00 0. -1.
         21    1    1    2  503  502 -0.16321810257E+02  0.17197471670E+02  0.39123846792E+02  0.45747457959E+02  0.00000000000E+00 0.  1.
</event>
<event>
 4    1  0.2048241E+005  0.2748643E+02  0.7546771E-02  0.1442782E+00
          2   -1    0    0  503    0  0.00000000000E+00  0.00000000000E+00  0.72221208873E+03  0.72221208873E+03  0.00000000000E+00 0.  1.
         21   -1    0    0  501  502 -0.00000000000E+00 -0.00000000000E+00 -0.19353630153E+01  0.19353630153E+01  0.00000000000E+00 0.  1.
          2    1    1    2  501    0 -0.12507387912E+02 -0.24475884805E+02  0.60557065935E+03  0.60619413322E+03  0.00000000000E+00 0.  1.
         21    1    1    2  503  502  0.12507387912E+02  0.24475884805E+02  0.11470606637E+03  0.11795331852E+03  0.00000000000E+00 0.  1.
</event>
<event>
 4    1  0.2048241E+005  0.2301693E+02  0.7546771E-02  0.1492286E+00
          2   -1    0    0  502    0  0.00000000000E+00  0.00000000000E+00  0.39351797445E+03  0.39351797445E+03  0.00000000000E+00 0.  1.
         21   -1    0    0  503  502 -0.00000000000E+00 -0.00000000000E+00 -0.21189678283E+01  0.21189678283E+01  0.00000000000E+00 0. -1.
          2    1    1    2  501    0  0.11301885258E+01 -0.22989169850E+02  0.31515635569E+03  0.31599574015E+03  0.00000000000E+00 0.  1.
         21    1    1    2  503  501 -0.11301885258E+01  0.22989169850E+02  0.76242650929E+02  0.79641202133E+02  0.00000000000E+00 0. -1.
</event>
<event>
 4    1  0.2048241E+005  0.4167177E+02  0.7546771E-02  0.1338958E+00
          2   -1    0    0  503    0  0.00000000000E+00  0.00000000000E+00  0.87483899745E+03  0.87483899745E+03  0.00000000000E+00 0. -1.
         21   -1    0    0  501  502 -0.00000000000E+00 -0.00000000000E+00 -0.18574784356E+02  0.18574784356E+02  0.00000000000E+00 0. -1.
          2    1    1    2  501    0 -0.24812464815E+02  0.33479518787E+02  0.85029631807E+03  0.85131684179E+03  0.00000000000E+00 0. -1.
         21    1    1    2  503  502  0.24812464815E+02 -0.33479518787E+02  0.59678950309E+01  0.42096940025E+02  0.00000000000E+00 0. -1.
</event>
<event>
 4    1  0.2048241E+005  0.2281639E+02  0.7546771E-02  0.1494817E+00
          2   -1    0    0  503    0  0.00000000000E+00  0.00000000000E+00  0.27495848549E+02  0.27495848549E+02  0.00000000000E+00 0.  1.
         21   -1    0    0  501  502 -0.00000000000E+00 -0.00000000000E+00 -0.55932331965E+02  0.55932331965E+02  0.00000000000E+00 0. -1.
          2    1    1    2  501    0 -0.18207303272E+02 -0.13750692260E+02  0.19708834475E+02  0.30150051184E+02  0.00000000000E+00 0.  1.
         21    1    1    2  503  502  0.18207303272E+02  0.13750692260E+02 -0.48145317891E+02  0.53278129330E+02  0.00000000000E+00 0. -1.
</event>
<event>
 4    1  0.2048241E+005  0.3575960E+02  0.7546771E-02  0.1375300E+00
          2   -1    0    0  503    0  0.00000000000E+00  0.00000000000E+00  0.63803737081E+03  0.63803737081E+03  0.00000000000E+00 0.  1.
         21   -1    0    0  501  502 -0.00000000000E+00 -0.00000000000E+00 -0.74769728282E+01  0.74769728282E+01  0.00000000000E+00 0.  1.
          2    1    1    2  501    0  0.31756794815E+02  0.16439429289E+02  0.59141240457E+03  0.59249251568E+03  0.00000000000E+00 0.  1.
         21    1    1    2  503  502 -0.31756794815E+02 -0.16439429289E+02  0.39147993408E+02  0.53021827959E+02  0.00000000000E+00 0.  1.
</event>
<event>
 4    1  0.2048241E+005  0.2998592E+02  0.7546771E-02  0.1419719E+00
          2   -1    0    0  503    0  0.00000000000E+00  0.00000000000E+00  0.19613377186E+04  0.19613377186E+04  0.00000000000E+00 0.  1.
         21   -1    0    0  501  502 -0.00000000000E+00 -0.00000000000E+00 -0.46922175925E+01  0.46922175925E+01  0.00000000000E+00 0. -1.
          2    1    1    2  501    0 -0.89547185137E+01 -0.28617627993E+02  0.19120823515E+04  0.19123174618E+04  0.00000000000E+00 0.  1.
         21    1    1    2  503  502  0.89547185137E+01  0.28617627993E+02  0.44563149476E+02  0.53712474406E+02  0.00000000000E+00 0. -1.
</event>
<event>
 4    1  0.2048241E+005  0.7266744E+02  0.7546771E-02  0.1221977E+00
          2   -1    0    0  503    0  0.00000000000E+00  0.00000000000E+00  0.20721791517E+04  0.20721791517E+04  0.00000000000E+00 0.  1.
         21   -1    0    0  501  502 -0.00000000000E+00 -0.00000000000E+00 -0.26256748623E+01  0.26256748623E+01  0.00000000000E+00 0. -1.
          2    1    1    2  501    0 -0.71691179313E+02 -0.11871492511E+02  0.85670498282E+03  0.85978135890E+03  0.00000000000E+00 0.  1.
         21    1    1    2  503  502  0.71691179313E+02  0.11871492511E+02  0.12128484940E+04  0.12150234676E+04  0.00000000000E+00 0. -1.
</event>
<event>
 4    1  0.2048241E+005  0.2037026E+02  0.7546771E-02  0.1528449E+00
          2   -1    0    0  503    0  0.00000000000E+00  0.00000000000E+00  0.40136592124E+03  0.40136592124E+03  0.00000000000E+00 0. -1.
         21   -1    0    0  501  502 -0.00000000000E+00 -0.00000000000E+00 -0.13948821519E+02  0.13948821519E+02  0.00000000000E+00 0.  1.
          2    1    1    2  501    0  0.18831541260E+02  0.77666368199E+01  0.39352236457E+03  0.39404923424E+03  0.00000000000E+00 0. -1.
         21    1    1    2  503  502 -0.18831541260E+02 -0.77666368199E+01 -0.61052648429E+01  0.21265508518E+02  0.00000000000E+00 0.  1.
</event>
<event>
 4    1  0.2048241E+005  0.3050536E+02  0.7546771E-02  0.1415255E+00
          2   -1    0    0  502    0  0.00000000000E+00  0.00000000000E+00  0.29815771569E+03  0.29815771569E+03  0.00000000000E+00 0.  1.
         21   -1    0    0  503  502 -0.00000000000E+00 -0.00000000000E+00 -0.20301435383E+02  0.20301435383E+02  0.00000000000E+00 0.  1.
          2    1    1    2  501    0  0.30504403738E+02 -0.24172096482E+00  0.28540745825E+03  0.28703308921E+03  0.00000000000E+00 0.  1.
         21    1    1    2  503  501 -0.30504403738E+02  0.24172096482E+00 -0.75511779359E+01  0.31426061870E+02  0.00000000000E+00 0.  1.
</event>
<event>
 4    1  0.2048241E+005  0.3145033E+02  0.7546771E-02  0.1407398E+00
          2   -1    0    0  503    0  0.00000000000E+00  0.00000000000E+00  0.65999351431E+02  0.65999351431E+02  0.00000000000E+00 0. -1.
         21   -1    0    0  501  502 -0.00000000000E+00 -0.00000000000E+00 -0.34189483997E+02  0.34189483997E+02  0.00000000000E+00 0. -1.
          2    1    1    2  501    0 -0.11070147081E+02 -0.29437651143E+02  0.53447441251E+02  0.62014130950E+02  0.00000000000E+00 0. -1.
         21    1    1    2  503  502  0.11070147081E+02  0.29437651143E+02 -0.21637573817E+02  0.38174704477E+02  0.00000000000E+00 0. -1.
</event>
<event>
 4    1  0.2048241E+005  0.2003037E+02  0.7546771E-02  0.1533572E+00
          2   -1    0    0  503    0  0.00000000000E+00  0.00000000000E+00  0.36607964828E+03  0.36607964828E+03  0.00000000000E+00 0. -1.
         21   -1    0    0  501  502 -0.00000000000E+00 -0.00000000000E+00 -0.13862692486E+01  0.13862692486E+01  0.00000000000E+00 0. -1.
          2    1    1    2  501    0  0.19492700358E+02 -0.46097931101E+01  0.26642415161E+03  0.26717605454E+03  0.00000000000E+00 0. -1.
         21    1    1    2  503  502 -0.19492700358E+02  0.46097931101E+01  0.98269227425E+02  0.10028986299E+03  0.00000000000E+00 0. -1.
</event>
<event>
 4    1  0.2048241E+005  0.2065653E+02  0.7546771E-02  0.1524226E+00
          2   -1    0    0  503    0  0.00000000000E+00  0.00000000000E+00  0.11529935379E+03  0.11529935379E+03  0.00000000000E+00 0. -1.
         21   -1    0    0  501  502 -0.00000000000E+00 -0.00000000000E+00 -0.13418526938E+03  0.13418526938E+03  0.00000000000E+00 0. -1.
          2    1    1    2  501    0  0.14593421241E+02  0.14619317210E+02  0.11356717467E+03  0.11543047926E+03  0.00000000000E+00 0. -1.
         21    1    1    2  503  502 -0.14593421241E+02 -0.14619317210E+02 -0.13245309026E+03  0.13405414391E+03  0.00000000000E+00 0. -1.
</event>
<event>
 4    1  0.2048241E+005  0.2561875E+02  0.7546771E-02  0.1461999E+00
          2   -1    0    0  502    0  0.00000000000E+00  0.00000000000E+00  0.77029961289E+02  0.77029961289E+02  0.00000000000E+00 0.  1.
         21   -1    0    0  503  502 -0.00000000000E+00 -0.00000000000E+00 -0.30806890551E+02  0.30806890551E+02  0.00000000000E+00 0. -1.
          2    1    1    2  501    0 -0.20841957353E+02  0.14897425596E+02  0.68971617078E+02  0.73575841402E+02  0.00000000000E+00 0.  1.
         21    1    1    2  503  501  0.20841957353E+02 -0.14897425596E+02 -0.22748546340E+02  0.34261010438E+02  0.00000000000E+00 0. -1.
</event>
<event>
 4    1  0.2048241E+005  0.2415238E+02  0.7546771E-02  0.1478513E+00
          2   -1    0    0  502    0  0.00000000000E+00  0.00000000000E+00  0.29438215550E+02  0.29438215550E+02  0.00000000000E+00 0. -1.
         21   -1    0    0  503  502 -0.00000000000E+00 -0.00000000000E+00 -0.16327487513E+03  0.16327487513E+03  0.00000000000E+00 0. -1.
          2    1    1    2  501    0 -0.19001132064E+02 -0.14909535376E+02  0.23402056601E+02  0.33630247070E+02  0.00000000000E+00 0. -1.
         21    1    1    2  503  501  0.19001132064E+02  0.14909535376E+02 -0.15723871619E+03  0.15908284361E+03  0.00000000000E+00 0. -1.
</event>
<event>
 4    1  0.2048241E+005  0.2146251E+02  0.7546771E-02  0.1512763E+00
          2   -1    0    0  503    0  0.00000000000E+00  0.00000000000E+00  0.30424861347E+03  0.30424861347E+03  0.00000000000E+00 0. -1.
         21   -1    0    0  501  502 -0.00000000000E+00 -0.00000000000E+00 -0.70943918573E+01  0.70943918573E+01  0.00000000000E+00 0.  1.
          2    1    1    2  501    0 -0.14134391298E+02 -0.16151104078E+02  0.28664192481E+03  0.28744431155E+03  0.00000000000E+00 0. -1.
         21    1    1    2  503  502  0.14134391298E+02  0.16151104078E+02  0.10512296797E+02  0.23898693777E+02  0.00000000000E+00 0.  1.
</event>
<event>
 4    1  0.2048241E+005  0.2545245E+02  0.7546771E-02  0.1463805E+00
          2   -1    0    0  503    0  0.00000000000E+00  0.00000000000E+00  0.12113952642E+04  0.12113952642E+04  0.00000000000E+00 0. -1.
         21   -1    0    0  501  502 -0.00000000000E+00 -0.00000000000E+00 -0.29204695485E+02  0.29204695485E+02  0.00000000000E+00 0.  1.
          2    1    1    2  501    0  0.24905847128E+02  0.52465318493E+01  0.12056897551E+04  0.12059583794E+04  0.00000000000E+00 0. -1.
         21    1    1    2  503  502 -0.24905847128E+02 -0.52465318493E+01 -0.23499186433E+02  0.34641580227E+02  0.00000000000E+00 0.  1.
</event>
<event>
 4    1  0.2048241E+005  0.2038575E+02  0.7546771E-02  0.1528218E+00
          2   -1    0    0  502    0  0.00000000000E+00  0.00000000000E+00  0.63824756605E+03  0.63824756605E+03  0.00000000000E+00 0.  1.
         21   -1    0    0  503  502 -0.00000000000E+00 -0.00000000000E+00 -0.10513167555E+01  0.10513167555E+01  0.00000000000E+00 0. -1.
          2    1    1    2  501    0 -0.66295159895E+01  0.19277668045E+02  0.51581369847E+03  0.51621637953E+03  0.00000000000E+00 0.  1.
         21    1    1    2  503  501  0.66295159895E+01 -0.19277668045E+02  0.12138255083E+03  0.12308250328E+03  0.00000000000E+00 0. -1.
</event>
<event>
 4    1  0.2048241E+005  0.3571188E+02  0.7546771E-02  0.1375626E+00
          2   -1    0    0  502    0  0.00000000000E+00  0.00000000000E+00  0.92942470292E+02  0.92942470292E+02  0.00000000000E+00 0. -1.
         21   -1    0    0  503  502 -0.00000000000E+00 -0.00000000000E+00 -0.22690870191E+02  0.22690870191E+02  0.00000000000E+00 0.  1.
          2    1    1    2  501    0 -0.31816766945E+02 -0.16218257671E+02  0.71475519917E+02  0.79900491164E+02  0.00000000000E+00 0. -1.
         21    1    1    2  503  501  0.31816766945E+02  0.16218257671E+02 -0.12239198163E+01  0.35732849319E+02  0.00000000000E+00 0.  1.
</event>
<event>
 4    1  0.2048241E+005  0.3200543E+02  0.7546771E-02  0.1402934E+00
          2   -1    0    0  503    0  0.00000000000E+00  0.00000000000E+00  0.19139462592E+03  0.19139462592E+03  0.00000000000E+00 0. -1.
         21   -1    0    0  501  502 -0.00000000000E+00 -0.00000000000E+00 -0.70885502157E+02  0.70885502157E+02  0.00000000000E+00 0.  1.
          2    1    1    2  501    0  0.26090293683E+02 -0.18537641028E+02  0.18634678712E+03  0.18907530941E+03  0.00000000000E+00 0. -1.
         21    1    1    2  503  502 -0.26090293683E+02  0.18537641028E+02 -0.65837663357E+02  0.73204818664E+02  0.00000000000E+00 0.  1.
</event>
<event>
 4    1  0.2048241E+005  0.2124522E+02  0.7546771E-02  0.1515792E+00
          2   -1    0    0  503    0  0.00000000000E+00  0.00000000000E+00  0.33609591787E+03  0.33609591787E+03  0.00000000000E+00 0.  1.
         21   -1    0    0  501  502 -0.00000000000E+00 -0.00000000000E+00 -0.20402731283E+01  0.20402731283E+01  0.00000000000E+00 0.  1.
          2    1    1    2  501    0 -0.13946574047E+02 -0.16026613902E+02  0.26586838728E+03  0.26671587623E+03  0.00000000000E+00 0.  1.
         21    1    1    2  503  502  0.13946574047E+02  0.16026613902E+02  0.68187257468E+02  0.71420314770E+02  0.00000000000E+00 0.  1.
</event>
<event>
 4    1  0.2048241E+005  0.2710348E+02  0.7546771E-02  0.1446571E+00
          2   -1    0    0  502    0  0.00000000000E+00  0.00000000000E+00  0.44427323900E+03  0.44427323900E+03  0.00000000000E+00 0.  1.
         21   -1    0    0  503  502 -0.00000000000E+00 -0.00000000000E+00 -0.93788518268E+02  0.93788518268E+02  0.00000000000E+00 0. -1.
          2    1    1    2  501    0  0.25645452308E+02  0.87698035042E+01  0.44189119723E+03  0.44272161554E+03  0.00000000000E+00 0.  1.
         21    1    1    2  503  501 -0.25645452308E+02 -0.87698035042E+01 -0.91406476501E+02  0.95340141724E+02  0.00000000000E+00 0. -1.
</event>
<event>
 4    1  0.2048241E+005  0.2015915E+02  0.7546771E-02  0.1531617E+00
          2   -1    0    0  503    0  0.00000000000E+00  0.00000000000E+00  0.50647239316E+03  0.50647239316E+03  0.00000000000E+00 0. -1.
         21   -1    0    0  501  502 -0.00000000000E+00 -0.00000000000E+00 -0.13363665806E+01  0.13363665806E+01  0.00000000000E+00 0. -1.
          2    1    1    2  501    0 -0.17906930903E+02  0.92592164766E+01  0.41306474070E+03  0.41355637013E+03  0.00000000000E+00 0. -1.
         21    1    1    2  503  502  0.17906930903E+02 -0.92592164766E+01  0.92071285877E+02  0.94252389610E+02  0.00000000000E+00 0. -1.
</event>
<event>
 4    1  0.2048241E+005  0.2060192E+02  0.7546771E-02  0.1525025E+00
          2   -1    0    0  503    0  0.00000000000E+00  0.00000000000E+00  0.70889491685E+03  0.70889491685E+03  0.00000000000E+00 0. -1.
         21   -1    0    0  501  502 -0.00000000000E+00 -0.00000000000E+00 -0.10797686291E+01  0.10797686291E+01  0.00000000000E+00 0.  1.
          2    1    1    2  501    0 -0.20278695411E+02 -0.36350389284E+01  0.59084627381E+03  0.59120534358E+03  0.00000000000E+00 0. -1.
         21    1    1    2  503  502  0.20278695411E+02  0.36350389284E+01  0.11696887441E+03  0.11876934191E+03  0.00000000000E+00 0.  1.
</event>
<event>
 4    1  0.2048241E+005  0.2447822E+02  0.7546771E-02  0.1474726E+00
          2   -1    0    0  503    0  0.00000000000E+00  0.00000000000E+00  0.69472548783E+02  0.69472548783E+02  0.00000000000E+00 0. -1.
         21   -1    0    0  501  502 -0.00000000000E+00 -0.00000000000E+00 -0.32601790275E+02  0.32601790275E+02  0.00000000000E+00 0. -1.
          2    1    1    2  501    0 -0.28842460640E+01 -0.24307704424E+02  0.62204078689E+02  0.66847070058E+02  0.00000000000E+00 0. -1.
         21    1    1    2  503  502  0.28842460640E+01  0.24307704424E+02 -0.25333320181E+02  0.35227268999E+02  0.00000000000E+00 0. -1.
</event>
<event>
 4    1  0.2048241E+005  0.3747726E+02  0.7546771E-02  0.1363939E+00
          2   -1    0    0  502    0  0.00000000000E+00  0.00000000000E+00  0.21883287012E+04  0.21883287012E+04  0.00000000000E+00 0. -1.
         21   -1    0    0  503  502 -0.00000000000E+00 -0.00000000000E+00 -0.75152239015E+01  0.75152239015E+01  0.00000000000E+00 0. -1.
          2    1    1    2  501    0  0.32942112291E+02  0.17870699492E+02  0.21403987333E+04  0.21407268116E+04  0.00000000000E+00 0. -1.
         21    1    1    2  503  501 -0.32942112291E+02 -0.17870699492E+02  0.40414744041E+02  0.55117113480E+02  0.00000000000E+00 0. -1.
</event>
<event>
 4    1  0.2048241E+005  0.2136800E+02  0.7546771E-02  0.1514075E+00
          2   -1    0    0  502    0  0.00000000000E+00  0.00000000000E+00  0.27958063844E+02  0.27958063844E+02  0.00000000000E+00 0. -1.
         21   -1    0    0  503  502 -0.00000000000E+00 -0.00000000000E+00 -0.21644328006E+02  0.21644328006E+02  0.00000000000E+00 0.  1.
          2    1    1    2  501    0 -0.21274692220E+01 -0.21261824611E+02  0.15444605829E+02  0.26365264275E+02  0.00000000000E+00 0. -1.
         21    1    1    2  503  501  0.21274692220E+01  0.21261824611E+02 -0.91308699911E+01  0.23237127574E+02  0.00000000000E+00 0.  1.
</event>
<event>
 4    1  0.2048241E+005  0.4129669E+02  0.7546771E-02  0.1341050E+00
          2   -1    0    0  502    0  0.00000000000E+00  0.00000000000E+00  0.13539433916E+04  0.13539433916E+04  0.00000000000E+00 0.  1.
         21   -1    0    0  503  502 -0.00000000000E+00 -0.00000000000E+00 -0.24729130893E+01  0.24729130893E+01  0.00000000000E+00 0. -1.
          2    1    1    2  501    0  0.20704855934E+02  0.35731293886E+02  0.11507930156E+04  0.11515337517E+04  0.00000000000E+00 0.  1.
         21    1    1    2  503  501 -0.20704855934E+02 -0.35731293886E+02  0.20067746290E+03  0.20488255304E+03  0.00000000000E+00 0. -1.
</event>
<event>
 4    1  0.2048241E+005  0.2346699E+02  0.7546771E-02  0.1486716E+00
          2   -1    0    0  503    0  0.00000000000E+00  0.00000000000E+00  0.87607251813E+03  0.87607251813E+03  0.00000000000E+00 0. -1.
         21   -1    0    0  501  502 -0.00000000000E+00 -0.00000000000E+00 -0.42882993497E+02  0.42882993497E+02  0.00000000000E+00 0.  1.
          2    1    1    2  501    0  0.74219288194E+01  0.22262406644E+02  0.87269245670E+03  0.87300791736E+03  0.00000000000E+00 0. -1.
         21    1    1    2  503  502 -0.74219288194E+01 -0.22262406644E+02 -0.39502932072E+02  0.45947594271E+02  0.00000000000E+00 0.  1.
</event>
<event>
 4    1  0.2048241E+005  0.2350190E+02  0.7546771E-02  0.1486290E+00
          2   -1    0    0  502    0  0.00000000000E+00  0.00000000000E+00  0.11386249930E+04  0.11386249930E+04  0.00000000000E+00 0. -1.
         21   -1    0    0  503  502 -0.00000000000E+00 -0.00000000000E+00 -0.13422545859E+02  0.13422545859E+02  0.00000000000E+00 0. -1.
          2    1    1    2  501    0  0.15679231254E+02  0.17507170116E+02  0.11281204083E+04  0.11283651869E+04  0.00000000000E+00 0. -1.
         21    1    1    2  503  501 -0.15679231254E+02 -0.17507170116E+02 -0.29179611699E+01  0.23682351986E+02  0.00000000000E+00 0. -1.
</event>
<event>
 4    1  0.2048241E+005  0.2042567E+02  0.7546771E-02  0.1527625E+00
          2   -1    0    0  503    0  0.00000000000E+00  0.00000000000E+00  0.10091546567E+04  0.10091546567E+04  0.00000000000E+00 0. -1.
         21   -1    0    0  501  502 -0.00000000000E+00 -0.00000000000E+00 -0.14436950088E+01  0.14436950088E+01  0.00000000000E+00 0. -1.
          2    1    1    2  501    0 -0.14637275766E+02  0.14246331231E+02  0.93071680022E+03  0.93094090576E+03  0.00000000000E+00 0. -1.
         21    1    1    2  503  502  0.14637275766E+02 -0.14246331231E+02  0.76994161491E+02  0.79657445974E+02  0.00000000000E+00 0. -1.
</event>
<event>
 4    1  0.2048241E+005  0.2148893E+02  0.7546771E-02  0.1512397E+00
          2   -1    0    0  503    0  0.00000000000E+00  0.00000000000E+00  0.15382056448E+04  0.15382056448E+04  0.00000000000E+00 0.  1.
         21   -1    0    0  501  502 -0.00000000000E+00 -0.00000000000E+00 -0.30626390137E+00  0.30626390137E+00  0.00000000000E+00 0.  1.
          2    1    1    2  501    0 -0.52772167528E+01 -0.20830867437E+02  0.87716510031E+03  0.87742828040E+03  0.00000000000E+00 0.  1.
         21    1    1    2  503  502  0.52772167528E+01  0.20830867437E+02  0.66073428060E+03  0.66108362831E+03  0.00000000000E+00 0.  1.
</event>
<event>
 4    1  0.2048241E+005  0.2724099E+02  0.7546771E-02  0.1445202E+00
          2   -1    0    0  502    0  0.00000000000E+00  0.00000000000E+00  0.10355738413E+02  0.10355738413E+02  0.00000000000E+00 0. -1.
         21   -1    0    0  503  502 -0.00000000000E+00 -0.00000000000E+00 -0.73373878968E+02  0.73373878968E+02  0.00000000000E+00 0. -1.
          2    1    1    2  501    0  0.10094852044E+02 -0.25301488882E+02 -0.25106958773E+02  0.37046332561E+02  0.00000000000E+00 0. -1.
         21    1    1    2  503  501 -0.10094852044E+02  0.25301488882E+02 -0.37911181782E+02  0.46683284820E+02  0.00000000000E+00 0. -1.
</event>
<event>
 4    1  0.2048241E+005  0.2620739E+02  0.7546771E-02  0.1455737E+00
          2   -1    0    0  503    0  0.00000000000E+00  0.00000000000E+00  0.59746081860E+03  0.59746081860E+03  0.00000000000E+00 0. -1.
         21   -1    0    0  501  502 -0.00000000000E+00 -0.00000000000E+00 -0.26326001342E+02  0.26326001342E+02  0.00000000000E+00 0. -1.
          2    1    1    2  501    0 -0.23450118241E+02  0.11701258397E+02  0.59057508518E+03  0.59115628960E+03  0.00000000000E+00 0. -1.
         21    1    1    2  503  502  0.23450118241E+02 -0.11701258397E+02 -0.19440267924E+02  0.32630530344E+02  0.00000000000E+00 0. -1.
</event>
<event>
 4    1  0.2048241E+005  0.2051910E+02  0.7546771E-02  0.1526243E+00
          2   -1    0    0  503    0  0.00000000000E+00  0.00000000000E+00  0.14391485845E+04  0.14391485845E+04  0.00000000000E+00 0.  1.
         21   -1    0    0  501  502 -0.00000000000E+00 -0.00000000000E+00 -0.90761545307E+01  0.90761545307E+01  0.00000000000E+00 0.  1.
          2    1    1    2  501    0 -0.84953637991E+01  0.18677849497E+02  0.14273826165E+04  0.14275300932E+04  0.00000000000E+00 0.  1.
         21    1    1    2  503  502  0.84953637991E+01 -0.18677849497E+02  0.26898134893E+01  0.20694645794E+02  0.00000000000E+00 0.  1.
</event>
<event>
 4    1  0.2048241E+005  0.8220739E+02  0.7546771E-02  0.1198814E+00
          2   -1    0    0  502    0  0.00000000000E+00  0.00000000000E+00  0.10639297337E+04  0.10639297337E+04  0.00000000000E+00 0. -1.
         21   -1    0    0  503  502 -0.00000000000E+00 -0.00000000000E+00 -0.13500697663E+02  0.13500697663E+02  0.00000000000E+00 0. -1.
          2    1    1    2  501    0  0.81692348848E+02  0.91877896450E+01  0.91722289973E+03  0.92089950762E+03  0.00000000000E+00 0. -1.
         21    1    1    2  503  501 -0.81692348848E+02 -0.91877896450E+01  0.13320613631E+03  0.15653092374E+03  0.00000000000E+00 0. -1.
</event>
<event>
 4    1  0.2048241E+005  0.3486124E+02  0.7546771E-02  0.1381541E+00
          2   -1    0    0  503    0  0.00000000000E+00  0.00000000000E+00  0.12963638659E+04  0.12963638659E+04  0.00000000000E+00 0. -1.
         21   -1    0    0  501  502 -0.00000000000E+00 -0.00000000000E+00 -0.33816167807E+01  0.33816167807E+01  0.00000000000E+00 0. -1.
          2    1    1    2  501    0 -0.29184568480E+02 -0.19067429561E+02  0.11989876053E+04  0.11994943033E+04  0.00000000000E+00 0. -1.
         21    1    1    2  503  502  0.29184568480E+02  0.19067429561E+02  0.93994643849E+02  0.10025117944E+03  0.00000000000E+00 0. -1.
</event>
<event>
 4    1  0.2048241E+005  0.2044425E+02  0.7546771E-02  0.1527349E+00
          2   -1    0    0  503    0  0.00000000000E+00  0.00000000000E+00  0.13638061930E+04  0.13638061930E+04  0.00000000000E+00 0.  1.
         21   -1    0    0  501  502 -0.00000000000E+00 -0.00000000000E+00 -0.16927056658E+01  0.16927056658E+01  0.00000000000E+00 0.  1.
          2    1    1    2  501    0  0.10549266423E+02  0.17512288622E+02  0.12989151873E+04  0.12990760682E+04  0.00000000000E+00 0.  1.
         21    1    1    2  503  502 -0.10549266423E+02 -0.17512288622E+02  0.63198300076E+02  0.66422830468E+02  0.00000000000E+00 0.  1.
</event>
<event>
 4    1  0.2048241E+005  0.2541288E+02  0.7546771E-02  0.1464237E+00
          2   -1    0    0  502    0  0.00000000000E+00  0.00000000000E+00  0.16404918008E+02  0.16404918008E+02  0.00000000000E+00 0.  1.
         21   -1    0    0  503  502 -0.00000000000E+00 -0.00000000000E+00 -0.42197051497E+02  0.42197051497E+02  0.00000000000E+00 0.  1.
          2    1    1    2  501    0  0.17551698222E+01  0.25352194340E+02 -0.53080355051E+01  0.25961310057E+02  0.00000000000E+00 0.  1.
         21    1    1    2  503  501 -0.17551698222E+01 -0.25352194340E+02 -0.20484097984E+02  0.32640659448E+02  0.00000000000E+00 0.  1.
</event>
<event>
 4    1  0.2048241E+005  0.2418512E+02  0.7546771E-02  0.1478130E+00
          2   -1    0    0  502    0  0.00000000000E+00  0.00000000000E+00  0.51173141646E+03  0.51173141646E+03  0.00000000000E+00 0. -1.
         21   -1    0    0  503  502 -0.00000000000E+00 -0.00000000000E+00 -0.10104125810E+02  0.10104125810E+02  0.00000000000E+00 0.  1.
          2    1    1    2  501    0 -0.18845090447E+02 -0.15158583123E+02  0.49653055838E+03  0.49711921657E+03  0.00000000000E+00 0. -1.
         21    1    1    2  503  501  0.18845090447E+02  0.15158583123E+02  0.50967322682E+01  0.24716325699E+02  0.00000000000E+00 0.  1.
</event>
<event>
 4    1  0.2048241E+005  0.2616284E+02  0.7546771E-02  0.1456204E+00
          2   -1    0    0  502    0  0.00000000000E+00  0.00000000000E+00  0.64873364180E+03  0.64873364180E+03  0.00000000000E+00 0.  1.
         21   -1    0    0  503  502 -0.00000000000E+00 -0.00000000000E+00 -0.12431181786E+02  0.12431181786E+02  0.00000000000E+00 0. -1.
          2    1    1    2  501    0  0.25864789224E+02 -0.39378465142E+01  0.63439315425E+03  0.63493241224E+03  0.00000000000E+00 0.  1.
         21    1    1    2  503  501 -0.25864789224E+02  0.39378465142E+01  0.19093057705E+01  0.26232411351E+02  0.00000000000E+00 0. -1.
</event>
<event>
 4    1  0.2048241E+005  0.2332836E+02  0.7546771E-02  0.1488416E+00
          2   -1    0    0  502    0  0.00000000000E+00  0.00000000000E+00  0.19301130888E+03  0.19301130888E+03  0.00000000000E+00 0. -1.
         21   -1    0    0  503  502 -0.00000000000E+00 -0.00000000000E+00 -0.11693490065E+03  0.11693490065E+03  0.00000000000E+00 0. -1.
          2    1    1    2  501    0  0.19981882088E+02  0.12038960801E+02  0.19113151745E+03  0.19254991340E+03  0.00000000000E+00 0. -1.
         21    1    1    2  503  501 -0.19981882088E+02 -0.12038960801E+02 -0.11505510922E+03  0.11739629614E+03  0.00000000000E+00 0. -1.
</event>
<event>
 4    1  0.2048241E+005  0.2551768E+02  0.7546771E-02  0.1463095E+00
          2   -1    0    0  503    0  0.00000000000E+00  0.00000000000E+00  0.23297556092E+04  0.23297556092E+04  0.00000000000E+00 0. -1.
         21   -1    0    0  501  502 -0.00000000000E+00 -0.00000000000E+00 -0.39181604212E+00  0.39181604212E+00  0.00000000000E+00 0. -1.
          2    1    1    2  501    0 -0.23312689651E+01 -0.25410964824E+02  0.17884819789E+04  0.17886640100E+04  0.00000000000E+00 0. -1.
         21    1    1    2  503  502  0.23312689651E+01  0.25410964824E+02  0.54088181423E+03  0.54148341518E+03  0.00000000000E+00 0. -1.
</event>
<event>
 4    1  0.2048241E+005  0.2835817E+02  0.7546771E-02  0.1434422E+00
          2   -1    0    0  503    0  0.00000000000E+00  0.00000000000E+00  0.19210387551E+04  0.19210387551E+04  0.00000000000E+00 0. -1.
         21   -1    0    0  501  502 -0.00000000000E+00 -0.00000000000E+00 -0.10241747353E+01  0.10241747353E+01  0.00000000000E+00 0.  1.
          2    1    1    2  501    0  0.27913320777E+02 -0.50032451482E+01  0.16989778733E+04  0.16992145244E+04  0.00000000000E+00 0. -1.
         21    1    1    2  503  502 -0.27913320777E+02  0.50032451482E+01  0.22103670701E+03  0.22284840539E+03  0.00000000000E+00 0.  1.
</event>
<event>
 4    1  0.2048241E+005  0.2222262E+02  0.7546771E-02  0.1502497E+00
          2   -1    0    0  503    0  0.00000000000E+00  0.00000000000E+00  0.81839933113E+01  0.81839933113E+01  0.00000000000E+00 0. -1.
         21   -1    0    0  501  502 -0.00000000000E+00 -0.00000000000E+00 -0.30761488053E+03  0.30761488053E+03  0.00000000000E+00 0. -1.
          2    1    1    2  501    0 -0.16571646172E+02 -0.14806264560E+02 -0.81476484527E+01  0.23669159308E+02  0.00000000000E+00 0. -1.
         21    1    1    2  503  502  0.16571646172E+02  0.14806264560E+02 -0.29128323877E+03  0.29212971454E+03  0.00000000000E+00 0. -1.
</event>
<event>
 4    1  0.2048241E+005  0.2037192E+02  0.7546771E-02  0.1528424E+00
          2   -1    0    0  503    0  0.00000000000E+00  0.00000000000E+00  0.33543771048E+02  0.33543771048E+02  0.00000000000E+00 0.  1.
         21   -1    0    0  501  502 -0.00000000000E+00 -0.00000000000E+00 -0.18536754999E+02  0.18536754999E+02  0.00000000000E+00 0.  1.
          2    1    1    2  501    0 -0.82623602662E+01 -0.18621179948E+02  0.22520206010E+02  0.30367328143E+02  0.00000000000E+00 0.  1.
         21    1    1    2  503  502  0.82623602662E+01  0.18621179948E+02 -0.75131899613E+01  0.21713197904E+02  0.00000000000E+00 0.  1.
</event>
<event>
 4    1  0.2048241E+005  0.2004089E+02  0.7546771E-02  0.1533411E+00
          2   -1    0    0  502    0  0.00000000000E+00  0.00000000000E+00  0.14062667473E+03  0.14062667473E+03  0.00000000000E+00 0.  1.
         21   -1    0    0  503  502 -0.00000000000E+00 -0.00000000000E+00 -0.32880333919E+03  0.32880333919E+03  0.00000000000E+00 0.  1.
          2    1    1    2  501    0  0.19991892539E+02  0.14005551192E+01  0.13960505992E+03  0.14103620130E+03  0.00000000000E+00 0.  1.
         21    1    1    2  503  501 -0.19991892539E+02 -0.14005551192E+01 -0.32778172439E+03  0.32839381262E+03  0.00000000000E+00 0.  1.
</event>
<event>
 4    1  0.2048241E+005  0.2214113E+02  0.7546771E-02  0.1503574E+00
          2   -1    0    0  503    0  0.00000000000E+00  0.00000000000E+00  0.11439953034E+04  0.11439953034E+04  0.00000000000E+00 0. -1.
         21   -1    0    0  501  502 -0.00000000000E+00 -0.00000000000E+00 -0.89341672635E+00  0.89341672635E+00  0.00000000000E+00 0. -1.
          2    1    1    2  501    0 -0.21665376094E+02  0.45651895864E+01  0.98448680704E+03  0.98473575274E+03  0.00000000000E+00 0. -1.
         21    1    1    2  503  502  0.21665376094E+02 -0.45651895864E+01  0.15861507961E+03  0.16015296737E+03  0.00000000000E+00 0. -1.
</event>
<event>
 4    1  0.2048241E+005  0.2874195E+02  0.7546771E-02  0.1430853E+00
          2   -1    0    0  503    0  0.00000000000E+00  0.00000000000E+00  0.14434584438E+04  0.14434584438E+04  0.00000000000E+00 0.  1.
         21   -1    0    0  501  502 -0.00000000000E+00 -0.00000000000E+00 -0.26473781960E+01  0.26473781960E+01  0.00000000000E+00 0.  1.
          2    1    1    2  501    0  0.27284261858E+02 -0.90370900226E+01  0.13605510224E+04  0.13608545787E+04  0.00000000000E+00 0.  1.
         21    1    1    2  503  502 -0.27284261858E+02  0.90370900226E+01  0.80260043274E+02  0.85251243320E+02  0.00000000000E+00 0.  1.
</event>
<event>
 4    1  0.2048241E+005  0.2408950E+02  0.7546771E-02  0.1479252E+00
          2   -1    0    0  502    0  0.00000000000E+00  0.00000000000E+00  0.32486756384E+03  0.32486756384E+03  0.00000000000E+00 0. -1.
         21   -1    0    0  503  502 -0.00000000000E+00 -0.00000000000E+00 -0.15628989017E+02  0.15628989017E+02  0.00000000000E+00 0.  1.
          2    1    1    2  501    0  0.86092962840E+01 -0.22498535624E+02  0.31484338802E+03  0.31576361897E+03  0.00000000000E+00 0. -1.
         21    1    1    2  503  501 -0.86092962840E+01  0.22498535624E+02 -0.56048131927E+01  0.24732933886E+02  0.00000000000E+00 0.  1.
</event>
<event>
 4    1  0.2048241E+005  0.2183451E+02  0.7546771E-02  0.1507676E+00
          2   -1    0    0  503    0  0.00000000000E+00  0.00000000000E+00  0.13616872198E+03  0.13616872198E+03  0.00000000000E+00 0. -1.
         21   -1    0    0  501  502 -0.00000000000E+00 -0.00000000000E+00 -0.41445907913E+01  0.41445907913E+01  0.00000000000E+00 0.  1.
          2    1    1    2  501    0 -0.46203163951E+01 -0.21340071132E+02  0.93655069001E+02  0.96166615357E+02  0.00000000000E+00 0. -1.
         21    1    1    2  503  502  0.46203163951E+01  0.21340071132E+02  0.38369062190E+02  0.44146697417E+02  0.00000000000E+00 0.  1.
</event>
<event>
 4    1  0.2048241E+005  0.2209636E+02  0.7546771E-02  0.1504168E+00
          2   -1    0    0  503    0  0.00000000000E+00  0.00000000000E+00  0.66451026824E+03  0.66451026824E+03  0.00000000000E+00 0. -1.
         21   -1    0    0  501  502 -0.00000000000E+00 -0.00000000000E+00 -0.74931252637E+00  0.74931252637E+00  0.00000000000E+00 0. -1.
          2    1    1    2  501    0  0.18894907938E+02 -0.11455641293E+02  0.37825081912E+03  0.37889567354E+03  0.00000000000E+00 0. -1.
         21    1    1    2  503  502 -0.18894907938E+02  0.11455641293E+02  0.28551013659E+03  0.28636390722E+03  0.00000000000E+00 0. -1.
</event>
<event>
 4    1  0.2144500E+005  0.2381731E+02  0.7546771E-02  0.1482482E+00
          2   -1    0    0  503    0  0.00000000000E+00  0.00000000000E+00  0.73833455542E+03  0.73833455542E+03  0.00000000000E+00 0. -1.
         21   -1    0    0  501  502 -0.00000000000E+00 -0.00000000000E+00 -0.57457150452E+03  0.57457150452E+03  0.00000000000E+00 0. -1.
          2    1    1    2  501    0 -0.11010644836E+02 -0.21119417713E+02  0.73789551254E+03  0.73827979217E+03  0.00000000000E+00 0. -1.
         21    1    1    2  503  502  0.11010644836E+02  0.21119417713E+02 -0.57413246164E+03  0.57462626777E+03  0.00000000000E+00 0. -1.
</event>
<event>
 4    1  0.2048241E+005  0.2951865E+02  0.7546771E-02  0.1423826E+00
          2   -1    0    0  502    0  0.00000000000E+00  0.00000000000E+00  0.46975705496E+03  0.46975705496E+03  0.00000000000E+00 0.  1.
         21   -1    0    0  503  502 -0.00000000000E+00 -0.00000000000E+00 -0.11685651631E+02  0.11685651631E+02  0.00000000000E+00 0. -1.
          2    1    1    2  501    0  0.22050244550E+00 -0.29517829671E+02  0.44982681017E+03  0.45079431012E+03  0.00000000000E+00 0.  1.
         21    1    1    2  503  501 -0.22050244550E+00  0.29517829671E+02  0.82445931580E+01  0.30648396470E+02  0.00000000000E+00 0. -1.
</event>
<event>
 4    1  0.2048241E+005  0.5060886E+02  0.7546771E-02  0.1295554E+00
          2   -1    0    0  502    0  0.00000000000E+00  0.00000000000E+00  0.26349150478E+03  0.26349150478E+03  0.00000000000E+00 0.  1.
         21   -1    0    0  503  502 -0.00000000000E+00 -0.00000000000E+00 -0.10464537763E+02  0.10464537763E+02  0.00000000000E+00 0. -1.
          2    1    1    2  501    0 -0.26708981978E+02 -0.42987060678E+02  0.16303945024E+03  0.17071355962E+03  0.00000000000E+00 0.  1.
         21    1    1    2  503  501  0.26708981978E+02  0.42987060678E+02  0.89987516775E+02  0.10324248292E+03  0.00000000000E+00 0. -1.
</event>
<event>
 4    1  0.2048241E+005  0.3830573E+02  0.7546771E-02  0.1358711E+00
          2   -1    0    0  503    0  0.00000000000E+00  0.00000000000E+00  0.24295985938E+03  0.24295985938E+03  0.00000000000E+00 0.  1.
         21   -1    0    0  501  502 -0.00000000000E+00 -0.00000000000E+00 -0.34217731780E+02  0.34217731780E+02  0.00000000000E+00 0.  1.
          2    1    1    2  501    0  0.14908510815E+02  0.35285477899E+02  0.23013619554E+03  0.23330237277E+03  0.00000000000E+00 0.  1.
         21    1    1    2  503  502 -0.14908510815E+02 -0.35285477899E+02 -0.21394067939E+02  0.43875218384E+02  0.00000000000E+00 0.  1.
</event>
<event>
 4    1  0.2048241E+005  0.2114559E+02  0.7546771E-02  0.1517196E+00
          2   -1    0    0  503    0  0.00000000000E+00  0.00000000000E+00  0.61765835161E+02  0.61765835161E+02  0.00000000000E+00 0. -1.
         21   -1    0    0  501  502 -0.00000000000E+00 -0.00000000000E+00 -0.32547724315E+02  0.32547724315E+02  0.00000000000E+00 0. -1.
          2    1    1    2  501    0 -0.81524322500E+01  0.19510863009E+02  0.56192182080E+02  0.60039131021E+02  0.00000000000E+00 0. -1.
         21    1    1    2  503  502  0.81524322500E+01 -0.19510863009E+02 -0.26974071234E+02  0.34274428454E+02  0.00000000000E+00 0. -1.
</event>
<event>
 4    1  0.2048241E+005  0.2680819E+02  0.7546771E-02  0.1449544E+00
          2   -1    0    0  502    0  0.00000000000E+00  0.00000000000E+00  0.41408826319E+02  0.41408826319E+02  0.00000000000E+00 0.  1.
         21   -1    0    0  503  502 -0.00000000000E+00 -0.00000000000E+00 -0.78687071754E+02  0.78687071754E+02  0.00000000000E+00 0.  1.
          2    1    1    2  501    0  0.21977598297E+02 -0.15351351832E+02  0.34374545352E+02  0.43592295169E+02  0.00000000000E+00 0.  1.
         21    1    1    2  503  501 -0.21977598297E+02  0.15351351832E+02 -0.71652790786E+02  0.76503602905E+02  0.00000000000E+00 0.  1.
</event>
<event>
 4    1  0.2048241E+005  0.2089023E+02  0.7546771E-02  0.1520838E+00
          2   -1    0    0  503    0  0.00000000000E+00  0.00000000000E+00  0.24837825275E+03  0.24837825275E+03  0.00000000000E+00 0. -1.
         21   -1    0    0  501  502 -0.00000000000E+00 -0.00000000000E+00 -0.70836176780E+02  0.70836176780E+02  0.00000000000E+00 0.  1.
          2    1    1    2  501    0  0.18964804766E+02  0.87600198002E+01  0.24638639290E+03  0.24727041144E+03  0.00000000000E+00 0. -1.
         21    1    1    2  503  502 -0.18964804766E+02 -0.87600198002E+01 -0.68844316926E+02  0.71944018096E+02  0.00000000000E+00 0.  1.
</event>
<event>
 4    1  0.2048241E+005  0.2041679E+02  0.7546771E-02  0.1527757E+00
          2   -1    0    0  503    0  0.00000000000E+00  0.00000000000E+00  0.25665332917E+03  0.25665332917E+03  0.00000000000E+00 0.  1.
         21   -1    0    0  501  502 -0.00000000000E+00 -0.00000000000E+00 -0.25458592571E+02  0.25458592571E+02  0.00000000000E+00 0. -1.
          2    1    1    2  501    0 -0.18772351998E+02 -0.80276986027E+01  0.25207978052E+03  0.25290524093E+03  0.00000000000E+00 0.  1.
         21    1    1    2  503  502  0.18772351998E+02  0.80276986027E+01 -0.20885043920E+02  0.29206680810E+02  0.00000000000E+00 0. -1.
</event>
<event>
 4    1  0.2048241E+005  0.2066852E+02  0.7546771E-02  0.1524051E+00
          2   -1    0    0  503    0  0.00000000000E+00  0.00000000000E+00  0.15691054668E+02  0.15691054668E+02  0.00000000000E+00 0. -1.
         21   -1    0    0  501  502 -0.00000000000E+00 -0.00000000000E+00 -0.30054432060E+02  0.30054432060E+02  0.00000000000E+00 0. -1.
          2    1    1    2  501    0 -0.19635658331E+02 -0.64520122362E+01 -0.16357190694E+00  0.20669162918E+02  0.00000000000E+00 0. -1.
         21    1    1    2  503  502  0.19635658331E+02  0.64520122362E+01 -0.14199805486E+02  0.25076323810E+02  0.00000000000E+00 0. -1.
</event>
<event>
 4    1  0.2048241E+005  0.2192872E+02  0.7546771E-02  0.1506407E+00
          2   -1    0    0  503    0  0.00000000000E+00  0.00000000000E+00  0.52417805887E+02  0.52417805887E+02  0.00000000000E+00 0. -1.
         21   -1    0    0  501  502 -0.00000000000E+00 -0.00000000000E+00 -0.22459642703E+02  0.22459642703E+02  0.00000000000E+00 0. -1.
          2    1    1    2  501    0  0.21649881201E+02  0.34858892596E+01  0.43773923590E+02  0.48959423673E+02  0.00000000000E+00 0. -1.
         21    1    1    2  503  502 -0.21649881201E+02 -0.34858892596E+01 -0.13815760407E+02  0.25918024917E+02  0.00000000000E+00 0. -1.
</event>
<event>
 4    1  0.2048241E+005  0.3370394E+02  0.7546771E-02  0.1389911E+00
          2   -1    0    0  503    0  0.00000000000E+00  0.00000000000E+00  0.19707846997E+04  0.19707846997E+04  0.00000000000E+00 0. -1.
         21   -1    0    0  501  502 -0.00000000000E+00 -0.00000000000E+00 -0.13846924177E+01  0.13846924177E+01  0.00000000000E+00 0.  1.
          2    1    1    2  501    0  0.33703910631E+02 -0.43694283989E-01  0.17380945434E+04  0.17384212946E+04  0.00000000000E+00 0. -1.
         21    1    1    2  503  502 -0.33703910631E+02  0.43694283989E-01  0.23130546388E+03  0.23374809758E+03  0.00000000000E+00 0.  1.
</event>
<event>
 4    1  0.2048241E+005  0.3004393E+02  0.7546771E-02  0.1419215E+00
          2   -1    0    0  503    0  0.00000000000E+00  0.00000000000E+00  0.95437275355E+03  0.95437275355E+03  0.00000000000E+00 0. -1.
         21   -1    0    0  501  502 -0.00000000000E+00 -0.00000000000E+00 -0.60836195761E+02  0.60836195761E+02  0.00000000000E+00 0. -1.
          2    1    1    2  501    0 -0.12570543240E+02 -0.27287714472E+02  0.95041155320E+03  0.95088630150E+03  0.00000000000E+00 0. -1.
         21    1    1    2  503  502  0.12570543240E+02  0.27287714472E+02 -0.56874995413E+02  0.64322647813E+02  0.00000000000E+00 0. -1.
</event>
<event>
 4    1  0.2048241E+005  0.3031194E+02  0.7546771E-02  0.1416905E+00
          2   -1    0    0  502    0  0.00000000000E+00  0.00000000000E+00  0.14634431487E+04  0.14634431487E+04  0.00000000000E+00 0.  1.
         21   -1    0    0  503  502 -0.00000000000E+00 -0.00000000000E+00 -0.74274223463E+00  0.74274223463E+00  0.00000000000E+00 0.  1.
          2    1    1    2  501    0  0.15989664663E+02  0.25751589053E+02  0.10192916674E+04  0.10197422797E+04  0.00000000000E+00 0.  1.
         21    1    1    2  503  501 -0.15989664663E+02 -0.25751589053E+02  0.44340873912E+03  0.44444361132E+03  0.00000000000E+00 0.  1.
</event>
<event>
 4    1  0.2048241E+005  0.2222035E+02  0.7546771E-02  0.1502527E+00
          2   -1    0    0  502    0  0.00000000000E+00  0.00000000000E+00  0.78103283603E+03  0.78103283603E+03  0.00000000000E+00 0.  1.
         21   -1    0    0  503  502 -0.00000000000E+00 -0.00000000000E+00 -0.13260367453E+01  0.13260367453E+01  0.00000000000E+00 0.  1.
          2    1    1    2  501    0  0.15219896485E+02 -0.16189457873E+02  0.67282116712E+03  0.67318798765E+03  0.00000000000E+00 0.  1.
         21    1    1    2  503  501 -0.15219896485E+02  0.16189457873E+02  0.10688563217E+03  0.10917088513E+03  0.00000000000E+00 0.  1.
</event>
<event>
 4    1  0.2048241E+005  0.2923116E+02  0.7546771E-02  0.1426397E+00
          2   -1    0    0  503    0  0.00000000000E+00  0.00000000000E+00  0.66741996968E+01  0.66741996968E+01  0.00000000000E+00 0. -1.
         21   -1    0    0  501  502 -0.00000000000E+00 -0.00000000000E+00 -0.20285021576E+03  0.20285021576E+03  0.00000000000E+00 0. -1.
          2    1    1    2  501    0  0.20313436826E+02  0.21019627960E+02 -0.34460837980E+02  0.45188602872E+02  0.00000000000E+00 0. -1.
         21    1    1    2  503  502 -0.20313436826E+02 -0.21019627960E+02 -0.16171517809E+03  0.16433581259E+03  0.00000000000E+00 0. -1.
</event>
<event>
 4    1  0.2048241E+005  0.2209101E+02  0.7546771E-02  0.1504239E+00
          2   -1    0    0  503    0  0.00000000000E+00  0.00000000000E+00  0.67009913974E+03  0.67009913974E+03  0.00000000000E+00 0. -1.
         21   -1    0    0  501  502 -0.00000000000E+00 -0.00000000000E+00 -0.16230110003E+02  0.16230110003E+02  0.00000000000E+00 0. -1.
          2    1    1    2  501    0  0.55502210308E+01  0.21382414297E+02  0.66231162347E+03  0.66267993721E+03  0.00000000000E+00 0. -1.
         21    1    1    2  503  502 -0.55502210308E+01 -0.21382414297E+02 -0.84425937288E+01  0.23649312538E+02  0.00000000000E+00 0. -1.
</event>
<event>
 4    1  0.2048241E+005  0.2312975E+02  0.7546771E-02  0.1490875E+00
          2   -1    0    0  503    0  0.00000000000E+00  0.00000000000E+00  0.16495535105E+02  0.16495535105E+02  0.00000000000E+00 0.  1.
         21   -1    0    0  501  502 -0.00000000000E+00 -0.00000000000E+00 -0.36142424785E+02  0.36142424785E+02  0.00000000000E+00 0.  1.
          2    1    1    2  501    0  0.59934003171E+01  0.22339753033E+02 -0.13907893941E+01  0.23171527961E+02  0.00000000000E+00 0.  1.
         21    1    1    2  503  502 -0.59934003171E+01 -0.22339753033E+02 -0.18256100286E+02  0.29466431928E+02  0.00000000000E+00 0.  1.
</event>
<event>
 4    1  0.2048241E+005  0.3524303E+02  0.7546771E-02  0.1378863E+00
          2   -1    0    0  503    0  0.00000000000E+00  0.00000000000E+00  0.11891066751E+04  0.11891066751E+04  0.00000000000E+00 0.  1.
         21   -1    0    0  501  502 -0.00000000000E+00 -0.00000000000E+00 -0.10978834874E+01  0.10978834874E+01  0.00000000000E+00 0. -1.
          2    1    1    2  501    0  0.11640031990E+02 -0.33265308938E+02  0.72517864439E+03  0.72603452907E+03  0.00000000000E+00 0.  1.
         21    1    1    2  503  502 -0.11640031990E+02  0.33265308938E+02  0.46283014720E+03  0.46417002949E+03  0.00000000000E+00 0. -1.
</event>
<event>
 4    1  0.2048241E+005  0.2920328E+02  0.7546771E-02  0.1426649E+00
          2   -1    0    0  502    0  0.00000000000E+00  0.00000000000E+00  0.17611363436E+02  0.17611363436E+02  0.00000000000E+00 0.  1.
         21   -1    0    0  503  502 -0.00000000000E+00 -0.00000000000E+00 -0.34749171494E+03  0.34749171494E+03  0.00000000000E+00 0.  1.
          2    1    1    2  501    0 -0.26746655766E+02 -0.11723815990E+02  0.44145279264E+01  0.29535055660E+02  0.00000000000E+00 0.  1.
         21    1    1    2  503  501  0.26746655766E+02  0.11723815990E+02 -0.33429487943E+03  0.33556802272E+03  0.00000000000E+00 0.  1.
</event>
<event>
 4    1  0.2048241E+005  0.2794265E+02  0.7546771E-02  0.1438362E+00
          2   -1    0    0  503    0  0.00000000000E+00  0.00000000000E+00  0.35759648526E+02  0.35759648526E+02  0.00000000000E+00 0. -1.
         21   -1    0    0  501  502 -0.00000000000E+00 -0.00000000000E+00 -0.27586823611E+02  0.27586823611E+02  0.00000000000E+00 0.  1.
          2    1    1    2  501    0 -0.88631200893E+01  0.26499755205E+02  0.18549648833E+02  0.33539251564E+02  0.00000000000E+00 0. -1.
         21    1    1    2  503  502  0.88631200893E+01 -0.26499755205E+02 -0.10376823918E+02  0.29807220573E+02  0.00000000000E+00 0.  1.
</event>
<event>
 4    1  0.2048241E+005  0.5865500E+02  0.7546771E-02  0.1264472E+00
          2   -1    0    0  502    0  0.00000000000E+00  0.00000000000E+00  0.19302593420E+04  0.19302593420E+04  0.00000000000E+00 0. -1.
         21   -1    0    0  503  502 -0.00000000000E+00 -0.00000000000E+00 -0.23077403606E+01  0.23077403606E+01  0.00000000000E+00 0. -1.
          2    1    1    2  501    0  0.48079393276E+02  0.33597329867E+02  0.14250277125E+04  0.14262343391E+04  0.00000000000E+00 0. -1.
         21    1    1    2  503  501 -0.48079393276E+02 -0.33597329867E+02  0.50292388917E+03  0.50633274329E+03  0.00000000000E+00 0. -1.
</event>
<event>
 4    1  0.2048241E+005  0.2672261E+02  0.7546771E-02  0.1450415E+00
          2   -1    0    0  503    0  0.00000000000E+00  0.00000000000E+00  0.75599285585E+03  0.75599285585E+03  0.00000000000E+00 0.  1.
         21   -1    0    0  501  502 -0.00000000000E+00 -0.00000000000E+00 -0.45644682304E+01  0.45644682304E+01  0.00000000000E+00 0.  1.
          2    1    1    2  501    0 -0.15234097438E+01 -0.26679150737E+02  0.71436668488E+03  0.71486632200E+03  0.00000000000E+00 0.  1.
         21    1    1    2  503  502  0.15234097438E+01  0.26679150737E+02  0.37061702741E+02  0.45691002083E+02  0.00000000000E+00 0.  1.
</event>
<event>
 4    1  0.2048241E+005  0.2132731E+02  0.7546771E-02  0.1514643E+00
          2   -1    0    0  503    0  0.00000000000E+00  0.00000000000E+00  0.70434382924E+03  0.70434382924E+03  0.00000000000E+00 0. -1.
         21   -1    0    0  501  502 -0.00000000000E+00 -0.00000000000E+00 -0.26617871258E+01  0.26617871258E+01  0.00000000000E+00 0. -1.
          2    1    1    2  501    0  0.19650731693E+02  0.82887322291E+01  0.65848736134E+03  0.65883264900E+03  0.00000000000E+00 0. -1.
         21    1    1    2  503  502 -0.19650731693E+02 -0.82887322291E+01  0.43194680772E+02  0.48172967368E+02  0.00000000000E+00 0. -1.
</event>
<event>
 4    1  0.2048241E+005  0.1009450E+03  0.7546771E-02  0.1162181E+00
          2   -1    0    0  503    0  0.00000000000E+00  0.00000000000E+00  0.15585960291E+03  0.15585960291E+03  0.00000000000E+00 0. -1.
         21   -1    0    0  501  502 -0.00000000000E+00 -0.00000000000E+00 -0.13843340365E+03  0.13843340365E+03  0.00000000000E+00 0.  1.
          2    1    1    2  501    0  0.80666137802E+02  0.60686628581E+02  0.11560718980E+03  0.15347610566E+03  0.00000000000E+00 0. -1.
         21    1    1    2  503  502 -0.80666137802E+02 -0.60686628581E+02 -0.98180990540E+02  0.14081690090E+03  0.00000000000E+00 0.  1.
</event>
<event>
 4    1  0.2048241E+005  0.2479700E+02  0.7546771E-02  0.1471087E+00
          2   -1    0    0  502    0  0.00000000000E+00  0.00000000000E+00  0.65166209051E+03  0.65166209051E+03  0.00000000000E+00 0. -1.
         21   -1    0    0  503  502 -0.00000000000E+00 -0.00000000000E+00 -0.10134490331E+02  0.10134490331E+02  0.00000000000E+00 0.  1.
          2    1    1    2  501    0  0.14917255017E+02  0.19808252279E+02  0.63588162864E+03  0.63636494011E+03  0.00000000000E+00 0. -1.
         21    1    1    2  503  501 -0.14917255017E+02 -0.19808252279E+02  0.56459715346E+01  0.25431640729E+02  0.00000000000E+00 0.  1.
</event>
<event>
 4    1  0.2048241E+005  0.2720391E+02  0.7546771E-02  0.1445570E+00
          2   -1    0    0  502    0  0.00000000000E+00  0.00000000000E+00  0.11126146480E+04  0.11126146480E+04  0.00000000000E+00 0.  1.
         21   -1    0    0  503  502 -0.00000000000E+00 -0.00000000000E+00 -0.71192014979E+00  0.71192014979E+00  0.00000000000E+00 0.  1.
          2    1    1    2  501    0  0.40430221462E+01 -0.26901798364E+02  0.69863468422E+03  0.69916412578E+03  0.00000000000E+00 0.  1.
         21    1    1    2  503  501 -0.40430221462E+01  0.26901798364E+02  0.41326804361E+03  0.41416244235E+03  0.00000000000E+00 0.  1.
</event>
<event>
 4    1  0.2048241E+005  0.2830729E+02  0.7546771E-02  0.1434900E+00
          2   -1    0    0  502    0  0.00000000000E+00  0.00000000000E+00  0.26832119644E+02  0.26832119644E+02  0.00000000000E+00 0.  1.
         21   -1    0    0  503  502 -0.00000000000E+00 -0.00000000000E+00 -0.54585366633E+03  0.54585366633E+03  0.00000000000E+00 0. -1.
          2    1    1    2  501    0 -0.28145334271E+02  0.30237314574E+01  0.18889063891E+02  0.34030861403E+02  0.00000000000E+00 0.  1.
         21    1    1    2  503  501  0.28145334271E+02 -0.30237314574E+01 -0.53791061057E+03  0.53865492457E+03  0.00000000000E+00 0. -1.
</event>
<event>
 4    1  0.2048241E+005  0.3477409E+02  0.7546771E-02  0.1382158E+00
          2   -1    0    0  503    0  0.00000000000E+00  0.00000000000E+00  0.21124436619E+04  0.21124436619E+04  0.00000000000E+00 0. -1.
         21   -1    0    0  501  502 -0.00000000000E+00 -0.00000000000E+00 -0.49502995593E+01  0.49502995593E+01  0.00000000000E+00 0. -1.
          2    1    1    2  501    0 -0.34197298301E+02 -0.63073308455E+01  0.20493516900E+04  0.20496466981E+04  0.00000000000E+00 0. -1.
         21    1    1    2  503  502  0.34197298301E+02  0.63073308455E+01  0.58141672357E+02  0.67747263398E+02  0.00000000000E+00 0. -1.
</event>
<event>
 4    1  0.2048241E+005  0.2965487E+02  0.7546771E-02  0.1422620E+00
          2   -1    0    0  503    0  0.00000000000E+00  0.00000000000E+00  0.18758264934E+04  0.18758264934E+04  0.00000000000E+00 0. -1.
         21   -1    0    0  501  502 -0.00000000000E+00 -0.00000000000E+00 -0.58524323328E+01  0.58524323328E+01  0.00000000000E+00 0. -1.
          2    1    1    2  501    0  0.22081035003E+02 -0.19794927753E+02  0.18373567412E+04  0.18375960398E+04  0.00000000000E+00 0. -1.
         21    1    1    2  503  502 -0.22081035003E+02  0.19794927753E+02  0.32617319864E+02  0.44082885870E+02  0.00000000000E+00 0. -1.
</event>
<event>
 4    1  0.2048241E+005  0.3084281E+02  0.7546771E-02  0.1412411E+00
          2   -1    0    0  502    0  0.00000000000E+00  0.00000000000E+00  0.19442420404E+03  0.19442420404E+03  0.00000000000E+00 0. -1.
         21   -1    0    0  503  502 -0.00000000000E+00 -0.00000000000E+00 -0.60320130598E+01  0.60320130598E+01  0.00000000000E+00 0. -1.
          2    1    1    2  501    0  0.28588831978E+02  0.11574018438E+02  0.13775334158E+03  0.14116395551E+03  0.00000000000E+00 0. -1.
         21    1    1    2  503  501 -0.28588831978E+02 -0.11574018438E+02  0.50638849397E+02  0.59292261594E+02  0.00000000000E+00 0. -1.
</event>
<event>
 4    1  0.2048241E+005  0.2568277E+02  0.7546771E-02  0.1461308E+00
          2   -1    0    0  503    0  0.00000000000E+00  0.00000000000E+00  0.14900865953E+03  0.14900865953E+03  0.00000000000E+00 0.  1.
         21   -1    0    0  501  502 -0.00000000000E+00 -0.00000000000E+00 -0.19872839296E+03  0.19872839296E+03  0.00000000000E+00 0. -1.
          2    1    1    2  501    0  0.25527109206E+02 -0.28233877608E+01  0.14706131734E+03  0.14928709214E+03  0.00000000000E+00 0.  1.
         21    1    1    2  503  502 -0.25527109206E+02  0.28233877608E+01 -0.19678105077E+03  0.19844996035E+03  0.00000000000E+00 0. -1.
</event>
<event>
 4    1  0.2048241E+005  0.2119381E+02  0.7546771E-02  0.1516516E+00
          2   -1    0    0  502    0  0.00000000000E+00  0.00000000000E+00  0.96936510189E+03  0.96936510189E+03  0.00000000000E+00 0.  1.
         21   -1    0    0  503  502 -0.00000000000E+00 -0.00000000000E+00 -0.58806512341E+00  0.58806512341E+00  0.00000000000E+00 0.  1.
          2    1    1    2  501    0  0.21093822489E+02 -0.20562704247E+01  0.70770851087E+03  0.70802578622E+03  0.00000000000E+00 0.  1.
         21    1    1    2  503  501 -0.21093822489E+02  0.20562704247E+01  0.26106852590E+03  0.26192738079E+03  0.00000000000E+00 0.  1.
</event>
<event>
 4    1  0.2048241E+005  0.2141097E+02  0.7546771E-02  0.1513477E+00
          2   -1    0    0  503    0  0.00000000000E+00  0.00000000000E+00  0.10265309322E+04  0.10265309322E+04  0.00000000000E+00 0.  1.
         21   -1    0    0  501  502 -0.00000000000E+00 -0.00000000000E+00 -0.58941253704E+00  0.58941253704E+00  0.00000000000E+00 0. -1.
          2    1    1    2  501    0  0.15271541914E+02  0.15006988954E+02  0.76578001327E+03  0.76607927686E+03  0.00000000000E+00 0.  1.
         21    1    1    2  503  502 -0.15271541914E+02 -0.15006988954E+02  0.26016150635E+03  0.26104106783E+03  0.00000000000E+00 0. -1.
</event>
<event>
 4    1  0.2048241E+005  0.2073784E+02  0.7546771E-02  0.1523041E+00
          2   -1    0    0  503    0  0.00000000000E+00  0.00000000000E+00  0.15488095239E+02  0.15488095239E+02  0.00000000000E+00 0.  1.
         21   -1    0    0  501  502 -0.00000000000E+00 -0.00000000000E+00 -0.35884016349E+02  0.35884016349E+02  0.00000000000E+00 0.  1.
          2    1    1    2  501    0  0.12560911295E+01  0.20699761618E+02  0.20184940607E+01  0.20835839658E+02  0.00000000000E+00 0.  1.
         21    1    1    2  503  502 -0.12560911295E+01 -0.20699761618E+02 -0.22414415170E+02  0.30536271930E+02  0.00000000000E+00 0.  1.
</event>
<event>
 4    1  0.2048241E+005  0.3853822E+02  0.7546771E-02  0.1357271E+00
          2   -1    0    0  503    0  0.00000000000E+00  0.00000000000E+00  0.14601379955E+04  0.14601379955E+04  0.00000000000E+00 0. -1.
         21   -1    0    0  501  502 -0.00000000000E+00 -0.00000000000E+00 -0.10739808293E+01  0.10739808293E+01  0.00000000000E+00 0. -1.
          2    1    1    2  501    0  0.34859525628E+02 -0.16431922607E+02  0.89758144413E+03  0.89840839458E+03  0.00000000000E+00 0. -1.
         21    1    1    2  503  502 -0.34859525628E+02  0.16431922607E+02  0.56148257055E+03  0.56280358176E+03  0.00000000000E+00 0. -1.
</event>
<event>
 4    1  0.2048241E+005  0.3641940E+02  0.7546771E-02  0.1370850E+00
          2   -1    0    0  503    0  0.00000000000E+00  0.00000000000E+00  0.12044388868E+04  0.12044388868E+04  0.00000000000E+00 0.  1.
         21   -1    0    0  501  502 -0.00000000000E+00 -0.00000000000E+00 -0.30112939357E+02  0.30112939357E+02  0.00000000000E+00 0.  1.
          2    1    1    2  501    0  0.36007589272E+02 -0.54613160884E+01  0.11930468060E+04  0.11936025527E+04  0.00000000000E+00 0.  1.
         21    1    1    2  503  502 -0.36007589272E+02  0.54613160884E+01 -0.18720858511E+02  0.40949273522E+02  0.00000000000E+00 0.  1.
</event>
<event>
 4    1  0.2202907E+005  0.2399402E+02  0.7546771E-02  0.1480380E+00
          2   -1    0    0  502    0  0.00000000000E+00  0.00000000000E+00  0.17526846690E+04  0.17526846690E+04  0.00000000000E+00 0. -1.
         21   -1    0    0  503  502 -0.00000000000E+00 -0.00000000000E+00 -0.95976775350E+02  0.95976775350E+02  0.00000000000E+00 0. -1.
          2    1    1    2  501    0 -0.18042080529E+02 -0.15817592309E+02  0.17511015795E+04  0.17512659577E+04  0.00000000000E+00 0. -1.
         21    1    1    2  503  501  0.18042080529E+02  0.15817592309E+02 -0.94393685834E+02  0.97395486659E+02  0.00000000000E+00 0. -1.
</event>
<event>
 4    1  0.2048241E+005  0.2174927E+02  0.7546771E-02  0.1508830E+00
          2   -1    0    0  502    0  0.00000000000E+00  0.00000000000E+00  0.51582061267E+02  0.51582061267E+02  0.00000000000E+00 0.  1.
         21   -1    0    0  503  502 -0.00000000000E+00 -0.00000000000E+00 -0.26977944584E+02  0.26977944584E+02  0.00000000000E+00 0. -1.
          2    1    1    2  501    0  0.46434425305E+01  0.21247806665E+02  0.44215119272E+02  0.49274817289E+02  0.00000000000E+00 0.  1.
         21    1    1    2  503  501 -0.46434425305E+01 -0.21247806665E+02 -0.19611002589E+02  0.29285188562E+02  0.00000000000E+00 0. -1.
</event>
<event>
 4    1  0.2048241E+005  0.2088696E+02  0.7546771E-02  0.1520885E+00
          2   -1    0    0  503    0  0.00000000000E+00  0.00000000000E+00  0.10099308745E+04  0.10099308745E+04  0.00000000000E+00 0. -1.
         21   -1    0    0  501  502 -0.00000000000E+00 -0.00000000000E+00 -0.12940079554E+01  0.12940079554E+01  0.00000000000E+00 0. -1.
          2    1    1    2  501    0  0.22330394626E+01  0.20767246444E+02  0.91699631067E+03  0.91723415700E+03  0.00000000000E+00 0. -1.
         21    1    1    2  503  502 -0.22330394626E+01 -0.20767246444E+02  0.91640555880E+02  0.93990725458E+02  0.00000000000E+00 0. -1.
</event>
<event>
 4    1  0.2048241E+005  0.2797807E+02  0.7546771E-02  0.1438023E+00
          2   -1    0    0  502    0  0.00000000000E+00  0.00000000000E+00  0.41261279904E+03  0.41261279904E+03  0.00000000000E+00 0. -1.
         21   -1    0    0  503  502 -0.00000000000E+00 -0.00000000000E+00 -0.23880331492E+01  0.23880331492E+01  0.00000000000E+00 0. -1.
          2    1    1    2  501    0 -0.24065484486E+02 -0.14269716592E+02  0.29919405539E+03  0.30049934299E+03  0.00000000000E+00 0. -1.
         21    1    1    2  503  501  0.24065484486E+02  0.14269716592E+02  0.11103071050E+03  0.11450148920E+03  0.00000000000E+00 0. -1.
</event>
<event>
 4    1  0.2048241E+005  0.3077563E+02  0.7546771E-02  0.1412974E+00
          2   -1    0    0  503    0  0.00000000000E+00  0.00000000000E+00  0.44822122300E+02  0.44822122300E+02  0.00000000000E+00 0. -1.
         21   -1    0    0  501  502 -0.00000000000E+00 -0.00000000000E+00 -0.22816705446E+02  0.22816705446E+02  0.00000000000E+00 0.  1.
          2    1    1    2  501    0 -0.29309449518E+01  0.30635743288E+02  0.18104546142E+01  0.30828833112E+02  0.00000000000E+00 0. -1.
         21    1    1    2  503  502  0.29309449518E+01 -0.30635743288E+02  0.20194962240E+02  0.36809994635E+02  0.00000000000E+00 0.  1.
</event>
<event>
 4    1  0.2048241E+005  0.2021170E+02  0.7546771E-02  0.1530824E+00
          2   -1    0    0  503    0  0.00000000000E+00  0.00000000000E+00  0.33000605267E+03  0.33000605267E+03  0.00000000000E+00 0.  1.
         21   -1    0    0  501  502 -0.00000000000E+00 -0.00000000000E+00 -0.10371200992E+02  0.10371200992E+02  0.00000000000E+00 0. -1.
          2    1    1    2  501    0 -0.16950651279E+02 -0.11008555913E+02  0.31952665365E+03  0.32016526245E+03  0.00000000000E+00 0.  1.
         21    1    1    2  503  502  0.16950651279E+02  0.11008555913E+02  0.10819802366E+00  0.20211991215E+02  0.00000000000E+00 0. -1.
</event>
<event>
 4    1  0.2048241E+005  0.2017823E+02  0.7546771E-02  0.1531328E+00
          2   -1    0    0  502    0  0.00000000000E+00  0.00000000000E+00  0.34433165714E+03  0.34433165714E+03  0.00000000000E+00 0.  1.
         21   -1    0    0  503  502 -0.00000000000E+00 -0.00000000000E+00 -0.12159889110E+01  0.12159889110E+01  0.00000000000E+00 0.  1.
          2    1    1    2  501    0 -0.17637656910E+02 -0.98017282664E+01  0.20024433536E+03  0.20125842756E+03  0.00000000000E+00 0.  1.
         21    1    1    2  503  501  0.17637656910E+02  0.98017282664E+01  0.14287133287E+03  0.14428921849E+03  0.00000000000E+00 0.  1.
</event>
<event>
 4    1  0.2048241E+005  0.2759546E+02  0.7546771E-02  0.1441717E+00
          2   -1    0    0  503    0  0.00000000000E+00  0.00000000000E+00  0.86468421127E+03  0.86468421127E+03  0.00000000000E+00 0.  1.
         21   -1    0    0  501  502 -0.00000000000E+00 -0.00000000000E+00 -0.81546245031E+01  0.81546245031E+01  0.00000000000E+00 0. -1.
          2    1    1    2  501    0 -0.26591085437E+02  0.73772288523E+01  0.84044496874E+03  0.84089788608E+03  0.00000000000E+00 0.  1.
         21    1    1    2  503  502  0.26591085437E+02 -0.73772288523E+01  0.16084618024E+02  0.31940949692E+02  0.00000000000E+00 0. -1.
</event>
<event>
 4    1  0.2048241E+005  0.2621044E+02  0.7546771E-02  0.1455705E+00
          2   -1    0    0  502    0  0.00000000000E+00  0.00000000000E+00  0.23009274404E+04  0.23009274404E+04  0.00000000000E+00 0.  1.
         21   -1    0    0  503  502 -0.00000000000E+00 -0.00000000000E+00 -0.53908752777E+00  0.53908752777E+00  0.00000000000E+00 0. -1.
          2    1    1    2  501    0 -0.10303534816E+02 -0.24100300062E+02  0.19188264775E+04  0.19190054815E+04  0.00000000000E+00 0.  1.
         21    1    1    2  503  501  0.10303534816E+02  0.24100300062E+02  0.38156187531E+03  0.38246104636E+03  0.00000000000E+00 0. -1.
</event>
<event>
 4    1  0.2048241E+005  0.2694094E+02  0.7546771E-02  0.1448202E+00
          2   -1    0    0  502    0  0.00000000000E+00  0.00000000000E+00  0.11147039173E+04  0.11147039173E+04  0.00000000000E+00 0. -1.
         21   -1    0    0  503  502 -0.00000000000E+00 -0.00000000000E+00 -0.12487127173E+01  0.12487127173E+01  0.00000000000E+00 0.  1.
          2    1    1    2  501    0  0.23155612197E+02  0.13770691135E+02  0.94272505693E+03  0.94310993382E+03  0.00000000000E+00 0. -1.
         21    1    1    2  503  501 -0.23155612197E+02 -0.13770691135E+02  0.17073014769E+03  0.17284269623E+03  0.00000000000E+00 0.  1.
</event>
<event>
 4    1  0.2048241E+005  0.3411294E+02  0.7546771E-02  0.1386909E+00
          2   -1    0    0  503    0  0.00000000000E+00  0.00000000000E+00  0.17195505047E+04  0.17195505047E+04  0.00000000000E+00 0.  1.
         21   -1    0    0  501  502 -0.00000000000E+00 -0.00000000000E+00 -0.44267014068E+01  0.44267014068E+01  0.00000000000E+00 0.  1.
          2    1    1    2  501    0 -0.33823132033E+02  0.44371816800E+01  0.16509298769E+04  0.16512822749E+04  0.00000000000E+00 0.  1.
         21    1    1    2  503  502  0.33823132033E+02 -0.44371816800E+01  0.64193926352E+02  0.72694931201E+02  0.00000000000E+00 0.  1.
</event>
<event>
 4    1  0.2048241E+005  0.2068563E+02  0.7546771E-02  0.1523801E+00
          2   -1    0    0  503    0  0.00000000000E+00  0.00000000000E+00  0.15254121605E+02  0.15254121605E+02  0.00000000000E+00 0. -1.
         21   -1    0    0  501  502 -0.00000000000E+00 -0.00000000000E+00 -0.72295852833E+02  0.72295852833E+02  0.00000000000E+00 0.  1.
          2    1    1    2  501    0  0.10160791394E+02 -0.18018142926E+02  0.57243682589E+01  0.21463074063E+02  0.00000000000E+00 0. -1.
         21    1    1    2  503  502 -0.10160791394E+02  0.18018142926E+02 -0.62766099487E+02  0.66086900374E+02  0.00000000000E+00 0.  1.
</event>
<event>
 4    1  0.2048241E+005  0.3171511E+02  0.7546771E-02  0.1405255E+00
          2   -1    0    0  502    0  0.00000000000E+00  0.00000000000E+00  0.57103896171E+02  0.57103896171E+02  0.00000000000E+00 0.  1.
         21   -1    0    0  503  502 -0.00000000000E+00 -0.00000000000E+00 -0.16124852143E+03  0.16124852143E+03  0.00000000000E+00 0. -1.
          2    1    1    2  501    0 -0.13544235881E+02 -0.28677547915E+02  0.50968440327E+02  0.60030242289E+02  0.00000000000E+00 0.  1.
         21    1    1    2  503  501  0.13544235881E+02  0.28677547915E+02 -0.15511306559E+03  0.15832217531E+03  0.00000000000E+00 0. -1.
</event>
<event>
 4    1  0.2048241E+005  0.2405656E+02  0.7546771E-02  0.1479641E+00
          2   -1    0    0  503    0  0.00000000000E+00  0.00000000000E+00  0.35318702229E+02  0.35318702229E+02  0.00000000000E+00 0.  1.
         21   -1    0    0  501  502 -0.00000000000E+00 -0.00000000000E+00 -0.20691157686E+02  0.20691157686E+02  0.00000000000E+00 0.  1.
          2    1    1    2  501    0  0.22065471092E+02  0.95829588118E+01  0.20088652012E+02  0.31341219724E+02  0.00000000000E+00 0.  1.
         21    1    1    2  503  502 -0.22065471092E+02 -0.95829588118E+01 -0.54611074691E+01  0.24668640191E+02  0.00000000000E+00 0.  1.
</event>
<event>
 4    1  0.2048241E+005  0.2619232E+02  0.7546771E-02  0.1455895E+00
          2   -1    0    0  502    0  0.00000000000E+00  0.00000000000E+00  0.47263127402E+02  0.47263127402E+02  0.00000000000E+00 0.  1.
         21   -1    0    0  503  502 -0.00000000000E+00 -0.00000000000E+00 -0.43183581273E+03  0.43183581273E+03  0.00000000000E+00 0.  1.
          2    1    1    2  501    0  0.54377808625E+01  0.25621633632E+02  0.43202731618E+02  0.50522406811E+02  0.00000000000E+00 0.  1.
         21    1    1    2  503  501 -0.54377808625E+01 -0.25621633632E+02 -0.42777541694E+03  0.42857653332E+03  0.00000000000E+00 0.  1.
</event>
<event>
 4    1  0.2048241E+005  0.2043199E+02  0.7546771E-02  0.1527531E+00
          2   -1    0    0  503    0  0.00000000000E+00  0.00000000000E+00  0.86603989848E+03  0.86603989848E+03  0.00000000000E+00 0.  1.
         21   -1    0    0  501  502 -0.00000000000E+00 -0.00000000000E+00 -0.41637728277E+01  0.41637728277E+01  0.00000000000E+00 0. -1.
          2    1    1    2  501    0 -0.19517938551E+02 -0.60428613433E+01  0.84007955218E+03  0.84032798364E+03  0.00000000000E+00 0.  1.
         21    1    1    2  503  502  0.19517938551E+02  0.60428613433E+01  0.21796573476E+02  0.29875687671E+02  0.00000000000E+00 0. -1.
</event>
<event>
 4    1  0.2048241E+005  0.3271685E+02  0.7546771E-02  0.1397366E+00
          2   -1    0    0  503    0  0.00000000000E+00  0.00000000000E+00  0.78907827324E+03  0.78907827324E+03  0.00000000000E+00 0. -1.
         21   -1    0    0  501  502 -0.00000000000E+00 -0.00000000000E+00 -0.31520236807E+01  0.31520236807E+01  0.00000000000E+00 0. -1.
          2    1    1    2  501    0 -0.29490925457E+02  0.14166062811E+02  0.69192868278E+03  0.69270173529E+03  0.00000000000E+00 0. -1.
         21    1    1    2  503  502  0.29490925457E+02 -0.14166062811E+02  0.93997566779E+02  0.99528561631E+02  0.00000000000E+00 0. -1.
</event>
<event>
 4    1  0.2048241E+005  0.2696951E+02  0.7546771E-02  0.1447915E+00
          2   -1    0    0  502    0  0.00000000000E+00  0.00000000000E+00  0.23353324748E+03  0.23353324748E+03  0.00000000000E+00 0.  1.
         21   -1    0    0  503  502 -0.00000000000E+00 -0.00000000000E+00 -0.40222610106E+01  0.40222610106E+01  0.00000000000E+00 0. -1.
          2    1    1    2  501    0 -0.24351488223E+02 -0.11591364701E+02  0.17118028401E+03  0.17329178961E+03  0.00000000000E+00 0.  1.
         21    1    1    2  503  501  0.24351488223E+02  0.11591364701E+02  0.58330702462E+02  0.64263718878E+02  0.00000000000E+00 0. -1.
</event>
<event>
 4    1  0.2048241E+005  0.2457664E+02  0.7546771E-02  0.1473596E+00
          2   -1    0    0  503    0  0.00000000000E+00  0.00000000000E+00  0.77897590335E+03  0.77897590335E+03  0.00000000000E+00 0. -1.
         21   -1    0    0  501  502 -0.00000000000E+00 -0.00000000000E+00 -0.41901088416E+01  0.41901088416E+01  0.00000000000E+00 0.  1.
          2    1    1    2  501    0  0.12865018749E+02 -0.20940450658E+02  0.74089220951E+03  0.74129972163E+03  0.00000000000E+00 0. -1.
         21    1    1    2  503  502 -0.12865018749E+02  0.20940450658E+02  0.33893585006E+02  0.41866290565E+02  0.00000000000E+00 0.  1.
</event>
<event>
 4    1  0.2048241E+005  0.2092759E+02  0.7546771E-02  0.1520301E+00
          2   -1    0    0  503    0  0.00000000000E+00  0.00000000000E+00  0.28950616245E+03  0.28950616245E+03  0.00000000000E+00 0. -1.
         21   -1    0    0  501  502 -0.00000000000E+00 -0.00000000000E+00 -0.13071524364E+02  0.13071524364E+02  0.00000000000E+00 0. -1.
          2    1    1    2  501    0 -0.14172028396E+02  0.15398629621E+02  0.28048255420E+03  0.28126220399E+03  0.00000000000E+00 0. -1.
         21    1    1    2  503  502  0.14172028396E+02 -0.15398629621E+02 -0.40479161166E+01  0.21315482822E+02  0.00000000000E+00 0. -1.
</event>
<event>
 4    1  0.2048241E+005  0.2832493E+02  0.7546771E-02  0.1434734E+00
          2   -1    0    0  503    0  0.00000000000E+00  0.00000000000E+00  0.19533660485E+03  0.19533660485E+03  0.00000000000E+00 0.  1.
         21   -1    0    0  501  502 -0.00000000000E+00 -0.00000000000E+00 -0.10575161909E+02  0.10575161909E+02  0.00000000000E+00 0.  1.
          2    1    1    2  501    0  0.57094820432E+01 -0.27743531345E+02  0.17289794091E+03  0.17520273882E+03  0.00000000000E+00 0.  1.
         21    1    1    2  503  502 -0.57094820432E+01  0.27743531345E+02  0.11863502025E+02  0.30709027940E+02  0.00000000000E+00 0.  1.
</event>
<event>
 4    1  0.2048241E+005  0.2398267E+02  0.7546771E-02  0.1480514E+00
          2   -1    0    0  502    0  0.00000000000E+00  0.00000000000E+00  0.22765915813E+03  0.22765915813E+03  0.00000000000E+00 0.  1.
         21   -1    0    0  503  502 -0.00000000000E+00 -0.00000000000E+00 -0.11821524121E+02  0.11821524121E+02  0.00000000000E+00 0.  1.
          2    1    1    2  501    0 -0.15567329367E+02 -0.18243534937E+02  0.21409578107E+03  0.21543484348E+03  0.00000000000E+00 0.  1.
         21    1    1    2  503  501  0.15567329367E+02  0.18243534937E+02  0.17418529337E+01  0.24045838773E+02  0.00000000000E+00 0.  1.
</event>
<event>
 4    1  0.2048241E+005  0.2160858E+02  0.7546771E-02  0.1510751E+00
          2   -1    0    0  502    0  0.00000000000E+00  0.00000000000E+00  0.50731355734E+03  0.50731355734E+03  0.00000000000E+00 0. -1.
         21   -1    0    0  503  502 -0.00000000000E+00 -0.00000000000E+00 -0.12304333977E+01  0.12304333977E+01  0.00000000000E+00 0. -1.
          2    1    1    2  501    0  0.12990636604E+02  0.17267718507E+02  0.38067798416E+03  0.38129077928E+03  0.00000000000E+00 0. -1.
         21    1    1    2  503  501 -0.12990636604E+02 -0.17267718507E+02  0.12540513979E+03  0.12725321146E+03  0.00000000000E+00 0. -1.
</event>
<event>
 4    1  0.2048241E+005  0.2880644E+02  0.7546771E-02  0.1430260E+00
          2   -1    0    0  503    0  0.00000000000E+00  0.00000000000E+00  0.97589008272E+03  0.97589008272E+03  0.00000000000E+00 0. -1.
         21   -1    0    0  501  502 -0.00000000000E+00 -0.00000000000E+00 -0.18212712487E+01  0.18212712487E+01  0.00000000000E+00 0. -1.
          2    1    1    2  501    0 -0.27334906012E+02 -0.90892136193E+01  0.84397330869E+03  0.84446477527E+03  0.00000000000E+00 0. -1.
         21    1    1    2  503  502  0.27334906012E+02  0.90892136193E+01  0.13009550277E+03  0.13324657869E+03  0.00000000000E+00 0. -1.
</event>
<event>
 4    1  0.2048241E+005  0.2087474E+02  0.7546771E-02  0.1521061E+00
          2   -1    0    0  502    0  0.00000000000E+00  0.00000000000E+00  0.37162843329E+03  0.37162843329E+03  0.00000000000E+00 0. -1.
         21   -1    0    0  503  502 -0.00000000000E+00 -0.00000000000E+00 -0.37537405284E+02  0.37537405284E+02  0.00000000000E+00 0. -1.
          2    1    1    2  501    0  0.58661020264E+01  0.20033558072E+02  0.36840780862E+03  0.36899873720E+03  0.00000000000E+00 0. -1.
         21    1    1    2  503  501 -0.58661020264E+01 -0.20033558072E+02 -0.34316780609E+02  0.40167101381E+02  0.00000000000E+00 0. -1.
</event>
<event>
 4    1  0.2048241E+005  0.3010158E+02  0.7546771E-02  0.1418716E+00
          2   -1    0    0  502    0  0.00000000000E+00  0.00000000000E+00  0.84493714017E+03  0.84493714017E+03  0.00000000000E+00 0. -1.
         21   -1    0    0  503  502 -0.00000000000E+00 -0.00000000000E+00 -0.39987647227E+02  0.39987647227E+02  0.00000000000E+00 0.  1.
          2    1    1    2  501    0  0.15148992625E+02  0.26011793305E+02  0.83896381320E+03  0.83950365409E+03  0.00000000000E+00 0. -1.
         21    1    1    2  503  501 -0.15148992625E+02 -0.26011793305E+02 -0.34014320257E+02  0.45421133309E+02  0.00000000000E+00 0.  1.
</event>
<event>
 4    1  0.2048241E+005  0.2830358E+02  0.7546771E-02  0.1434935E+00
          2   -1    0    0  502    0  0.00000000000E+00  0.00000000000E+00  0.22677001667E+03  0.22677001667E+03  0.00000000000E+00 0.  1.
         21   -1    0    0  503  502 -0.00000000000E+00 -0.00000000000E+00 -0.45578378702E+01  0.45578378702E+01  0.00000000000E+00 0.  1.
          2    1    1    2  501    0 -0.16100065488E+02 -0.23278330620E+02  0.16596234060E+03  0.16835852008E+03  0.00000000000E+00 0.  1.
         21    1    1    2  503  501  0.16100065488E+02  0.23278330620E+02  0.56249838195E+02  0.62969334458E+02  0.00000000000E+00 0.  1.
</event>
<event>
 4    1  0.2048241E+005  0.2795000E+02  0.7546771E-02  0.1438292E+00
          2   -1    0    0  503    0  0.00000000000E+00  0.00000000000E+00  0.10748341517E+03  0.10748341517E+03  0.00000000000E+00 0.  1.
         21   -1    0    0  501  502 -0.00000000000E+00 -0.00000000000E+00 -0.11436615193E+02  0.11436615193E+02  0.00000000000E+00 0. -1.
          2    1    1    2  501    0  0.24662223543E+02 -0.13152091192E+02  0.83921024753E+02  0.88453044992E+02  0.00000000000E+00 0.  1.
         21    1    1    2  503  502 -0.24662223543E+02  0.13152091192E+02  0.12125775224E+02  0.30466985371E+02  0.00000000000E+00 0. -1.
</event>
<event>
 4    1  0.2048241E+005  0.2930712E+02  0.7546771E-02  0.1425715E+00
          2   -1    0    0  502    0  0.00000000000E+00  0.00000000000E+00  0.13508983846E+04  0.13508983846E+04  0.00000000000E+00 0. -1.
         21   -1    0    0  503  502 -0.00000000000E+00 -0.00000000000E+00 -0.16392166120E+01  0.16392166120E+01  0.00000000000E+00 0.  1.
          2    1    1    2  501    0 -0.28596240613E+02  0.64157942062E+01  0.12037333209E+04  0.12040900362E+04  0.00000000000E+00 0. -1.
         21    1    1    2  503  501  0.28596240613E+02 -0.64157942062E+01  0.14552584716E+03  0.14844756510E+03  0.00000000000E+00 0.  1.
</event>
<event>
 4    1  0.2048241E+005  0.2783465E+02  0.7546771E-02  0.1439399E+00
          2   -1    0    0  503    0  0.00000000000E+00  0.00000000000E+00  0.91818363441E+01  0.91818363441E+01  0.00000000000E+00 0.  1.
         21   -1    0    0  501  502 -0.00000000000E+00 -0.00000000000E+00 -0.93892238591E+02  0.93892238591E+02  0.00000000000E+00 0.  1.
          2    1    1    2  501    0  0.27801419572E+02 -0.13596400652E+01 -0.58758663501E+02  0.65018059705E+02  0.00000000000E+00 0.  1.
         21    1    1    2  503  502 -0.27801419572E+02  0.13596400652E+01 -0.25951738745E+02  0.38056015230E+02  0.00000000000E+00 0.  1.
</event>
<event>
 4    1  0.2048241E+005  0.2680069E+02  0.7546771E-02  0.1449621E+00
          2   -1    0    0  502    0  0.00000000000E+00  0.00000000000E+00  0.97937150664E+03  0.97937150664E+03  0.00000000000E+00 0.  1.
         21   -1    0    0  503  502 -0.00000000000E+00 -0.00000000000E+00 -0.82711547378E+00  0.82711547378E+00  0.00000000000E+00 0. -1.
          2    1    1    2  501    0 -0.89191633777E+01 -0.25273018236E+02  0.65423757097E+03  0.65478628284E+03  0.00000000000E+00 0.  1.
         21    1    1    2  503  501  0.89191633777E+01  0.25273018236E+02  0.32430682020E+03  0.32541233927E+03  0.00000000000E+00 0. -1.
</event>
<event>
 4    1  0.2048241E+005  0.3903400E+02  0.7546771E-02  0.1354241E+00
          2   -1    0    0  503    0  0.00000000000E+00  0.00000000000E+00  0.15274684075E+04  0.15274684075E+04  0.00000000000E+00 0.  1.
         21   -1    0    0  501  502 -0.00000000000E+00 -0.00000000000E+00 -0.12076732119E+02  0.12076732119E+02  0.00000000000E+00 0.  1.
          2    1    1    2  501    0 -0.18189687871E+02  0.34536766661E+02  0.14949929002E+04  0.14955023987E+04  0.00000000000E+00 0.  1.
         21    1    1    2  503  502  0.18189687871E+02 -0.34536766661E+02  0.20398775207E+02  0.44042740903E+02  0.00000000000E+00 0.  1.
</event>
<event>
 4    1  0.2048241E+005  0.2522706E+02  0.7546771E-02  0.1466279E+00
          2   -1    0    0  503    0  0.00000000000E+00  0.00000000000E+00  0.13959710519E+02  0.13959710519E+02  0.00000000000E+00 0.  1.
         21   -1    0    0  501  502 -0.00000000000E+00 -0.00000000000E+00 -0.45916274967E+03  0.45916274967E+03  0.00000000000E+00 0. -1.
          2    1    1    2  501    0 -0.13117108119E+02 -0.21548686100E+02  0.19091115729E+01  0.25299191786E+02  0.00000000000E+00 0.  1.
         21    1    1    2  503  502  0.13117108119E+02  0.21548686100E+02 -0.44711215073E+03  0.44782326841E+03  0.00000000000E+00 0. -1.
</event>
<event>
 4    1  0.2048241E+005  0.3485989E+02  0.7546771E-02  0.1381551E+00
          2   -1    0    0  502    0  0.00000000000E+00  0.00000000000E+00  0.30224016306E+03  0.30224016306E+03  0.00000000000E+00 0.  1.
         21   -1    0    0  503  502 -0.00000000000E+00 -0.00000000000E+00 -0.79091933041E+01  0.79091933041E+01  0.00000000000E+00 0.  1.
          2    1    1    2  501    0  0.35720218857E+01  0.34676397669E+02  0.25589974877E+03  0.25826322487E+03  0.00000000000E+00 0.  1.
         21    1    1    2  503  501 -0.35720218857E+01 -0.34676397669E+02  0.38431220983E+02  0.51886131499E+02  0.00000000000E+00 0.  1.
</event>
<event>
 4    1  0.2048241E+005  0.2996426E+02  0.7546771E-02  0.1419907E+00
          2   -1    0    0  503    0  0.00000000000E+00  0.00000000000E+00  0.20173857412E+03  0.20173857412E+03  0.00000000000E+00 0. -1.
         21   -1    0    0  501  502 -0.00000000000E+00 -0.00000000000E+00 -0.78845472004E+01  0.78845472004E+01  0.00000000000E+00 0.  1.
          2    1    1    2  501    0 -0.28576759509E+02 -0.90125402020E+01  0.16609701958E+03  0.16877818870E+03  0.00000000000E+00 0. -1.
         21    1    1    2  503  502  0.28576759509E+02  0.90125402020E+01  0.27757007338E+02  0.40844932626E+02  0.00000000000E+00 0.  1.
</event>
<event>
 4    1  0.2048241E+005  0.2175579E+02  0.7546771E-02  0.1508742E+00
          2   -1    0    0  503    0  0.00000000000E+00  0.00000000000E+00  0.18462873609E+03  0.18462873609E+03  0.00000000000E+00 0.  1.
         21   -1    0    0  501  502 -0.00000000000E+00 -0.00000000000E+00 -0.30064915487E+01  0.30064915487E+01  0.00000000000E+00 0.  1.
          2    1    1    2  501    0  0.81912922158E+01  0.20154833118E+02  0.54802858015E+02  0.58963275119E+02  0.00000000000E+00 0.  1.
         21    1    1    2  503  502 -0.81912922158E+01 -0.20154833118E+02  0.12681938652E+03  0.12867195252E+03  0.00000000000E+00 0.  1.
</event>
<event>
 4    1  0.2048241E+005  0.2994355E+02  0.7546771E-02  0.1420088E+00
          2   -1    0    0  503    0  0.00000000000E+00  0.00000000000E+00  0.77075185023E+03  0.77075185023E+03  0.00000000000E+00 0.  1.
         21   -1    0    0  501  502 -0.00000000000E+00 -0.00000000000E+00 -0.17474438226E+01  0.17474438226E+01  0.00000000000E+00 0.  1.
          2    1    1    2  501    0 -0.29691699145E+02 -0.38754339449E+01  0.60782147610E+03  0.60855859438E+03  0.00000000000E+00 0.  1.
         21    1    1    2  503  502  0.29691699145E+02  0.38754339449E+01  0.16118293031E+03  0.16394069967E+03  0.00000000000E+00 0.  1.
</event>
<event>
 4    1  0.2048241E+005  0.3378790E+02  0.7546771E-02  0.1389291E+00
          2   -1    0    0  502    0  0.00000000000E+00  0.00000000000E+00  0.66132049123E+03  0.66132049123E+03  0.00000000000E+00 0.  1.
         21   -1    0    0  503  502 -0.00000000000E+00 -0.00000000000E+00 -0.10105544477E+02  0.10105544477E+02  0.00000000000E+00 0.  1.
          2    1    1    2  501    0  0.29755268922E+02  0.16007700186E+02  0.63130459154E+03  0.63220812222E+03  0.00000000000E+00 0.  1.
         21    1    1    2  503  501 -0.29755268922E+02 -0.16007700186E+02  0.19910355207E+02  0.39217913488E+02  0.00000000000E+00 0.  1.
</event>
<event>
 4    1  0.2048241E+005  0.2285245E+02  0.7546771E-02  0.1494359E+00
          2   -1    0    0  503    0  0.00000000000E+00  0.00000000000E+00  0.10757573268E+04  0.10757573268E+04  0.00000000000E+00 0. -1.
         21   -1    0    0  501  502 -0.00000000000E+00 -0.00000000000E+00 -0.26694324800E+01  0.26694324800E+01  0.00000000000E+00 0.  1.
          2    1    1    2  501    0  0.15290906098E+02  0.16983011483E+02  0.10242689464E+04  0.10245238450E+04  0.00000000000E+00 0. -1.
         21    1    1    2  503  502 -0.15290906098E+02 -0.16983011483E+02  0.48818947956E+02  0.53902914279E+02  0.00000000000E+00 0.  1.
</event>
<event>
 4    1  0.2048241E+005  0.2670112E+02  0.7546771E-02  0.1450634E+00
          2   -1    0    0  503    0  0.00000000000E+00  0.00000000000E+00  0.14898284743E+04  0.14898284743E+04  0.00000000000E+00 0. -1.
         21   -1    0    0  501  502 -0.00000000000E+00 -0.00000000000E+00 -0.60014175258E+01  0.60014175258E+01  0.00000000000E+00 0.  1.
          2    1    1    2  501    0  0.25693099013E+02  0.72673473426E+01  0.14593902389E+04  0.14596344813E+04  0.00000000000E+00 0. -1.
         21    1    1    2  503  502 -0.25693099013E+02 -0.72673473426E+01  0.24436817905E+02  0.36195410532E+02  0.00000000000E+00 0.  1.
</event>
<event>
 4    1  0.2048241E+005  0.3603235E+02  0.7546771E-02  0.1373447E+00
          2   -1    0    0  502    0  0.00000000000E+00  0.00000000000E+00  0.14401763050E+04  0.14401763050E+04  0.00000000000E+00 0.  1.
         21   -1    0    0  503  502 -0.00000000000E+00 -0.00000000000E+00 -0.10941462375E+02  0.10941462375E+02  0.00000000000E+00 0. -1.
          2    1    1    2  501    0  0.73452703993E+00  0.36024864744E+02  0.14096430971E+04  0.14101035394E+04  0.00000000000E+00 0.  1.
         21    1    1    2  503  501 -0.73452703993E+00 -0.36024864744E+02  0.19591745519E+02  0.41014228046E+02  0.00000000000E+00 0. -1.
</event>
<event>
 4    1  0.2048241E+005  0.3289644E+02  0.7546771E-02  0.1395987E+00
          2   -1    0    0  503    0  0.00000000000E+00  0.00000000000E+00  0.15688497239E+02  0.15688497239E+02  0.00000000000E+00 0.  1.
         21   -1    0    0  501  502 -0.00000000000E+00 -0.00000000000E+00 -0.69208221446E+02  0.69208221446E+02  0.00000000000E+00 0.  1.
          2    1    1    2  501    0 -0.32626035119E+02 -0.42092262026E+01 -0.29203157613E+02  0.43988636798E+02  0.00000000000E+00 0.  1.
         21    1    1    2  503  502  0.32626035119E+02  0.42092262026E+01 -0.24316566594E+02  0.40908081887E+02  0.00000000000E+00 0.  1.
</event>
<event>
 4    1  0.2048241E+005  0.3801662E+02  0.7546771E-02  0.1360517E+00
          2   -1    0    0  502    0  0.00000000000E+00  0.00000000000E+00  0.47871866544E+02  0.47871866544E+02  0.00000000000E+00 0.  1.
         21   -1    0    0  503  502 -0.00000000000E+00 -0.00000000000E+00 -0.48326578019E+02  0.48326578019E+02  0.00000000000E+00 0.  1.
          2    1    1    2  501    0  0.37683188686E+02 -0.50240274602E+01  0.29238545416E+02  0.47959942656E+02  0.00000000000E+00 0.  1.
         21    1    1    2  503  501 -0.37683188686E+02  0.50240274602E+01 -0.29693256891E+02  0.48238501908E+02  0.00000000000E+00 0.  1.
</event>
<event>
 4    1  0.2048241E+005  0.2258499E+02  0.7546771E-02  0.1497776E+00
          2   -1    0    0  503    0  0.00000000000E+00  0.00000000000E+00  0.39050247095E+03  0.39050247095E+03  0.00000000000E+00 0. -1.
         21   -1    0    0  501  502 -0.00000000000E+00 -0.00000000000E+00 -0.16133330894E+02  0.16133330894E+02  0.00000000000E+00 0.  1.
          2    1    1    2  501    0 -0.18434724321E+02  0.13047714748E+02  0.38209804878E+03  0.38276494197E+03  0.00000000000E+00 0. -1.
         21    1    1    2  503  502  0.18434724321E+02 -0.13047714748E+02 -0.77289087246E+01  0.23870859871E+02  0.00000000000E+00 0.  1.
</event>
<event>
 4    1  0.2048241E+005  0.3310895E+02  0.7546771E-02  0.1394368E+00
          2   -1    0    0  503    0  0.00000000000E+00  0.00000000000E+00  0.12112335032E+04  0.12112335032E+04  0.00000000000E+00 0.  1.
         21   -1    0    0  501  502 -0.00000000000E+00 -0.00000000000E+00 -0.57286578925E+01  0.57286578925E+01  0.00000000000E+00 0. -1.
          2    1    1    2  501    0  0.20311685516E+02 -0.26146469522E+02  0.11611037367E+04  0.11615756927E+04  0.00000000000E+00 0.  1.
         21    1    1    2  503  502 -0.20311685516E+02  0.26146469522E+02  0.44401108557E+02  0.55386468366E+02  0.00000000000E+00 0. -1.
</event>
<event>
 4    1  0.2048241E+005  0.2683067E+02  0.7546771E-02  0.1449317E+00
          2   -1    0    0  503    0  0.00000000000E+00  0.00000000000E+00  0.84988054377E+03  0.84988054377E+03  0.00000000000E+00 0. -1.
         21   -1    0    0  501  502 -0.00000000000E+00 -0.00000000000E+00 -0.51595620366E+01  0.51595620366E+01  0.00000000000E+00 0.  1.
          2    1    1    2  501    0 -0.15314588241E+02  0.22030621859E+02  0.81321543533E+03  0.81365793131E+03  0.00000000000E+00 0. -1.
         21    1    1    2  503  502  0.15314588241E+02 -0.22030621859E+02  0.31505546401E+02  0.41382174502E+02  0.00000000000E+00 0.  1.
</event>
<event>
 4    1  0.2048241E+005  0.2557243E+02  0.7546771E-02  0.1462500E+00
          2   -1    0    0  503    0  0.00000000000E+00  0.00000000000E+00  0.74857737734E+03  0.74857737734E+03  0.00000000000E+00 0. -1.
         21   -1    0    0  501  502 -0.00000000000E+00 -0.00000000000E+00 -0.16525163916E+01  0.16525163916E+01  0.00000000000E+00 0. -1.
          2    1    1    2  501    0  0.24621763085E+02 -0.69078365942E+01  0.63099952860E+03  0.63151750135E+03  0.00000000000E+00 0. -1.
         21    1    1    2  503  502 -0.24621763085E+02  0.69078365942E+01  0.11592533236E+03  0.11871239239E+03  0.00000000000E+00 0. -1.
</event>
<event>
 4    1  0.2048241E+005  0.2364679E+02  0.7546771E-02  0.1484532E+00
          2   -1    0    0  503    0  0.00000000000E+00  0.00000000000E+00  0.58273549664E+03  0.58273549664E+03  0.00000000000E+00 0.  1.
         21   -1    0    0  501  502 -0.00000000000E+00 -0.00000000000E+00 -0.84527256348E+01  0.84527256348E+01  0.00000000000E+00 0.  1.
          2    1    1    2  501    0  0.14311331724E+02 -0.18824361161E+02  0.56545214875E+03  0.56594637848E+03  0.00000000000E+00 0.  1.
         21    1    1    2  503  502 -0.14311331724E+02  0.18824361161E+02  0.88306222576E+01  0.25241843797E+02  0.00000000000E+00 0.  1.
</event>
<event>
 4    1  0.2048241E+005  0.3320345E+02  0.7546771E-02  0.1393653E+00
          2   -1    0    0  503    0  0.00000000000E+00  0.00000000000E+00  0.20169436055E+04  0.20169436055E+04  0.00000000000E+00 0.  1.
         21   -1    0    0  501  502 -0.00000000000E+00 -0.00000000000E+00 -0.54681313681E+00  0.54681313681E+00  0.00000000000E+00 0.  1.
          2    1    1    2  501    0 -0.24996354029E+02 -0.21855236598E+02  0.10279345734E+04  0.10284706881E+04  0.00000000000E+00 0.  1.
         21    1    1    2  503  502  0.24996354029E+02  0.21855236598E+02  0.98846221888E+03  0.98901973046E+03  0.00000000000E+00 0.  1.
</event>
<event>
 4    1  0.2048241E+005  0.3623022E+02  0.7546771E-02  0.1372115E+00
          2   -1    0    0  503    0  0.00000000000E+00  0.00000000000E+00  0.15692678851E+03  0.15692678851E+03  0.00000000000E+00 0.  1.
         21   -1    0    0  501  502 -0.00000000000E+00 -0.00000000000E+00 -0.20835930522E+03  0.20835930522E+03  0.00000000000E+00 0.  1.
          2    1    1    2  501    0 -0.25482395109E+01  0.36140493894E+02  0.15322313023E+03  0.15744826598E+03  0.00000000000E+00 0.  1.
         21    1    1    2  503  502  0.25482395109E+01 -0.36140493894E+02 -0.20465564694E+03  0.20783782776E+03  0.00000000000E+00 0.  1.
</event>
<event>
 4    1  0.2048241E+005  0.2294836E+02  0.7546771E-02  0.1493148E+00
          2   -1    0    0  503    0  0.00000000000E+00  0.00000000000E+00  0.66239831499E+02  0.66239831499E+02  0.00000000000E+00 0.  1.
         21   -1    0    0  501  502 -0.00000000000E+00 -0.00000000000E+00 -0.34802440347E+02  0.34802440347E+02  0.00000000000E+00 0. -1.
          2    1    1    2  501    0 -0.17647358668E+02  0.14669628179E+02  0.60095663278E+02  0.64328189806E+02  0.00000000000E+00 0.  1.
         21    1    1    2  503  502  0.17647358668E+02 -0.14669628179E+02 -0.28658272125E+02  0.36714082041E+02  0.00000000000E+00 0. -1.
</event>
<event>
 4    1  0.2048241E+005  0.2435710E+02  0.7546771E-02  0.1476126E+00
          2   -1    0    0  503    0  0.00000000000E+00  0.00000000000E+00  0.67224051920E+02  0.67224051920E+02  0.00000000000E+00 0.  1.
         21   -1    0    0  501  502 -0.00000000000E+00 -0.00000000000E+00 -0.13611124805E+03  0.13611124805E+03  0.00000000000E+00 0.  1.
          2    1    1    2  501    0  0.16486879713E+02 -0.17929053663E+02  0.63872835442E+02  0.68359397857E+02  0.00000000000E+00 0.  1.
         21    1    1    2  503  502 -0.16486879713E+02  0.17929053663E+02 -0.13276003157E+03  0.13497590211E+03  0.00000000000E+00 0.  1.
</event>
<event>
 4    1  0.2048241E+005  0.3011169E+02  0.7546771E-02  0.1418628E+00
          2   -1    0    0  502    0  0.00000000000E+00  0.00000000000E+00  0.22530535964E+04  0.22530535964E+04  0.00000000000E+00 0. -1.
         21   -1    0    0  503  502 -0.00000000000E+00 -0.00000000000E+00 -0.58032664442E+00  0.58032664442E+00  0.00000000000E+00 0. -1.
          2    1    1    2  501    0 -0.13635905348E+02 -0.26847269080E+02  0.17501029892E+04  0.17503620159E+04  0.00000000000E+00 0. -1.
         21    1    1    2  503  501  0.13635905348E+02  0.26847269080E+02  0.50237028049E+03  0.50327190712E+03  0.00000000000E+00 0. -1.
</event>
<event>
 4    1  0.2048241E+005  0.2457266E+02  0.7546771E-02  0.1473641E+00
          2   -1    0    0  502    0  0.00000000000E+00  0.00000000000E+00  0.53568208871E+01  0.53568208871E+01  0.00000000000E+00 0.  1.
         21   -1    0    0  503  502 -0.00000000000E+00 -0.00000000000E+00 -0.16806670374E+03  0.16806670374E+03  0.00000000000E+00 0.  1.
          2    1    1    2  501    0 -0.59026547443E+01 -0.23853180453E+02 -0.31594189583E+02  0.40025096703E+02  0.00000000000E+00 0.  1.
         21    1    1    2  503  501  0.59026547443E+01  0.23853180453E+02 -0.13111569327E+03  0.13339842792E+03  0.00000000000E+00 0.  1.
</event>
<event>
 4    1  0.2048241E+005  0.3217750E+02  0.7546771E-02  0.1401572E+00
          2   -1    0    0  503    0  0.00000000000E+00  0.00000000000E+00  0.23295328780E+03  0.23295328780E+03  0.00000000000E+00 0. -1.
         21   -1    0    0  501  502 -0.00000000000E+00 -0.00000000000E+00 -0.12735056505E+02  0.12735056505E+02  0.00000000000E+00 0.  1.
          2    1    1    2  501    0  0.14565670118E+02  0.28692030800E+02  0.20922483413E+03  0.21168472451E+03  0.00000000000E+00 0. -1.
         21    1    1    2  503  502 -0.14565670118E+02 -0.28692030800E+02  0.10993397167E+02  0.34003619788E+02  0.00000000000E+00 0.  1.
</event>
<event>
 4    1  0.2048241E+005  0.2761284E+02  0.7546771E-02  0.1441547E+00
          2   -1    0    0  503    0  0.00000000000E+00  0.00000000000E+00  0.16854430926E+04  0.16854430926E+04  0.00000000000E+00 0. -1.
         21   -1    0    0  501  502 -0.00000000000E+00 -0.00000000000E+00 -0.12027038877E+01  0.12027038877E+01  0.00000000000E+00 0.  1.
          2    1    1    2  501    0 -0.26116924874E+02  0.89652178185E+01  0.15082172631E+04  0.15084700135E+04  0.00000000000E+00 0. -1.
         21    1    1    2  503  502  0.26116924874E+02 -0.89652178185E+01  0.17602312561E+03  0.17817578300E+03  0.00000000000E+00 0.  1.
</event>
<event>
 4    1  0.2048241E+005  0.2986041E+02  0.7546771E-02  0.1420814E+00
          2   -1    0    0  503    0  0.00000000000E+00  0.00000000000E+00  0.22402519685E+02  0.22402519685E+02  0.00000000000E+00 0.  1.
         21   -1    0    0  501  502 -0.00000000000E+00 -0.00000000000E+00 -0.77407174923E+02  0.77407174923E+02  0.00000000000E+00 0. -1.
          2    1    1    2  501    0 -0.11195672052E+02 -0.27682141002E+02  0.72818198560E+01  0.30735466542E+02  0.00000000000E+00 0.  1.
         21    1    1    2  503  502  0.11195672052E+02  0.27682141002E+02 -0.62286475095E+02  0.69074228066E+02  0.00000000000E+00 0. -1.
</event>
<event>
 4    1  0.2048241E+005  0.2262881E+02  0.7546771E-02  0.1497212E+00
          2   -1    0    0  502    0  0.00000000000E+00  0.00000000000E+00  0.70017513964E+02  0.70017513964E+02  0.00000000000E+00 0.  1.
         21   -1    0    0  503  502 -0.00000000000E+00 -0.00000000000E+00 -0.18544989878E+02  0.18544989878E+02  0.00000000000E+00 0. -1.
          2    1    1    2  501    0 -0.60008087913E+01  0.21818651038E+02  0.60197271509E+02  0.64309989398E+02  0.00000000000E+00 0.  1.
         21    1    1    2  503  501  0.60008087913E+01 -0.21818651038E+02 -0.87247474227E+01  0.24252514444E+02  0.00000000000E+00 0. -1.
</event>
<event>
 4    1  0.2048241E+005  0.3068833E+02  0.7546771E-02  0.1413707E+00
          2   -1    0    0  503    0  0.00000000000E+00  0.00000000000E+00  0.60566187557E+03  0.60566187557E+03  0.00000000000E+00 0. -1.
         21   -1    0    0  501  502 -0.00000000000E+00 -0.00000000000E+00 -0.57885934134E+01  0.57885934134E+01  0.00000000000E+00 0. -1.
          2    1    1    2  501    0 -0.85747421695E+01  0.29466033551E+02  0.56139465161E+03  0.56223280604E+03  0.00000000000E+00 0. -1.
         21    1    1    2  503  502  0.85747421695E+01 -0.29466033551E+02  0.38478630550E+02  0.49217662942E+02  0.00000000000E+00 0. -1.
</event>
<event>
 4    1  0.2048241E+005  0.7284448E+02  0.7546771E-02  0.1221511E+00
          2   -1    0    0  502    0  0.00000000000E+00  0.00000000000E+00  0.81553620303E+03  0.81553620303E+03  0.00000000000E+00 0.  1.
         21   -1    0    0  503  502 -0.00000000000E+00 -0.00000000000E+00 -0.20103180332E+02  0.20103180332E+02  0.00000000000E+00 0.  1.
          2    1    1    2  501    0  0.33559577344E+02 -0.64653488024E+02  0.74133168087E+03  0.74490199343E+03  0.00000000000E+00 0.  1.
         21    1    1    2  503  501 -0.33559577344E+02  0.64653488024E+02  0.54101341828E+02  0.90737389938E+02  0.00000000000E+00 0.  1.
</event>
<event>
 4    1  0.2048241E+005  0.3377190E+02  0.7546771E-02  0.1389409E+00
          2   -1    0    0  503    0  0.00000000000E+00  0.00000000000E+00  0.10237849416E+04  0.10237849416E+04  0.00000000000E+00 0. -1.
         21   -1    0    0  501  502 -0.00000000000E+00 -0.00000000000E+00 -0.52623851569E+01  0.52623851569E+01  0.00000000000E+00 0.  1.
          2    1    1    2  501    0  0.30923891021E+02  0.13574033269E+02  0.96608776154E+03  0.96667787003E+03  0.00000000000E+00 0. -1.
         21    1    1    2  503  502 -0.30923891021E+02 -0.13574033269E+02  0.52434794883E+02  0.62369456703E+02  0.00000000000E+00 0.  1.
</event>
<event>
 4    1  0.2048241E+005  0.2569956E+02  0.7546771E-02  0.1461127E+00
          2   -1    0    0  503    0  0.00000000000E+00  0.00000000000E+00  0.64982346189E+03  0.64982346189E+03  0.00000000000E+00 0.  1.
         21   -1    0    0  501  502 -0.00000000000E+00 -0.00000000000E+00 -0.55709279292E+01  0.55709279292E+01  0.00000000000E+00 0. -1.
          2    1    1    2  501    0 -0.15109016005E+02  0.20789061856E+02  0.61842623214E+03  0.61895999229E+03  0.00000000000E+00 0.  1.
         21    1    1    2  503  502  0.15109016005E+02 -0.20789061856E+02  0.25826301819E+02  0.36434397526E+02  0.00000000000E+00 0. -1.
</event>
<event>
 4    1  0.2048241E+005  0.2745526E+02  0.7546771E-02  0.1443088E+00
          2   -1    0    0  502    0  0.00000000000E+00  0.00000000000E+00  0.11176565809E+04  0.11176565809E+04  0.00000000000E+00 0.  1.
         21   -1    0    0  503  502 -0.00000000000E+00 -0.00000000000E+00 -0.32807916212E+01  0.32807916212E+01  0.00000000000E+00 0. -1.
          2    1    1    2  501    0 -0.27204978091E+02  0.36987379101E+01  0.10567374686E+04  0.10570940682E+04  0.00000000000E+00 0.  1.
         21    1    1    2  503  501  0.27204978091E+02 -0.36987379101E+01  0.57638320677E+02  0.63843304312E+02  0.00000000000E+00 0. -1.
</event>
<event>
 4    1  0.2048241E+005  0.2565478E+02  0.7546771E-02  0.1461610E+00
          2   -1    0    0  502    0  0.00000000000E+00  0.00000000000E+00  0.11895668769E+04  0.11895668769E+04  0.00000000000E+00 0.  1.
         21   -1    0    0  503  502 -0.00000000000E+00 -0.00000000000E+00 -0.21074430024E+01  0.21074430024E+01  0.00000000000E+00 0.  1.
          2    1    1    2  501    0 -0.57532635011E+01  0.25001352348E+02  0.11054085691E+04  0.11057062323E+04  0.00000000000E+00 0.  1.
         21    1    1    2  503  501  0.57532635011E+01 -0.25001352348E+02  0.82050864802E+02  0.85968087538E+02  0.00000000000E+00 0.  1.
</event>
<event>
 4    1  0.2048241E+005  0.2174331E+02  0.7546771E-02  0.1508911E+00
          2   -1    0    0  503    0  0.00000000000E+00  0.00000000000E+00  0.14417836014E+04  0.14417836014E+04  0.00000000000E+00 0. -1.
         21   -1    0    0  501  502 -0.00000000000E+00 -0.00000000000E+00 -0.81365254245E+00  0.81365254245E+00  0.00000000000E+00 0.  1.
          2    1    1    2  501    0  0.15227400157E+02  0.15520888119E+02  0.12777987686E+04  0.12779837498E+04  0.00000000000E+00 0. -1.
         21    1    1    2  503  502 -0.15227400157E+02 -0.15520888119E+02  0.16317118019E+03  0.16461350408E+03  0.00000000000E+00 0.  1.
</event>
<event>
 4    1  0.2048241E+005  0.2071351E+02  0.7546771E-02  0.1523395E+00
          2   -1    0    0  503    0  0.00000000000E+00  0.00000000000E+00  0.10173095320E+04  0.10173095320E+04  0.00000000000E+00 0. -1.
         21   -1    0    0  501  502 -0.00000000000E+00 -0.00000000000E+00 -0.20565472207E+01  0.20565472207E+01  0.00000000000E+00 0. -1.
          2    1    1    2  501    0  0.11794294992E+02 -0.17027739470E+02  0.96205222252E+03  0.96227518317E+03  0.00000000000E+00 0. -1.
         21    1    1    2  503  502 -0.11794294992E+02  0.17027739470E+02  0.53200762247E+02  0.57090896030E+02  0.00000000000E+00 0. -1.
</event>
<event>
 4    1  0.2048241E+005  0.2366840E+02  0.7546771E-02  0.1484271E+00
          2   -1    0    0  502    0  0.00000000000E+00  0.00000000000E+00  0.39855884907E+03  0.39855884907E+03  0.00000000000E+00 0.  1.
         21   -1    0    0  503  502 -0.00000000000E+00 -0.00000000000E+00 -0.59663457192E+02  0.59663457192E+02  0.00000000000E+00 0.  1.
          2    1    1    2  501    0  0.69147865789E+01  0.22635790590E+02  0.39584407351E+03  0.39655103558E+03  0.00000000000E+00 0.  1.
         21    1    1    2  503  501 -0.69147865789E+01 -0.22635790590E+02 -0.56948681626E+02  0.61671270685E+02  0.00000000000E+00 0.  1.
</event>
<event>
 4    1  0.2048241E+005  0.2284232E+02  0.7546771E-02  0.1494488E+00
          2   -1    0    0  503    0  0.00000000000E+00  0.00000000000E+00  0.24816430945E+03  0.24816430945E+03  0.00000000000E+00 0.  1.
         21   -1    0    0  501  502 -0.00000000000E+00 -0.00000000000E+00 -0.13784608852E+02  0.13784608852E+02  0.00000000000E+00 0.  1.
          2    1    1    2  501    0  0.93166412554E+00 -0.22823312118E+02  0.23776270863E+03  0.23885744114E+03  0.00000000000E+00 0.  1.
         21    1    1    2  503  502 -0.93166412554E+00  0.22823312118E+02 -0.33830080319E+01  0.23091477160E+02  0.00000000000E+00 0.  1.
</event>
<event>
 4    1  0.2048241E+005  0.3617265E+02  0.7546771E-02  0.1372501E+00
          2   -1    0    0  503    0  0.00000000000E+00  0.00000000000E+00  0.87007982776E+02  0.87007982776E+02  0.00000000000E+00 0.  1.
         21   -1    0    0  501  502 -0.00000000000E+00 -0.00000000000E+00 -0.48829691331E+02  0.48829691331E+02  0.00000000000E+00 0.  1.
          2    1    1    2  501    0 -0.23848742124E+02 -0.27197385788E+02  0.75589437001E+02  0.83798706916E+02  0.00000000000E+00 0.  1.
         21    1    1    2  503  502  0.23848742124E+02  0.27197385788E+02 -0.37411145556E+02  0.52038967192E+02  0.00000000000E+00 0.  1.
</event>
<event>
 4    1  0.2048241E+005  0.2315996E+02  0.7546771E-02  0.1490499E+00
          2   -1    0    0  502    0  0.00000000000E+00  0.00000000000E+00  0.16577326636E+03  0.16577326636E+03  0.00000000000E+00 0.  1.
         21   -1    0    0  503  502 -0.00000000000E+00 -0.00000000000E+00 -0.37222748785E+01  0.37222748785E+01  0.00000000000E+00 0.  1.
          2    1    1    2  501    0 -0.21841376057E+02 -0.77031191857E+01  0.11166788358E+03  0.11404428954E+03  0.00000000000E+00 0.  1.
         21    1    1    2  503  501  0.21841376057E+02  0.77031191857E+01  0.50383107907E+02  0.55451251705E+02  0.00000000000E+00 0.  1.
</event>
<event>
 4    1  0.2048241E+005  0.4957817E+02  0.7546771E-02  0.1300012E+00
          2   -1    0    0  503    0  0.00000000000E+00  0.00000000000E+00  0.50184850406E+01  0.50184850406E+01  0.00000000000E+00 0. -1.
         21   -1    0    0  501  502 -0.00000000000E+00 -0.00000000000E+00 -0.50629879532E+03  0.50629879532E+03  0.00000000000E+00 0.  1.
          2    1    1    2  501    0  0.40806946312E+02  0.28156495437E+02 -0.20447253561E+03  0.21039727403E+03  0.00000000000E+00 0. -1.
         21    1    1    2  503  502 -0.40806946312E+02 -0.28156495437E+02 -0.29680777467E+03  0.30092000632E+03  0.00000000000E+00 0.  1.
</event>
<event>
 4    1  0.2048241E+005  0.2831871E+02  0.7546771E-02  0.1434793E+00
          2   -1    0    0  503    0  0.00000000000E+00  0.00000000000E+00  0.17064274048E+02  0.17064274048E+02  0.00000000000E+00 0. -1.
         21   -1    0    0  501  502 -0.00000000000E+00 -0.00000000000E+00 -0.30905866579E+03  0.30905866579E+03  0.00000000000E+00 0. -1.
          2    1    1    2  501    0  0.16127872651E+02  0.23277484742E+02  0.41556665200E+01  0.28622004409E+02  0.00000000000E+00 0. -1.
         21    1    1    2  503  502 -0.16127872651E+02 -0.23277484742E+02 -0.29615005826E+03  0.29750093543E+03  0.00000000000E+00 0. -1.
</event>
<event>
 4    1  0.2048241E+005  0.2222152E+02  0.7546771E-02  0.1502512E+00
          2   -1    0    0  503    0  0.00000000000E+00  0.00000000000E+00  0.45463825841E+03  0.45463825841E+03  0.00000000000E+00 0.  1.
         21   -1    0    0  501  502 -0.00000000000E+00 -0.00000000000E+00 -0.10164400251E+02  0.10164400251E+02  0.00000000000E+00 0. -1.
          2    1    1    2  501    0 -0.76190286619E+01 -0.20874540960E+02  0.44187078820E+03  0.44242919154E+03  0.00000000000E+00 0.  1.
         21    1    1    2  503  502  0.76190286619E+01  0.20874540960E+02  0.26030699590E+01  0.22373467126E+02  0.00000000000E+00 0. -1.
</event>
<event>
 4    1  0.2048241E+005  0.2359829E+02  0.7546771E-02  0.1485119E+00
          2   -1    0    0  502    0  0.00000000000E+00  0.00000000000E+00  0.14453206336E+03  0.14453206336E+03  0.00000000000E+00 0. -1.
         21   -1    0    0  503  502 -0.00000000000E+00 -0.00000000000E+00 -0.15068946235E+02  0.15068946235E+02  0.00000000000E+00 0. -1.
          2    1    1    2  501    0 -0.23486257074E+02 -0.22967571500E+01  0.13357816130E+03  0.13564661640E+03  0.00000000000E+00 0. -1.
         21    1    1    2  503  501  0.23486257074E+02  0.22967571500E+01 -0.41150441757E+01  0.23954393194E+02  0.00000000000E+00 0. -1.
</event>
<event>
 4    1  0.2048241E+005  0.3113438E+02  0.7546771E-02  0.1409988E+00
          2   -1    0    0  503    0  0.00000000000E+00  0.00000000000E+00  0.11243507441E+04  0.11243507441E+04  0.00000000000E+00 0.  1.
         21   -1    0    0  501  502 -0.00000000000E+00 -0.00000000000E+00 -0.18532322979E+01  0.18532322979E+01  0.00000000000E+00 0.  1.
          2    1    1    2  501    0 -0.23660229174E+01 -0.31044346929E+02  0.97304163488E+03  0.97353961027E+03  0.00000000000E+00 0.  1.
         21    1    1    2  503  502  0.23660229174E+01  0.31044346929E+02  0.14945587689E+03  0.15266436610E+03  0.00000000000E+00 0.  1.
</event>
<event>
 4    1  0.2048241E+005  0.2391165E+02  0.7546771E-02  0.1481357E+00
          2   -1    0    0  502    0  0.00000000000E+00  0.00000000000E+00  0.60100256138E+02  0.60100256138E+02  0.00000000000E+00 0. -1.
         21   -1    0    0  503  502 -0.00000000000E+00 -0.00000000000E+00 -0.45487597048E+02  0.45487597048E+02  0.00000000000E+00 0. -1.
          2    1    1    2  501    0  0.21825695755E+02 -0.97675950837E+01  0.54255951977E+02  0.59291443176E+02  0.00000000000E+00 0. -1.
         21    1    1    2  503  501 -0.21825695755E+02  0.97675950837E+01 -0.39643292887E+02  0.46296410010E+02  0.00000000000E+00 0. -1.
</event>
<event>
 4    1  0.2048241E+005  0.2120627E+02  0.7546771E-02  0.1516340E+00
          2   -1    0    0  502    0  0.00000000000E+00  0.00000000000E+00  0.65263998057E+03  0.65263998057E+03  0.00000000000E+00 0. -1.
         21   -1    0    0  503  502 -0.00000000000E+00 -0.00000000000E+00 -0.76180328008E+01  0.76180328008E+01  0.00000000000E+00 0.  1.
          2    1    1    2  501    0  0.18586980287E+02  0.10209307277E+02  0.63735597727E+03  0.63770866982E+03  0.00000000000E+00 0. -1.
         21    1    1    2  503  501 -0.18586980287E+02 -0.10209307277E+02  0.76659704993E+01  0.22549343559E+02  0.00000000000E+00 0.  1.
</event>
<event>
 4    1  0.2048241E+005  0.4967570E+02  0.7546771E-02  0.1299585E+00
          2   -1    0    0  503    0  0.00000000000E+00  0.00000000000E+00  0.10755391747E+04  0.10755391747E+04  0.00000000000E+00 0. -1.
         21   -1    0    0  501  502 -0.00000000000E+00 -0.00000000000E+00 -0.26472445635E+01  0.26472445635E+01  0.00000000000E+00 0. -1.
          2    1    1    2  501    0  0.14567476120E+02  0.47491725876E+02  0.73327193520E+03  0.73495265585E+03  0.00000000000E+00 0. -1.
         21    1    1    2  503  502 -0.14567476120E+02 -0.47491725876E+02  0.33961999493E+03  0.34323376341E+03  0.00000000000E+00 0. -1.
</event>
<event>
 4    1  0.2048241E+005  0.4266811E+02  0.7546771E-02  0.1333522E+00
          2   -1    0    0  502    0  0.00000000000E+00  0.00000000000E+00  0.47105882453E+03  0.47105882453E+03  0.00000000000E+00 0. -1.
         21   -1    0    0  503  502 -0.00000000000E+00 -0.00000000000E+00 -0.12986279970E+02  0.12986279970E+02  0.00000000000E+00 0. -1.
          2    1    1    2  501    0 -0.25984546664E+02 -0.33843330234E+02  0.43187231245E+03  0.43397495542E+03  0.00000000000E+00 0. -1.
         21    1    1    2  503  501  0.25984546664E+02  0.33843330234E+02  0.26200232108E+02  0.50070149083E+02  0.00000000000E+00 0. -1.
</event>
<event>
 4    1  0.2048241E+005  0.5123652E+02  0.7546771E-02  0.1292899E+00
          2   -1    0    0  503    0  0.00000000000E+00  0.00000000000E+00  0.45447303817E+03  0.45447303817E+03  0.00000000000E+00 0.  1.
         21   -1    0    0  501  502 -0.00000000000E+00 -0.00000000000E+00 -0.12902823397E+02  0.12902823397E+02  0.00000000000E+00 0.  1.
          2    1    1    2  501    0  0.13629900917E+02  0.49390353688E+02  0.39445805923E+03  0.39777172062E+03  0.00000000000E+00 0.  1.
         21    1    1    2  503  502 -0.13629900917E+02 -0.49390353688E+02  0.47112155541E+02  0.69604140941E+02  0.00000000000E+00 0.  1.
</event>
<event>
 4    1  0.2048241E+005  0.3155691E+02  0.7546771E-02  0.1406533E+00
          2   -1    0    0  502    0  0.00000000000E+00  0.00000000000E+00  0.89326703426E+03  0.89326703426E+03  0.00000000000E+00 0. -1.
         21   -1    0    0  503  502 -0.00000000000E+00 -0.00000000000E+00 -0.27467573883E+01  0.27467573883E+01  0.00000000000E+00 0. -1.
          2    1    1    2  501    0  0.29626920111E+02  0.10866668191E+02  0.79058294654E+03  0.79121250889E+03  0.00000000000E+00 0. -1.
         21    1    1    2  503  501 -0.29626920111E+02 -0.10866668191E+02  0.99937330334E+02  0.10480128275E+03  0.00000000000E+00 0. -1.
</event>
<event>
 4    1  0.2048241E+005  0.2503335E+02  0.7546771E-02  0.1468431E+00
          2   -1    0    0  503    0  0.00000000000E+00  0.00000000000E+00  0.94796778460E+03  0.94796778460E+03  0.00000000000E+00 0.  1.
         21   -1    0    0  501  502 -0.00000000000E+00 -0.00000000000E+00 -0.65948274551E+01  0.65948274551E+01  0.00000000000E+00 0.  1.
          2    1    1    2  501    0  0.74438032388E+00  0.25022280226E+02  0.92341491392E+03  0.92375417285E+03  0.00000000000E+00 0.  1.
         21    1    1    2  503  502 -0.74438032388E+00 -0.25022280226E+02  0.17958043226E+02  0.30808439206E+02  0.00000000000E+00 0.  1.
</event>
<event>
 4    1  0.2048241E+005  0.2997621E+02  0.7546771E-02  0.1419803E+00
          2   -1    0    0  502    0  0.00000000000E+00  0.00000000000E+00  0.20066674063E+04  0.20066674063E+04  0.00000000000E+00 0. -1.
         21   -1    0    0  503  502 -0.00000000000E+00 -0.00000000000E+00 -0.29578429046E+01  0.29578429046E+01  0.00000000000E+00 0. -1.
          2    1    1    2  501    0 -0.25286919376E+02  0.16097983283E+02  0.19274873651E+04  0.19277204455E+04  0.00000000000E+00 0. -1.
         21    1    1    2  503  501  0.25286919376E+02 -0.16097983283E+02  0.76222198251E+02  0.81904803666E+02  0.00000000000E+00 0. -1.
</event>
<event>
 4    1  0.2048241E+005  0.3357901E+02  0.7546771E-02  0.1390838E+00
          2   -1    0    0  503    0  0.00000000000E+00  0.00000000000E+00  0.61934611540E+02  0.61934611540E+02  0.00000000000E+00 0. -1.
         21   -1    0    0  501  502 -0.00000000000E+00 -0.00000000000E+00 -0.49371695823E+02  0.49371695823E+02  0.00000000000E+00 0.  1.
          2    1    1    2  501    0  0.31931137081E+02 -0.10390007227E+02  0.50498811316E+02  0.60643876112E+02  0.00000000000E+00 0. -1.
         21    1    1    2  503  502 -0.31931137081E+02  0.10390007227E+02 -0.37935895599E+02  0.50662431252E+02  0.00000000000E+00 0.  1.
</event>
<event>
 4    1  0.2048241E+005  0.2632982E+02  0.7546771E-02  0.1454459E+00
          2   -1    0    0  502    0  0.00000000000E+00  0.00000000000E+00  0.17151038523E+02  0.17151038523E+02  0.00000000000E+00 0.  1.
         21   -1    0    0  503  502 -0.00000000000E+00 -0.00000000000E+00 -0.75282058356E+02  0.75282058356E+02  0.00000000000E+00 0.  1.
          2    1    1    2  501    0  0.23633154914E+02  0.11607469191E+02  0.23846644627E+01  0.26437586440E+02  0.00000000000E+00 0.  1.
         21    1    1    2  503  501 -0.23633154914E+02 -0.11607469191E+02 -0.60515684296E+02  0.65995510438E+02  0.00000000000E+00 0.  1.
</event>
<event>
 4    1  0.2048241E+005  0.2025475E+02  0.7546771E-02  0.1530176E+00
          2   -1    0    0  502    0  0.00000000000E+00  0.00000000000E+00  0.34608253044E+03  0.34608253044E+03  0.00000000000E+00 0. -1.
         21   -1    0    0  503  502 -0.00000000000E+00 -0.00000000000E+00 -0.21975032151E+02  0.21975032151E+02  0.00000000000E+00 0.  1.
          2    1    1    2  501    0  0.91508600871E+01 -0.18069766640E+02  0.34105008351E+03  0.34165101225E+03  0.00000000000E+00 0. -1.
         21    1    1    2  503  501 -0.91508600871E+01  0.18069766640E+02 -0.16942585226E+02  0.26406550340E+02  0.00000000000E+00 0.  1.
</event>
<event>
 4    1  0.2048241E+005  0.2139159E+02  0.7546771E-02  0.1513747E+00
          2   -1    0    0  502    0  0.00000000000E+00  0.00000000000E+00  0.86745378283E+01  0.86745378283E+01  0.00000000000E+00 0.  1.
         21   -1    0    0  503  502 -0.00000000000E+00 -0.00000000000E+00 -0.92663182517E+02  0.92663182517E+02  0.00000000000E+00 0.  1.
          2    1    1    2  501    0  0.10625391378E+02 -0.18566130771E+02 -0.87410613867E+01  0.23108576501E+02  0.00000000000E+00 0.  1.
         21    1    1    2  503  501 -0.10625391378E+02  0.18566130771E+02 -0.75247583303E+02  0.78229143844E+02  0.00000000000E+00 0.  1.
</event>
<event>
 4    1  0.2048241E+005  0.2828695E+02  0.7546771E-02  0.1435092E+00
          2   -1    0    0  503    0  0.00000000000E+00  0.00000000000E+00  0.16468184150E+03  0.16468184150E+03  0.00000000000E+00 0.  1.
         21   -1    0    0  501  502 -0.00000000000E+00 -0.00000000000E+00 -0.69393409406E+01  0.69393409406E+01  0.00000000000E+00 0.  1.
          2    1    1    2  501    0  0.26055243520E+02 -0.11012532350E+02  0.12585771792E+03  0.12899735169E+03  0.00000000000E+00 0.  1.
         21    1    1    2  503  502 -0.26055243520E+02  0.11012532350E+02  0.31884782639E+02  0.42623830747E+02  0.00000000000E+00 0.  1.
</event>
<event>
 4    1  0.2048241E+005  0.2826238E+02  0.7546771E-02  0.1435323E+00
          2   -1    0    0  503    0  0.00000000000E+00  0.00000000000E+00  0.10309639447E+04  0.10309639447E+04  0.00000000000E+00 0. -1.
         21   -1    0    0  501  502 -0.00000000000E+00 -0.00000000000E+00 -0.25610656436E+01  0.25610656436E+01  0.00000000000E+00 0. -1.
          2    1    1    2  501    0  0.28028832055E+02 -0.36258429363E+01  0.94577720226E+03  0.94619938621E+03  0.00000000000E+00 0. -1.
         21    1    1    2  503  502 -0.28028832055E+02  0.36258429363E+01  0.82625676835E+02  0.87325624165E+02  0.00000000000E+00 0. -1.
</event>
<event>
 4    1  0.2048241E+005  0.3549764E+02  0.7546771E-02  0.1377098E+00
          2   -1    0    0  502    0  0.00000000000E+00  0.00000000000E+00  0.33982578881E+03  0.33982578881E+03  0.00000000000E+00 0.  1.
         21   -1    0    0  503  502 -0.00000000000E+00 -0.00000000000E+00 -0.60044308912E+01  0.60044308912E+01  0.00000000000E+00 0.  1.
          2    1    1    2  501    0 -0.12399567566E+02  0.33261584336E+02  0.27384605869E+03  0.27613718715E+03  0.00000000000E+00 0.  1.
         21    1    1    2  503  501  0.12399567566E+02 -0.33261584336E+02  0.59975299232E+02  0.69693032552E+02  0.00000000000E+00 0.  1.
</event>
<event>
 4    1  0.2048241E+005  0.2167874E+02  0.7546771E-02  0.1509791E+00
          2   -1    0    0  502    0  0.00000000000E+00  0.00000000000E+00  0.72303074797E+03  0.72303074797E+03  0.00000000000E+00 0. -1.
         21   -1    0    0  503  502 -0.00000000000E+00 -0.00000000000E+00 -0.14905084304E+01  0.14905084304E+01  0.00000000000E+00 0. -1.
          2    1    1    2  501    0  0.19222243836E+02 -0.10023631525E+02  0.63280570535E+03  0.63317693307E+03  0.00000000000E+00 0. -1.
         21    1    1    2  503  501 -0.19222243836E+02  0.10023631525E+02  0.88734534182E+02  0.91344323324E+02  0.00000000000E+00 0. -1.
</event>
<event>
 4    1  0.2048241E+005  0.2263915E+02  0.7546771E-02  0.1497080E+00
          2   -1    0    0  503    0  0.00000000000E+00  0.00000000000E+00  0.61655525055E+02  0.61655525055E+02  0.00000000000E+00 0.  1.
         21   -1    0    0  501  502 -0.00000000000E+00 -0.00000000000E+00 -0.26994402841E+02  0.26994402841E+02  0.00000000000E+00 0. -1.
          2    1    1    2  501    0 -0.22530911189E+02  0.22111174420E+01  0.54204405362E+02  0.58742221272E+02  0.00000000000E+00 0.  1.
         21    1    1    2  503  502  0.22530911189E+02 -0.22111174420E+01 -0.19543283147E+02  0.29907706624E+02  0.00000000000E+00 0. -1.
</event>
<event>
 4    1  0.2048241E+005  0.2987398E+02  0.7546771E-02  0.1420695E+00
          2   -1    0    0  503    0  0.00000000000E+00  0.00000000000E+00  0.15356472055E+03  0.15356472055E+03  0.00000000000E+00 0. -1.
         21   -1    0    0  501  502 -0.00000000000E+00 -0.00000000000E+00 -0.62694599575E+02  0.62694599575E+02  0.00000000000E+00 0.  1.
          2    1    1    2  501    0  0.29762125192E+02 -0.25827968230E+01  0.14843122699E+03  0.15140767511E+03  0.00000000000E+00 0. -1.
         21    1    1    2  503  502 -0.29762125192E+02  0.25827968230E+01 -0.57561106018E+02  0.64851645017E+02  0.00000000000E+00 0.  1.
</event>
<event>
 4    1  0.2048241E+005  0.2264932E+02  0.7546771E-02  0.1496949E+00
          2   -1    0    0  503    0  0.00000000000E+00  0.00000000000E+00  0.34762883983E+03  0.34762883983E+03  0.00000000000E+00 0. -1.
         21   -1    0    0  501  502 -0.00000000000E+00 -0.00000000000E+00 -0.20732624856E+01  0.20732624856E+01  0.00000000000E+00 0. -1.
          2    1    1    2  501    0 -0.11953095662E+02  0.19238374827E+02  0.26665004960E+03  0.26761023993E+03  0.00000000000E+00 0. -1.
         21    1    1    2  503  502  0.11953095662E+02 -0.19238374827E+02  0.78905527744E+02  0.82091862389E+02  0.00000000000E+00 0. -1.
</event>
<event>
 4    1  0.2048241E+005  0.2164769E+02  0.7546771E-02  0.1510215E+00
          2   -1    0    0  503    0  0.00000000000E+00  0.00000000000E+00  0.41088924491E+03  0.41088924491E+03  0.00000000000E+00 0.  1.
         21   -1    0    0  501  502 -0.00000000000E+00 -0.00000000000E+00 -0.22787779112E+01  0.22787779112E+01  0.00000000000E+00 0.  1.
          2    1    1    2  501    0  0.16565104538E+02 -0.13936272494E+02  0.35031045120E+03  0.35097868112E+03  0.00000000000E+00 0.  1.
         21    1    1    2  503  502 -0.16565104538E+02  0.13936272494E+02  0.58300015802E+02  0.62189341707E+02  0.00000000000E+00 0.  1.
</event>
<event>
 4    1  0.2048241E+005  0.4444519E+02  0.7546771E-02  0.1324237E+00
          2   -1    0    0  502    0  0.00000000000E+00  0.00000000000E+00  0.41321425538E+01  0.41321425538E+01  0.00000000000E+00 0.  1.
         21   -1    0    0  503  502 -0.00000000000E+00 -0.00000000000E+00 -0.47847024905E+03  0.47847024905E+03  0.00000000000E+00 0.  1.
          2    1    1    2  501    0  0.14740672823E+01 -0.44420739842E+02 -0.24431159345E+03  0.24832142416E+03  0.00000000000E+00 0.  1.
         21    1    1    2  503  501 -0.14740672823E+01  0.44420739842E+02 -0.23002651305E+03  0.23428096744E+03  0.00000000000E+00 0.  1.
</event>
<event>
 4    1  0.2048241E+005  0.3325727E+02  0.7546771E-02  0.1393247E+00
          2   -1    0    0  502    0  0.00000000000E+00  0.00000000000E+00  0.74276842656E+03  0.74276842656E+03  0.00000000000E+00 0. -1.
         21   -1    0    0  503  502 -0.00000000000E+00 -0.00000000000E+00 -0.12604593437E+03  0.12604593437E+03  0.00000000000E+00 0. -1.
          2    1    1    2  501    0 -0.25882683195E+02  0.20883797522E+02  0.74019479475E+03  0.74094154996E+03  0.00000000000E+00 0. -1.
         21    1    1    2  503  501  0.25882683195E+02 -0.20883797522E+02 -0.12347230256E+03  0.12787281098E+03  0.00000000000E+00 0. -1.
</event>
<event>
 4    1  0.2048241E+005  0.2343260E+02  0.7546771E-02  0.1487136E+00
          2   -1    0    0  503    0  0.00000000000E+00  0.00000000000E+00  0.12428266301E+04  0.12428266301E+04  0.00000000000E+00 0. -1.
         21   -1    0    0  501  502 -0.00000000000E+00 -0.00000000000E+00 -0.26986970632E+01  0.26986970632E+01  0.00000000000E+00 0. -1.
          2    1    1    2  501    0  0.21262843298E+02 -0.98477581643E+01  0.11895733804E+04  0.11898041495E+04  0.00000000000E+00 0. -1.
         21    1    1    2  503  502 -0.21262843298E+02  0.98477581643E+01  0.50554552609E+02  0.55721177621E+02  0.00000000000E+00 0. -1.
</event>
<event>
 4    1  0.2048241E+005  0.2118657E+02  0.7546771E-02  0.1516618E+00
          2   -1    0    0  502    0  0.00000000000E+00  0.00000000000E+00  0.89756370541E+03  0.89756370541E+03  0.00000000000E+00 0.  1.
         21   -1    0    0  503  502 -0.00000000000E+00 -0.00000000000E+00 -0.83698532522E+02  0.83698532522E+02  0.00000000000E+00 0.  1.
          2    1    1    2  501    0  0.21130880823E+02  0.15350916569E+01  0.89609574837E+03  0.89634617246E+03  0.00000000000E+00 0.  1.
         21    1    1    2  503  501 -0.21130880823E+02 -0.15350916569E+01 -0.82230575484E+02  0.84916065472E+02  0.00000000000E+00 0.  1.
</event>
<event>
 4    1  0.2090561E+005  0.3078399E+02  0.7546771E-02  0.1412903E+00
          2   -1    0    0  503    0  0.00000000000E+00  0.00000000000E+00  0.14784370393E+04  0.14784370393E+04  0.00000000000E+00 0. -1.
         21   -1    0    0  501  502 -0.00000000000E+00 -0.00000000000E+00 -0.60450963443E+02  0.60450963443E+02  0.00000000000E+00 0. -1.
          2    1    1    2  501    0 -0.11839869991E+02  0.28416047365E+02  0.14743468186E+04  0.14746681647E+04  0.00000000000E+00 0. -1.
         21    1    1    2  503  502  0.11839869991E+02 -0.28416047365E+02 -0.56360742805E+02  0.64219838047E+02  0.00000000000E+00 0. -1.
</event>
<event>
 4    1  0.2048241E+005  0.2054345E+02  0.7546771E-02  0.1525884E+00
          2   -1    0    0  502    0  0.00000000000E+00  0.00000000000E+00  0.33651407570E+02  0.33651407570E+02  0.00000000000E+00 0.  1.
         21   -1    0    0  503  502 -0.00000000000E+00 -0.00000000000E+00 -0.97533530377E+03  0.97533530377E+03  0.00000000000E+00 0. -1.
          2    1    1    2  501    0 -0.36242209757E+00  0.20540250810E+02  0.30397405542E+02  0.36688356693E+02  0.00000000000E+00 0.  1.
         21    1    1    2  503  501  0.36242209757E+00 -0.20540250810E+02 -0.97208130174E+03  0.97229835465E+03  0.00000000000E+00 0. -1.
</event>
<event>
 4    1  0.2048241E+005  0.2151206E+02  0.7546771E-02  0.1512078E+00
          2   -1    0    0  502    0  0.00000000000E+00  0.00000000000E+00  0.21891740280E+02  0.21891740280E+02  0.00000000000E+00 0. -1.
         21   -1    0    0  503  502 -0.00000000000E+00 -0.00000000000E+00 -0.24755270511E+02  0.24755270511E+02  0.00000000000E+00 0. -1.
          2    1    1    2  501    0 -0.18345703455E+02  0.11234057101E+02  0.74826355553E+01  0.22776275136E+02  0.00000000000E+00 0. -1.
         21    1    1    2  503  501  0.18345703455E+02 -0.11234057101E+02 -0.10346165787E+02  0.23870735655E+02  0.00000000000E+00 0. -1.
</event>
<event>
 4    1  0.2048241E+005  0.3425580E+02  0.7546771E-02  0.1385872E+00
          2   -1    0    0  502    0  0.00000000000E+00  0.00000000000E+00  0.61664053533E+03  0.61664053533E+03  0.00000000000E+00 0. -1.
         21   -1    0    0  503  502 -0.00000000000E+00 -0.00000000000E+00 -0.34054001200E+01  0.34054001200E+01  0.00000000000E+00 0. -1.
          2    1    1    2  501    0 -0.18254797438E+02  0.28986589887E+02  0.51254026649E+03  0.51368374006E+03  0.00000000000E+00 0. -1.
         21    1    1    2  503  501  0.18254797438E+02 -0.28986589887E+02  0.10069486872E+03  0.10636219539E+03  0.00000000000E+00 0. -1.
</event>
<event>
 4    1  0.2048241E+005  0.3358119E+02  0.7546771E-02  0.1390822E+00
          2   -1    0    0  502    0  0.00000000000E+00  0.00000000000E+00  0.31335340652E+03  0.31335340652E+03  0.00000000000E+00 0. -1.
         21   -1    0    0  503  502 -0.00000000000E+00 -0.00000000000E+00 -0.15133523165E+02  0.15133523165E+02  0.00000000000E+00 0.  1.
          2    1    1    2  501    0 -0.29792160871E+02 -0.15495916948E+02  0.29250086461E+03  0.29442223437E+03  0.00000000000E+00 0. -1.
         21    1    1    2  503  501  0.29792160871E+02  0.15495916948E+02  0.57190187378E+01  0.34064695313E+02  0.00000000000E+00 0.  1.
</event>
<event>
 4    1  0.2048241E+005  0.2129278E+02  0.7546771E-02  0.1515126E+00
          2   -1    0    0  502    0  0.00000000000E+00  0.00000000000E+00  0.52849526814E+03  0.52849526814E+03  0.00000000000E+00 0.  1.
         21   -1    0    0  503  502 -0.00000000000E+00 -0.00000000000E+00 -0.29089404650E+02  0.29089404650E+02  0.00000000000E+00 0.  1.
          2    1    1    2  501    0  0.55671791000E+01  0.20552100245E+02  0.52435357986E+03  0.52478572677E+03  0.00000000000E+00 0.  1.
         21    1    1    2  503  501 -0.55671791000E+01 -0.20552100245E+02 -0.24947716374E+02  0.32798946018E+02  0.00000000000E+00 0.  1.
</event>
<event>
 4    1  0.2048241E+005  0.2089047E+02  0.7546771E-02  0.1520834E+00
          2   -1    0    0  503    0  0.00000000000E+00  0.00000000000E+00  0.10616595343E+04  0.10616595343E+04  0.00000000000E+00 0. -1.
         21   -1    0    0  501  502 -0.00000000000E+00 -0.00000000000E+00 -0.16218323178E+01  0.16218323178E+01  0.00000000000E+00 0.  1.
          2    1    1    2  501    0  0.17820149103E+02 -0.10902028597E+02  0.98937066005E+03  0.98959118574E+03  0.00000000000E+00 0. -1.
         21    1    1    2  503  502 -0.17820149103E+02  0.10902028597E+02  0.70667041985E+02  0.73690180923E+02  0.00000000000E+00 0.  1.
</event>
<event>
 4    1  0.2048241E+005  0.3689776E+02  0.7546771E-02  0.1367691E+00
          2   -1    0    0  503    0  0.00000000000E+00  0.00000000000E+00  0.92805580794E+03  0.92805580794E+03  0.00000000000E+00 0.  1.
         21   -1    0    0  501  502 -0.00000000000E+00 -0.00000000000E+00 -0.69203085539E+02  0.69203085539E+02  0.00000000000E+00 0. -1.
          2    1    1    2  501    0  0.83610379048E+01 -0.35937965930E+02  0.92274245878E+03  0.92347988045E+03  0.00000000000E+00 0.  1.
         21    1    1    2  503  502 -0.83610379048E+01  0.35937965930E+02 -0.63889736378E+02  0.73779013035E+02  0.00000000000E+00 0. -1.
</event>
<event>
 4    1  0.2048241E+005  0.2114905E+02  0.7546771E-02  0.1517147E+00
          2   -1    0    0  503    0  0.00000000000E+00  0.00000000000E+00  0.10435143349E+04  0.10435143349E+04  0.00000000000E+00 0.  1.
         21   -1    0    0  501  502 -0.00000000000E+00 -0.00000000000E+00 -0.82686493516E+00  0.82686493516E+00  0.00000000000E+00 0.  1.
          2    1    1    2  501    0  0.19858749769E+02  0.72740935777E+01  0.88372386150E+03  0.88397689210E+03  0.00000000000E+00 0.  1.
         21    1    1    2  503  502 -0.19858749769E+02 -0.72740935777E+01  0.15896360850E+03  0.16036430777E+03  0.00000000000E+00 0.  1.
</event>
<event>
 4    1  0.2048241E+005  0.2903318E+02  0.7546771E-02  0.1428188E+00
          2   -1    0    0  502    0  0.00000000000E+00  0.00000000000E+00  0.10984006978E+03  0.10984006978E+03  0.00000000000E+00 0. -1.
         21   -1    0    0  503  502 -0.00000000000E+00 -0.00000000000E+00 -0.29885843868E+02  0.29885843868E+02  0.00000000000E+00 0. -1.
          2    1    1    2  501    0  0.25328376040E+02 -0.14191515697E+02  0.10020607029E+03  0.10432728442E+03  0.00000000000E+00 0. -1.
         21    1    1    2  503  501 -0.25328376040E+02  0.14191515697E+02 -0.20251844380E+02  0.35398629231E+02  0.00000000000E+00 0. -1.
</event>
<event>
 4    1  0.2048241E+005  0.2033024E+02  0.7546771E-02  0.1529046E+00
          2   -1    0    0  502    0  0.00000000000E+00  0.00000000000E+00  0.10866543637E+03  0.10866543637E+03  0.00000000000E+00 0.  1.
         21   -1    0    0  503  502 -0.00000000000E+00 -0.00000000000E+00 -0.16342365411E+02  0.16342365411E+02  0.00000000000E+00 0. -1.
          2    1    1    2  501    0  0.18578556838E+02 -0.82556633811E+01  0.10091066624E+03  0.10293824028E+03  0.00000000000E+00 0.  1.
         21    1    1    2  503  501 -0.18578556838E+02  0.82556633811E+01 -0.85875952783E+01  0.22069561498E+02  0.00000000000E+00 0. -1.
</event>
<event>
 4    1  0.2048241E+005  0.3223605E+02  0.7546771E-02  0.1401111E+00
          2   -1    0    0  503    0  0.00000000000E+00  0.00000000000E+00  0.27637994109E+03  0.27637994109E+03  0.00000000000E+00 0.  1.
         21   -1    0    0  501  502 -0.00000000000E+00 -0.00000000000E+00 -0.10742816926E+02  0.10742816926E+02  0.00000000000E+00 0.  1.
          2    1    1    2  501    0 -0.32173921681E+02  0.20004228748E+01  0.24856209862E+03  0.25064373081E+03  0.00000000000E+00 0.  1.
         21    1    1    2  503  502  0.32173921681E+02 -0.20004228748E+01  0.17075025544E+02  0.36479027198E+02  0.00000000000E+00 0.  1.
</event>
<event>
 4    1  0.2048241E+005  0.2506577E+02  0.7546771E-02  0.1468069E+00
          2   -1    0    0  503    0  0.00000000000E+00  0.00000000000E+00  0.10441889721E+03  0.10441889721E+03  0.00000000000E+00 0.  1.
         21   -1    0    0  501  502 -0.00000000000E+00 -0.00000000000E+00 -0.16789015046E+02  0.16789015046E+02  0.00000000000E+00 0.  1.
          2    1    1    2  501    0  0.15430505407E+02 -0.19753282461E+02  0.92358994664E+02  0.95699929783E+02  0.00000000000E+00 0.  1.
         21    1    1    2  503  502 -0.15430505407E+02  0.19753282461E+02 -0.47291124957E+01  0.25507982478E+02  0.00000000000E+00 0.  1.
</event>
<event>
 4    1  0.2048241E+005  0.2827638E+02  0.7546771E-02  0.1435191E+00
          2   -1    0    0  502    0  0.00000000000E+00  0.00000000000E+00  0.35569487649E+03  0.35569487649E+03  0.00000000000E+00 0.  1.
         21   -1    0    0  503  502 -0.00000000000E+00 -0.00000000000E+00 -0.32514809003E+02  0.32514809003E+02  0.00000000000E+00 0. -1.
          2    1    1    2  501    0 -0.19278554241E+01 -0.28210581842E+02  0.34886514514E+03  0.35000920424E+03  0.00000000000E+00 0.  1.
         21    1    1    2  503  501  0.19278554241E+01  0.28210581842E+02 -0.25685077654E+02  0.38200481259E+02  0.00000000000E+00 0. -1.
</event>
<event>
 4    1  0.2048241E+005  0.3032426E+02  0.7546771E-02  0.1416799E+00
          2   -1    0    0  502    0  0.00000000000E+00  0.00000000000E+00  0.38637482075E+03  0.38637482075E+03  0.00000000000E+00 0.  1.
         21   -1    0    0  503  502 -0.00000000000E+00 -0.00000000000E+00 -0.22839952352E+02  0.22839952352E+02  0.00000000000E+00 0. -1.
          2    1    1    2  501    0  0.28174357164E+02  0.11214566043E+02  0.37542136978E+03  0.37664408369E+03  0.00000000000E+00 0.  1.
         21    1    1    2  503  501 -0.28174357164E+02 -0.11214566043E+02 -0.11886501386E+02  0.32570689405E+02  0.00000000000E+00 0. -1.
</event>
<event>
 4    1  0.2048241E+005  0.2013354E+02  0.7546771E-02  0.1532004E+00
          2   -1    0    0  502    0  0.00000000000E+00  0.00000000000E+00  0.93313032293E+03  0.93313032293E+03  0.00000000000E+00 0. -1.
         21   -1    0    0  503  502 -0.00000000000E+00 -0.00000000000E+00 -0.40927974327E+02  0.40927974327E+02  0.00000000000E+00 0. -1.
          2    1    1    2  501    0  0.20048849191E+02  0.18447340809E+01  0.93053877251E+03  0.93075655601E+03  0.00000000000E+00 0. -1.
         21    1    1    2  503  501 -0.20048849191E+02 -0.18447340809E+01 -0.38336423907E+02  0.43301741255E+02  0.00000000000E+00 0. -1.
</event>
<event>
 4    1  0.2048241E+005  0.2066513E+02  0.7546771E-02  0.1524100E+00
          2   -1    0    0  502    0  0.00000000000E+00  0.00000000000E+00  0.99579365696E+03  0.99579365696E+03  0.00000000000E+00 0. -1.
         21   -1    0    0  503  502 -0.00000000000E+00 -0.00000000000E+00 -0.38789880538E+01  0.38789880538E+01  0.00000000000E+00 0.  1.
          2    1    1    2  501    0 -0.10066456577E+02  0.18047545220E+02  0.96735425849E+03  0.96757496291E+03  0.00000000000E+00 0. -1.
         21    1    1    2  503  501  0.10066456577E+02 -0.18047545220E+02  0.24560410418E+02  0.32097682103E+02  0.00000000000E+00 0.  1.
</event>
<event>
 4    1  0.2048241E+005  0.2098398E+02  0.7546771E-02  0.1519494E+00
          2   -1    0    0  503    0  0.00000000000E+00  0.00000000000E+00  0.57798203580E+02  0.57798203580E+02  0.00000000000E+00 0. -1.
         21   -1    0    0  501  502 -0.00000000000E+00 -0.00000000000E+00 -0.49592044839E+02  0.49592044839E+02  0.00000000000E+00 0.  1.
          2    1    1    2  501    0  0.25036603388E+01  0.20834085582E+02  0.53501993168E+02  0.57469911345E+02  0.00000000000E+00 0. -1.
         21    1    1    2  503  502 -0.25036603388E+01 -0.20834085582E+02 -0.45295834426E+02  0.49920337073E+02  0.00000000000E+00 0.  1.
</event>
<event>
 4    1  0.2048241E+005  0.2223626E+02  0.7546771E-02  0.1502318E+00
          2   -1    0    0  502    0  0.00000000000E+00  0.00000000000E+00  0.35409279629E+03  0.35409279629E+03  0.00000000000E+00 0. -1.
         21   -1    0    0  503  502 -0.00000000000E+00 -0.00000000000E+00 -0.79580211338E+01  0.79580211338E+01  0.00000000000E+00 0.  1.
          2    1    1    2  501    0  0.17049374236E+02  0.14274802686E+02  0.33744510458E+03  0.33817695036E+03  0.00000000000E+00 0. -1.
         21    1    1    2  503  501 -0.17049374236E+02 -0.14274802686E+02  0.86896705750E+01  0.23873867057E+02  0.00000000000E+00 0.  1.
</event>
<event>
 4    1  0.2048241E+005  0.2187251E+02  0.7546771E-02  0.1507163E+00
          2   -1    0    0  502    0  0.00000000000E+00  0.00000000000E+00  0.41598259089E+03  0.41598259089E+03  0.00000000000E+00 0.  1.
         21   -1    0    0  503  502 -0.00000000000E+00 -0.00000000000E+00 -0.34544620385E+01  0.34544620385E+01  0.00000000000E+00 0.  1.
          2    1    1    2  501    0 -0.63726194438E+00  0.21863223834E+02  0.37755142645E+03  0.37818446065E+03  0.00000000000E+00 0.  1.
         21    1    1    2  503  501  0.63726194438E+00 -0.21863223834E+02  0.34976702404E+02  0.41252592285E+02  0.00000000000E+00 0.  1.
</event>
<event>
 4    1  0.2048241E+005  0.4443279E+02  0.7546771E-02  0.1324300E+00
          2   -1    0    0  503    0  0.00000000000E+00  0.00000000000E+00  0.17715497634E+04  0.17715497634E+04  0.00000000000E+00 0.  1.
         21   -1    0    0  501  502 -0.00000000000E+00 -0.00000000000E+00 -0.11992064979E+01  0.11992064979E+01  0.00000000000E+00 0.  1.
          2    1    1    2  501    0 -0.41787614950E+02  0.15101910317E+02  0.11208439438E+04  0.11217243060E+04  0.00000000000E+00 0.  1.
         21    1    1    2  503  502  0.41787614950E+02 -0.15101910317E+02  0.64950661312E+03  0.65102466385E+03  0.00000000000E+00 0.  1.
</event>
<event>
 4    1  0.2048241E+005  0.4027134E+02  0.7546771E-02  0.1346903E+00
          2   -1    0    0  503    0  0.00000000000E+00  0.00000000000E+00  0.21477705056E+04  0.21477705056E+04  0.00000000000E+00 0. -1.
         21   -1    0    0  501  502 -0.00000000000E+00 -0.00000000000E+00 -0.78717357398E+00  0.78717357398E+00  0.00000000000E+00 0. -1.
          2    1    1    2  501    0 -0.10654446268E+02 -0.38836365848E+02  0.12903412075E+04  0.12909694854E+04  0.00000000000E+00 0. -1.
         21    1    1    2  503  502  0.10654446268E+02  0.38836365848E+02  0.85664212457E+03  0.85758819378E+03  0.00000000000E+00 0. -1.
</event>
<event>
 4    1  0.2048241E+005  0.3289821E+02  0.7546771E-02  0.1395974E+00
          2   -1    0    0  502    0  0.00000000000E+00  0.00000000000E+00  0.33285971936E+03  0.33285971936E+03  0.00000000000E+00 0. -1.
         21   -1    0    0  503  502 -0.00000000000E+00 -0.00000000000E+00 -0.41594623692E+02  0.41594623692E+02  0.00000000000E+00 0.  1.
          2    1    1    2  501    0 -0.26678962436E+02  0.19249033506E+02  0.32539295361E+03  0.32705177967E+03  0.00000000000E+00 0. -1.
         21    1    1    2  503  501  0.26678962436E+02 -0.19249033506E+02 -0.34127857940E+02  0.47402563382E+02  0.00000000000E+00 0.  1.
</event>
<event>
 4    1  0.2048241E+005  0.3756250E+02  0.7546771E-02  0.1363393E+00
          2   -1    0    0  502    0  0.00000000000E+00  0.00000000000E+00  0.95510719303E+03  0.95510719303E+03  0.00000000000E+00 0. -1.
         21   -1    0    0  503  502 -0.00000000000E+00 -0.00000000000E+00 -0.18937380537E+02  0.18937380537E+02  0.00000000000E+00 0.  1.
          2    1    1    2  501    0  0.26920178853E+02  0.26196285626E+02  0.93572582426E+03  0.93647944964E+03  0.00000000000E+00 0. -1.
         21    1    1    2  503  501 -0.26920178853E+02 -0.26196285626E+02  0.44398823167E+00  0.37565123927E+02  0.00000000000E+00 0.  1.
</event>
<event>
 4    1  0.2048241E+005  0.2075708E+02  0.7546771E-02  0.1522762E+00
          2   -1    0    0  502    0  0.00000000000E+00  0.00000000000E+00  0.54092984793E+03  0.54092984793E+03  0.00000000000E+00 0. -1.
         21   -1    0    0  503  502 -0.00000000000E+00 -0.00000000000E+00 -0.11215082828E+01  0.11215082828E+01  0.00000000000E+00 0.  1.
          2    1    1    2  501    0  0.14224714568E+02 -0.15116680690E+02  0.41580209122E+03  0.41631987174E+03  0.00000000000E+00 0. -1.
         21    1    1    2  503  501 -0.14224714568E+02  0.15116680690E+02  0.12400624842E+03  0.12573148447E+03  0.00000000000E+00 0.  1.
</event>
<event>
 4    1  0.2048241E+005  0.2392049E+02  0.7546771E-02  0.1481252E+00
          2   -1    0    0  503    0  0.00000000000E+00  0.00000000000E+00  0.73087107213E+02  0.73087107213E+02  0.00000000000E+00 0. -1.
         21   -1    0    0  501  502 -0.00000000000E+00 -0.00000000000E+00 -0.19473747334E+02  0.19473747334E+02  0.00000000000E+00 0. -1.
          2    1    1    2  501    0  0.58692294068E+01  0.23189261074E+02  0.62594891566E+02  0.67009776400E+02  0.00000000000E+00 0. -1.
         21    1    1    2  503  502 -0.58692294068E+01 -0.23189261074E+02 -0.89815316876E+01  0.25551078146E+02  0.00000000000E+00 0. -1.
</event>
<event>
 4    1  0.2048241E+005  0.4542460E+02  0.7546771E-02  0.1319330E+00
          2   -1    0    0  503    0  0.00000000000E+00  0.00000000000E+00  0.27396255826E+03  0.27396255826E+03  0.00000000000E+00 0. -1.
         21   -1    0    0  501  502 -0.00000000000E+00 -0.00000000000E+00 -0.55839310055E+02  0.55839310055E+02  0.00000000000E+00 0.  1.
          2    1    1    2  501    0  0.41057581797E+00  0.45422739964E+02  0.26243890453E+03  0.26634108299E+03  0.00000000000E+00 0. -1.
         21    1    1    2  503  502 -0.41057581797E+00 -0.45422739964E+02 -0.44315656325E+02  0.63460785324E+02  0.00000000000E+00 0.  1.
</event>
<event>
 4    1  0.2048241E+005  0.3535656E+02  0.7546771E-02  0.1378074E+00
          2   -1    0    0  503    0  0.00000000000E+00  0.00000000000E+00  0.68210277438E+03  0.68210277438E+03  0.00000000000E+00 0.  1.
         21   -1    0    0  501  502 -0.00000000000E+00 -0.00000000000E+00 -0.18507291539E+01  0.18507291539E+01  0.00000000000E+00 0.  1.
          2    1    1    2  501    0 -0.33341395354E+02  0.11765945094E+02  0.37388406089E+03  0.37555209638E+03  0.00000000000E+00 0.  1.
         21    1    1    2  503  502  0.33341395354E+02 -0.11765945094E+02  0.30636798433E+03  0.30840140715E+03  0.00000000000E+00 0.  1.
</event>
<event>
 4    1  0.2048241E+005  0.2070701E+02  0.7546771E-02  0.1523489E+00
          2   -1    0    0  503    0  0.00000000000E+00  0.00000000000E+00  0.82122553010E+03  0.82122553010E+03  0.00000000000E+00 0.  1.
         21   -1    0    0  501  502 -0.00000000000E+00 -0.00000000000E+00 -0.17755282714E+01  0.17755282714E+01  0.00000000000E+00 0.  1.
          2    1    1    2  501    0  0.17916272362E+02  0.10382078935E+02  0.75546723686E+03  0.75575096847E+03  0.00000000000E+00 0.  1.
         21    1    1    2  503  502 -0.17916272362E+02 -0.10382078935E+02  0.63982764967E+02  0.67250089897E+02  0.00000000000E+00 0.  1.
</event>
<event>
 4    1  0.2048241E+005  0.4698454E+02  0.7546771E-02  0.1311804E+00
          2   -1    0    0  502    0  0.00000000000E+00  0.00000000000E+00  0.28601609796E+04  0.28601609796E+04  0.00000000000E+00 0. -1.
         21   -1    0    0  503  502 -0.00000000000E+00 -0.00000000000E+00 -0.20058300878E+01  0.20058300878E+01  0.00000000000E+00 0. -1.
          2    1    1    2  501    0  0.22454113491E+02  0.41271781416E+02  0.25515511877E+04  0.25519837403E+04  0.00000000000E+00 0. -1.
         21    1    1    2  503  501 -0.22454113491E+02 -0.41271781416E+02  0.30660396180E+03  0.31018306941E+03  0.00000000000E+00 0. -1.
</event>
<event>
 4    1  0.2048241E+005  0.3480481E+02  0.7546771E-02  0.1381941E+00
          2   -1    0    0  502    0  0.00000000000E+00  0.00000000000E+00  0.21145604458E+04  0.21145604458E+04  0.00000000000E+00 0. -1.
         21   -1    0    0  503  502 -0.00000000000E+00 -0.00000000000E+00 -0.56246484861E+01  0.56246484861E+01  0.00000000000E+00 0. -1.
          2    1    1    2  501    0 -0.71989307801E+00 -0.34797363610E+02  0.20591255709E+04  0.20594196977E+04  0.00000000000E+00 0. -1.
         21    1    1    2  503  501  0.71989307801E+00  0.34797363610E+02  0.49810226408E+02  0.60765396527E+02  0.00000000000E+00 0. -1.
</event>
<event>
 4    1  0.2048241E+005  0.2278351E+02  0.7546771E-02  0.1495235E+00
          2   -1    0    0  502    0  0.00000000000E+00  0.00000000000E+00  0.97923925480E+03  0.97923925480E+03  0.00000000000E+00 0. -1.
         21   -1    0    0  503  502 -0.00000000000E+00 -0.00000000000E+00 -0.10118699465E+01  0.10118699465E+01  0.00000000000E+00 0. -1.
          2    1    1    2  501    0  0.17410905883E+02 -0.14695198324E+02  0.82730911531E+03  0.82762277686E+03  0.00000000000E+00 0. -1.
         21    1    1    2  503  501 -0.17410905883E+02  0.14695198324E+02  0.15091826954E+03  0.15262834789E+03  0.00000000000E+00 0. -1.
</event>
<event>
 4    1  0.2048241E+005  0.2643080E+02  0.7546771E-02  0.1453411E+00
          2   -1    0    0  502    0  0.00000000000E+00  0.00000000000E+00  0.16969771633E+04  0.16969771633E+04  0.00000000000E+00 0. -1.
         21   -1    0    0  503  502 -0.00000000000E+00 -0.00000000000E+00 -0.68361114460E+00  0.68361114460E+00  0.00000000000E+00 0. -1.
          2    1    1    2  501    0 -0.26428914697E+02  0.31596105384E+00  0.13835206967E+04  0.13837731409E+04  0.00000000000E+00 0. -1.
         21    1    1    2  503  501  0.26428914697E+02 -0.31596105384E+00  0.31277285550E+03  0.31388763356E+03  0.00000000000E+00 0. -1.
</event>
<event>
 4    1  0.2048241E+005  0.2121141E+02  0.7546771E-02  0.1516268E+00
          2   -1    0    0  503    0  0.00000000000E+00  0.00000000000E+00  0.11301707177E+04  0.11301707177E+04  0.00000000000E+00 0.  1.
         21   -1    0    0  501  502 -0.00000000000E+00 -0.00000000000E+00 -0.56483131346E+00  0.56483131346E+00  0.00000000000E+00 0.  1.
          2    1    1    2  501    0  0.20660445810E+02  0.48031189691E+01  0.87197151933E+03  0.87222947353E+03  0.00000000000E+00 0.  1.
         21    1    1    2  503  502 -0.20660445810E+02 -0.48031189691E+01  0.25763436705E+03  0.25850607548E+03  0.00000000000E+00 0.  1.
</event>
<event>
 4    1  0.2048241E+005  0.4105784E+02  0.7546771E-02  0.1342396E+00
          2   -1    0    0  502    0  0.00000000000E+00  0.00000000000E+00  0.77716475265E+03  0.77716475265E+03  0.00000000000E+00 0.  1.
         21   -1    0    0  503  502 -0.00000000000E+00 -0.00000000000E+00 -0.49944144891E+01  0.49944144891E+01  0.00000000000E+00 0. -1.
          2    1    1    2  501    0 -0.26909157675E+02 -0.31010378553E+02  0.68022674953E+03  0.68146472919E+03  0.00000000000E+00 0.  1.
         21    1    1    2  503  501  0.26909157675E+02  0.31010378553E+02  0.91943588625E+02  0.10069443795E+03  0.00000000000E+00 0. -1.
</event>
<event>
 4    1  0.2048241E+005  0.3053900E+02  0.7546771E-02  0.1414969E+00
          2   -1    0    0  503    0  0.00000000000E+00  0.00000000000E+00  0.14273596665E+04  0.14273596665E+04  0.00000000000E+00 0. -1.
         21   -1    0    0  501  502 -0.00000000000E+00 -0.00000000000E+00 -0.20210158319E+02  0.20210158319E+02  0.00000000000E+00 0.  1.
          2    1    1    2  501    0  0.19256207822E+02  0.23702935608E+02  0.14155635344E+04  0.14158929163E+04  0.00000000000E+00 0. -1.
         21    1    1    2  503  502 -0.19256207822E+02 -0.23702935608E+02 -0.84140261663E+01  0.31676908505E+02  0.00000000000E+00 0.  1.
</event>
<event>
 4    1  0.2048241E+005  0.2976689E+02  0.7546771E-02  0.1421633E+00
          2   -1    0    0  503    0  0.00000000000E+00  0.00000000000E+00  0.10937559261E+04  0.10937559261E+04  0.00000000000E+00 0.  1.
         21   -1    0    0  501  502 -0.00000000000E+00 -0.00000000000E+00 -0.16442202614E+02  0.16442202614E+02  0.00000000000E+00 0.  1.
          2    1    1    2  501    0 -0.29733800351E+02  0.14030910937E+01  0.10799082142E+04  0.10803183876E+04  0.00000000000E+00 0.  1.
         21    1    1    2  503  502  0.29733800351E+02 -0.14030910937E+01 -0.25944906752E+01  0.29879741127E+02  0.00000000000E+00 0.  1.
</event>
<event>
 4    1  0.2048241E+005  0.2062982E+02  0.7546771E-02  0.1524616E+00
          2   -1    0    0  502    0  0.00000000000E+00  0.00000000000E+00  0.15448030132E+02  0.15448030132E+02  0.00000000000E+00 0. -1.
         21   -1    0    0  503  502 -0.00000000000E+00 -0.00000000000E+00 -0.70782587268E+02  0.70782587268E+02  0.00000000000E+00 0. -1.
          2    1    1    2  501    0  0.20462229456E+02 -0.26242757404E+01  0.60284660859E+01  0.21492604793E+02  0.00000000000E+00 0. -1.
         21    1    1    2  503  501 -0.20462229456E+02  0.26242757404E+01 -0.61363023222E+02  0.64738012607E+02  0.00000000000E+00 0. -1.
</event>
<event>
 4    1  0.2048241E+005  0.2249985E+02  0.7546771E-02  0.1498876E+00
          2   -1    0    0  503    0  0.00000000000E+00  0.00000000000E+00  0.18167936119E+03  0.18167936119E+03  0.00000000000E+00 0.  1.
         21   -1    0    0  501  502 -0.00000000000E+00 -0.00000000000E+00 -0.18252713945E+02  0.18252713945E+02  0.00000000000E+00 0.  1.
          2    1    1    2  501    0  0.75491945376E+01  0.21195588799E+02  0.17373311437E+03  0.17518401283E+03  0.00000000000E+00 0.  1.
         21    1    1    2  503  502 -0.75491945376E+01 -0.21195588799E+02 -0.10306467132E+02  0.24748062297E+02  0.00000000000E+00 0.  1.
</event>
<event>
 4    1  0.2048241E+005  0.2553284E+02  0.7546771E-02  0.1462930E+00
          2   -1    0    0  503    0  0.00000000000E+00  0.00000000000E+00  0.69122669286E+03  0.69122669286E+03  0.00000000000E+00 0. -1.
         21   -1    0    0  501  502 -0.00000000000E+00 -0.00000000000E+00 -0.74253643253E+01  0.74253643253E+01  0.00000000000E+00 0. -1.
          2    1    1    2  501    0 -0.16240247800E+02 -0.19702285108E+02  0.66828851702E+03  0.66877609681E+03  0.00000000000E+00 0. -1.
         21    1    1    2  503  502  0.16240247800E+02  0.19702285108E+02  0.15512811515E+02  0.29875960373E+02  0.00000000000E+00 0. -1.
</event>
<event>
 4    1  0.2048241E+005  0.2708937E+02  0.7546771E-02  0.1446712E+00
          2   -1    0    0  502    0  0.00000000000E+00  0.00000000000E+00  0.12913919545E+03  0.12913919545E+03  0.00000000000E+00 0. -1.
         21   -1    0    0  503  502 -0.00000000000E+00 -0.00000000000E+00 -0.72376427921E+03  0.72376427921E+03  0.00000000000E+00 0.  1.
          2    1    1    2  501    0 -0.27258651550E+01 -0.26951876363E+02  0.12746179229E+03  0.13030864313E+03  0.00000000000E+00 0. -1.
         21    1    1    2  503  501  0.27258651550E+01  0.26951876363E+02 -0.72208687605E+03  0.72259483153E+03  0.00000000000E+00 0.  1.
</event>
<event>
 4    1  0.2048241E+005  0.5912964E+02  0.7546771E-02  0.1262819E+00
          2   -1    0    0  503    0  0.00000000000E+00  0.00000000000E+00  0.71792167016E+03  0.71792167016E+03  0.00000000000E+00 0.  1.
         21   -1    0    0  501  502 -0.00000000000E+00 -0.00000000000E+00 -0.72445063568E+02  0.72445063568E+02  0.00000000000E+00 0.  1.
          2    1    1    2  501    0  0.57092532872E+02 -0.15386914960E+02  0.70440769146E+03  0.70688507570E+03  0.00000000000E+00 0.  1.
         21    1    1    2  503  502 -0.57092532872E+02  0.15386914960E+02 -0.58931084873E+02  0.83481658021E+02  0.00000000000E+00 0.  1.
</event>
<event>
 4    1  0.2048241E+005  0.2195988E+02  0.7546771E-02  0.1505989E+00
          2   -1    0    0  503    0  0.00000000000E+00  0.00000000000E+00  0.18157079936E+04  0.18157079936E+04  0.00000000000E+00 0. -1.
         21   -1    0    0  501  502 -0.00000000000E+00 -0.00000000000E+00 -0.38032719349E+00  0.38032719349E+00  0.00000000000E+00 0. -1.
          2    1    1    2  501    0 -0.11747670684E+02  0.18553400362E+02  0.14064078958E+04  0.14065793279E+04  0.00000000000E+00 0. -1.
         21    1    1    2  503  502  0.11747670684E+02 -0.18553400362E+02  0.40891977057E+03  0.40950899282E+03  0.00000000000E+00 0. -1.
</event>
<event>
 4    1  0.2048241E+005  0.2297164E+02  0.7546771E-02  0.1492855E+00
          2   -1    0    0  503    0  0.00000000000E+00  0.00000000000E+00  0.16655843559E+04  0.16655843559E+04  0.00000000000E+00 0.  1.
         21   -1    0    0  501  502 -0.00000000000E+00 -0.00000000000E+00 -0.51198196298E+01  0.51198196298E+01  0.00000000000E+00 0.  1.
          2    1    1    2  501    0 -0.83276677384E+01  0.21409022092E+02  0.16393250930E+04  0.16394860343E+04  0.00000000000E+00 0.  1.
         21    1    1    2  503  502  0.83276677384E+01 -0.21409022092E+02  0.21139443255E+02  0.31218141169E+02  0.00000000000E+00 0.  1.
</event>
<event>
 4    1  0.2427708E+005  0.2474641E+02  0.7546771E-02  0.1471660E+00
          2   -1    0    0  503    0  0.00000000000E+00  0.00000000000E+00  0.87861089053E+03  0.87861089053E+03  0.00000000000E+00 0.  1.
         21   -1    0    0  501  502 -0.00000000000E+00 -0.00000000000E+00 -0.19601092124E+03  0.19601092124E+03  0.00000000000E+00 0.  1.
          2    1    1    2  501    0  0.24024603356E+02 -0.59332191892E+01  0.87765473245E+03  0.87800353875E+03  0.00000000000E+00 0.  1.
         21    1    1    2  503  502 -0.24024603356E+02  0.59332191892E+01 -0.19505476316E+03  0.19661827302E+03  0.00000000000E+00 0.  1.
</event>
<event>
 4    1  0.2048241E+005  0.2290160E+02  0.7546771E-02  0.1493737E+00
          2   -1    0    0  503    0  0.00000000000E+00  0.00000000000E+00  0.81715859970E+03  0.81715859970E+03  0.00000000000E+00 0. -1.
         21   -1    0    0  501  502 -0.00000000000E+00 -0.00000000000E+00 -0.14690175380E+02  0.14690175380E+02  0.00000000000E+00 0.  1.
          2    1    1    2  501    0 -0.16409965868E+02 -0.15974868940E+02  0.80797091163E+03  0.80829541472E+03  0.00000000000E+00 0. -1.
         21    1    1    2  503  502  0.16409965868E+02  0.15974868940E+02 -0.55024873134E+01  0.23553360356E+02  0.00000000000E+00 0.  1.
</event>
<event>
 4    1  0.2048241E+005  0.4618754E+02  0.7546771E-02  0.1315606E+00
          2   -1    0    0  503    0  0.00000000000E+00  0.00000000000E+00  0.41712860193E+03  0.41712860193E+03  0.00000000000E+00 0.  1.
         21   -1    0    0  501  502 -0.00000000000E+00 -0.00000000000E+00 -0.64657350513E+01  0.64657350513E+01  0.00000000000E+00 0.  1.
          2    1    1    2  501    0 -0.35956082870E+02 -0.28990492695E+02  0.30216394762E+03  0.30567358375E+03  0.00000000000E+00 0.  1.
         21    1    1    2  503  502  0.35956082870E+02  0.28990492695E+02  0.10849891926E+03  0.11792075323E+03  0.00000000000E+00 0.  1.
</event>
<event>
 4    1  0.2048241E+005  0.2160714E+02  0.7546771E-02  0.1510770E+00
          2   -1    0    0  502    0  0.00000000000E+00  0.00000000000E+00  0.24772232609E+03  0.24772232609E+03  0.00000000000E+00 0.  1.
         21   -1    0    0  503  502 -0.00000000000E+00 -0.00000000000E+00 -0.87603096550E+02  0.87603096550E+02  0.00000000000E+00 0. -1.
          2    1    1    2  501    0  0.17221231971E+02 -0.13049822673E+02  0.24590901838E+03  0.24685646441E+03  0.00000000000E+00 0.  1.
         21    1    1    2  503  501 -0.17221231971E+02  0.13049822673E+02 -0.85789788834E+02  0.88468958232E+02  0.00000000000E+00 0. -1.
</event>
<event>
 4    1  0.2048241E+005  0.4295256E+02  0.7546771E-02  0.1332001E+00
          2   -1    0    0  502    0  0.00000000000E+00  0.00000000000E+00  0.23506801047E+03  0.23506801047E+03  0.00000000000E+00 0.  1.
         21   -1    0    0  503  502 -0.00000000000E+00 -0.00000000000E+00 -0.13854854784E+02  0.13854854784E+02  0.00000000000E+00 0.  1.
          2    1    1    2  501    0 -0.38947297272E+02  0.18111606175E+02  0.19255501721E+03  0.19728749808E+03  0.00000000000E+00 0.  1.
         21    1    1    2  503  501  0.38947297272E+02 -0.18111606175E+02  0.28658138476E+02  0.51635367181E+02  0.00000000000E+00 0.  1.
</event>
<event>
 4    1  0.2048241E+005  0.2167558E+02  0.7546771E-02  0.1509834E+00
          2   -1    0    0  503    0  0.00000000000E+00  0.00000000000E+00  0.94623341123E+01  0.94623341123E+01  0.00000000000E+00 0. -1.
         21   -1    0    0  501  502 -0.00000000000E+00 -0.00000000000E+00 -0.66852988806E+02  0.66852988806E+02  0.00000000000E+00 0. -1.
          2    1    1    2  501    0 -0.27339790771E+01 -0.21502469871E+02 -0.93405289431E+01  0.23602464555E+02  0.00000000000E+00 0. -1.
         21    1    1    2  503  502  0.27339790771E+01  0.21502469871E+02 -0.48050125750E+02  0.52712858363E+02  0.00000000000E+00 0. -1.
</event>
<event>
 4    1  0.2048241E+005  0.2326346E+02  0.7546771E-02  0.1489216E+00
          2   -1    0    0  503    0  0.00000000000E+00  0.00000000000E+00  0.85722448680E+03  0.85722448680E+03  0.00000000000E+00 0.  1.
         21   -1    0    0  501  502 -0.00000000000E+00 -0.00000000000E+00 -0.73570409330E+00  0.73570409330E+00  0.00000000000E+00 0.  1.
          2    1    1    2  501    0 -0.23026778046E+00  0.23262319399E+02  0.58982499041E+03  0.59028358255E+03  0.00000000000E+00 0.  1.
         21    1    1    2  503  502  0.23026778046E+00 -0.23262319399E+02  0.26666379230E+03  0.26767660834E+03  0.00000000000E+00 0.  1.
</event>
<event>
 4    1  0.2048241E+005  0.2637951E+02  0.7546771E-02  0.1453943E+00
          2   -1    0    0  503    0  0.00000000000E+00  0.00000000000E+00  0.27398840126E+02  0.27398840126E+02  0.00000000000E+00 0. -1.
         21   -1    0    0  501  502 -0.00000000000E+00 -0.00000000000E+00 -0.37340117388E+03  0.37340117388E+03  0.00000000000E+00 0.  1.
          2    1    1    2  501    0  0.21495517786E+02 -0.15291218028E+02  0.20463397352E+02  0.33386063932E+02  0.00000000000E+00 0. -1.
         21    1    1    2  503  502 -0.21495517786E+02  0.15291218028E+02 -0.36646573110E+03  0.36741395007E+03  0.00000000000E+00 0.  1.
</event>
<event>
 4    1  0.2048241E+005  0.2374170E+02  0.7546771E-02  0.1483389E+00
          2   -1    0    0  502    0  0.00000000000E+00  0.00000000000E+00  0.11926401154E+04  0.11926401154E+04  0.00000000000E+00 0. -1.
         21   -1    0    0  503  502 -0.00000000000E+00 -0.00000000000E+00 -0.63864358932E+00  0.63864358932E+00  0.00000000000E+00 0. -1.
          2    1    1    2  501    0 -0.18165387349E+02  0.15286821269E+02  0.90020454669E+03  0.90051757011E+03  0.00000000000E+00 0. -1.
         21    1    1    2  503  501  0.18165387349E+02 -0.15286821269E+02  0.29179692514E+03  0.29276118889E+03  0.00000000000E+00 0. -1.
</event>
<event>
 4    1  0.2048241E+005  0.2502858E+02  0.7546771E-02  0.1468484E+00
          2   -1    0    0  503    0  0.00000000000E+00  0.00000000000E+00  0.47304239284E+03  0.47304239284E+03  0.00000000000E+00 0.  1.
         21   -1    0    0  501  502 -0.00000000000E+00 -0.00000000000E+00 -0.72716363572E+01  0.72716363572E+01  0.00000000000E+00 0. -1.
          2    1    1    2  501    0 -0.19482728556E+02 -0.15711555815E+02  0.45007647616E+03  0.45077185370E+03  0.00000000000E+00 0.  1.
         21    1    1    2  503  502  0.19482728556E+02  0.15711555815E+02  0.15694280324E+02  0.29542175496E+02  0.00000000000E+00 0. -1.
</event>
<event>
 4    1  0.2048241E+005  0.2025902E+02  0.7546771E-02  0.1530112E+00
          2   -1    0    0  502    0  0.00000000000E+00  0.00000000000E+00  0.38399814953E+03  0.38399814953E+03  0.00000000000E+00 0.  1.
         21   -1    0    0  503  502 -0.00000000000E+00 -0.00000000000E+00 -0.13479399247E+02  0.13479399247E+02  0.00000000000E+00 0. -1.
          2    1    1    2  501    0 -0.56816374996E+01 -0.19446002317E+02  0.37595609512E+03  0.37650154511E+03  0.00000000000E+00 0.  1.
         21    1    1    2  503  501  0.56816374996E+01  0.19446002317E+02 -0.54373448417E+01  0.20976003664E+02  0.00000000000E+00 0. -1.
</event>
<event>
 4    1  0.2048241E+005  0.2185283E+02  0.7546771E-02  0.1507428E+00
          2   -1    0    0  502    0  0.00000000000E+00  0.00000000000E+00  0.64150450716E+03  0.64150450716E+03  0.00000000000E+00 0.  1.
         21   -1    0    0  503  502 -0.00000000000E+00 -0.00000000000E+00 -0.42939624576E+02  0.42939624576E+02  0.00000000000E+00 0.  1.
          2    1    1    2  501    0  0.21758419847E+02  0.20290853834E+01  0.63852509961E+03  0.63889893477E+03  0.00000000000E+00 0.  1.
         21    1    1    2  503  501 -0.21758419847E+02 -0.20290853834E+01 -0.39960217026E+02  0.45545196964E+02  0.00000000000E+00 0.  1.
</event>
<event>
 4    1  0.2048241E+005  0.7115693E+02  0.7546771E-02  0.1226014E+00
          2   -1    0    0  503    0  0.00000000000E+00  0.00000000000E+00  0.15428465773E+04  0.15428465773E+04  0.00000000000E+00 0.  1.
         21   -1    0    0  501  502 -0.00000000000E+00 -0.00000000000E+00 -0.33808963086E+01  0.33808963086E+01  0.00000000000E+00 0.  1.
          2    1    1    2  501    0 -0.48580873594E+00  0.71155274732E+02  0.90209473376E+03  0.90489679953E+03  0.00000000000E+00 0.  1.
         21    1    1    2  503  502  0.48580873594E+00 -0.71155274732E+02  0.63737094725E+03  0.64133067409E+03  0.00000000000E+00 0.  1.
</event>
<event>
 4    1  0.2048241E+005  0.2014934E+02  0.7546771E-02  0.1531765E+00
          2   -1    0    0  503    0  0.00000000000E+00  0.00000000000E+00  0.71212783137E+03  0.71212783137E+03  0.00000000000E+00 0.  1.
         21   -1    0    0  501  502 -0.00000000000E+00 -0.00000000000E+00 -0.66801665446E+01  0.66801665446E+01  0.00000000000E+00 0.  1.
          2    1    1    2  501    0 -0.99089284515E+00  0.20124959959E+02  0.69644924419E+03  0.69674065880E+03  0.00000000000E+00 0.  1.
         21    1    1    2  503  502  0.99089284515E+00 -0.20124959959E+02  0.89984206350E+01  0.22067339121E+02  0.00000000000E+00 0.  1.
</event>
<event>
 4    1  0.2048241E+005  0.2506200E+02  0.7546771E-02  0.1468111E+00
          2   -1    0    0  503    0  0.00000000000E+00  0.00000000000E+00  0.28015170308E+03  0.28015170308E+03  0.00000000000E+00 0. -1.
         21   -1    0    0  501  502 -0.00000000000E+00 -0.00000000000E+00 -0.22508585198E+01  0.22508585198E+01  0.00000000000E+00 0. -1.
          2    1    1    2  501    0 -0.21502899560E+02  0.12873587586E+02  0.14780177954E+03  0.14991154052E+03  0.00000000000E+00 0. -1.
         21    1    1    2  503  502  0.21502899560E+02 -0.12873587586E+02  0.13009906502E+03  0.13249102108E+03  0.00000000000E+00 0. -1.
</event>
<event>
 4    1  0.2048241E+005  0.3820445E+02  0.7546771E-02  0.1359341E+00
          2   -1    0    0  502    0  0.00000000000E+00  0.00000000000E+00  0.13517140882E+04  0.13517140882E+04  0.00000000000E+00 0.  1.
         21   -1    0    0  503  502 -0.00000000000E+00 -0.00000000000E+00 -0.23605751198E+02  0.23605751198E+02  0.00000000000E+00 0.  1.
          2    1    1    2  501    0  0.35178271409E+02  0.14901976980E+02  0.13358021612E+04  0.13363483803E+04  0.00000000000E+00 0.  1.
         21    1    1    2  503  501 -0.35178271409E+02 -0.14901976980E+02 -0.76938241461E+01  0.38971459136E+02  0.00000000000E+00 0.  1.
</event>
<event>
 4    1  0.2048241E+005  0.2946816E+02  0.7546771E-02  0.1424275E+00
          2   -1    0    0  502    0  0.00000000000E+00  0.00000000000E+00  0.15756039693E+03  0.15756039693E+03  0.00000000000E+00 0.  1.
         21   -1    0    0  503  502 -0.00000000000E+00 -0.00000000000E+00 -0.47473391952E+02  0.47473391952E+02  0.00000000000E+00 0.  1.
          2    1    1    2  501    0  0.29097635424E+02  0.46583022627E+01  0.15142608570E+03  0.15426675467E+03  0.00000000000E+00 0.  1.
         21    1    1    2  503  501 -0.29097635424E+02 -0.46583022627E+01 -0.41339080723E+02  0.50767034208E+02  0.00000000000E+00 0.  1.
</event>
<event>
 4    1  0.2048241E+005  0.2401254E+02  0.7546771E-02  0.1480161E+00
          2   -1    0    0  502    0  0.00000000000E+00  0.00000000000E+00  0.28475844635E+02  0.28475844635E+02  0.00000000000E+00 0. -1.
         21   -1    0    0  503  502 -0.00000000000E+00 -0.00000000000E+00 -0.20104123096E+03  0.20104123096E+03  0.00000000000E+00 0.  1.
          2    1    1    2  501    0 -0.13791790455E+02  0.19656766086E+02  0.22543277658E+02  0.32936321963E+02  0.00000000000E+00 0. -1.
         21    1    1    2  503  501  0.13791790455E+02 -0.19656766086E+02 -0.19510866398E+03  0.19658075363E+03  0.00000000000E+00 0.  1.
</event>
<event>
 4    1  0.2048241E+005  0.3834766E+02  0.7546771E-02  0.1358450E+00
          2   -1    0    0  502    0  0.00000000000E+00  0.00000000000E+00  0.21466734808E+03  0.21466734808E+03  0.00000000000E+00 0. -1.
         21   -1    0    0  503  502 -0.00000000000E+00 -0.00000000000E+00 -0.24832972038E+02  0.24832972038E+02  0.00000000000E+00 0. -1.
          2    1    1    2  501    0  0.14796244085E+02  0.35378158172E+02  0.19682053790E+03  0.20052148776E+03  0.00000000000E+00 0. -1.
         21    1    1    2  503  501 -0.14796244085E+02 -0.35378158172E+02 -0.69861618553E+01  0.38978832360E+02  0.00000000000E+00 0. -1.
</event>
<event>
 4    1  0.2048241E+005  0.2902641E+02  0.7546771E-02  0.1428250E+00
          2   -1    0    0  503    0  0.00000000000E+00  0.00000000000E+00  0.17567265892E+04  0.17567265892E+04  0.00000000000E+00 0.  1.
         21   -1    0    0  501  502 -0.00000000000E+00 -0.00000000000E+00 -0.63236966637E+00  0.63236966637E+00  0.00000000000E+00 0.  1.
          2    1    1    2  501    0 -0.23623814844E+02 -0.16865589623E+02  0.13099221831E+04  0.13102437401E+04  0.00000000000E+00 0.  1.
         21    1    1    2  503  502  0.23623814844E+02  0.16865589623E+02  0.44617203649E+03  0.44711521881E+03  0.00000000000E+00 0.  1.
</event>
<event>
 4    1  0.2048241E+005  0.3722047E+02  0.7546771E-02  0.1365591E+00
          2   -1    0    0  502    0  0.00000000000E+00  0.00000000000E+00  0.25948891417E+04  0.25948891417E+04  0.00000000000E+00 0.  1.
         21   -1    0    0  503  502 -0.00000000000E+00 -0.00000000000E+00 -0.10690499648E+01  0.10690499648E+01  0.00000000000E+00 0.  1.
          2    1    1    2  501    0  0.12446068033E+01 -0.37199657961E+02  0.22152720519E+04  0.22155847146E+04  0.00000000000E+00 0.  1.
         21    1    1    2  503  501 -0.12446068033E+01  0.37199657961E+02  0.37854803985E+03  0.38037347709E+03  0.00000000000E+00 0.  1.
</event>
<event>
 4    1  0.2048241E+005  0.2441697E+02  0.7546771E-02  0.1475433E+00
          2   -1    0    0  503    0  0.00000000000E+00  0.00000000000E+00  0.72005160625E+03  0.72005160625E+03  0.00000000000E+00 0. -1.
         21   -1    0    0  501  502 -0.00000000000E+00 -0.00000000000E+00 -0.83736066367E+00  0.83736066367E+00  0.00000000000E+00 0.  1.
          2    1    1    2  501    0  0.20447175496E+02 -0.13345467562E+02  0.39775704914E+03  0.39850578243E+03  0.00000000000E+00 0. -1.
         21    1    1    2  503  502 -0.20447175496E+02  0.13345467562E+02  0.32145719644E+03  0.32238318448E+03  0.00000000000E+00 0.  1.
</event>
<event>
 4    1  0.2048241E+005  0.2388163E+02  0.7546771E-02  0.1481715E+00
          2   -1    0    0  503    0  0.00000000000E+00  0.00000000000E+00  0.78298229982E+02  0.78298229982E+02  0.00000000000E+00 0.  1.
         21   -1    0    0  501  502 -0.00000000000E+00 -0.00000000000E+00 -0.75484406554E+01  0.75484406554E+01  0.00000000000E+00 0.  1.
          2    1    1    2  501    0 -0.16057817078E+02 -0.17677072113E+02  0.27342511848E+02  0.36303516661E+02  0.00000000000E+00 0.  1.
         21    1    1    2  503  502  0.16057817078E+02  0.17677072113E+02  0.43407277479E+02  0.49543153977E+02  0.00000000000E+00 0.  1.
</event>
<event>
 4    1  0.2048241E+005  0.2128911E+02  0.7546771E-02  0.1515177E+00
          2   -1    0    0  503    0  0.00000000000E+00  0.00000000000E+00  0.70501683538E+02  0.70501683538E+02  0.00000000000E+00 0.  1.
         21   -1    0    0  501  502 -0.00000000000E+00 -0.00000000000E+00 -0.17348005075E+02  0.17348005075E+02  0.00000000000E+00 0. -1.
          2    1    1    2  501    0 -0.19978998909E+01 -0.21195157637E+02  0.61425426596E+02  0.65010071094E+02  0.00000000000E+00 0.  1.
         21    1    1    2  503  502  0.19978998909E+01  0.21195157637E+02 -0.82717481324E+01  0.22839617518E+02  0.00000000000E+00 0. -1.
</event>
<event>
 4    1  0.2048241E+005  0.2925189E+02  0.7546771E-02  0.1426211E+00
          2   -1    0    0  502    0  0.00000000000E+00  0.00000000000E+00  0.10302446592E+04  0.10302446592E+04  0.00000000000E+00 0. -1.
         21   -1    0    0  503  502 -0.00000000000E+00 -0.00000000000E+00 -0.11797059466E+01  0.11797059466E+01  0.00000000000E+00 0. -1.
          2    1    1    2  501    0  0.12583824891E+02  0.26406825092E+02  0.79509405788E+03  0.79563197142E+03  0.00000000000E+00 0. -1.
         21    1    1    2  503  501 -0.12583824891E+02 -0.26406825092E+02  0.23397089540E+03  0.23579239376E+03  0.00000000000E+00 0. -1.
</event>
<event>
 4    1  0.2048241E+005  0.2036812E+02  0.7546771E-02  0.1528481E+00
          2   -1    0    0  503    0  0.00000000000E+00  0.00000000000E+00  0.17566061641E+02  0.17566061641E+02  0.00000000000E+00 0. -1.
         21   -1    0    0  501  502 -0.00000000000E+00 -0.00000000000E+00 -0.24325409733E+02  0.24325409733E+02  0.00000000000E+00 0. -1.
          2    1    1    2  501    0 -0.19105059149E+02 -0.70609473684E+01  0.19439289868E+00  0.20369046404E+02  0.00000000000E+00 0. -1.
         21    1    1    2  503  502  0.19105059149E+02  0.70609473684E+01 -0.69537409904E+01  0.21522424970E+02  0.00000000000E+00 0. -1.
</event>
<event>
 4    1  0.2048241E+005  0.2509458E+02  0.7546771E-02  0.1467748E+00
          2   -1    0    0  503    0  0.00000000000E+00  0.00000000000E+00  0.58586422899E+02  0.58586422899E+02  0.00000000000E+00 0. -1.
         21   -1    0    0  501  502 -0.00000000000E+00 -0.00000000000E+00 -0.37121295099E+02  0.37121295099E+02  0.00000000000E+00 0. -1.
          2    1    1    2  501    0  0.24925908554E+02 -0.29046550790E+01  0.51067412048E+02  0.56900074795E+02  0.00000000000E+00 0. -1.
         21    1    1    2  503  502 -0.24925908554E+02  0.29046550790E+01 -0.29602284248E+02  0.38807643204E+02  0.00000000000E+00 0. -1.
</event>
<event>
 4    1  0.2048241E+005  0.5278403E+02  0.7546771E-02  0.1286533E+00
          2   -1    0    0  503    0  0.00000000000E+00  0.00000000000E+00  0.12732142248E+04  0.12732142248E+04  0.00000000000E+00 0.  1.
         21   -1    0    0  501  502 -0.00000000000E+00 -0.00000000000E+00 -0.28371853528E+02  0.28371853528E+02  0.00000000000E+00 0. -1.
          2    1    1    2  501    0  0.51526389338E+02 -0.11453591042E+02  0.12476132772E+04  0.12487293714E+04  0.00000000000E+00 0.  1.
         21    1    1    2  503  502 -0.51526389338E+02  0.11453591042E+02 -0.27709059462E+01  0.52856706913E+02  0.00000000000E+00 0. -1.
</event>
<event>
 4    1  0.2048241E+005  0.2100504E+02  0.7546771E-02  0.1519193E+00
          2   -1    0    0  502    0  0.00000000000E+00  0.00000000000E+00  0.12711696048E+03  0.12711696048E+03  0.00000000000E+00 0.  1.
         21   -1    0    0  503  502 -0.00000000000E+00 -0.00000000000E+00 -0.78309063056E+01  0.78309063056E+01  0.00000000000E+00 0.  1.
          2    1    1    2  501    0  0.62118378762E+00  0.20995855625E+02  0.10998995315E+03  0.11197768357E+03  0.00000000000E+00 0.  1.
         21    1    1    2  503  501 -0.62118378762E+00 -0.20995855625E+02  0.92961010178E+01  0.22970183214E+02  0.00000000000E+00 0.  1.
</event>
<event>
 4    1  0.2048241E+005  0.2831324E+02  0.7546771E-02  0.1434844E+00
          2   -1    0    0  502    0  0.00000000000E+00  0.00000000000E+00  0.12268759488E+03  0.12268759488E+03  0.00000000000E+00 0.  1.
         21   -1    0    0  503  502 -0.00000000000E+00 -0.00000000000E+00 -0.63928438861E+02  0.63928438861E+02  0.00000000000E+00 0. -1.
          2    1    1    2  501    0  0.21067595932E+02  0.18915490853E+02  0.11779069113E+03  0.12114572344E+03  0.00000000000E+00 0.  1.
         21    1    1    2  503  501 -0.21067595932E+02 -0.18915490853E+02 -0.59031535111E+02  0.65470310295E+02  0.00000000000E+00 0. -1.
</event>
<event>
 4    1  0.2048241E+005  0.3568329E+02  0.7546771E-02  0.1375822E+00
          2   -1    0    0  503    0  0.00000000000E+00  0.00000000000E+00  0.33475567692E+02  0.33475567692E+02  0.00000000000E+00 0. -1.
         21   -1    0    0  501  502 -0.00000000000E+00 -0.00000000000E+00 -0.51282885091E+02  0.51282885091E+02  0.00000000000E+00 0. -1.
          2    1    1    2  501    0 -0.33241270096E+02  0.12973635958E+02  0.12634749766E+02  0.37854116939E+02  0.00000000000E+00 0. -1.
         21    1    1    2  503  502  0.33241270096E+02 -0.12973635958E+02 -0.30442067166E+02  0.46904335843E+02  0.00000000000E+00 0. -1.
</event>
<event>
 4    1  0.2048241E+005  0.2415019E+02  0.7546771E-02  0.1478539E+00
          2   -1    0    0  502    0  0.00000000000E+00  0.00000000000E+00  0.19892982349E+04  0.19892982349E+04  0.00000000000E+00 0. -1.
         21   -1    0    0  503  502 -0.00000000000E+00 -0.00000000000E+00 -0.30530324054E+00  0.30530324054E+00  0.00000000000E+00 0. -1.
          2    1    1    2  501    0 -0.15626048323E+02 -0.18413535868E+02  0.11926934559E+04  0.11929379327E+04  0.00000000000E+00 0. -1.
         21    1    1    2  503  501  0.15626048323E+02  0.18413535868E+02  0.79629947584E+03  0.79666560546E+03  0.00000000000E+00 0. -1.
</event>
<event>
 4    1  0.2048241E+005  0.2231196E+02  0.7546771E-02  0.1501323E+00
          2   -1    0    0  503    0  0.00000000000E+00  0.00000000000E+00  0.10921173341E+04  0.10921173341E+04  0.00000000000E+00 0. -1.
         21   -1    0    0  501  502 -0.00000000000E+00 -0.00000000000E+00 -0.49399510760E+00  0.49399510760E+00  0.00000000000E+00 0. -1.
          2    1    1    2  501    0  0.17925120664E+02  0.13285844263E+02  0.39397103360E+03  0.39460233010E+03  0.00000000000E+00 0. -1.
         21    1    1    2  503  502 -0.17925120664E+02 -0.13285844263E+02  0.69765230538E+03  0.69800899909E+03  0.00000000000E+00 0. -1.
</event>
<event>
 4    1  0.2048241E+005  0.2834681E+02  0.7546771E-02  0.1434529E+00
          2   -1    0    0  503    0  0.00000000000E+00  0.00000000000E+00  0.40174654542E+03  0.40174654542E+03  0.00000000000E+00 0. -1.
         21   -1    0    0  501  502 -0.00000000000E+00 -0.00000000000E+00 -0.15526955952E+02  0.15526955952E+02  0.00000000000E+00 0.  1.
          2    1    1    2  501    0  0.96132166935E+00  0.28330506330E+02  0.38784557022E+03  0.38888009472E+03  0.00000000000E+00 0. -1.
         21    1    1    2  503  502 -0.96132166935E+00 -0.28330506330E+02 -0.16259807487E+01  0.28393406658E+02  0.00000000000E+00 0.  1.
</event>
<event>
 4    1  0.2048241E+005  0.2129156E+02  0.7546771E-02  0.1515143E+00
          2   -1    0    0  503    0  0.00000000000E+00  0.00000000000E+00  0.19989097359E+03  0.19989097359E+03  0.00000000000E+00 0. -1.
         21   -1    0    0  501  502 -0.00000000000E+00 -0.00000000000E+00 -0.40348490423E+01  0.40348490423E+01  0.00000000000E+00 0. -1.
          2    1    1    2  501    0  0.12495930241E+02  0.17238975953E+02  0.16540291280E+03  0.16676766511E+03  0.00000000000E+00 0. -1.
         21    1    1    2  503  502 -0.12495930241E+02 -0.17238975953E+02  0.30453211749E+02  0.37158157520E+02  0.00000000000E+00 0. -1.
</event>
<event>
 4    1  0.2048241E+005  0.2143330E+02  0.7546771E-02  0.1513167E+00
          2   -1    0    0  502    0  0.00000000000E+00  0.00000000000E+00  0.12423365193E+03  0.12423365193E+03  0.00000000000E+00 0.  1.
         21   -1    0    0  503  502 -0.00000000000E+00 -0.00000000000E+00 -0.11596506495E+02  0.11596506495E+02  0.00000000000E+00 0.  1.
          2    1    1    2  501    0  0.20702976833E+02  0.55473577996E+01  0.11236935360E+03  0.11439518372E+03  0.00000000000E+00 0.  1.
         21    1    1    2  503  501 -0.20702976833E+02 -0.55473577996E+01  0.26779183262E+00  0.21434974709E+02  0.00000000000E+00 0.  1.
</event>
<event>
 4    1  0.2048241E+005  0.3805109E+02  0.7546771E-02  0.1360301E+00
          2   -1    0    0  503    0  0.00000000000E+00  0.00000000000E+00  0.11869031677E+03  0.11869031677E+03  0.00000000000E+00 0.  1.
         21   -1    0    0  501  502 -0.00000000000E+00 -0.00000000000E+00 -0.13138752769E+02  0.13138752769E+02  0.00000000000E+00 0. -1.
          2    1    1    2  501    0 -0.73704244133E+01  0.37330445558E+02  0.35146051188E+02  0.51798940488E+02  0.00000000000E+00 0.  1.
         21    1    1    2  503  502  0.73704244133E+01 -0.37330445558E+02  0.70405512817E+02  0.80030129055E+02  0.00000000000E+00 0. -1.
</event>
<event>
 4    1  0.2048241E+005  0.2004959E+02  0.7546771E-02  0.1533279E+00
          2   -1    0    0  502    0  0.00000000000E+00  0.00000000000E+00  0.27187536712E+02  0.27187536712E+02  0.00000000000E+00 0.  1.
         21   -1    0    0  503  502 -0.00000000000E+00 -0.00000000000E+00 -0.48842304545E+02  0.48842304545E+02  0.00000000000E+00 0. -1.
          2    1    1    2  501    0  0.39278702935E+01  0.19661077969E+02  0.20916263789E+02  0.28973716414E+02  0.00000000000E+00 0.  1.
         21    1    1    2  503  501 -0.39278702935E+01 -0.19661077969E+02 -0.42571031622E+02  0.47056124843E+02  0.00000000000E+00 0. -1.
</event>
<event>
 4    1  0.2048241E+005  0.3387342E+02  0.7546771E-02  0.1388661E+00
          2   -1    0    0  503    0  0.00000000000E+00  0.00000000000E+00  0.11440967066E+03  0.11440967066E+03  0.00000000000E+00 0. -1.
         21   -1    0    0  501  502 -0.00000000000E+00 -0.00000000000E+00 -0.13408467500E+04  0.13408467500E+04  0.00000000000E+00 0.  1.
          2    1    1    2  501    0  0.33356285232E+02  0.58963353702E+01  0.11168339291E+03  0.11670727821E+03  0.00000000000E+00 0. -1.
         21    1    1    2  503  502 -0.33356285232E+02 -0.58963353702E+01 -0.13381204722E+04  0.13385491424E+04  0.00000000000E+00 0.  1.
</event>
<event>
 4    1  0.2048241E+005  0.2314759E+02  0.7546771E-02  0.1490653E+00
          2   -1    0    0  503    0  0.00000000000E+00  0.00000000000E+00  0.93217322339E+03  0.93217322339E+03  0.00000000000E+00 0. -1.
         21   -1    0    0  501  502 -0.00000000000E+00 -0.00000000000E+00 -0.22104960500E+02  0.22104960500E+02  0.00000000000E+00 0. -1.
          2    1    1    2  501    0 -0.21203782104E+02 -0.92849581796E+01  0.92592881491E+03  0.92621810666E+03  0.00000000000E+00 0. -1.
         21    1    1    2  503  502  0.21203782104E+02  0.92849581796E+01 -0.15860552019E+02  0.28060077232E+02  0.00000000000E+00 0. -1.
</event>
<event>
 4    1  0.2048241E+005  0.3975373E+02  0.7546771E-02  0.1349935E+00
          2   -1    0    0  503    0  0.00000000000E+00  0.00000000000E+00  0.13715450155E+04  0.13715450155E+04  0.00000000000E+00 0. -1.
         21   -1    0    0  501  502 -0.00000000000E+00 -0.00000000000E+00 -0.11537774295E+01  0.11537774295E+01  0.00000000000E+00 0. -1.
          2    1    1    2  501    0  0.14098161785E+02  0.37169893314E+02  0.71018978439E+03  0.71130154575E+03  0.00000000000E+00 0. -1.
         21    1    1    2  503  502 -0.14098161785E+02 -0.37169893314E+02  0.66020145371E+03  0.66139724720E+03  0.00000000000E+00 0. -1.
</event>
<event>
 4    1  0.2048241E+005  0.2558079E+02  0.7546771E-02  0.1462410E+00
          2   -1    0    0  502    0  0.00000000000E+00  0.00000000000E+00  0.84534731637E+03  0.84534731637E+03  0.00000000000E+00 0.  1.
         21   -1    0    0  503  502 -0.00000000000E+00 -0.00000000000E+00 -0.14183230704E+01  0.14183230704E+01  0.00000000000E+00 0. -1.
          2    1    1    2  501    0  0.24813711480E+02 -0.62174376839E+01  0.70730695286E+03  0.70776938502E+03  0.00000000000E+00 0.  1.
         21    1    1    2  503  501 -0.24813711480E+02  0.62174376839E+01  0.13662204044E+03  0.13899625442E+03  0.00000000000E+00 0. -1.
</event>
<event>
 4    1  0.2048241E+005  0.4854736E+02  0.7546771E-02  0.1304596E+00
          2   -1    0    0  502    0  0.00000000000E+00  0.00000000000E+00  0.24454472411E+04  0.24454472411E+04  0.00000000000E+00 0.  1.
         21   -1    0    0  503  502 -0.00000000000E+00 -0.00000000000E+00 -0.12922879059E+01  0.12922879059E+01  0.00000000000E+00 0.  1.
          2    1    1    2  501    0 -0.45874189024E+02 -0.15887250148E+02  0.18388973665E+04  0.18395380862E+04  0.00000000000E+00 0.  1.
         21    1    1    2  503  501  0.45874189024E+02  0.15887250148E+02  0.60525758674E+03  0.60720144289E+03  0.00000000000E+00 0.  1.
</event>
<event>
 4    1  0.2048241E+005  0.2147193E+02  0.7546771E-02  0.1512632E+00
          2   -1    0    0  503    0  0.00000000000E+00  0.00000000000E+00  0.66179656769E+03  0.66179656769E+03  0.00000000000E+00 0. -1.
         21   -1    0    0  501  502 -0.00000000000E+00 -0.00000000000E+00 -0.98989477477E+01  0.98989477477E+01  0.00000000000E+00 0. -1.
          2    1    1    2  501    0  0.77171363806E+01  0.20037203755E+02  0.64976306648E+03  0.65011774802E+03  0.00000000000E+00 0. -1.
         21    1    1    2  503  502 -0.77171363806E+01 -0.20037203755E+02  0.21345534616E+01  0.21577767418E+02  0.00000000000E+00 0. -1.
</event>
<event>
 4    1  0.2048241E+005  0.2675234E+02  0.7546771E-02  0.1450112E+00
          2   -1    0    0  503    0  0.00000000000E+00  0.00000000000E+00  0.20985624560E+02  0.20985624560E+02  0.00000000000E+00 0.  1.
         21   -1    0    0  501  502 -0.00000000000E+00 -0.00000000000E+00 -0.16622733843E+04  0.16622733843E+04  0.00000000000E+00 0.  1.
          2    1    1    2  501    0 -0.72350476053E+01 -0.25755426070E+02  0.12307314983E+02  0.29447544685E+02  0.00000000000E+00 0.  1.
         21    1    1    2  503  502  0.72350476053E+01  0.25755426070E+02 -0.16535950747E+04  0.16538114642E+04  0.00000000000E+00 0.  1.
</event>
<event>
 4    1  0.2048241E+005  0.2135252E+02  0.7546771E-02  0.1514291E+00
          2   -1    0    0  502    0  0.00000000000E+00  0.00000000000E+00  0.13064772799E+04  0.13064772799E+04  0.00000000000E+00 0. -1.
         21   -1    0    0  503  502 -0.00000000000E+00 -0.00000000000E+00 -0.96311032769E+01  0.96311032769E+01  0.00000000000E+00 0. -1.
          2    1    1    2  501    0  0.16291640633E+02  0.13802633078E+02  0.12944451972E+04  0.12946212955E+04  0.00000000000E+00 0. -1.
         21    1    1    2  503  501 -0.16291640633E+02 -0.13802633078E+02  0.24009794284E+01  0.21487087672E+02  0.00000000000E+00 0. -1.
</event>
<event>
 4    1  0.2048241E+005  0.2413512E+02  0.7546771E-02  0.1478716E+00
          2   -1    0    0  503    0  0.00000000000E+00  0.00000000000E+00  0.29897381326E+03  0.29897381326E+03  0.00000000000E+00 0.  1.
         21   -1    0    0  501  502 -0.00000000000E+00 -0.00000000000E+00 -0.24685895217E+01  0.24685895217E+01  0.00000000000E+00 0. -1.
          2    1    1    2  501    0 -0.11595614554E+02  0.21167092078E+02  0.21744427386E+03  0.21877960668E+03  0.00000000000E+00 0.  1.
         21    1    1    2  503  502  0.11595614554E+02 -0.21167092078E+02  0.79060949875E+02  0.82662796100E+02  0.00000000000E+00 0. -1.
</event>
<event>
 4    1  0.2048241E+005  0.3116385E+02  0.7546771E-02  0.1409745E+00
          2   -1    0    0  503    0  0.00000000000E+00  0.00000000000E+00  0.83149883258E+01  0.83149883258E+01  0.00000000000E+00 0. -1.
         21   -1    0    0  501  502 -0.00000000000E+00 -0.00000000000E+00 -0.12989626485E+03  0.12989626485E+03  0.00000000000E+00 0.  1.
          2    1    1    2  501    0 -0.20061667754E+02 -0.23847744226E+02 -0.38847476306E+02  0.49802729173E+02  0.00000000000E+00 0. -1.
         21    1    1    2  503  502  0.20061667754E+02  0.23847744226E+02 -0.82733800222E+02  0.88408524006E+02  0.00000000000E+00 0.  1.
</event>
<event>
 4    1  0.2048241E+005  0.2925069E+02  0.7546771E-02  0.1426222E+00
          2   -1    0    0  503    0  0.00000000000E+00  0.00000000000E+00  0.79573779165E+03  0.79573779165E+03  0.00000000000E+00 0.  1.
         21   -1    0    0  501  502 -0.00000000000E+00 -0.00000000000E+00 -0.13753989490E+01  0.13753989490E+01  0.00000000000E+00 0.  1.
          2    1    1    2  501    0 -0.91272816361E+00  0.29236443610E+02  0.58337152499E+03  0.58410439040E+03  0.00000000000E+00 0.  1.
         21    1    1    2  503  502  0.91272816361E+00 -0.29236443610E+02  0.21099086771E+03  0.21300880021E+03  0.00000000000E+00 0.  1.
</event>
<event>
 4    1  0.2048241E+005  0.2822210E+02  0.7546771E-02  0.1435704E+00
          2   -1    0    0  502    0  0.00000000000E+00  0.00000000000E+00  0.25712601268E+04  0.25712601268E+04  0.00000000000E+00 0. -1.
         21   -1    0    0  503  502 -0.00000000000E+00 -0.00000000000E+00 -0.49824119151E+00  0.49824119151E+00  0.00000000000E+00 0.  1.
          2    1    1    2  501    0 -0.52836846476E+01 -0.27723088851E+02  0.20762568353E+04  0.20764486348E+04  0.00000000000E+00 0. -1.
         21    1    1    2  503  501  0.52836846476E+01  0.27723088851E+02  0.49450505035E+03  0.49530973319E+03  0.00000000000E+00 0.  1.
</event>
<event>
 4    1  0.2048241E+005  0.3295931E+02  0.7546771E-02  0.1395507E+00
          2   -1    0    0  502    0  0.00000000000E+00  0.00000000000E+00  0.11898529315E+03  0.11898529315E+03  0.00000000000E+00 0.  1.
         21   -1    0    0  503  502 -0.00000000000E+00 -0.00000000000E+00 -0.92213108646E+01  0.92213108646E+01  0.00000000000E+00 0. -1.
          2    1    1    2  501    0 -0.15828676769E+02  0.28909670240E+02  0.61266659931E+02  0.69569531124E+02  0.00000000000E+00 0.  1.
         21    1    1    2  503  501  0.15828676769E+02 -0.28909670240E+02  0.48497322351E+02  0.58637072888E+02  0.00000000000E+00 0. -1.
</event>
<event>
 4    1  0.2048241E+005  0.2658223E+02  0.7546771E-02  0.1451850E+00
          2   -1    0    0  503    0  0.00000000000E+00  0.00000000000E+00  0.27271854147E+03  0.27271854147E+03  0.00000000000E+00 0. -1.
         21   -1    0    0  501  502 -0.00000000000E+00 -0.00000000000E+00 -0.61804686335E+01  0.61804686335E+01  0.00000000000E+00 0.  1.
          2    1    1    2  501    0  0.15232716855E+01 -0.26538545652E+02  0.23954159304E+03  0.24101201124E+03  0.00000000000E+00 0. -1.
         21    1    1    2  503  502 -0.15232716855E+01  0.26538545652E+02  0.26996479790E+02  0.37886998865E+02  0.00000000000E+00 0.  1.
</event>
<event>
 4    1  0.2048241E+005  0.5147211E+02  0.7546771E-02  0.1291913E+00
          2   -1    0    0  503    0  0.00000000000E+00  0.00000000000E+00  0.12671945814E+04  0.12671945814E+04  0.00000000000E+00 0. -1.
         21   -1    0    0  501  502 -0.00000000000E+00 -0.00000000000E+00 -0.29510149739E+02  0.29510149739E+02  0.00000000000E+00 0. -1.
          2    1    1    2  501    0 -0.29807743382E+01  0.51385724025E+02  0.12438053845E+04  0.12448699579E+04  0.00000000000E+00 0. -1.
         21    1    1    2  503  502  0.29807743382E+01 -0.51385724025E+02 -0.61209528435E+01  0.51834773203E+02  0.00000000000E+00 0. -1.
</event>
<event>
 4    1  0.2048241E+005  0.9188212E+02  0.7546771E-02  0.1178670E+00
          2   -1    0    0  503    0  0.00000000000E+00  0.00000000000E+00  0.29221867665E+04  0.29221867665E+04  0.00000000000E+00 0.  1.
         21   -1    0    0  501  502 -0.00000000000E+00 -0.00000000000E+00 -0.42809281793E+01  0.42809281793E+01  0.00000000000E+00 0. -1.
          2    1    1    2  501    0 -0.58794982150E+02  0.70607891009E+02  0.22932993662E+04  0.22951392784E+04  0.00000000000E+00 0.  1.
         21    1    1    2  503  502  0.58794982150E+02 -0.70607891009E+02  0.62460647215E+03  0.63132841632E+03  0.00000000000E+00 0. -1.
</event>
<event>
 4    1  0.2048241E+005  0.2319894E+02  0.7546771E-02  0.1490015E+00
          2   -1    0    0  503    0  0.00000000000E+00  0.00000000000E+00  0.13003544214E+04  0.13003544214E+04  0.00000000000E+00 0. -1.
         21   -1    0    0  501  502 -0.00000000000E+00 -0.00000000000E+00 -0.44840497666E+00  0.44840497666E+00  0.00000000000E+00 0.  1.
          2    1    1    2  501    0 -0.13116125337E+02 -0.19135251318E+02  0.83042651197E+03  0.83075049345E+03  0.00000000000E+00 0. -1.
         21    1    1    2  503  502  0.13116125337E+02  0.19135251318E+02  0.46947950449E+03  0.47005233296E+03  0.00000000000E+00 0.  1.
</event>
<event>
 4    1  0.2048241E+005  0.3482733E+02  0.7546771E-02  0.1381781E+00
          2   -1    0    0  503    0  0.00000000000E+00  0.00000000000E+00  0.40934687527E+03  0.40934687527E+03  0.00000000000E+00 0. -1.
         21   -1    0    0  501  502 -0.00000000000E+00 -0.00000000000E+00 -0.34028778668E+01  0.34028778668E+01  0.00000000000E+00 0. -1.
          2    1    1    2  501    0  0.29343444448E+02  0.18759134341E+02  0.27716137712E+03  0.27934095980E+03  0.00000000000E+00 0. -1.
         21    1    1    2  503  502 -0.29343444448E+02 -0.18759134341E+02  0.12878262028E+03  0.13340879333E+03  0.00000000000E+00 0. -1.
</event>
<event>
 4    1  0.2048241E+005  0.2067887E+02  0.7546771E-02  0.1523899E+00
          2   -1    0    0  503    0  0.00000000000E+00  0.00000000000E+00  0.11494599231E+04  0.11494599231E+04  0.00000000000E+00 0. -1.
         21   -1    0    0  501  502 -0.00000000000E+00 -0.00000000000E+00 -0.10132967811E+01  0.10132967811E+01  0.00000000000E+00 0. -1.
          2    1    1    2  501    0 -0.20674994668E+02  0.40053476291E+00  0.10318409827E+04  0.10320481720E+04  0.00000000000E+00 0. -1.
         21    1    1    2  503  502  0.20674994668E+02 -0.40053476291E+00  0.11660564370E+03  0.11842504793E+03  0.00000000000E+00 0. -1.
</event>
<event>
 4    1  0.2048241E+005  0.2405750E+02  0.7546771E-02  0.1479629E+00
          2   -1    0    0  502    0  0.00000000000E+00  0.00000000000E+00  0.50168874789E+03  0.50168874789E+03  0.00000000000E+00 0. -1.
         21   -1    0    0  503  502 -0.00000000000E+00 -0.00000000000E+00 -0.15074339329E+03  0.15074339329E+03  0.00000000000E+00 0. -1.
          2    1    1    2  501    0  0.12034908208E+02 -0.20830854028E+02  0.50043809399E+03  0.50101601712E+03  0.00000000000E+00 0. -1.
         21    1    1    2  503  501 -0.12034908208E+02  0.20830854028E+02 -0.14949273939E+03  0.15141612406E+03  0.00000000000E+00 0. -1.
</event>
<event>
 4    1  0.2048241E+005  0.4789782E+02  0.7546771E-02  0.1307553E+00
          2   -1    0    0  502    0  0.00000000000E+00  0.00000000000E+00  0.41405850992E+02  0.41405850992E+02  0.00000000000E+00 0. -1.
         21   -1    0    0  503  502 -0.00000000000E+00 -0.00000000000E+00 -0.15609228306E+03  0.15609228306E+03  0.00000000000E+00 0. -1.
          2    1    1    2  501    0  0.47806413335E+02 -0.29577231750E+01  0.21966037197E+02  0.52694478577E+02  0.00000000000E+00 0. -1.
         21    1    1    2  503  501 -0.47806413335E+02  0.29577231750E+01 -0.13665246927E+03  0.14480365548E+03  0.00000000000E+00 0. -1.
</event>
<event>
 4    1  0.2048241E+005  0.2778656E+02  0.7546771E-02  0.1439863E+00
          2   -1    0    0  502    0  0.00000000000E+00  0.00000000000E+00  0.16052219053E+03  0.16052219053E+03  0.00000000000E+00 0. -1.
         21   -1    0    0  503  502 -0.00000000000E+00 -0.00000000000E+00 -0.67718953998E+02  0.67718953998E+02  0.00000000000E+00 0.  1.
          2    1    1    2  501    0 -0.24925178333E+02 -0.12281224769E+02  0.15639472156E+03  0.15884395465E+03  0.00000000000E+00 0. -1.
         21    1    1    2  503  501  0.24925178333E+02  0.12281224769E+02 -0.63591485022E+02  0.69397189886E+02  0.00000000000E+00 0.  1.
</event>
<event>
 4    1  0.2048241E+005  0.2653935E+02  0.7546771E-02  0.1452291E+00
          2   -1    0    0  503    0  0.00000000000E+00  0.00000000000E+00  0.93923539919E+02  0.93923539919E+02  0.00000000000E+00 0. -1.
         21   -1    0    0  501  502 -0.00000000000E+00 -0.00000000000E+00 -0.22483911824E+02  0.22483911824E+02  0.00000000000E+00 0.  1.
          2    1    1    2  501    0  0.26529493291E+02  0.72339167507E+00  0.83235961689E+02  0.87364538733E+02  0.00000000000E+00 0. -1.
         21    1    1    2  503  502 -0.26529493291E+02 -0.72339167507E+00 -0.11796333594E+02  0.29042913009E+02  0.00000000000E+00 0.  1.
</event>
<event>
 4    1  0.2048241E+005  0.2110985E+02  0.7546771E-02  0.1517702E+00
          2   -1    0    0  502    0  0.00000000000E+00  0.00000000000E+00  0.33565919016E+02  0.33565919016E+02  0.00000000000E+00 0.  1.
         21   -1    0    0  503  502 -0.00000000000E+00 -0.00000000000E+00 -0.19660338570E+02  0.19660338570E+02  0.00000000000E+00 0.  1.
          2    1    1    2  501    0  0.13028171628E+02  0.16610010529E+02  0.22118186703E+02  0.30575151492E+02  0.00000000000E+00 0.  1.
         21    1    1    2  503  501 -0.13028171628E+02 -0.16610010529E+02 -0.82126062565E+01  0.22651106094E+02  0.00000000000E+00 0.  1.
</event>
<event>
 4    1  0.2048241E+005  0.2155508E+02  0.7546771E-02  0.1511485E+00
          2   -1    0    0  502    0  0.00000000000E+00  0.00000000000E+00  0.42246976200E+02  0.42246976200E+02  0.00000000000E+00 0. -1.
         21   -1    0    0  503  502 -0.00000000000E+00 -0.00000000000E+00 -0.15872116214E+02  0.15872116214E+02  0.00000000000E+00 0. -1.
          2    1    1    2  501    0  0.21051966992E+02  0.46299298151E+01  0.29291313223E+02  0.36367603642E+02  0.00000000000E+00 0. -1.
         21    1    1    2  503  501 -0.21051966992E+02 -0.46299298151E+01 -0.29164532370E+01  0.21751488772E+02  0.00000000000E+00 0. -1.
</event>
<event>
 4    1  0.2048241E+005  0.3114074E+02  0.7546771E-02  0.1409936E+00
          2   -1    0    0  503    0  0.00000000000E+00  0.00000000000E+00  0.14529708591E+04  0.14529708591E+04  0.00000000000E+00 0. -1.
         21   -1    0    0  501  502 -0.00000000000E+00 -0.00000000000E+00 -0.48591906526E+01  0.48591906526E+01  0.00000000000E+00 0. -1.
          2    1    1    2  501    0 -0.30987043348E+02 -0.30901622434E+01  0.14010634299E+04  0.14014094621E+04  0.00000000000E+00 0. -1.
         21    1    1    2  503  502  0.30987043348E+02  0.30901622434E+01  0.47048238625E+02  0.56420587695E+02  0.00000000000E+00 0. -1.
</event>
<event>
 4    1  0.2048241E+005  0.3099730E+02  0.7546771E-02  0.1411123E+00
          2   -1    0    0  503    0  0.00000000000E+00  0.00000000000E+00  0.41152905543E+03  0.41152905543E+03  0.00000000000E+00 0.  1.
         21   -1    0    0  501  502 -0.00000000000E+00 -0.00000000000E+00 -0.15149356724E+02  0.15149356724E+02  0.00000000000E+00 0.  1.
          2    1    1    2  501    0 -0.21061714299E+02 -0.22742841139E+02  0.39440186312E+03  0.39561807626E+03  0.00000000000E+00 0.  1.
         21    1    1    2  503  502  0.21061714299E+02  0.22742841139E+02  0.19778355872E+01  0.31060335894E+02  0.00000000000E+00 0.  1.
</event>
<event>
 4    1  0.2048241E+005  0.2299079E+02  0.7546771E-02  0.1492614E+00
          2   -1    0    0  503    0  0.00000000000E+00  0.00000000000E+00  0.13132128964E+03  0.13132128964E+03  0.00000000000E+00 0.  1.
         21   -1    0    0  501  502 -0.00000000000E+00 -0.00000000000E+00 -0.17107933917E+02  0.17107933917E+02  0.00000000000E+00 0.  1.
          2    1    1    2  501    0  0.14628445971E+02  0.17736546892E+02  0.12200629850E+03  0.12415358795E+03  0.00000000000E+00 0.  1.
         21    1    1    2  503  502 -0.14628445971E+02 -0.17736546892E+02 -0.77929427748E+01  0.24275635610E+02  0.00000000000E+00 0.  1.
</event>
<event>
 4    1  0.2048241E+005  0.2002328E+02  0.7546771E-02  0.1533680E+00
          2   -1    0    0  503    0  0.00000000000E+00  0.00000000000E+00  0.10877393586E+04  0.10877393586E+04  0.00000000000E+00 0.  1.
         21   -1    0    0  501  502 -0.00000000000E+00 -0.00000000000E+00 -0.38215115068E+00  0.38215115068E+00  0.00000000000E+00 0.  1.
          2    1    1    2  501    0  0.11042922500E+02  0.16702862618E+02  0.64616117501E+03  0.64647134186E+03  0.00000000000E+00 0.  1.
         21    1    1    2  503  502 -0.11042922500E+02 -0.16702862618E+02  0.44119603246E+03  0.44165016792E+03  0.00000000000E+00 0.  1.
</event>
<event>
 4    1  0.2048241E+005  0.2134707E+02  0.7546771E-02  0.1514367E+00
          2   -1    0    0  502    0  0.00000000000E+00  0.00000000000E+00  0.26832869230E+03  0.26832869230E+03  0.00000000000E+00 0.  1.
         21   -1    0    0  503  502 -0.00000000000E+00 -0.00000000000E+00 -0.27437195981E+02  0.27437195981E+02  0.00000000000E+00 0. -1.
          2    1    1    2  501    0 -0.19751596112E+02  0.80976567289E+01  0.26367883146E+03  0.26454153502E+03  0.00000000000E+00 0.  1.
         21    1    1    2  503  501  0.19751596112E+02 -0.80976567289E+01 -0.22787335140E+02  0.31224353256E+02  0.00000000000E+00 0. -1.
</event>
<event>
 4    1  0.2048241E+005  0.4077221E+02  0.7546771E-02  0.1344019E+00
          2   -1    0    0  503    0  0.00000000000E+00  0.00000000000E+00  0.11926591716E+04  0.11926591716E+04  0.00000000000E+00 0. -1.
         21   -1    0    0  501  502 -0.00000000000E+00 -0.00000000000E+00 -0.14605004430E+01  0.14605004430E+01  0.00000000000E+00 0. -1.
          2    1    1    2  501    0 -0.63226540673E+01 -0.40278996065E+02  0.72315746987E+03  0.72430594344E+03  0.00000000000E+00 0. -1.
         21    1    1    2  503  502  0.63226540673E+01  0.40278996065E+02  0.46804120125E+03  0.46981372856E+03  0.00000000000E+00 0. -1.
</event>
<event>
 4    1  0.2048241E+005  0.2135047E+02  0.7546771E-02  0.1514319E+00
          2   -1    0    0  502    0  0.00000000000E+00  0.00000000000E+00  0.17296295800E+04  0.17296295800E+04  0.00000000000E+00 0. -1.
         21   -1    0    0  503  502 -0.00000000000E+00 -0.00000000000E+00 -0.42792804015E+00  0.42792804015E+00  0.00000000000E+00 0. -1.
          2    1    1    2  501    0  0.21341841053E+02 -0.60695956841E+00  0.14007282967E+04  0.14008910035E+04  0.00000000000E+00 0. -1.
         21    1    1    2  503  501 -0.21341841053E+02  0.60695956841E+00  0.32847335523E+03  0.32916650448E+03  0.00000000000E+00 0. -1.
</event>
<event>
 4    1  0.2048241E+005  0.2169450E+02  0.7546771E-02  0.1509576E+00
          2   -1    0    0  503    0  0.00000000000E+00  0.00000000000E+00  0.64800732037E+03  0.64800732037E+03  0.00000000000E+00 0. -1.
         21   -1    0    0  501  502 -0.00000000000E+00 -0.00000000000E+00 -0.51678331795E+01  0.51678331795E+01  0.00000000000E+00 0. -1.
          2    1    1    2  501    0 -0.94526932738E+01 -0.19526849254E+02  0.62418888276E+03  0.62456577925E+03  0.00000000000E+00 0. -1.
         21    1    1    2  503  502  0.94526932738E+01  0.19526849254E+02  0.18650604425E+02  0.28609374291E+02  0.00000000000E+00 0. -1.
</event>
<event>
 4    1  0.2048241E+005  0.2199565E+02  0.7546771E-02  0.1505510E+00
          2   -1    0    0  503    0  0.00000000000E+00  0.00000000000E+00  0.51404342464E+03  0.51404342464E+03  0.00000000000E+00 0.  1.
         21   -1    0    0  501  502 -0.00000000000E+00 -0.00000000000E+00 -0.10225747498E+01  0.10225747498E+01  0.00000000000E+00 0. -1.
          2    1    1    2  501    0  0.21078874114E+02  0.62840923820E+01  0.32916726219E+03  0.32990134169E+03  0.00000000000E+00 0.  1.
         21    1    1    2  503  502 -0.21078874114E+02 -0.62840923820E+01  0.18385358770E+03  0.18516465770E+03  0.00000000000E+00 0. -1.
</event>
<event>
 4    1  0.2048241E+005  0.2055001E+02  0.7546771E-02  0.1525788E+00
          2   -1    0    0  502    0  0.00000000000E+00  0.00000000000E+00  0.42173062414E+02  0.42173062414E+02  0.00000000000E+00 0.  1.
         21   -1    0    0  503  502 -0.00000000000E+00 -0.00000000000E+00 -0.11075850327E+02  0.11075850327E+02  0.00000000000E+00 0.  1.
          2    1    1    2  501    0  0.22268593196E+01  0.20428995647E+02  0.23794020524E+02  0.31439754743E+02  0.00000000000E+00 0.  1.
         21    1    1    2  503  501 -0.22268593196E+01 -0.20428995647E+02  0.73031915636E+01  0.21809157999E+02  0.00000000000E+00 0.  1.
</event>
<event>
 4    1  0.2048241E+005  0.2451688E+02  0.7546771E-02  0.1474281E+00
          2   -1    0    0  502    0  0.00000000000E+00  0.00000000000E+00  0.55785007198E+03  0.55785007198E+03  0.00000000000E+00 0.  1.
         21   -1    0    0  503  502 -0.00000000000E+00 -0.00000000000E+00 -0.20679432135E+02  0.20679432135E+02  0.00000000000E+00 0.  1.
          2    1    1    2  501    0 -0.42257615859E+01  0.24149959917E+02  0.55021327942E+03  0.55075923095E+03  0.00000000000E+00 0.  1.
         21    1    1    2  503  501  0.42257615859E+01 -0.24149959917E+02 -0.13042639571E+02  0.27770273170E+02  0.00000000000E+00 0.  1.
</event>
<event>
 4    1  0.2048241E+005  0.2087370E+02  0.7546771E-02  0.1521076E+00
          2   -1    0    0  503    0  0.00000000000E+00  0.00000000000E+00  0.15443989236E+03  0.15443989236E+03  0.00000000000E+00 0. -1.
         21   -1    0    0  501  502 -0.00000000000E+00 -0.00000000000E+00 -0.95943072687E+01  0.95943072687E+01  0.00000000000E+00 0. -1.
          2    1    1    2  501    0 -0.92773128167E+01  0.18698735998E+02  0.14133409287E+03  0.14286720082E+03  0.00000000000E+00 0. -1.
         21    1    1    2  503  502  0.92773128167E+01 -0.18698735998E+02  0.35114922156E+01  0.21166998809E+02  0.00000000000E+00 0. -1.
</event>
<event>
 4    1  0.2048241E+005  0.2090990E+02  0.7546771E-02  0.1520555E+00
          2   -1    0    0  503    0  0.00000000000E+00  0.00000000000E+00  0.43175526565E+03  0.43175526565E+03  0.00000000000E+00 0.  1.
         21   -1    0    0  501  502 -0.00000000000E+00 -0.00000000000E+00 -0.69426855438E+01  0.69426855438E+01  0.00000000000E+00 0.  1.
          2    1    1    2  501    0  0.19456530995E+02 -0.76594652382E+01  0.41512783831E+03  0.41565411840E+03  0.00000000000E+00 0.  1.
         21    1    1    2  503  502 -0.19456530995E+02  0.76594652382E+01  0.96847417996E+01  0.23043832793E+02  0.00000000000E+00 0.  1.
</event>
<event>
 4    1  0.2048241E+005  0.2202797E+02  0.7546771E-02  0.1505078E+00
          2   -1    0    0  503    0  0.00000000000E+00  0.00000000000E+00  0.19514649507E+02  0.19514649507E+02  0.00000000000E+00 0. -1.
         21   -1    0    0  501  502 -0.00000000000E+00 -0.00000000000E+00 -0.89326630537E+02  0.89326630537E+02  0.00000000000E+00 0.  1.
          2    1    1    2  501    0  0.21753142029E+02 -0.34687566043E+01  0.11324006339E+02  0.24768217136E+02  0.00000000000E+00 0. -1.
         21    1    1    2  503  502 -0.21753142029E+02  0.34687566043E+01 -0.81135987368E+02  0.84073062908E+02  0.00000000000E+00 0.  1.
</event>
<event>
 4    1  0.2048241E+005  0.2261109E+02  0.7546771E-02  0.1497440E+00
          2   -1    0    0  502    0  0.00000000000E+00  0.00000000000E+00  0.12185443241E+04  0.12185443241E+04  0.00000000000E+00 0. -1.
         21   -1    0    0  503  502 -0.00000000000E+00 -0.00000000000E+00 -0.46167756552E+01  0.46167756552E+01  0.00000000000E+00 0. -1.
          2    1    1    2  501    0  0.15981569230E+02  0.15995337396E+02  0.11900926437E+04  0.11903074233E+04  0.00000000000E+00 0. -1.
         21    1    1    2  503  501 -0.15981569230E+02 -0.15995337396E+02  0.23834904801E+02  0.32853676512E+02  0.00000000000E+00 0. -1.
</event>
<event>
 4    1  0.2048241E+005  0.3785666E+02  0.7546771E-02  0.1361525E+00
          2   -1    0    0  502    0  0.00000000000E+00  0.00000000000E+00  0.58920200331E+02  0.58920200331E+02  0.00000000000E+00 0. -1.
         21   -1    0    0  503  502 -0.00000000000E+00 -0.00000000000E+00 -0.10884204671E+03  0.10884204671E+03  0.00000000000E+00 0. -1.
          2    1    1    2  501    0  0.10616378315E+02 -0.36337576938E+02  0.48955800073E+02  0.61885356483E+02  0.00000000000E+00 0. -1.
         21    1    1    2  503  501 -0.10616378315E+02  0.36337576938E+02 -0.98877646450E+02  0.10587689056E+03  0.00000000000E+00 0. -1.
</event>
<event>
 4    1  0.2048241E+005  0.2249210E+02  0.7546771E-02  0.1498976E+00
          2   -1    0    0  503    0  0.00000000000E+00  0.00000000000E+00  0.32000772393E+02  0.32000772393E+02  0.00000000000E+00 0. -1.
         21   -1    0    0  501  502 -0.00000000000E+00 -0.00000000000E+00 -0.94059497116E+02  0.94059497116E+02  0.00000000000E+00 0.  1.
          2    1    1    2  501    0 -0.57737098581E+00  0.22484687837E+02  0.26460458235E+02  0.34728236269E+02  0.00000000000E+00 0. -1.
         21    1    1    2  503  502  0.57737098581E+00 -0.22484687837E+02 -0.88519182957E+02  0.91332033240E+02  0.00000000000E+00 0.  1.
</event>
<event>
 4    1  0.2048241E+005  0.2415876E+02  0.7546771E-02  0.1478439E+00
          2   -1    0    0  503    0  0.00000000000E+00  0.00000000000E+00  0.20260589232E+02  0.20260589232E+02  0.00000000000E+00 0.  1.
         21   -1    0    0  501  502 -0.00000000000E+00 -0.00000000000E+00 -0.14334873884E+03  0.14334873884E+03  0.00000000000E+00 0.  1.
          2    1    1    2  501    0  0.23864968473E+02  0.37561928800E+01  0.11580459777E+02  0.26790908044E+02  0.00000000000E+00 0.  1.
         21    1    1    2  503  502 -0.23864968473E+02 -0.37561928800E+01 -0.13466860938E+03  0.13681842002E+03  0.00000000000E+00 0.  1.
</event>
<event>
 4    1  0.2048241E+005  0.2028447E+02  0.7546771E-02  0.1529731E+00
          2   -1    0    0  502    0  0.00000000000E+00  0.00000000000E+00  0.28123611360E+03  0.28123611360E+03  0.00000000000E+00 0. -1.
         21   -1    0    0  503  502 -0.00000000000E+00 -0.00000000000E+00 -0.47841748990E+01  0.47841748990E+01  0.00000000000E+00 0. -1.
          2    1    1    2  501    0 -0.20125180912E+02  0.25370787952E+01  0.25737940814E+03  0.25817749594E+03  0.00000000000E+00 0. -1.
         21    1    1    2  503  501  0.20125180912E+02 -0.25370787952E+01  0.19072530567E+02  0.27842792564E+02  0.00000000000E+00 0. -1.
</event>
<event>
 4    1  0.2048241E+005  0.2729334E+02  0.7546771E-02  0.1444683E+00
          2   -1    0    0  502    0  0.00000000000E+00  0.00000000000E+00  0.12221608099E+04  0.12221608099E+04  0.00000000000E+00 0. -1.
         21   -1    0    0  503  502 -0.00000000000E+00 -0.00000000000E+00 -0.14781492016E+01  0.14781492016E+01  0.00000000000E+00 0.  1.
          2    1    1    2  501    0  0.19292045594E+02 -0.19306565207E+02  0.10793516447E+04  0.10796966700E+04  0.00000000000E+00 0. -1.
         21    1    1    2  503  501 -0.19292045594E+02  0.19306565207E+02  0.14133101601E+03  0.14394228903E+03  0.00000000000E+00 0.  1.
</event>
<event>
 4    1  0.2048241E+005  0.3767243E+02  0.7546771E-02  0.1362693E+00
          2   -1    0    0  503    0  0.00000000000E+00  0.00000000000E+00  0.34880370750E+03  0.34880370750E+03  0.00000000000E+00 0.  1.
         21   -1    0    0  501  502 -0.00000000000E+00 -0.00000000000E+00 -0.44543408762E+01  0.44543408762E+01  0.00000000000E+00 0.  1.
          2    1    1    2  501    0 -0.37463724958E+02 -0.39599329635E+01  0.12021017759E+03  0.12597499178E+03  0.00000000000E+00 0.  1.
         21    1    1    2  503  502  0.37463724958E+02  0.39599329635E+01  0.22413918903E+03  0.22728305660E+03  0.00000000000E+00 0.  1.
</event>
<event>
 4    1  0.2048241E+005  0.2516481E+02  0.7546771E-02  0.1466968E+00
          2   -1    0    0  503    0  0.00000000000E+00  0.00000000000E+00  0.23158966280E+03  0.23158966280E+03  0.00000000000E+00 0. -1.
         21   -1    0    0  501  502 -0.00000000000E+00 -0.00000000000E+00 -0.52348986798E+02  0.52348986798E+02  0.00000000000E+00 0. -1.
          2    1    1    2  501    0 -0.71029034859E+01  0.24141596207E+02  0.22783206494E+03  0.22921762088E+03  0.00000000000E+00 0. -1.
         21    1    1    2  503  502  0.71029034859E+01 -0.24141596207E+02 -0.48591388938E+02  0.54721028721E+02  0.00000000000E+00 0. -1.
</event>
<event>
 4    1  0.3301749E+005  0.2402519E+02  0.7546771E-02  0.1480011E+00
          2   -1    0    0  503    0  0.00000000000E+00  0.00000000000E+00  0.14791057123E+04  0.14791057123E+04  0.00000000000E+00 0. -1.
         21   -1    0    0  501  502 -0.00000000000E+00 -0.00000000000E+00 -0.17518188880E+03  0.17518188880E+03  0.00000000000E+00 0.  1.
          2    1    1    2  501    0 -0.50876651237E+01  0.23480320050E+02  0.14781839089E+04  0.14783791389E+04  0.00000000000E+00 0. -1.
         21    1    1    2  503  502  0.50876651237E+01 -0.23480320050E+02 -0.17426008532E+03  0.17590846228E+03  0.00000000000E+00 0.  1.
</event>
<event>
 4    1  0.2048241E+005  0.5667552E+02  0.7546771E-02  0.1271566E+00
          2   -1    0    0  503    0  0.00000000000E+00  0.00000000000E+00  0.36159135977E+04  0.36159135977E+04  0.00000000000E+00 0. -1.
         21   -1    0    0  501  502 -0.00000000000E+00 -0.00000000000E+00 -0.91288905871E+00  0.91288905871E+00  0.00000000000E+00 0. -1.
          2    1    1    2  501    0 -0.52243141711E+01 -0.56434219905E+02  0.21041328477E+04  0.21048959963E+04  0.00000000000E+00 0. -1.
         21    1    1    2  503  502  0.52243141711E+01  0.56434219905E+02  0.15108678610E+04  0.15119304905E+04  0.00000000000E+00 0. -1.
</event>
<event>
 4    1  0.2048241E+005  0.2847398E+02  0.7546771E-02  0.1433338E+00
          2   -1    0    0  503    0  0.00000000000E+00  0.00000000000E+00  0.12980996430E+03  0.12980996430E+03  0.00000000000E+00 0.  1.
         21   -1    0    0  501  502 -0.00000000000E+00 -0.00000000000E+00 -0.65636597456E+01  0.65636597456E+01  0.00000000000E+00 0.  1.
          2    1    1    2  501    0  0.20454827932E+02  0.19808267833E+02  0.76628397411E+02  0.81747652872E+02  0.00000000000E+00 0.  1.
         21    1    1    2  503  502 -0.20454827932E+02 -0.19808267833E+02  0.46617907145E+02  0.54625971175E+02  0.00000000000E+00 0.  1.
</event>
<event>
 4    1  0.2048241E+005  0.2450965E+02  0.7546771E-02  0.1474364E+00
          2   -1    0    0  503    0  0.00000000000E+00  0.00000000000E+00  0.82152757895E+03  0.82152757895E+03  0.00000000000E+00 0. -1.
         21   -1    0    0  501  502 -0.00000000000E+00 -0.00000000000E+00 -0.76566815994E+00  0.76566815994E+00  0.00000000000E+00 0. -1.
          2    1    1    2  501    0  0.38979084472E+01  0.24197710713E+02  0.49758111115E+03  0.49818438862E+03  0.00000000000E+00 0. -1.
         21    1    1    2  503  502 -0.38979084472E+01 -0.24197710713E+02  0.32318079965E+03  0.32410885849E+03  0.00000000000E+00 0. -1.
</event>
<event>
 4    1  0.2048241E+005  0.5505272E+02  0.7546771E-02  0.1277636E+00
          2   -1    0    0  502    0  0.00000000000E+00  0.00000000000E+00  0.49605440673E+02  0.49605440673E+02  0.00000000000E+00 0.  1.
         21   -1    0    0  503  502 -0.00000000000E+00 -0.00000000000E+00 -0.35352053847E+03  0.35352053847E+03  0.00000000000E+00 0.  1.
          2    1    1    2  501    0 -0.32294025793E+02 -0.44585851846E+02  0.31361988116E+02  0.63359108149E+02  0.00000000000E+00 0.  1.
         21    1    1    2  503  501  0.32294025793E+02  0.44585851846E+02 -0.33527708591E+03  0.33976687099E+03  0.00000000000E+00 0.  1.
</event>
<event>
 4    1  0.2048241E+005  0.2203697E+02  0.7546771E-02  0.1504958E+00
          2   -1    0    0  502    0  0.00000000000E+00  0.00000000000E+00  0.71784177721E+02  0.71784177721E+02  0.00000000000E+00 0.  1.
         21   -1    0    0  503  502 -0.00000000000E+00 -0.00000000000E+00 -0.87277716632E+02  0.87277716632E+02  0.00000000000E+00 0.  1.
          2    1    1    2  501    0 -0.21762207021E+02 -0.34690825746E+01  0.68639693062E+02  0.72090468524E+02  0.00000000000E+00 0.  1.
         21    1    1    2  503  501  0.21762207021E+02  0.34690825746E+01 -0.84133231974E+02  0.86971425829E+02  0.00000000000E+00 0.  1.
</event>
<event>
 4    1  0.2048241E+005  0.3227255E+02  0.7546771E-02  0.1400824E+00
          2   -1    0    0  503    0  0.00000000000E+00  0.00000000000E+00  0.31950917350E+02  0.31950917350E+02  0.00000000000E+00 0. -1.
         21   -1    0    0  501  502 -0.00000000000E+00 -0.00000000000E+00 -0.61437420188E+02  0.61437420188E+02  0.00000000000E+00 0. -1.
          2    1    1    2  501    0 -0.27365560004E+02 -0.17106821774E+02  0.17248929768E+02  0.36592933795E+02  0.00000000000E+00 0. -1.
         21    1    1    2  503  502  0.27365560004E+02  0.17106821774E+02 -0.46735432606E+02  0.56795403744E+02  0.00000000000E+00 0. -1.
</event>
<event>
 4    1  0.2048241E+005  0.4764046E+02  0.7546771E-02  0.1308740E+00
          2   -1    0    0  503    0  0.00000000000E+00  0.00000000000E+00  0.95233439062E+03  0.95233439062E+03  0.00000000000E+00 0.  1.
         21   -1    0    0  501  502 -0.00000000000E+00 -0.00000000000E+00 -0.52328303180E+01  0.52328303180E+01  0.00000000000E+00 0. -1.
          2    1    1    2  501    0  0.37850765108E+02 -0.28929790431E+02  0.82686768766E+03  0.82823896678E+03  0.00000000000E+00 0.  1.
         21    1    1    2  503  502 -0.37850765108E+02  0.28929790431E+02  0.12023387265E+03  0.12932825417E+03  0.00000000000E+00 0. -1.
</event>
<event>
 4    1  0.2048241E+005  0.2261395E+02  0.7546771E-02  0.1497403E+00
          2   -1    0    0  503    0  0.00000000000E+00  0.00000000000E+00  0.53891161089E+03  0.53891161089E+03  0.00000000000E+00 0.  1.
         21   -1    0    0  501  502 -0.00000000000E+00 -0.00000000000E+00 -0.11005399188E+01  0.11005399188E+01  0.00000000000E+00 0.  1.
          2    1    1    2  501    0 -0.20642687632E+02 -0.92341956814E+01  0.36911999390E+03  0.36981206148E+03  0.00000000000E+00 0.  1.
         21    1    1    2  503  502  0.20642687632E+02  0.92341956814E+01  0.16869107707E+03  0.17020008932E+03  0.00000000000E+00 0.  1.
</event>
<event>
 4    1  0.2048241E+005  0.3293557E+02  0.7546771E-02  0.1395688E+00
          2   -1    0    0  502    0  0.00000000000E+00  0.00000000000E+00  0.17966290209E+04  0.17966290209E+04  0.00000000000E+00 0. -1.
         21   -1    0    0  503  502 -0.00000000000E+00 -0.00000000000E+00 -0.12499349471E+02  0.12499349471E+02  0.00000000000E+00 0.  1.
          2    1    1    2  501    0  0.26779402848E+02 -0.19173299283E+02  0.17745115150E+04  0.17748171367E+04  0.00000000000E+00 0. -1.
         21    1    1    2  503  501 -0.26779402848E+02  0.19173299283E+02  0.96181564021E+01  0.34311233654E+02  0.00000000000E+00 0.  1.
</event>
<event>
 4    1  0.2048241E+005  0.2543628E+02  0.7546771E-02  0.1463981E+00
          2   -1    0    0  503    0  0.00000000000E+00  0.00000000000E+00  0.10989656396E+04  0.10989656396E+04  0.00000000000E+00 0. -1.
         21   -1    0    0  501  502 -0.00000000000E+00 -0.00000000000E+00 -0.20198067529E+02  0.20198067529E+02  0.00000000000E+00 0.  1.
          2    1    1    2  501    0  0.14022495764E+02  0.21222014534E+02  0.10907498984E+04  0.10910464450E+04  0.00000000000E+00 0. -1.
         21    1    1    2  503  502 -0.14022495764E+02 -0.21222014534E+02 -0.11982326291E+02  0.28117262166E+02  0.00000000000E+00 0.  1.
</event>
<event>
 4    1  0.2048241E+005  0.2096772E+02  0.7546771E-02  0.1519726E+00
          2   -1    0    0  503    0  0.00000000000E+00  0.00000000000E+00  0.30217084389E+03  0.30217084389E+03  0.00000000000E+00 0.  1.
         21   -1    0    0  501  502 -0.00000000000E+00 -0.00000000000E+00 -0.82747013387E+01  0.82747013387E+01  0.00000000000E+00 0.  1.
          2    1    1    2  501    0  0.15584549889E+02  0.14027370822E+02  0.28786505765E+03  0.28862767841E+03  0.00000000000E+00 0.  1.
         21    1    1    2  503  502 -0.15584549889E+02 -0.14027370822E+02  0.60310848981E+01  0.21817866817E+02  0.00000000000E+00 0.  1.
</event>
<event>
 4    1  0.2048241E+005  0.2495892E+02  0.7546771E-02  0.1469264E+00
          2   -1    0    0  503    0  0.00000000000E+00  0.00000000000E+00  0.40615449783E+01  0.40615449783E+01  0.00000000000E+00 0.  1.
         21   -1    0    0  501  502 -0.00000000000E+00 -0.00000000000E+00 -0.64179751503E+03  0.64179751503E+03  0.00000000000E+00 0. -1.
          2    1    1    2  501    0  0.33785535054E+01 -0.24729190897E+02 -0.37155754647E+02  0.44760446932E+02  0.00000000000E+00 0.  1.
         21    1    1    2  503  502 -0.33785535054E+01  0.24729190897E+02 -0.60058021540E+03  0.60109861307E+03  0.00000000000E+00 0. -1.
</event>
<event>
 4    1  0.2048241E+005  0.2474514E+02  0.7546771E-02  0.1471675E+00
          2   -1    0    0  503    0  0.00000000000E+00  0.00000000000E+00  0.19495552810E+03  0.19495552810E+03  0.00000000000E+00 0.  1.
         21   -1    0    0  501  502 -0.00000000000E+00 -0.00000000000E+00 -0.13277893680E+02  0.13277893680E+02  0.00000000000E+00 0. -1.
          2    1    1    2  501    0  0.49518389518E+00 -0.24740182288E+02  0.18181170310E+03  0.18348792116E+03  0.00000000000E+00 0.  1.
         21    1    1    2  503  502 -0.49518389518E+00  0.24740182288E+02 -0.13406867720E+00  0.24745500625E+02  0.00000000000E+00 0. -1.
</event>
<event>
 4    1  0.2048241E+005  0.2724200E+02  0.7546771E-02  0.1445192E+00
          2   -1    0    0  503    0  0.00000000000E+00  0.00000000000E+00  0.18365882394E+04  0.18365882394E+04  0.00000000000E+00 0.  1.
         21   -1    0    0  501  502 -0.00000000000E+00 -0.00000000000E+00 -0.14201517261E+01  0.14201517261E+01  0.00000000000E+00 0. -1.
          2    1    1    2  501    0 -0.25050317864E+02 -0.10705518991E+02  0.16949267693E+04  0.16951456810E+04  0.00000000000E+00 0.  1.
         21    1    1    2  503  502  0.25050317864E+02  0.10705518991E+02  0.14024131836E+03  0.14286271010E+03  0.00000000000E+00 0. -1.
</event>
<event>
 4    1  0.2048241E+005  0.2277447E+02  0.7546771E-02  0.1495350E+00
          2   -1    0    0  503    0  0.00000000000E+00  0.00000000000E+00  0.10165201835E+04  0.10165201835E+04  0.00000000000E+00 0.  1.
         21   -1    0    0  501  502 -0.00000000000E+00 -0.00000000000E+00 -0.18075955107E+02  0.18075955107E+02  0.00000000000E+00 0. -1.
          2    1    1    2  501    0  0.13749266467E+02  0.18155828824E+02  0.10091667884E+04  0.10094237382E+04  0.00000000000E+00 0.  1.
         21    1    1    2  503  502 -0.13749266467E+02 -0.18155828824E+02 -0.10722560008E+02  0.25172400398E+02  0.00000000000E+00 0. -1.
</event>
<event>
 4    1  0.2048241E+005  0.2047958E+02  0.7546771E-02  0.1526826E+00
          2   -1    0    0  502    0  0.00000000000E+00  0.00000000000E+00  0.13854458717E+02  0.13854458717E+02  0.00000000000E+00 0.  1.
         21   -1    0    0  503  502 -0.00000000000E+00 -0.00000000000E+00 -0.44071263699E+02  0.44071263699E+02  0.00000000000E+00 0. -1.
          2    1    1    2  501    0  0.20183407296E+02  0.34703580824E+01  0.10977161423E+01  0.20508980862E+02  0.00000000000E+00 0.  1.
         21    1    1    2  503  501 -0.20183407296E+02 -0.34703580824E+01 -0.31314521124E+02  0.37416741554E+02  0.00000000000E+00 0. -1.
</event>
<event>
 4    1  0.2048241E+005  0.2260450E+02  0.7546771E-02  0.1497525E+00
          2   -1    0    0  502    0  0.00000000000E+00  0.00000000000E+00  0.50505094804E+03  0.50505094804E+03  0.00000000000E+00 0.  1.
         21   -1    0    0  503  502 -0.00000000000E+00 -0.00000000000E+00 -0.23344814930E+01  0.23344814930E+01  0.00000000000E+00 0.  1.
          2    1    1    2  501    0  0.22141883655E+02 -0.45497574007E+01  0.44232411112E+03  0.44290132375E+03  0.00000000000E+00 0.  1.
         21    1    1    2  503  501 -0.22141883655E+02  0.45497574007E+01  0.60392355426E+02  0.64484105779E+02  0.00000000000E+00 0.  1.
</event>
<event>
 4    1  0.2048241E+005  0.2337339E+02  0.7546771E-02  0.1487862E+00
          2   -1    0    0  503    0  0.00000000000E+00  0.00000000000E+00  0.97666266691E+02  0.97666266691E+02  0.00000000000E+00 0. -1.
         21   -1    0    0  501  502 -0.00000000000E+00 -0.00000000000E+00 -0.91673564780E+02  0.91673564780E+02  0.00000000000E+00 0. -1.
          2    1    1    2  501    0 -0.91656691713E+00  0.23355411301E+02  0.94732547686E+02  0.97573412993E+02  0.00000000000E+00 0. -1.
         21    1    1    2  503  502  0.91656691713E+00 -0.23355411301E+02 -0.88739845776E+02  0.91766418478E+02  0.00000000000E+00 0. -1.
</event>
<event>
 4    1  0.2048241E+005  0.2087160E+02  0.7546771E-02  0.1521106E+00
          2   -1    0    0  503    0  0.00000000000E+00  0.00000000000E+00  0.16408284356E+03  0.16408284356E+03  0.00000000000E+00 0. -1.
         21   -1    0    0  501  502 -0.00000000000E+00 -0.00000000000E+00 -0.51533089192E+01  0.51533089192E+01  0.00000000000E+00 0. -1.
          2    1    1    2  501    0  0.20864243901E+02 -0.55422221901E+00  0.13838326489E+03  0.13994838991E+03  0.00000000000E+00 0. -1.
         21    1    1    2  503  502 -0.20864243901E+02  0.55422221901E+00  0.20546269749E+02  0.29287762571E+02  0.00000000000E+00 0. -1.
</event>
<event>
 4    1  0.2048241E+005  0.2454295E+02  0.7546771E-02  0.1473982E+00
          2   -1    0    0  503    0  0.00000000000E+00  0.00000000000E+00  0.14512741742E+04  0.14512741742E+04  0.00000000000E+00 0. -1.
         21   -1    0    0  501  502 -0.00000000000E+00 -0.00000000000E+00 -0.30832573855E+01  0.30832573855E+01  0.00000000000E+00 0.  1.
          2    1    1    2  501    0  0.19399377157E+02  0.15033978292E+02  0.14005611567E+04  0.14007761812E+04  0.00000000000E+00 0. -1.
         21    1    1    2  503  502 -0.19399377157E+02 -0.15033978292E+02  0.47629760099E+02  0.53581250307E+02  0.00000000000E+00 0.  1.
</event>
<event>
 4    1  0.2048241E+005  0.2835694E+02  0.7546771E-02  0.1434434E+00
          2   -1    0    0  502    0  0.00000000000E+00  0.00000000000E+00  0.32662018802E+02  0.32662018802E+02  0.00000000000E+00 0.  1.
         21   -1    0    0  503  502 -0.00000000000E+00 -0.00000000000E+00 -0.61503129235E+02  0.61503129235E+02  0.00000000000E+00 0.  1.
          2    1    1    2  501    0  0.26928448920E+02  0.88867678054E+01  0.22040530714E+02  0.35915191736E+02  0.00000000000E+00 0.  1.
         21    1    1    2  503  501 -0.26928448920E+02 -0.88867678054E+01 -0.50881641147E+02  0.58249956301E+02  0.00000000000E+00 0.  1.
</event>
<event>
 4    1  0.2048241E+005  0.2000685E+02  0.7546771E-02  0.1533931E+00
          2   -1    0    0  503    0  0.00000000000E+00  0.00000000000E+00  0.92623534686E+02  0.92623534686E+02  0.00000000000E+00 0.  1.
         21   -1    0    0  501  502 -0.00000000000E+00 -0.00000000000E+00 -0.43566280723E+01  0.43566280723E+01  0.00000000000E+00 0.  1.
          2    1    1    2  501    0 -0.20006219786E+02  0.15918905294E+00  0.48486569716E+02  0.52452088749E+02  0.00000000000E+00 0.  1.
         21    1    1    2  503  502  0.20006219786E+02 -0.15918905294E+00  0.39780336898E+02  0.44528074010E+02  0.00000000000E+00 0.  1.
</event>
<event>
 4    1  0.2048241E+005  0.3376464E+02  0.7546771E-02  0.1389462E+00
          2   -1    0    0  503    0  0.00000000000E+00  0.00000000000E+00  0.22160020595E+04  0.22160020595E+04  0.00000000000E+00 0.  1.
         21   -1    0    0  501  502 -0.00000000000E+00 -0.00000000000E+00 -0.61606024068E+00  0.61606024068E+00  0.00000000000E+00 0. -1.
          2    1    1    2  501    0  0.58502905000E+01 -0.33253948106E+02  0.15577736574E+04  0.15581395376E+04  0.00000000000E+00 0.  1.
         21    1    1    2  503  502 -0.58502905000E+01  0.33253948106E+02  0.65761234185E+03  0.65847858213E+03  0.00000000000E+00 0. -1.
</event>
<event>
 4    1  0.2048241E+005  0.2635020E+02  0.7546771E-02  0.1454247E+00
          2   -1    0    0  502    0  0.00000000000E+00  0.00000000000E+00  0.72280805392E+03  0.72280805392E+03  0.00000000000E+00 0. -1.
         21   -1    0    0  503  502 -0.00000000000E+00 -0.00000000000E+00 -0.10328484840E+01  0.10328484840E+01  0.00000000000E+00 0. -1.
          2    1    1    2  501    0 -0.17969832394E+01 -0.26288850884E+02  0.45660590644E+03  0.45736559406E+03  0.00000000000E+00 0. -1.
         21    1    1    2  503  501  0.17969832394E+01  0.26288850884E+02  0.26516929899E+03  0.26647530835E+03  0.00000000000E+00 0. -1.
</event>
<event>
 4    1  0.2048241E+005  0.2509419E+02  0.7546771E-02  0.1467752E+00
          2   -1    0    0  502    0  0.00000000000E+00  0.00000000000E+00  0.21831333788E+02  0.21831333788E+02  0.00000000000E+00 0. -1.
         21   -1    0    0  503  502 -0.00000000000E+00 -0.00000000000E+00 -0.99093319170E+02  0.99093319170E+02  0.00000000000E+00 0.  1.
          2    1    1    2  501    0 -0.17020462289E+02  0.18439693576E+02  0.12276480278E+02  0.27936184487E+02  0.00000000000E+00 0. -1.
         21    1    1    2  503  501  0.17020462289E+02 -0.18439693576E+02 -0.89538465660E+02  0.92988468470E+02  0.00000000000E+00 0.  1.
</event>
<event>
 4    1  0.2048241E+005  0.2527434E+02  0.7546771E-02  0.1465758E+00
          2   -1    0    0  503    0  0.00000000000E+00  0.00000000000E+00  0.24330203197E+03  0.24330203197E+03  0.00000000000E+00 0.  1.
         21   -1    0    0  501  502 -0.00000000000E+00 -0.00000000000E+00 -0.31056574309E+02  0.31056574309E+02  0.00000000000E+00 0.  1.
          2    1    1    2  501    0  0.19022839201E+02  0.16641027908E+02  0.23737546540E+03  0.23871720465E+03  0.00000000000E+00 0.  1.
         21    1    1    2  503  502 -0.19022839201E+02 -0.16641027908E+02 -0.25130007741E+02  0.35641401630E+02  0.00000000000E+00 0.  1.
</event>
<event>
 4    1  0.2048241E+005  0.2966381E+02  0.7546771E-02  0.1422541E+00
          2   -1    0    0  502    0  0.00000000000E+00  0.00000000000E+00  0.59916406688E+03  0.59916406688E+03  0.00000000000E+00 0. -1.
         21   -1    0    0  503  502 -0.00000000000E+00 -0.00000000000E+00 -0.51378998423E+02  0.51378998423E+02  0.00000000000E+00 0. -1.
          2    1    1    2  501    0  0.20067610396E+02 -0.21845654545E+02  0.59448158840E+03  0.59522121985E+03  0.00000000000E+00 0. -1.
         21    1    1    2  503  501 -0.20067610396E+02  0.21845654545E+02 -0.46696519945E+02  0.55321845454E+02  0.00000000000E+00 0. -1.
</event>
<event>
 4    1  0.2048241E+005  0.2147887E+02  0.7546771E-02  0.1512536E+00
          2   -1    0    0  503    0  0.00000000000E+00  0.00000000000E+00  0.14667877392E+04  0.14667877392E+04  0.00000000000E+00 0.  1.
         21   -1    0    0  501  502 -0.00000000000E+00 -0.00000000000E+00 -0.37083354325E+00  0.37083354325E+00  0.00000000000E+00 0.  1.
          2    1    1    2  501    0  0.22366149449E+01 -0.21362098503E+02  0.10190622403E+04  0.10192885711E+04  0.00000000000E+00 0.  1.
         21    1    1    2  503  502 -0.22366149449E+01  0.21362098503E+02  0.44735466543E+03  0.44787000165E+03  0.00000000000E+00 0.  1.
</event>
<event>
 4    1  0.2048241E+005  0.2246452E+02  0.7546771E-02  0.1499334E+00
          2   -1    0    0  503    0  0.00000000000E+00  0.00000000000E+00  0.64458928329E+02  0.64458928329E+02  0.00000000000E+00 0. -1.
         21   -1    0    0  501  502 -0.00000000000E+00 -0.00000000000E+00 -0.94209172219E+01  0.94209172219E+01  0.00000000000E+00 0.  1.
          2    1    1    2  501    0  0.11981256008E+02  0.19002745618E+02  0.42703389349E+02  0.48251780262E+02  0.00000000000E+00 0. -1.
         21    1    1    2  503  502 -0.11981256008E+02 -0.19002745618E+02  0.12334621759E+02  0.25628065290E+02  0.00000000000E+00 0.  1.
</event>
<event>
 4    1  0.2048241E+005  0.2403479E+02  0.7546771E-02  0.1479898E+00
          2   -1    0    0  503    0  0.00000000000E+00  0.00000000000E+00  0.11751659323E+04  0.11751659323E+04  0.00000000000E+00 0. -1.
         21   -1    0    0  501  502 -0.00000000000E+00 -0.00000000000E+00 -0.50926588491E+00  0.50926588491E+00  0.00000000000E+00 0. -1.
          2    1    1    2  501    0 -0.12903189904E+02  0.20277545584E+02  0.69691936342E+03  0.69733368646E+03  0.00000000000E+00 0. -1.
         21    1    1    2  503  502  0.12903189904E+02 -0.20277545584E+02  0.47773730303E+03  0.47834151175E+03  0.00000000000E+00 0. -1.
</event>
<event>
 4    1  0.2048241E+005  0.2171886E+02  0.7546771E-02  0.1509244E+00
          2   -1    0    0  502    0  0.00000000000E+00  0.00000000000E+00  0.91628918140E+03  0.91628918140E+03  0.00000000000E+00 0. -1.
         21   -1    0    0  503  502 -0.00000000000E+00 -0.00000000000E+00 -0.27134616802E+01  0.27134616802E+01  0.00000000000E+00 0. -1.
          2    1    1    2  501    0  0.20930154589E+02 -0.57998025381E+01  0.87040997816E+03  0.87068090548E+03  0.00000000000E+00 0. -1.
         21    1    1    2  503  501 -0.20930154589E+02  0.57998025381E+01  0.43165741553E+02  0.48321737598E+02  0.00000000000E+00 0. -1.
</event>
<event>
 4    1  0.2048241E+005  0.4727750E+02  0.7546771E-02  0.1310428E+00
          2   -1    0    0  503    0  0.00000000000E+00  0.00000000000E+00  0.10836950024E+03  0.10836950024E+03  0.00000000000E+00 0. -1.
         21   -1    0    0  501  502 -0.00000000000E+00 -0.00000000000E+00 -0.20905742769E+02  0.20905742769E+02  0.00000000000E+00 0. -1.
          2    1    1    2  501    0 -0.73974672223E+01  0.46695180103E+02  0.51217209520E+02  0.69701972118E+02  0.00000000000E+00 0. -1.
         21    1    1    2  503  502  0.73974672223E+01 -0.46695180103E+02  0.36246547949E+02  0.59573270889E+02  0.00000000000E+00 0. -1.
</event>
<event>
 4    1  0.2121238E+005  0.2163932E+02  0.7546771E-02  0.1510330E+00
          2   -1    0    0  502    0  0.00000000000E+00  0.00000000000E+00  0.13963590895E+04  0.13963590895E+04  0.00000000000E+00 0.  1.
         21   -1    0    0  503  502 -0.00000000000E+00 -0.00000000000E+00 -0.65581557867E+02  0.65581557867E+02  0.00000000000E+00 0. -1.
          2    1    1    2  501    0  0.12537400928E+02 -0.17637283001E+02  0.13944878285E+04  0.13946557152E+04  0.00000000000E+00 0.  1.
         21    1    1    2  503  501 -0.12537400928E+02  0.17637283001E+02 -0.63710296839E+02  0.67284932169E+02  0.00000000000E+00 0. -1.
</event>
<event>
 4    1  0.2048241E+005  0.2945651E+02  0.7546771E-02  0.1424379E+00
          2   -1    0    0  502    0  0.00000000000E+00  0.00000000000E+00  0.12835014261E+03  0.12835014261E+03  0.00000000000E+00 0.  1.
         21   -1    0    0  503  502 -0.00000000000E+00 -0.00000000000E+00 -0.20240472016E+02  0.20240472016E+02  0.00000000000E+00 0.  1.
          2    1    1    2  501    0  0.20434597722E+02  0.21215867619E+02  0.11468639468E+03  0.11840884658E+03  0.00000000000E+00 0.  1.
         21    1    1    2  503  501 -0.20434597722E+02 -0.21215867619E+02 -0.65767240865E+01  0.30181768050E+02  0.00000000000E+00 0.  1.
</event>
<event>
 4    1  0.2048241E+005  0.2910367E+02  0.7546771E-02  0.1427549E+00
          2   -1    0    0  503    0  0.00000000000E+00  0.00000000000E+00  0.11429327066E+04  0.11429327066E+04  0.00000000000E+00 0.  1.
         21   -1    0    0  501  502 -0.00000000000E+00 -0.00000000000E+00 -0.34172831195E+01  0.34172831195E+01  0.00000000000E+00 0. -1.
          2    1    1    2  501    0  0.10116505137E+02 -0.27288823627E+02  0.10769877241E+04  0.10773808897E+04  0.00000000000E+00 0.  1.
         21    1    1    2  503  502 -0.10116505137E+02  0.27288823627E+02  0.62527699363E+02  0.68969100028E+02  0.00000000000E+00 0. -1.
</event>
<event>
 4    1  0.2048241E+005  0.2485328E+02  0.7546771E-02  0.1470451E+00
          2   -1    0    0  502    0  0.00000000000E+00  0.00000000000E+00  0.10087847183E+04  0.10087847183E+04  0.00000000000E+00 0.  1.
         21   -1    0    0  503  502 -0.00000000000E+00 -0.00000000000E+00 -0.72642906817E+01  0.72642906817E+01  0.00000000000E+00 0.  1.
          2    1    1    2  501    0  0.24850528883E+02  0.36993603323E+00  0.98690278243E+03  0.98721567431E+03  0.00000000000E+00 0.  1.
         21    1    1    2  503  501 -0.24850528883E+02 -0.36993603323E+00  0.14617645227E+02  0.28833334709E+02  0.00000000000E+00 0.  1.
</event>
<event>
 4    1  0.2048241E+005  0.2137643E+02  0.7546771E-02  0.1513958E+00
          2   -1    0    0  502    0  0.00000000000E+00  0.00000000000E+00  0.64072218718E+02  0.64072218718E+02  0.00000000000E+00 0. -1.
         21   -1    0    0  503  502 -0.00000000000E+00 -0.00000000000E+00 -0.49982840315E+02  0.49982840315E+02  0.00000000000E+00 0. -1.
          2    1    1    2  501    0  0.20314360929E+02  0.66542181939E+01  0.59847209015E+02  0.63550297455E+02  0.00000000000E+00 0. -1.
         21    1    1    2  503  501 -0.20314360929E+02 -0.66542181939E+01 -0.45757830612E+02  0.50504761578E+02  0.00000000000E+00 0. -1.
</event>
<event>
 4    1  0.2048241E+005  0.2013897E+02  0.7546771E-02  0.1531922E+00
          2   -1    0    0  503    0  0.00000000000E+00  0.00000000000E+00  0.19524091389E+03  0.19524091389E+03  0.00000000000E+00 0.  1.
         21   -1    0    0  501  502 -0.00000000000E+00 -0.00000000000E+00 -0.30836778115E+02  0.30836778115E+02  0.00000000000E+00 0. -1.
          2    1    1    2  501    0 -0.68751045338E+01 -0.18929109432E+02  0.19136710119E+03  0.19242386978E+03  0.00000000000E+00 0.  1.
         21    1    1    2  503  502  0.68751045338E+01  0.18929109432E+02 -0.26962965412E+02  0.33653822221E+02  0.00000000000E+00 0. -1.
</event>
<event>
 4    1  0.2048241E+005  0.2224552E+02  0.7546771E-02  0.1502196E+00
          2   -1    0    0  503    0  0.00000000000E+00  0.00000000000E+00  0.27532953595E+02  0.27532953595E+02  0.00000000000E+00 0. -1.
         21   -1    0    0  501  502 -0.00000000000E+00 -0.00000000000E+00 -0.32562141493E+02  0.32562141493E+02  0.00000000000E+00 0.  1.
          2    1    1    2  501    0  0.14319449846E+02 -0.17023994527E+02  0.17597637214E+02  0.28364412017E+02  0.00000000000E+00 0. -1.
         21    1    1    2  503  502 -0.14319449846E+02  0.17023994527E+02 -0.22626825112E+02  0.31730683071E+02  0.00000000000E+00 0.  1.
</event>
<event>
 4    1  0.2048241E+005  0.2358804E+02  0.7546771E-02  0.1485243E+00
          2   -1    0    0  503    0  0.00000000000E+00  0.00000000000E+00  0.28434615895E+03  0.28434615895E+03  0.00000000000E+00 0. -1.
         21   -1    0    0  501  502 -0.00000000000E+00 -0.00000000000E+00 -0.81086712783E+02  0.81086712783E+02  0.00000000000E+00 0.  1.
          2    1    1    2  501    0 -0.21200296383E+02 -0.10341338807E+02  0.28212807215E+03  0.28311242458E+03  0.00000000000E+00 0. -1.
         21    1    1    2  503  502  0.21200296383E+02  0.10341338807E+02 -0.78868625984E+02  0.82320447154E+02  0.00000000000E+00 0.  1.
</event>
<event>
 4    1  0.2048241E+005  0.2400909E+02  0.7546771E-02  0.1480201E+00
          2   -1    0    0  503    0  0.00000000000E+00  0.00000000000E+00  0.81955553943E+03  0.81955553943E+03  0.00000000000E+00 0. -1.
         21   -1    0    0  501  502 -0.00000000000E+00 -0.00000000000E+00 -0.10712862333E+01  0.10712862333E+01  0.00000000000E+00 0. -1.
          2    1    1    2  501    0  0.23784743319E+02  0.32745227369E+01  0.16877943694E+03  0.17047854659E+03  0.00000000000E+00 0. -1.
         21    1    1    2  503  502 -0.23784743319E+02 -0.32745227369E+01  0.64970481625E+03  0.65014827907E+03  0.00000000000E+00 0. -1.
</event>
<event>
 4    1  0.2048241E+005  0.3061304E+02  0.7546771E-02  0.1414343E+00
          2   -1    0    0  502    0  0.00000000000E+00  0.00000000000E+00  0.54011765655E+03  0.54011765655E+03  0.00000000000E+00 0. -1.
         21   -1    0    0  503  502 -0.00000000000E+00 -0.00000000000E+00 -0.29016575620E+02  0.29016575620E+02  0.00000000000E+00 0. -1.
          2    1    1    2  501    0  0.28254758727E+02  0.11782474669E+02  0.53147840685E+03  0.53235932888E+03  0.00000000000E+00 0. -1.
         21    1    1    2  503  501 -0.28254758727E+02 -0.11782474669E+02 -0.20377325921E+02  0.36774903287E+02  0.00000000000E+00 0. -1.
</event>
<event>
 4    1  0.2048241E+005  0.2870789E+02  0.7546771E-02  0.1431167E+00
          2   -1    0    0  503    0  0.00000000000E+00  0.00000000000E+00  0.24220794117E+03  0.24220794117E+03  0.00000000000E+00 0.  1.
         21   -1    0    0  501  502 -0.00000000000E+00 -0.00000000000E+00 -0.60500003781E+01  0.60500003781E+01  0.00000000000E+00 0. -1.
          2    1    1    2  501    0  0.20653915363E+02 -0.19938880604E+02  0.20019030032E+03  0.20223822468E+03  0.00000000000E+00 0.  1.
         21    1    1    2  503  502 -0.20653915363E+02  0.19938880604E+02  0.35967640474E+02  0.46019716870E+02  0.00000000000E+00 0. -1.
</event>
<event>
 4    1  0.2056079E+005  0.2327113E+02  0.7546771E-02  0.1489121E+00
          2   -1    0    0  502    0  0.00000000000E+00  0.00000000000E+00  0.80242594863E+03  0.80242594863E+03  0.00000000000E+00 0. -1.
         21   -1    0    0  503  502 -0.00000000000E+00 -0.00000000000E+00 -0.16611518738E+03  0.16611518738E+03  0.00000000000E+00 0. -1.
          2    1    1    2  501    0  0.19523534875E+02  0.12664011419E+02  0.80144121088E+03  0.80177899704E+03  0.00000000000E+00 0. -1.
         21    1    1    2  503  501 -0.19523534875E+02 -0.12664011419E+02 -0.16513044963E+03  0.16676213897E+03  0.00000000000E+00 0. -1.
</event>
<event>
 4    1  0.2048241E+005  0.3343782E+02  0.7546771E-02  0.1391891E+00
          2   -1    0    0  503    0  0.00000000000E+00  0.00000000000E+00  0.76639735366E+02  0.76639735366E+02  0.00000000000E+00 0.  1.
         21   -1    0    0  501  502 -0.00000000000E+00 -0.00000000000E+00 -0.21757957642E+02  0.21757957642E+02  0.00000000000E+00 0. -1.
          2    1    1    2  501    0 -0.13415318007E+02 -0.30628697198E+02  0.55681722996E+02  0.64950305043E+02  0.00000000000E+00 0.  1.
         21    1    1    2  503  502  0.13415318007E+02  0.30628697198E+02 -0.79994527268E+00  0.33447387966E+02  0.00000000000E+00 0. -1.
</event>
<event>
 4    1  0.2048241E+005  0.2784688E+02  0.7546771E-02  0.1439282E+00
          2   -1    0    0  503    0  0.00000000000E+00  0.00000000000E+00  0.16495181918E+03  0.16495181918E+03  0.00000000000E+00 0.  1.
         21   -1    0    0  501  502 -0.00000000000E+00 -0.00000000000E+00 -0.57981228349E+02  0.57981228349E+02  0.00000000000E+00 0.  1.
          2    1    1    2  501    0  0.21336733886E+02  0.17893917234E+02  0.16033751388E+03  0.16273772409E+03  0.00000000000E+00 0.  1.
         21    1    1    2  503  502 -0.21336733886E+02 -0.17893917234E+02 -0.53366923051E+02  0.60195323430E+02  0.00000000000E+00 0.  1.
</event>
<event>
 4    1  0.2048241E+005  0.2045293E+02  0.7546771E-02  0.1527221E+00
          2   -1    0    0  502    0  0.00000000000E+00  0.00000000000E+00  0.61299764385E+01  0.61299764385E+01  0.00000000000E+00 0.  1.
         21   -1    0    0  503  502 -0.00000000000E+00 -0.00000000000E+00 -0.10575900141E+03  0.10575900141E+03  0.00000000000E+00 0.  1.
          2    1    1    2  501    0  0.20430329074E+02 -0.96121621225E+00 -0.16493952370E+02  0.26274945242E+02  0.00000000000E+00 0.  1.
         21    1    1    2  503  501 -0.20430329074E+02  0.96121621225E+00 -0.83135072602E+02  0.85614032607E+02  0.00000000000E+00 0.  1.
</event>
<event>
 4    1  0.2048241E+005  0.2071707E+02  0.7546771E-02  0.1523343E+00
          2   -1    0    0  502    0  0.00000000000E+00  0.00000000000E+00  0.12915212694E+03  0.12915212694E+03  0.00000000000E+00 0. -1.
         21   -1    0    0  503  502 -0.00000000000E+00 -0.00000000000E+00 -0.17497389831E+02  0.17497389831E+02  0.00000000000E+00 0. -1.
          2    1    1    2  501    0  0.19113397672E+02  0.79921820473E+01  0.12182271236E+03  0.12357172084E+03  0.00000000000E+00 0. -1.
         21    1    1    2  503  501 -0.19113397672E+02 -0.79921820473E+01 -0.10167975249E+02  0.23077795933E+02  0.00000000000E+00 0. -1.
</event>
<event>
 4    1  0.2068195E+005  0.2512802E+02  0.7546771E-02  0.1467376E+00
          2   -1    0    0  503    0  0.00000000000E+00  0.00000000000E+00  0.53199441266E+03  0.53199441266E+03  0.00000000000E+00 0. -1.
         21   -1    0    0  501  502 -0.00000000000E+00 -0.00000000000E+00 -0.16886613318E+03  0.16886613318E+03  0.00000000000E+00 0. -1.
          2    1    1    2  501    0 -0.72294488856E+01 -0.24065585542E+02  0.53076072952E+03  0.53135521954E+03  0.00000000000E+00 0. -1.
         21    1    1    2  503  502  0.72294488856E+01  0.24065585542E+02 -0.16763245003E+03  0.16950532630E+03  0.00000000000E+00 0. -1.
</event>
<event>
 4    1  0.2048241E+005  0.3146214E+02  0.7546771E-02  0.1407302E+00
          2   -1    0    0  502    0  0.00000000000E+00  0.00000000000E+00  0.66880207864E+01  0.66880207864E+01  0.00000000000E+00 0. -1.
         21   -1    0    0  503  502 -0.00000000000E+00 -0.00000000000E+00 -0.15179988922E+03  0.15179988922E+03  0.00000000000E+00 0. -1.
          2    1    1    2  501    0 -0.13826764692E+01  0.31431742782E+02 -0.60027958026E+02  0.67773313283E+02  0.00000000000E+00 0. -1.
         21    1    1    2  503  501  0.13826764692E+01 -0.31431742782E+02 -0.85083910408E+02  0.90714596724E+02  0.00000000000E+00 0. -1.
</event>
<event>
 4    1  0.2048241E+005  0.2049519E+02  0.7546771E-02  0.1526596E+00
          2   -1    0    0  502    0  0.00000000000E+00  0.00000000000E+00  0.12882287822E+04  0.12882287822E+04  0.00000000000E+00 0.  1.
         21   -1    0    0  503  502 -0.00000000000E+00 -0.00000000000E+00 -0.97044754066E+00  0.97044754066E+00  0.00000000000E+00 0.  1.
          2    1    1    2  501    0  0.19126302395E+02  0.73645950694E+01  0.11688890372E+04  0.11690687037E+04  0.00000000000E+00 0.  1.
         21    1    1    2  503  501 -0.19126302395E+02 -0.73645950694E+01  0.11836929747E+03  0.12013052604E+03  0.00000000000E+00 0.  1.
</event>
<event>
 4    1  0.2048241E+005  0.4897002E+02  0.7546771E-02  0.1302701E+00
          2   -1    0    0  502    0  0.00000000000E+00  0.00000000000E+00  0.14076069476E+04  0.14076069476E+04  0.00000000000E+00 0. -1.
         21   -1    0    0  503  502 -0.00000000000E+00 -0.00000000000E+00 -0.72635522886E+01  0.72635522886E+01  0.00000000000E+00 0.  1.
          2    1    1    2  501    0 -0.47950560353E+02  0.99401607726E+01  0.13191079536E+04  0.13200166121E+04  0.00000000000E+00 0. -1.
         21    1    1    2  503  501  0.47950560353E+02 -0.99401607726E+01  0.81235441730E+02  0.94853887783E+02  0.00000000000E+00 0.  1.
</event>
<event>
 4    1  0.2048241E+005  0.2792380E+02  0.7546771E-02  0.1438543E+00
          2   -1    0    0  502    0  0.00000000000E+00  0.00000000000E+00  0.53485843455E+03  0.53485843455E+03  0.00000000000E+00 0. -1.
         21   -1    0    0  503  502 -0.00000000000E+00 -0.00000000000E+00 -0.26400268082E+01  0.26400268082E+01  0.00000000000E+00 0. -1.
          2    1    1    2  501    0 -0.11233422913E+02  0.25564602414E+02  0.44594903526E+03  0.44682242640E+03  0.00000000000E+00 0. -1.
         21    1    1    2  503  501  0.11233422913E+02 -0.25564602414E+02  0.86269372486E+02  0.90676034960E+02  0.00000000000E+00 0. -1.
</event>
<event>
 4    1  0.2048241E+005  0.3239244E+02  0.7546771E-02  0.1399884E+00
          2   -1    0    0  503    0  0.00000000000E+00  0.00000000000E+00  0.85037051961E+02  0.85037051961E+02  0.00000000000E+00 0. -1.
         21   -1    0    0  501  502 -0.00000000000E+00 -0.00000000000E+00 -0.22417414833E+02  0.22417414833E+02  0.00000000000E+00 0. -1.
          2    1    1    2  501    0 -0.17210123289E+02 -0.27442339780E+02  0.67334345939E+02  0.74720709976E+02  0.00000000000E+00 0. -1.
         21    1    1    2  503  502  0.17210123289E+02  0.27442339780E+02 -0.47147088112E+01  0.32733756818E+02  0.00000000000E+00 0. -1.
</event>
<event>
 4    1  0.2048241E+005  0.3699711E+02  0.7546771E-02  0.1367042E+00
          2   -1    0    0  503    0  0.00000000000E+00  0.00000000000E+00  0.44817169251E+03  0.44817169251E+03  0.00000000000E+00 0. -1.
         21   -1    0    0  501  502 -0.00000000000E+00 -0.00000000000E+00 -0.27987195718E+02  0.27987195718E+02  0.00000000000E+00 0. -1.
          2    1    1    2  501    0  0.93389037527E+01 -0.35799041793E+02  0.43480608618E+03  0.43637726694E+03  0.00000000000E+00 0. -1.
         21    1    1    2  503  502 -0.93389037527E+01  0.35799041793E+02 -0.14621589388E+02  0.39781621294E+02  0.00000000000E+00 0. -1.
</event>
<event>
 4    1  0.2048241E+005  0.2089438E+02  0.7546771E-02  0.1520778E+00
          2   -1    0    0  503    0  0.00000000000E+00  0.00000000000E+00  0.16133382794E+02  0.16133382794E+02  0.00000000000E+00 0. -1.
         21   -1    0    0  501  502 -0.00000000000E+00 -0.00000000000E+00 -0.86987357826E+02  0.86987357826E+02  0.00000000000E+00 0.  1.
          2    1    1    2  501    0 -0.17837650680E+02  0.10880870389E+02  0.73686227772E+01  0.22155625107E+02  0.00000000000E+00 0. -1.
         21    1    1    2  503  502  0.17837650680E+02 -0.10880870389E+02 -0.78222597809E+02  0.80965115514E+02  0.00000000000E+00 0.  1.
</event>
<event>
 4    1  0.2048241E+005  0.3200858E+02  0.7546771E-02  0.1402909E+00
          2   -1    0    0  502    0  0.00000000000E+00  0.00000000000E+00  0.12770249407E+04  0.12770249407E+04  0.00000000000E+00 0.  1.
         21   -1    0    0  503  502 -0.00000000000E+00 -0.00000000000E+00 -0.35667457509E+01  0.35667457509E+01  0.00000000000E+00 0. -1.
          2    1    1    2  501    0  0.31504519722E+02  0.56581025972E+01  0.12004305421E+04  0.12008572085E+04  0.00000000000E+00 0.  1.
         21    1    1    2  503  501 -0.31504519722E+02 -0.56581025972E+01  0.73027652871E+02  0.79734477936E+02  0.00000000000E+00 0. -1.
</event>
<event>
 4    1  0.2048241E+005  0.2152276E+02  0.7546771E-02  0.1511930E+00
          2   -1    0    0  503    0  0.00000000000E+00  0.00000000000E+00  0.18774043519E+02  0.18774043519E+02  0.00000000000E+00 0. -1.
         21   -1    0    0  501  502 -0.00000000000E+00 -0.00000000000E+00 -0.24693348236E+02  0.24693348236E+02  0.00000000000E+00 0.  1.
          2    1    1    2  501    0 -0.16346430866E+01 -0.21460593590E+02 -0.23499367639E+01  0.21650665996E+02  0.00000000000E+00 0. -1.
         21    1    1    2  503  502  0.16346430866E+01  0.21460593590E+02 -0.35693679527E+01  0.21816725759E+02  0.00000000000E+00 0.  1.
</event>
<event>
 4    1  0.2048241E+005  0.2334707E+02  0.7546771E-02  0.1488185E+00
          2   -1    0    0  503    0  0.00000000000E+00  0.00000000000E+00  0.81114270775E+03  0.81114270775E+03  0.00000000000E+00 0.  1.
         21   -1    0    0  501  502 -0.00000000000E+00 -0.00000000000E+00 -0.12305687191E+01  0.12305687191E+01  0.00000000000E+00 0.  1.
          2    1    1    2  501    0  0.40356392385E+01  0.22995635211E+02  0.67861655551E+03  0.67901805207E+03  0.00000000000E+00 0.  1.
         21    1    1    2  503  502 -0.40356392385E+01 -0.22995635211E+02  0.13129558352E+03  0.13335522440E+03  0.00000000000E+00 0.  1.
</event>
<event>
 4    1  0.2048241E+005  0.2154420E+02  0.7546771E-02  0.1511635E+00
          2   -1    0    0  502    0  0.00000000000E+00  0.00000000000E+00  0.12403725844E+04  0.12403725844E+04  0.00000000000E+00 0. -1.
         21   -1    0    0  503  502 -0.00000000000E+00 -0.00000000000E+00 -0.40632683924E+01  0.40632683924E+01  0.00000000000E+00 0.  1.
          2    1    1    2  501    0  0.19101780124E+02 -0.99636703795E+01  0.12110292866E+04  0.12112209071E+04  0.00000000000E+00 0. -1.
         21    1    1    2  503  501 -0.19101780124E+02  0.99636703795E+01  0.25280029352E+02  0.33214945662E+02  0.00000000000E+00 0.  1.
</event>
<event>
 4    1  0.2048241E+005  0.2701936E+02  0.7546771E-02  0.1447414E+00
          2   -1    0    0  503    0  0.00000000000E+00  0.00000000000E+00  0.78394749960E+03  0.78394749960E+03  0.00000000000E+00 0. -1.
         21   -1    0    0  501  502 -0.00000000000E+00 -0.00000000000E+00 -0.53662797686E+02  0.53662797686E+02  0.00000000000E+00 0. -1.
          2    1    1    2  501    0 -0.89351694974E+01  0.25499192371E+02  0.78029770422E+03  0.78076536378E+03  0.00000000000E+00 0. -1.
         21    1    1    2  503  502  0.89351694974E+01 -0.25499192371E+02 -0.50013002308E+02  0.56844933506E+02  0.00000000000E+00 0. -1.
</event>
<event>
 4    1  0.2048241E+005  0.2586832E+02  0.7546771E-02  0.1459320E+00
          2   -1    0    0  503    0  0.00000000000E+00  0.00000000000E+00  0.43923811574E+03  0.43923811574E+03  0.00000000000E+00 0.  1.
         21   -1    0    0  501  502 -0.00000000000E+00 -0.00000000000E+00 -0.27119839756E+02  0.27119839756E+02  0.00000000000E+00 0.  1.
          2    1    1    2  501    0  0.25862047405E+02  0.56946517182E+00  0.43259395024E+03  0.43336669873E+03  0.00000000000E+00 0.  1.
         21    1    1    2  503  502 -0.25862047405E+02 -0.56946517182E+00 -0.20475674257E+02  0.32991256763E+02  0.00000000000E+00 0.  1.
</event>
<event>
 4    1  0.2048241E+005  0.4577926E+02  0.7546771E-02  0.1317588E+00
          2   -1    0    0  502    0  0.00000000000E+00  0.00000000000E+00  0.10202287184E+04  0.10202287184E+04  0.00000000000E+00 0.  1.
         21   -1    0    0  503  502 -0.00000000000E+00 -0.00000000000E+00 -0.12653977908E+02  0.12653977908E+02  0.00000000000E+00 0. -1.
          2    1    1    2  501    0 -0.30477323243E+02 -0.34159530987E+02  0.97645527650E+03  0.97752782456E+03  0.00000000000E+00 0.  1.
         21    1    1    2  503  501  0.30477323243E+02  0.34159530987E+02  0.31119464044E+02  0.55354871797E+02  0.00000000000E+00 0. -1.
</event>
<event>
 4    1  0.2048241E+005  0.3139709E+02  0.7546771E-02  0.1407832E+00
          2   -1    0    0  503    0  0.00000000000E+00  0.00000000000E+00  0.20090752503E+04  0.20090752503E+04  0.00000000000E+00 0. -1.
         21   -1    0    0  501  502 -0.00000000000E+00 -0.00000000000E+00 -0.32405332442E+01  0.32405332442E+01  0.00000000000E+00 0. -1.
          2    1    1    2  501    0  0.28267897671E+02 -0.13663945290E+02  0.19297771775E+04  0.19300325728E+04  0.00000000000E+00 0. -1.
         21    1    1    2  503  502 -0.28267897671E+02  0.13663945290E+02  0.76057539541E+02  0.82283210686E+02  0.00000000000E+00 0. -1.
</event>
<event>
 4    1  0.2048241E+005  0.3043527E+02  0.7546771E-02  0.1415851E+00
          2   -1    0    0  502    0  0.00000000000E+00  0.00000000000E+00  0.30998035049E+01  0.30998035049E+01  0.00000000000E+00 0. -1.
         21   -1    0    0  503  502 -0.00000000000E+00 -0.00000000000E+00 -0.12381915553E+04  0.12381915553E+04  0.00000000000E+00 0.  1.
          2    1    1    2  501    0  0.29792405128E+02  0.62224043476E+01 -0.76957320566E+02  0.82757083732E+02  0.00000000000E+00 0. -1.
         21    1    1    2  503  501 -0.29792405128E+02 -0.62224043476E+01 -0.11581344312E+04  0.11585342751E+04  0.00000000000E+00 0.  1.
</event>
<event>
 4    1  0.2048241E+005  0.2136481E+02  0.7546771E-02  0.1514120E+00
          2   -1    0    0  502    0  0.00000000000E+00  0.00000000000E+00  0.30806911567E+03  0.30806911567E+03  0.00000000000E+00 0. -1.
         21   -1    0    0  503  502 -0.00000000000E+00 -0.00000000000E+00 -0.54544266344E+03  0.54544266344E+03  0.00000000000E+00 0. -1.
          2    1    1    2  501    0  0.56410843004E+01 -0.20606630286E+02  0.30748909228E+03  0.30823042827E+03  0.00000000000E+00 0. -1.
         21    1    1    2  503  501 -0.56410843004E+01  0.20606630286E+02 -0.54486264005E+03  0.54528135083E+03  0.00000000000E+00 0. -1.
</event>
<event>
 4    1  0.2048241E+005  0.2066908E+02  0.7546771E-02  0.1524042E+00
          2   -1    0    0  502    0  0.00000000000E+00  0.00000000000E+00  0.17702926621E+03  0.17702926621E+03  0.00000000000E+00 0. -1.
         21   -1    0    0  503  502 -0.00000000000E+00 -0.00000000000E+00 -0.18884882377E+02  0.18884882377E+02  0.00000000000E+00 0. -1.
          2    1    1    2  501    0  0.20609203072E+02  0.15721210923E+01  0.17055665861E+03  0.17180449532E+03  0.00000000000E+00 0. -1.
         21    1    1    2  503  501 -0.20609203072E+02 -0.15721210923E+01 -0.12412274771E+02  0.24109653274E+02  0.00000000000E+00 0. -1.
</event>
<event>
 4    1  0.2048241E+005  0.2673088E+02  0.7546771E-02  0.1450330E+00
          2   -1    0    0  503    0  0.00000000000E+00  0.00000000000E+00  0.98223420790E+01  0.98223420790E+01  0.00000000000E+00 0. -1.
         21   -1    0    0  501  502 -0.00000000000E+00 -0.00000000000E+00 -0.11702580372E+03  0.11702580372E+03  0.00000000000E+00 0. -1.
          2    1    1    2  501    0 -0.21473497233E+02 -0.15919443150E+02 -0.14588283324E+02  0.30452549383E+02  0.00000000000E+00 0. -1.
         21    1    1    2  503  502  0.21473497233E+02  0.15919443150E+02 -0.92615178320E+02  0.96395596418E+02  0.00000000000E+00 0. -1.
</event>
<event>
 4    1  0.2048241E+005  0.4053428E+02  0.7546771E-02  0.1345383E+00
          2   -1    0    0  502    0  0.00000000000E+00  0.00000000000E+00  0.19439696498E+02  0.19439696498E+02  0.00000000000E+00 0.  1.
         21   -1    0    0  503  502 -0.00000000000E+00 -0.00000000000E+00 -0.25799287252E+04  0.25799287252E+04  0.00000000000E+00 0. -1.
          2    1    1    2  501    0 -0.80154066071E+01  0.39733877929E+02 -0.20265930625E+01  0.40584909484E+02  0.00000000000E+00 0.  1.
         21    1    1    2  503  501  0.80154066071E+01 -0.39733877929E+02 -0.25584624357E+04  0.25587835122E+04  0.00000000000E+00 0. -1.
</event>
<event>
 4    1  0.2048241E+005  0.4196104E+02  0.7546771E-02  0.1337362E+00
          2   -1    0    0  502    0  0.00000000000E+00  0.00000000000E+00  0.56401894016E+02  0.56401894016E+02  0.00000000000E+00 0. -1.
         21   -1    0    0  503  502 -0.00000000000E+00 -0.00000000000E+00 -0.16781079437E+03  0.16781079437E+03  0.00000000000E+00 0.  1.
          2    1    1    2  501    0 -0.46838607590E+01  0.41698806755E+02  0.45438321687E+02  0.61849576508E+02  0.00000000000E+00 0. -1.
         21    1    1    2  503  501  0.46838607590E+01 -0.41698806755E+02 -0.15684722204E+03  0.16236311187E+03  0.00000000000E+00 0.  1.
</event>
<event>
 4    1  0.2048241E+005  0.2015914E+02  0.7546771E-02  0.1531617E+00
          2   -1    0    0  502    0  0.00000000000E+00  0.00000000000E+00  0.12502293014E+04  0.12502293014E+04  0.00000000000E+00 0. -1.
         21   -1    0    0  503  502 -0.00000000000E+00 -0.00000000000E+00 -0.35185657926E+01  0.35185657926E+01  0.00000000000E+00 0.  1.
          2    1    1    2  501    0 -0.19919107387E+02  0.31016053610E+01  0.12205717372E+04  0.12207382015E+04  0.00000000000E+00 0. -1.
         21    1    1    2  503  501  0.19919107387E+02 -0.31016053610E+01  0.26138998358E+02  0.33009665707E+02  0.00000000000E+00 0.  1.
</event>
<event>
 4    1  0.2048241E+005  0.3627222E+02  0.7546771E-02  0.1371833E+00
          2   -1    0    0  502    0  0.00000000000E+00  0.00000000000E+00  0.41580781947E+03  0.41580781947E+03  0.00000000000E+00 0.  1.
         21   -1    0    0  503  502 -0.00000000000E+00 -0.00000000000E+00 -0.37673024959E+02  0.37673024959E+02  0.00000000000E+00 0. -1.
          2    1    1    2  501    0  0.31075961887E+02 -0.18707170845E+02  0.40607711163E+03  0.40769387320E+03  0.00000000000E+00 0.  1.
         21    1    1    2  503  501 -0.31075961887E+02  0.18707170845E+02 -0.27942317126E+02  0.45786971231E+02  0.00000000000E+00 0. -1.
</event>
<event>
 4    1  0.2048241E+005  0.2002270E+02  0.7546771E-02  0.1533689E+00
          2   -1    0    0  502    0  0.00000000000E+00  0.00000000000E+00  0.55337101440E+02  0.55337101440E+02  0.00000000000E+00 0.  1.
         21   -1    0    0  503  502 -0.00000000000E+00 -0.00000000000E+00 -0.14029233774E+02  0.14029233774E+02  0.00000000000E+00 0.  1.
          2    1    1    2  501    0 -0.19109198413E+01  0.19931305928E+02  0.44772819010E+02  0.49046038502E+02  0.00000000000E+00 0.  1.
         21    1    1    2  503  501  0.19109198413E+01 -0.19931305928E+02 -0.34649513437E+01  0.20320296712E+02  0.00000000000E+00 0.  1.
</event>
<event>
 4    1  0.2048241E+005  0.2764480E+02  0.7546771E-02  0.1441236E+00
          2   -1    0    0  502    0  0.00000000000E+00  0.00000000000E+00  0.95440727046E+03  0.95440727046E+03  0.00000000000E+00 0. -1.
         21   -1    0    0  503  502 -0.00000000000E+00 -0.00000000000E+00 -0.25476940110E+02  0.25476940110E+02  0.00000000000E+00 0.  1.
          2    1    1    2  501    0  0.26075791015E+02  0.91808547723E+01  0.94664633470E+03  0.94704990258E+03  0.00000000000E+00 0. -1.
         21    1    1    2  503  501 -0.26075791015E+02 -0.91808547723E+01 -0.17716004348E+02  0.32834307994E+02  0.00000000000E+00 0.  1.
</event>
<event>
 4    1  0.2048241E+005  0.2442601E+02  0.7546771E-02  0.1475328E+00
          2   -1    0    0  502    0  0.00000000000E+00  0.00000000000E+00  0.12808344914E+04  0.12808344914E+04  0.00000000000E+00 0.  1.
         21   -1    0    0  503  502 -0.00000000000E+00 -0.00000000000E+00 -0.19093345951E+01  0.19093345951E+01  0.00000000000E+00 0. -1.
          2    1    1    2  501    0 -0.14644506822E+02  0.19549122050E+02  0.11971367268E+04  0.11973858911E+04  0.00000000000E+00 0.  1.
         21    1    1    2  503  501  0.14644506822E+02 -0.19549122050E+02  0.81788430065E+02  0.85357934872E+02  0.00000000000E+00 0. -1.
</event>
<event>
 4    1  0.2048241E+005  0.2023032E+02  0.7546771E-02  0.1530544E+00
          2   -1    0    0  503    0  0.00000000000E+00  0.00000000000E+00  0.77614746345E+03  0.77614746345E+03  0.00000000000E+00 0.  1.
         21   -1    0    0  501  502 -0.00000000000E+00 -0.00000000000E+00 -0.16499393110E+01  0.16499393110E+01  0.00000000000E+00 0.  1.
          2    1    1    2  501    0  0.19999194537E+02  0.30492763629E+01  0.70803948895E+03  0.70832844344E+03  0.00000000000E+00 0.  1.
         21    1    1    2  503  502 -0.19999194537E+02 -0.30492763629E+01  0.66458035194E+02  0.69468959330E+02  0.00000000000E+00 0.  1.
</event>
<event>
 4    1  0.2048241E+005  0.4714907E+02  0.7546771E-02  0.1311030E+00
          2   -1    0    0  502    0  0.00000000000E+00  0.00000000000E+00  0.94687703712E+03  0.94687703712E+03  0.00000000000E+00 0.  1.
         21   -1    0    0  503  502 -0.00000000000E+00 -0.00000000000E+00 -0.26647223323E+01  0.26647223323E+01  0.00000000000E+00 0.  1.
          2    1    1    2  501    0 -0.18623201000E+02  0.43315255230E+02  0.63585023314E+03  0.63759591744E+03  0.00000000000E+00 0.  1.
         21    1    1    2  503  501  0.18623201000E+02 -0.43315255230E+02  0.30836208164E+03  0.31194584201E+03  0.00000000000E+00 0.  1.
</event>
<event>
 4    1  0.2048241E+005  0.2330944E+02  0.7546771E-02  0.1488649E+00
          2   -1    0    0  503    0  0.00000000000E+00  0.00000000000E+00  0.52916599844E+03  0.52916599844E+03  0.00000000000E+00 0. -1.
         21   -1    0    0  501  502 -0.00000000000E+00 -0.00000000000E+00 -0.12199297338E+02  0.12199297338E+02  0.00000000000E+00 0.  1.
          2    1    1    2  501    0  0.23270872254E+02  0.13403787268E+01  0.51752451396E+03  0.51804917977E+03  0.00000000000E+00 0. -1.
         21    1    1    2  503  502 -0.23270872254E+02 -0.13403787268E+01 -0.55781285688E+00  0.23316116009E+02  0.00000000000E+00 0.  1.
</event>
<event>
 4    1  0.2048241E+005  0.2157260E+02  0.7546771E-02  0.1511244E+00
          2   -1    0    0  503    0  0.00000000000E+00  0.00000000000E+00  0.43400434952E+03  0.43400434952E+03  0.00000000000E+00 0.  1.
         21   -1    0    0  501  502 -0.00000000000E+00 -0.00000000000E+00 -0.46071541807E+01  0.46071541807E+01  0.00000000000E+00 0.  1.
          2    1    1    2  501    0 -0.60799432933E+01  0.20698102543E+02  0.40679543207E+03  0.40736703439E+03  0.00000000000E+00 0.  1.
         21    1    1    2  503  502  0.60799432933E+01 -0.20698102543E+02  0.22601763274E+02  0.31244469310E+02  0.00000000000E+00 0.  1.
</event>
<event>
 4    1  0.2048241E+005  0.4582013E+02  0.7546771E-02  0.1317389E+00
          2   -1    0    0  503    0  0.00000000000E+00  0.00000000000E+00  0.16260891135E+04  0.16260891135E+04  0.00000000000E+00 0. -1.
         21   -1    0    0  501  502 -0.00000000000E+00 -0.00000000000E+00 -0.59807867654E+02  0.59807867654E+02  0.00000000000E+00 0.  1.
          2    1    1    2  501    0 -0.45746682438E+02 -0.25933558194E+01  0.16169407350E+04  0.16175898198E+04  0.00000000000E+00 0. -1.
         21    1    1    2  503  502  0.45746682438E+02  0.25933558194E+01 -0.50659489194E+02  0.68307161366E+02  0.00000000000E+00 0.  1.
</event>
<event>
 4    1  0.2048241E+005  0.3624394E+02  0.7546771E-02  0.1372023E+00
          2   -1    0    0  503    0  0.00000000000E+00  0.00000000000E+00  0.46666323674E+02  0.46666323674E+02  0.00000000000E+00 0. -1.
         21   -1    0    0  501  502 -0.00000000000E+00 -0.00000000000E+00 -0.11471602872E+03  0.11471602872E+03  0.00000000000E+00 0.  1.
          2    1    1    2  501    0 -0.20290671053E+02 -0.30031844356E+02  0.36070555649E+02  0.51134215473E+02  0.00000000000E+00 0. -1.
         21    1    1    2  503  502  0.20290671053E+02  0.30031844356E+02 -0.10412026069E+03  0.11024813692E+03  0.00000000000E+00 0.  1.
</event>
<event>
 4    1  0.2048241E+005  0.6424047E+02  0.7546771E-02  0.1246068E+00
          2   -1    0    0  502    0  0.00000000000E+00  0.00000000000E+00  0.26043351877E+04  0.26043351877E+04  0.00000000000E+00 0. -1.
         21   -1    0    0  503  502 -0.00000000000E+00 -0.00000000000E+00 -0.28651197708E+01  0.28651197708E+01  0.00000000000E+00 0. -1.
          2    1    1    2  501    0 -0.38977666431E+02 -0.51064463363E+02  0.21722314631E+04  0.21731811630E+04  0.00000000000E+00 0. -1.
         21    1    1    2  503  501  0.38977666431E+02  0.51064463363E+02  0.42923860482E+03  0.43401914447E+03  0.00000000000E+00 0. -1.
</event>
<event>
 4    1  0.2048241E+005  0.2431532E+02  0.7546771E-02  0.1476611E+00
          2   -1    0    0  502    0  0.00000000000E+00  0.00000000000E+00  0.14541709524E+04  0.14541709524E+04  0.00000000000E+00 0.  1.
         21   -1    0    0  503  502 -0.00000000000E+00 -0.00000000000E+00 -0.33616511251E+01  0.33616511251E+01  0.00000000000E+00 0.  1.
          2    1    1    2  501    0  0.98166218571E+01 -0.22245642954E+02  0.14086804508E+04  0.14088902893E+04  0.00000000000E+00 0.  1.
         21    1    1    2  503  501 -0.98166218571E+01  0.22245642954E+02  0.42128850477E+02  0.48642314271E+02  0.00000000000E+00 0.  1.
</event>
<event>
 4    1  0.2048241E+005  0.2355994E+02  0.7546771E-02  0.1485584E+00
          2   -1    0    0  503    0  0.00000000000E+00  0.00000000000E+00  0.22085751778E+03  0.22085751778E+03  0.00000000000E+00 0.  1.
         21   -1    0    0  501  502 -0.00000000000E+00 -0.00000000000E+00 -0.52286304861E+02  0.52286304861E+02  0.00000000000E+00 0.  1.
          2    1    1    2  501    0  0.20550864048E+02 -0.11520970036E+02  0.21753478747E+03  0.21880688865E+03  0.00000000000E+00 0.  1.
         21    1    1    2  503  502 -0.20550864048E+02  0.11520970036E+02 -0.48963574544E+02  0.54336933993E+02  0.00000000000E+00 0.  1.
</event>
<event>
 4    1  0.2048241E+005  0.2389249E+02  0.7546771E-02  0.1481585E+00
          2   -1    0    0  502    0  0.00000000000E+00  0.00000000000E+00  0.12204577226E+04  0.12204577226E+04  0.00000000000E+00 0. -1.
         21   -1    0    0  503  502 -0.00000000000E+00 -0.00000000000E+00 -0.14107605990E+01  0.14107605990E+01  0.00000000000E+00 0. -1.
          2    1    1    2  501    0 -0.23221259027E+02 -0.56235418457E+01  0.11090165778E+04  0.11092739161E+04  0.00000000000E+00 0. -1.
         21    1    1    2  503  501  0.23221259027E+02  0.56235418457E+01  0.11003038416E+03  0.11259456707E+03  0.00000000000E+00 0. -1.
</event>
<event>
 4    1  0.2048241E+005  0.2293638E+02  0.7546771E-02  0.1493299E+00
          2   -1    0    0  502    0  0.00000000000E+00  0.00000000000E+00  0.12586648185E+02  0.12586648185E+02  0.00000000000E+00 0. -1.
         21   -1    0    0  503  502 -0.00000000000E+00 -0.00000000000E+00 -0.11991517454E+03  0.11991517454E+03  0.00000000000E+00 0.  1.
          2    1    1    2  501    0 -0.22908263497E+02 -0.11352682924E+01 -0.19153753714E+00  0.22937176312E+02  0.00000000000E+00 0. -1.
         21    1    1    2  503  501  0.22908263497E+02  0.11352682924E+01 -0.10713698881E+03  0.10956464641E+03  0.00000000000E+00 0.  1.
</event>
<event>
 4    1  0.2048241E+005  0.2092696E+02  0.7546771E-02  0.1520310E+00
          2   -1    0    0  503    0  0.00000000000E+00  0.00000000000E+00  0.25365007884E+01  0.25365007884E+01  0.00000000000E+00 0.  1.
         21   -1    0    0  501  502 -0.00000000000E+00 -0.00000000000E+00 -0.27248897300E+03  0.27248897300E+03  0.00000000000E+00 0.  1.
          2    1    1    2  501    0 -0.13708333183E+02  0.15811997056E+02 -0.51740607962E+02  0.55812437340E+02  0.00000000000E+00 0.  1.
         21    1    1    2  503  502  0.13708333183E+02 -0.15811997056E+02 -0.21821186425E+03  0.21921303645E+03  0.00000000000E+00 0.  1.
</event>
<event>
 4    1  0.2048241E+005  0.2367937E+02  0.7546771E-02  0.1484139E+00
          2   -1    0    0  502    0  0.00000000000E+00  0.00000000000E+00  0.25063779244E+03  0.25063779244E+03  0.00000000000E+00 0. -1.
         21   -1    0    0  503  502 -0.00000000000E+00 -0.00000000000E+00 -0.49317242165E+01  0.49317242165E+01  0.00000000000E+00 0.  1.
          2    1    1    2  501    0  0.23374469567E+02  0.37877189250E+01  0.21730810636E+03  0.21859443207E+03  0.00000000000E+00 0. -1.
         21    1    1    2  503  501 -0.23374469567E+02 -0.37877189250E+01  0.28397961865E+02  0.36975084588E+02  0.00000000000E+00 0.  1.
</event>
<event>
 4    1  0.2048241E+005  0.2111377E+02  0.7546771E-02  0.1517647E+00
          2   -1    0    0  503    0  0.00000000000E+00  0.00000000000E+00  0.16371462562E+04  0.16371462562E+04  0.00000000000E+00 0. -1.
         21   -1    0    0  501  502 -0.00000000000E+00 -0.00000000000E+00 -0.87164569496E+00  0.87164569496E+00  0.00000000000E+00 0.  1.
          2    1    1    2  501    0  0.14033168857E+02  0.15775341509E+02  0.14972755171E+04  0.14974243772E+04  0.00000000000E+00 0. -1.
         21    1    1    2  503  502 -0.14033168857E+02 -0.15775341509E+02  0.13899909339E+03  0.14059352472E+03  0.00000000000E+00 0.  1.
</event>
<event>
 4    1  0.2048241E+005  0.3999093E+02  0.7546771E-02  0.1348539E+00
          2   -1    0    0  502    0  0.00000000000E+00  0.00000000000E+00  0.10239977320E+04  0.10239977320E+04  0.00000000000E+00 0.  1.
         21   -1    0    0  503  502 -0.00000000000E+00 -0.00000000000E+00 -0.24479749919E+01  0.24479749919E+01  0.00000000000E+00 0.  1.
          2    1    1    2  501    0  0.13494910334E+02  0.37645210758E+02  0.81956505686E+03  0.82054016168E+03  0.00000000000E+00 0.  1.
         21    1    1    2  503  501 -0.13494910334E+02 -0.37645210758E+02  0.20198470017E+03  0.20590554534E+03  0.00000000000E+00 0.  1.
</event>
<event>
 4    1  0.2048241E+005  0.2016643E+02  0.7546771E-02  0.1531507E+00
          2   -1    0    0  502    0  0.00000000000E+00  0.00000000000E+00  0.29002559474E+03  0.29002559474E+03  0.00000000000E+00 0. -1.
         21   -1    0    0  503  502 -0.00000000000E+00 -0.00000000000E+00 -0.53370476856E+01  0.53370476856E+01  0.00000000000E+00 0. -1.
          2    1    1    2  501    0 -0.46143360075E+01  0.19631426139E+02  0.26914941949E+03  0.26990386251E+03  0.00000000000E+00 0. -1.
         21    1    1    2  503  501  0.46143360075E+01 -0.19631426139E+02  0.15539127565E+02  0.25458779911E+02  0.00000000000E+00 0. -1.
</event>
<event>
 4    1  0.2048241E+005  0.2592272E+02  0.7546771E-02  0.1458740E+00
          2   -1    0    0  503    0  0.00000000000E+00  0.00000000000E+00  0.16498751936E+03  0.16498751936E+03  0.00000000000E+00 0.  1.
         21   -1    0    0  501  502 -0.00000000000E+00 -0.00000000000E+00 -0.40749002977E+01  0.40749002977E+01  0.00000000000E+00 0.  1.
          2    1    1    2  501    0  0.24390472160E+02  0.87802313184E+01  0.78611828360E+02  0.82775643472E+02  0.00000000000E+00 0.  1.
         21    1    1    2  503  502 -0.24390472160E+02 -0.87802313184E+01  0.82300790707E+02  0.86286776190E+02  0.00000000000E+00 0.  1.
</event>
<event>
 4    1  0.2048241E+005  0.2749765E+02  0.7546771E-02  0.1442672E+00
          2   -1    0    0  503    0  0.00000000000E+00  0.00000000000E+00  0.24901170370E+02  0.24901170370E+02  0.00000000000E+00 0. -1.
         21   -1    0    0  501  502 -0.00000000000E+00 -0.00000000000E+00 -0.38797578803E+02  0.38797578803E+02  0.00000000000E+00 0. -1.
          2    1    1    2  501    0 -0.49809795060E+01  0.27042755250E+02  0.79002820791E+01  0.28610054618E+02  0.00000000000E+00 0. -1.
         21    1    1    2  503  502  0.49809795060E+01 -0.27042755250E+02 -0.21796690512E+02  0.35088694555E+02  0.00000000000E+00 0. -1.
</event>
<event>
 4    1  0.2048241E+005  0.2169247E+02  0.7546771E-02  0.1509604E+00
          2   -1    0    0  502    0  0.00000000000E+00  0.00000000000E+00  0.17084816963E+02  0.17084816963E+02  0.00000000000E+00 0.  1.
         21   -1    0    0  503  502 -0.00000000000E+00 -0.00000000000E+00 -0.29017335278E+02  0.29017335278E+02  0.00000000000E+00 0.  1.
          2    1    1    2  501    0 -0.35665859041E+01 -0.21397261185E+02 -0.76997059187E+00  0.21706132219E+02  0.00000000000E+00 0.  1.
         21    1    1    2  503  501  0.35665859041E+01  0.21397261185E+02 -0.11162547723E+02  0.24396020021E+02  0.00000000000E+00 0.  1.
</event>
<event>
 4    1  0.2048241E+005  0.2281799E+02  0.7546771E-02  0.1494796E+00
          2   -1    0    0  503    0  0.00000000000E+00  0.00000000000E+00  0.63401278544E+01  0.63401278544E+01  0.00000000000E+00 0. -1.
         21   -1    0    0  501  502 -0.00000000000E+00 -0.00000000000E+00 -0.52022699223E+03  0.52022699223E+03  0.00000000000E+00 0. -1.
          2    1    1    2  501    0 -0.21343374403E+02 -0.80697734790E+01 -0.15332464676E+02  0.27490822976E+02  0.00000000000E+00 0. -1.
         21    1    1    2  503  502  0.21343374403E+02  0.80697734790E+01 -0.49855439970E+03  0.49907629711E+03  0.00000000000E+00 0. -1.
</event>
<event>
 4    1  0.2048241E+005  0.4681805E+02  0.7546771E-02  0.1312591E+00
          2   -1    0    0  502    0  0.00000000000E+00  0.00000000000E+00  0.22484282765E+04  0.22484282765E+04  0.00000000000E+00 0.  1.
         21   -1    0    0  503  502 -0.00000000000E+00 -0.00000000000E+00 -0.66729692106E+02  0.66729692106E+02  0.00000000000E+00 0.  1.
          2    1    1    2  501    0 -0.35487308399E+02  0.30538186129E+02  0.22399414744E+04  0.22404307038E+04  0.00000000000E+00 0.  1.
         21    1    1    2  503  501  0.35487308399E+02 -0.30538186129E+02 -0.58242889995E+02  0.74727264799E+02  0.00000000000E+00 0.  1.
</event>
<event>
 4    1  0.2048241E+005  0.3026945E+02  0.7546771E-02  0.1417269E+00
          2   -1    0    0  502    0  0.00000000000E+00  0.00000000000E+00  0.63854118931E+03  0.63854118931E+03  0.00000000000E+00 0.  1.
         21   -1    0    0  503  502 -0.00000000000E+00 -0.00000000000E+00 -0.75507267457E+02  0.75507267457E+02  0.00000000000E+00 0.  1.
          2    1    1    2  501    0  0.20283622426E+02  0.22468068482E+02  0.63513258072E+03  0.63585346939E+03  0.00000000000E+00 0.  1.
         21    1    1    2  503  501 -0.20283622426E+02 -0.22468068482E+02 -0.72098658870E+02  0.78194987377E+02  0.00000000000E+00 0.  1.
</event>
<event>
 4    1  0.2048241E+005  0.2562196E+02  0.7546771E-02  0.1461964E+00
          2   -1    0    0  502    0  0.00000000000E+00  0.00000000000E+00  0.85701729117E+02  0.85701729117E+02  0.00000000000E+00 0.  1.
         21   -1    0    0  503  502 -0.00000000000E+00 -0.00000000000E+00 -0.15182190568E+03  0.15182190568E+03  0.00000000000E+00 0. -1.
          2    1    1    2  501    0  0.25007913264E+02 -0.55757563105E+01  0.82666914478E+02  0.86546539697E+02  0.00000000000E+00 0.  1.
         21    1    1    2  503  501 -0.25007913264E+02  0.55757563105E+01 -0.14878709105E+03  0.15097709510E+03  0.00000000000E+00 0. -1.
</event>
<event>
 4    1  0.2048241E+005  0.2252298E+02  0.7546771E-02  0.1498577E+00
          2   -1    0    0  503    0  0.00000000000E+00  0.00000000000E+00  0.67183045571E+02  0.67183045571E+02  0.00000000000E+00 0.  1.
         21   -1    0    0  501  502 -0.00000000000E+00 -0.00000000000E+00 -0.10455217695E+02  0.10455217695E+02  0.00000000000E+00 0.  1.
          2    1    1    2  501    0 -0.22492351030E+02  0.11741473295E+01  0.48824130185E+02  0.53768765702E+02  0.00000000000E+00 0.  1.
         21    1    1    2  503  502  0.22492351030E+02 -0.11741473295E+01  0.79036976915E+01  0.23869497565E+02  0.00000000000E+00 0.  1.
</event>
<event>
 4    1  0.2048241E+005  0.2283620E+02  0.7546771E-02  0.1494565E+00
          2   -1    0    0  503    0  0.00000000000E+00  0.00000000000E+00  0.82732359183E+03  0.82732359183E+03  0.00000000000E+00 0.  1.
         21   -1    0    0  501  502 -0.00000000000E+00 -0.00000000000E+00 -0.11959329224E+02  0.11959329224E+02  0.00000000000E+00 0. -1.
          2    1    1    2  501    0  0.15135932253E+02  0.17099575712E+02  0.81611495370E+03  0.81643438780E+03  0.00000000000E+00 0.  1.
         21    1    1    2  503  502 -0.15135932253E+02 -0.17099575712E+02 -0.75069109224E+00  0.22848533254E+02  0.00000000000E+00 0. -1.
</event>
<event>
 4    1  0.2048241E+005  0.2139769E+02  0.7546771E-02  0.1513662E+00
          2   -1    0    0  502    0  0.00000000000E+00  0.00000000000E+00  0.61128604144E+03  0.61128604144E+03  0.00000000000E+00 0. -1.
         21   -1    0    0  503  502 -0.00000000000E+00 -0.00000000000E+00 -0.47606690141E+02  0.47606690141E+02  0.00000000000E+00 0. -1.
          2    1    1    2  501    0  0.14498474690E+02 -0.15737066202E+02  0.60868411913E+03  0.60906011026E+03  0.00000000000E+00 0. -1.
         21    1    1    2  503  501 -0.14498474690E+02  0.15737066202E+02 -0.45004767831E+02  0.49832621329E+02  0.00000000000E+00 0. -1.
</event>
<event>
 4    1  0.2048241E+005  0.2970961E+02  0.7546771E-02  0.1422137E+00
          2   -1    0    0  502    0  0.00000000000E+00  0.00000000000E+00  0.17833027775E+03  0.17833027775E+03  0.00000000000E+00 0. -1.
         21   -1    0    0  503  502 -0.00000000000E+00 -0.00000000000E+00 -0.79822797907E+01  0.79822797907E+01  0.00000000000E+00 0. -1.
          2    1    1    2  501    0  0.28855002188E+02 -0.70745862658E+01  0.14259397271E+03  0.14565610861E+03  0.00000000000E+00 0. -1.
         21    1    1    2  503  501 -0.28855002188E+02  0.70745862658E+01  0.27754025248E+02  0.40656448930E+02  0.00000000000E+00 0. -1.
</event>
<event>
 4    1  0.2048241E+005  0.3541700E+02  0.7546771E-02  0.1377655E+00
          2   -1    0    0  503    0  0.00000000000E+00  0.00000000000E+00  0.22142003699E+04  0.22142003699E+04  0.00000000000E+00 0. -1.
         21   -1    0    0  501  502 -0.00000000000E+00 -0.00000000000E+00 -0.36029598587E+01  0.36029598587E+01  0.00000000000E+00 0. -1.
          2    1    1    2  501    0 -0.26518658026E+02  0.23476046012E+02  0.21232956334E+04  0.21235909943E+04  0.00000000000E+00 0. -1.
         21    1    1    2  503  502  0.26518658026E+02 -0.23476046012E+02  0.87301776556E+02  0.94212335443E+02  0.00000000000E+00 0. -1.
</event>
<event>
 4    1  0.2048241E+005  0.2296917E+02  0.7546771E-02  0.1492886E+00
          2   -1    0    0  503    0  0.00000000000E+00  0.00000000000E+00  0.88224774435E+03  0.88224774435E+03  0.00000000000E+00 0. -1.
         21   -1    0    0  501  502 -0.00000000000E+00 -0.00000000000E+00 -0.24832460428E+01  0.24832460428E+01  0.00000000000E+00 0. -1.
          2    1    1    2  501    0 -0.15925940689E+02 -0.16551345272E+02  0.82532118846E+03  0.82564074920E+03  0.00000000000E+00 0. -1.
         21    1    1    2  503  502  0.15925940689E+02  0.16551345272E+02  0.54443309840E+02  0.59090241186E+02  0.00000000000E+00 0. -1.
</event>
<event>
 4    1  0.2048241E+005  0.3022321E+02  0.7546771E-02  0.1417666E+00
          2   -1    0    0  502    0  0.00000000000E+00  0.00000000000E+00  0.15973742993E+04  0.15973742993E+04  0.00000000000E+00 0. -1.
         21   -1    0    0  503  502 -0.00000000000E+00 -0.00000000000E+00 -0.44664234873E+01  0.44664234873E+01  0.00000000000E+00 0. -1.
          2    1    1    2  501    0 -0.29587963396E+02 -0.61639847334E+01  0.15443476856E+04  0.15446433945E+04  0.00000000000E+00 0. -1.
         21    1    1    2  503  501  0.29587963396E+02  0.61639847334E+01  0.48560190264E+02  0.57197328296E+02  0.00000000000E+00 0. -1.
</event>
<event>
 4    1  0.2048241E+005  0.2650366E+02  0.7546771E-02  0.1452659E+00
          2   -1    0    0  502    0  0.00000000000E+00  0.00000000000E+00  0.10658964800E+04  0.10658964800E+04  0.00000000000E+00 0. -1.
         21   -1    0    0  503  502 -0.00000000000E+00 -0.00000000000E+00 -0.17175190681E+01  0.17175190681E+01  0.00000000000E+00 0. -1.
          2    1    1    2  501    0 -0.60443476073E+01 -0.25805227027E+02  0.95115250191E+03  0.95152168959E+03  0.00000000000E+00 0. -1.
         21    1    1    2  503  501  0.60443476073E+01  0.25805227027E+02  0.11302645905E+03  0.11609230950E+03  0.00000000000E+00 0. -1.
</event>
<event>
 4    1  0.2048241E+005  0.3410521E+02  0.7546771E-02  0.1386965E+00
          2   -1    0    0  502    0  0.00000000000E+00  0.00000000000E+00  0.13450777415E+04  0.13450777415E+04  0.00000000000E+00 0. -1.
         21   -1    0    0  503  502 -0.00000000000E+00 -0.00000000000E+00 -0.29243512209E+01  0.29243512209E+01  0.00000000000E+00 0.  1.
          2    1    1    2  501    0 -0.16249738392E+02 -0.29985189577E+02  0.12367121474E+04  0.12371823233E+04  0.00000000000E+00 0. -1.
         21    1    1    2  503  501  0.16249738392E+02  0.29985189577E+02  0.10544124288E+03  0.11081976941E+03  0.00000000000E+00 0.  1.
</event>
<event>
 4    1  0.2048241E+005  0.5143085E+02  0.7546771E-02  0.1292085E+00
          2   -1    0    0  503    0  0.00000000000E+00  0.00000000000E+00  0.11447586286E+02  0.11447586286E+02  0.00000000000E+00 0.  1.
         21   -1    0    0  501  502 -0.00000000000E+00 -0.00000000000E+00 -0.46872894056E+03  0.46872894056E+03  0.00000000000E+00 0. -1.
          2    1    1    2  501    0 -0.13823270012E+02  0.49538365965E+02 -0.57681659237E+02  0.77280698163E+02  0.00000000000E+00 0.  1.
         21    1    1    2  503  502  0.13823270012E+02 -0.49538365965E+02 -0.39959969504E+03  0.40289582869E+03  0.00000000000E+00 0. -1.
</event>
<event>
 4    1  0.2048241E+005  0.2253678E+02  0.7546771E-02  0.1498398E+00
          2   -1    0    0  502    0  0.00000000000E+00  0.00000000000E+00  0.72985644135E+03  0.72985644135E+03  0.00000000000E+00 0. -1.
         21   -1    0    0  503  502 -0.00000000000E+00 -0.00000000000E+00 -0.91883370025E+00  0.91883370025E+00  0.00000000000E+00 0.  1.
          2    1    1    2  501    0 -0.91106302294E+01  0.20613176223E+02  0.54444865773E+03  0.54491489934E+03  0.00000000000E+00 0. -1.
         21    1    1    2  503  501  0.91106302294E+01 -0.20613176223E+02  0.18448894992E+03  0.18586037571E+03  0.00000000000E+00 0.  1.
</event>
<event>
 4    1  0.2048241E+005  0.2154231E+02  0.7546771E-02  0.1511661E+00
          2   -1    0    0  502    0  0.00000000000E+00  0.00000000000E+00  0.57807844831E+01  0.57807844831E+01  0.00000000000E+00 0.  1.
         21   -1    0    0  503  502 -0.00000000000E+00 -0.00000000000E+00 -0.15351651923E+03  0.15351651923E+03  0.00000000000E+00 0. -1.
          2    1    1    2  501    0  0.17636807951E+02  0.12369886011E+02 -0.18854275128E+02  0.28627866934E+02  0.00000000000E+00 0.  1.
         21    1    1    2  503  501 -0.17636807951E+02 -0.12369886011E+02 -0.12888145962E+03  0.13066943678E+03  0.00000000000E+00 0. -1.
</event>
<event>
 4    1  0.2048241E+005  0.2803851E+02  0.7546771E-02  0.1437446E+00
          2   -1    0    0  503    0  0.00000000000E+00  0.00000000000E+00  0.12927738259E+04  0.12927738259E+04  0.00000000000E+00 0. -1.
         21   -1    0    0  501  502 -0.00000000000E+00 -0.00000000000E+00 -0.74688354654E+00  0.74688354654E+00  0.00000000000E+00 0.  1.
          2    1    1    2  501    0  0.32337344022E+00 -0.28036643644E+02  0.92479183989E+03  0.92521678815E+03  0.00000000000E+00 0. -1.
         21    1    1    2  503  502 -0.32337344022E+00  0.28036643644E+02  0.36723510246E+03  0.36830392129E+03  0.00000000000E+00 0.  1.
</event>
<event>
 4    1  0.2048241E+005  0.2799959E+02  0.7546771E-02  0.1437817E+00
          2   -1    0    0  503    0  0.00000000000E+00  0.00000000000E+00  0.17655342977E+03  0.17655342977E+03  0.00000000000E+00 0.  1.
         21   -1    0    0  501  502 -0.00000000000E+00 -0.00000000000E+00 -0.29450407314E+02  0.29450407314E+02  0.00000000000E+00 0.  1.
          2    1    1    2  501    0  0.27767993485E+02  0.35937873161E+01  0.16847116205E+03  0.17078205179E+03  0.00000000000E+00 0.  1.
         21    1    1    2  503  502 -0.27767993485E+02 -0.35937873161E+01 -0.21368139598E+02  0.35221785295E+02  0.00000000000E+00 0.  1.
</event>
<event>
 4    1  0.2048241E+005  0.2257497E+02  0.7546771E-02  0.1497905E+00
          2   -1    0    0  503    0  0.00000000000E+00  0.00000000000E+00  0.26439417232E+03  0.26439417232E+03  0.00000000000E+00 0. -1.
         21   -1    0    0  501  502 -0.00000000000E+00 -0.00000000000E+00 -0.77947976511E+01  0.77947976511E+01  0.00000000000E+00 0. -1.
          2    1    1    2  501    0 -0.34315479583E+01 -0.22312635019E+02  0.24637411339E+03  0.24740621042E+03  0.00000000000E+00 0. -1.
         21    1    1    2  503  502  0.34315479583E+01  0.22312635019E+02  0.10225261274E+02  0.24782759552E+02  0.00000000000E+00 0. -1.
</event>
<event>
 4    1  0.2048241E+005  0.2095130E+02  0.7546771E-02  0.1519961E+00
          2   -1    0    0  502    0  0.00000000000E+00  0.00000000000E+00  0.11375391980E+04  0.11375391980E+04  0.00000000000E+00 0. -1.
         21   -1    0    0  503  502 -0.00000000000E+00 -0.00000000000E+00 -0.73461935375E+00  0.73461935375E+00  0.00000000000E+00 0.  1.
          2    1    1    2  501    0  0.20914612736E+02 -0.12392976610E+01  0.96053607597E+03  0.96076454458E+03  0.00000000000E+00 0. -1.
         21    1    1    2  503  501 -0.20914612736E+02  0.12392976610E+01  0.17626850272E+03  0.17750927281E+03  0.00000000000E+00 0.  1.
</event>
<event>
 4    1  0.2048241E+005  0.3244327E+02  0.7546771E-02  0.1399488E+00
          2   -1    0    0  503    0  0.00000000000E+00  0.00000000000E+00  0.22649418028E+03  0.22649418028E+03  0.00000000000E+00 0. -1.
         21   -1    0    0  501  502 -0.00000000000E+00 -0.00000000000E+00 -0.46540244228E+01  0.46540244228E+01  0.00000000000E+00 0. -1.
          2    1    1    2  501    0  0.29566063314E+02  0.13357169534E+02  0.11534242206E+03  0.11981836422E+03  0.00000000000E+00 0. -1.
         21    1    1    2  503  502 -0.29566063314E+02 -0.13357169534E+02  0.10649773380E+03  0.11132984048E+03  0.00000000000E+00 0. -1.
</event>
<event>
 4    1  0.2048241E+005  0.2666708E+02  0.7546771E-02  0.1450981E+00
          2   -1    0    0  502    0  0.00000000000E+00  0.00000000000E+00  0.39267194159E+03  0.39267194159E+03  0.00000000000E+00 0. -1.
         21   -1    0    0  503  502 -0.00000000000E+00 -0.00000000000E+00 -0.36677517464E+01  0.36677517464E+01  0.00000000000E+00 0. -1.
          2    1    1    2  501    0  0.56843163326E+01 -0.26054210581E+02  0.33550017556E+03  0.33655831759E+03  0.00000000000E+00 0. -1.
         21    1    1    2  503  501 -0.56843163326E+01  0.26054210581E+02  0.53504014285E+02  0.59781375744E+02  0.00000000000E+00 0. -1.
</event>
<event>
 4    1  0.2048241E+005  0.2231124E+02  0.7546771E-02  0.1501333E+00
          2   -1    0    0  502    0  0.00000000000E+00  0.00000000000E+00  0.60860980481E+02  0.60860980481E+02  0.00000000000E+00 0. -1.
         21   -1    0    0  503  502 -0.00000000000E+00 -0.00000000000E+00 -0.13685022140E+02  0.13685022140E+02  0.00000000000E+00 0. -1.
          2    1    1    2  501    0  0.16921324010E+02  0.14541670070E+02  0.47229994131E+02  0.52234698433E+02  0.00000000000E+00 0. -1.
         21    1    1    2  503  501 -0.16921324010E+02 -0.14541670070E+02 -0.54035790657E-01  0.22311304188E+02  0.00000000000E+00 0. -1.
</event>
<event>
 4    1  0.2048241E+005  0.3635087E+02  0.7546771E-02  0.1371307E+00
          2   -1    0    0  503    0  0.00000000000E+00  0.00000000000E+00  0.25321754089E+04  0.25321754089E+04  0.00000000000E+00 0.  1.
         21   -1    0    0  501  502 -0.00000000000E+00 -0.00000000000E+00 -0.29061012448E+01  0.29061012448E+01  0.00000000000E+00 0.  1.
          2    1    1    2  501    0  0.34570807761E+02  0.11235889363E+02  0.24127450298E+04  0.24130188488E+04  0.00000000000E+00 0.  1.
         21    1    1    2  503  502 -0.34570807761E+02 -0.11235889363E+02  0.11652427787E+03  0.12206266133E+03  0.00000000000E+00 0.  1.
</event>
<event>
 4    1  0.2048241E+005  0.2016237E+02  0.7546771E-02  0.1531568E+00
          2   -1    0    0  503    0  0.00000000000E+00  0.00000000000E+00  0.44480138767E+01  0.44480138767E+01  0.00000000000E+00 0. -1.
         21   -1    0    0  501  502 -0.00000000000E+00 -0.00000000000E+00 -0.93642238904E+03  0.93642238904E+03  0.00000000000E+00 0. -1.
          2    1    1    2  501    0 -0.10264163023E+02  0.17354195751E+02 -0.19098251131E+02  0.27771646494E+02  0.00000000000E+00 0. -1.
         21    1    1    2  503  502  0.10264163023E+02 -0.17354195751E+02 -0.91287612403E+03  0.91309875642E+03  0.00000000000E+00 0. -1.
</event>
<event>
 4    1  0.2048241E+005  0.2048978E+02  0.7546771E-02  0.1526676E+00
          2   -1    0    0  503    0  0.00000000000E+00  0.00000000000E+00  0.10817958807E+04  0.10817958807E+04  0.00000000000E+00 0.  1.
         21   -1    0    0  501  502 -0.00000000000E+00 -0.00000000000E+00 -0.16523730594E+01  0.16523730594E+01  0.00000000000E+00 0.  1.
          2    1    1    2  501    0 -0.14573181733E+02 -0.14403249293E+02  0.10139281561E+04  0.10141351670E+04  0.00000000000E+00 0.  1.
         21    1    1    2  503  502  0.14573181733E+02  0.14403249293E+02  0.66215351495E+02  0.69313086713E+02  0.00000000000E+00 0.  1.
</event>
<event>
 4    1  0.2048241E+005  0.2013010E+02  0.7546771E-02  0.1532056E+00
          2   -1    0    0  503    0  0.00000000000E+00  0.00000000000E+00  0.45402042725E+01  0.45402042725E+01  0.00000000000E+00 0.  1.
         21   -1    0    0  501  502 -0.00000000000E+00 -0.00000000000E+00 -0.13885156279E+04  0.13885156279E+04  0.00000000000E+00 0.  1.
          2    1    1    2  501    0  0.18349599684E+02 -0.82772728075E+01 -0.18217466782E+02  0.27149533138E+02  0.00000000000E+00 0.  1.
         21    1    1    2  503  502 -0.18349599684E+02  0.82772728075E+01 -0.13657579568E+04  0.13659062990E+04  0.00000000000E+00 0.  1.
</event>
<event>
 4    1  0.2048241E+005  0.2208686E+02  0.7546771E-02  0.1504294E+00
          2   -1    0    0  503    0  0.00000000000E+00  0.00000000000E+00  0.55285307948E+02  0.55285307948E+02  0.00000000000E+00 0.  1.
         21   -1    0    0  501  502 -0.00000000000E+00 -0.00000000000E+00 -0.82592670475E+02  0.82592670475E+02  0.00000000000E+00 0.  1.
          2    1    1    2  501    0  0.18477733067E+02 -0.12099702439E+02  0.51498741303E+02  0.56035254744E+02  0.00000000000E+00 0.  1.
         21    1    1    2  503  502 -0.18477733067E+02  0.12099702439E+02 -0.78806103830E+02  0.81842723680E+02  0.00000000000E+00 0.  1.
</event>
<event>
 4    1  0.2048241E+005  0.2262915E+02  0.7546771E-02  0.1497208E+00
          2   -1    0    0  503    0  0.00000000000E+00  0.00000000000E+00  0.16569859615E+04  0.16569859615E+04  0.00000000000E+00 0.  1.
         21   -1    0    0  501  502 -0.00000000000E+00 -0.00000000000E+00 -0.84710549641E+00  0.84710549641E+00  0.00000000000E+00 0. -1.
          2    1    1    2  501    0 -0.18051274803E+02  0.13646611818E+02  0.14887001232E+04  0.14888721017E+04  0.00000000000E+00 0.  1.
         21    1    1    2  503  502  0.18051274803E+02 -0.13646611818E+02  0.16743873281E+03  0.16896096526E+03  0.00000000000E+00 0. -1.
</event>
<event>
 4    1  0.2048241E+005  0.4589780E+02  0.7546771E-02  0.1317010E+00
          2   -1    0    0  503    0  0.00000000000E+00  0.00000000000E+00  0.99274869820E+02  0.99274869820E+02  0.00000000000E+00 0. -1.
         21   -1    0    0  501  502 -0.00000000000E+00 -0.00000000000E+00 -0.23924515304E+02  0.23924515304E+02  0.00000000000E+00 0.  1.
          2    1    1    2  501    0  0.36486413704E+01 -0.45752542893E+02  0.58386398786E+02  0.74266946405E+02  0.00000000000E+00 0. -1.
         21    1    1    2  503  502 -0.36486413704E+01  0.45752542893E+02  0.16963955730E+02  0.48932438719E+02  0.00000000000E+00 0.  1.
</event>
<event>
 4    1  0.2048241E+005  0.2117575E+02  0.7546771E-02  0.1516770E+00
          2   -1    0    0  503    0  0.00000000000E+00  0.00000000000E+00  0.28659458052E+03  0.28659458052E+03  0.00000000000E+00 0. -1.
         21   -1    0    0  501  502 -0.00000000000E+00 -0.00000000000E+00 -0.27605250658E+02  0.27605250658E+02  0.00000000000E+00 0. -1.
          2    1    1    2  501    0  0.20114701945E+02 -0.66190072575E+01  0.28207755184E+03  0.28287127416E+03  0.00000000000E+00 0. -1.
         21    1    1    2  503  502 -0.20114701945E+02  0.66190072575E+01 -0.23088221973E+02  0.31328557026E+02  0.00000000000E+00 0. -1.
</event>
<event>
 4    1  0.2048241E+005  0.2015292E+02  0.7546771E-02  0.1531711E+00
          2   -1    0    0  503    0  0.00000000000E+00  0.00000000000E+00  0.35856480602E+00  0.35856480602E+00  0.00000000000E+00 0. -1.
         21   -1    0    0  501  502 -0.00000000000E+00 -0.00000000000E+00 -0.11366663217E+04  0.11366663217E+04  0.00000000000E+00 0. -1.
          2    1    1    2  501    0 -0.14108484409E+02  0.14390656257E+02 -0.53449984655E+03  0.53487963719E+03  0.00000000000E+00 0. -1.
         21    1    1    2  503  502  0.14108484409E+02 -0.14390656257E+02 -0.60180791036E+03  0.60214524933E+03  0.00000000000E+00 0. -1.
</event>
<event>
 4    1  0.2048241E+005  0.4211056E+02  0.7546771E-02  0.1336543E+00
          2   -1    0    0  502    0  0.00000000000E+00  0.00000000000E+00  0.12903353859E+04  0.12903353859E+04  0.00000000000E+00 0.  1.
         21   -1    0    0  503  502 -0.00000000000E+00 -0.00000000000E+00 -0.27831287676E+02  0.27831287676E+02  0.00000000000E+00 0.  1.
          2    1    1    2  501    0  0.41153824052E+02  0.89253364785E+01  0.12738568068E+04  0.12745526522E+04  0.00000000000E+00 0.  1.
         21    1    1    2  503  501 -0.41153824052E+02 -0.89253364785E+01 -0.11352708647E+02  0.43614021358E+02  0.00000000000E+00 0.  1.
</event>
<event>
 4    1  0.2048241E+005  0.2304307E+02  0.7546771E-02  0.1491958E+00
          2   -1    0    0  503    0  0.00000000000E+00  0.00000000000E+00  0.66322292776E+03  0.66322292776E+03  0.00000000000E+00 0. -1.
         21   -1    0    0  501  502 -0.00000000000E+00 -0.00000000000E+00 -0.17095761968E+01  0.17095761968E+01  0.00000000000E+00 0. -1.
          2    1    1    2  501    0 -0.66167244166E+01 -0.22072651917E+02  0.57318154384E+03  0.57364454604E+03  0.00000000000E+00 0. -1.
         21    1    1    2  503  502  0.66167244166E+01  0.22072651917E+02  0.88331807722E+02  0.91287957914E+02  0.00000000000E+00 0. -1.
</event>
<event>
 4    1  0.2048241E+005  0.2727002E+02  0.7546771E-02  0.1444914E+00
          2   -1    0    0  503    0  0.00000000000E+00  0.00000000000E+00  0.49179934688E+03  0.49179934688E+03  0.00000000000E+00 0. -1.
         21   -1    0    0  501  502 -0.00000000000E+00 -0.00000000000E+00 -0.56607651192E+01  0.56607651192E+01  0.00000000000E+00 0.  1.
          2    1    1    2  501    0 -0.15381097958E+02  0.22518347401E+02  0.45600300377E+03  0.45681768091E+03  0.00000000000E+00 0. -1.
         21    1    1    2  503  502  0.15381097958E+02 -0.22518347401E+02  0.30135577991E+02  0.40642431090E+02  0.00000000000E+00 0.  1.
</event>
<event>
 4    1  0.2048241E+005  0.4578877E+02  0.7546771E-02  0.1317542E+00
          2   -1    0    0  503    0  0.00000000000E+00  0.00000000000E+00  0.31866834424E+03  0.31866834424E+03  0.00000000000E+00 0. -1.
         21   -1    0    0  501  502 -0.00000000000E+00 -0.00000000000E+00 -0.15336349367E+02  0.15336349367E+02  0.00000000000E+00 0. -1.
          2    1    1    2  501    0  0.39219101460E+02  0.23632045940E+02  0.27786058235E+03  0.28160808713E+03  0.00000000000E+00 0. -1.
         21    1    1    2  503  502 -0.39219101460E+02 -0.23632045940E+02  0.25471412531E+02  0.52396606484E+02  0.00000000000E+00 0. -1.
</event>
<event>
 4    1  0.2048241E+005  0.2206703E+02  0.7546771E-02  0.1504558E+00
          2   -1    0    0  502    0  0.00000000000E+00  0.00000000000E+00  0.55395404161E+01  0.55395404161E+01  0.00000000000E+00 0.  1.
         21   -1    0    0  503  502 -0.00000000000E+00 -0.00000000000E+00 -0.99891872405E+02  0.99891872405E+02  0.00000000000E+00 0.  1.
          2    1    1    2  501    0 -0.21151607903E+02 -0.62899503582E+01 -0.28915120790E+02  0.36373592106E+02  0.00000000000E+00 0.  1.
         21    1    1    2  503  501  0.21151607903E+02  0.62899503582E+01 -0.65437211199E+02  0.69057820715E+02  0.00000000000E+00 0.  1.
</event>
<event>
 4    1  0.2048241E+005  0.3230564E+02  0.7546771E-02  0.1400564E+00
          2   -1    0    0  502    0  0.00000000000E+00  0.00000000000E+00  0.12784410648E+04  0.12784410648E+04  0.00000000000E+00 0.  1.
         21   -1    0    0  503  502 -0.00000000000E+00 -0.00000000000E+00 -0.12289770483E+01  0.12289770483E+01  0.00000000000E+00 0.  1.
          2    1    1    2  501    0 -0.27432354234E+02 -0.17062244821E+02  0.10093511466E+04  0.10098680069E+04  0.00000000000E+00 0.  1.
         21    1    1    2  503  501  0.27432354234E+02  0.17062244821E+02  0.26786094119E+03  0.26980203497E+03  0.00000000000E+00 0.  1.
</event>
<event>
 4    1  0.2048241E+005  0.2080148E+02  0.7546771E-02  0.1522118E+00
          2   -1    0    0  503    0  0.00000000000E+00  0.00000000000E+00  0.67719575107E+03  0.67719575107E+03  0.00000000000E+00 0. -1.
         21   -1    0    0  501  502 -0.00000000000E+00 -0.00000000000E+00 -0.15085336774E+01  0.15085336774E+01  0.00000000000E+00 0.  1.
          2    1    1    2  501    0 -0.20540920118E+02  0.32821111899E+01  0.59549117276E+03  0.59585437692E+03  0.00000000000E+00 0. -1.
         21    1    1    2  503  502  0.20540920118E+02 -0.32821111899E+01  0.80196044629E+02  0.82849907830E+02  0.00000000000E+00 0.  1.
</event>
<event>
 4    1  0.2048241E+005  0.5302425E+02  0.7546771E-02  0.1285567E+00
          2   -1    0    0  503    0  0.00000000000E+00  0.00000000000E+00  0.16628016123E+03  0.16628016123E+03  0.00000000000E+00 0. -1.
         21   -1    0    0  501  502 -0.00000000000E+00 -0.00000000000E+00 -0.15701123188E+03  0.15701123188E+03  0.00000000000E+00 0. -1.
          2    1    1    2  501    0  0.51458825366E+02 -0.12789090700E+02  0.15732842872E+03  0.16602351049E+03  0.00000000000E+00 0. -1.
         21    1    1    2  503  502 -0.51458825366E+02  0.12789090700E+02 -0.14805949938E+03  0.15726788263E+03  0.00000000000E+00 0. -1.
</event>
<event>
 4    1  0.2048241E+005  0.2643112E+02  0.7546771E-02  0.1453408E+00
          2   -1    0    0  503    0  0.00000000000E+00  0.00000000000E+00  0.13649499583E+04  0.13649499583E+04  0.00000000000E+00 0.  1.
         21   -1    0    0  501  502 -0.00000000000E+00 -0.00000000000E+00 -0.11617141305E+01  0.11617141305E+01  0.00000000000E+00 0. -1.
          2    1    1    2  501    0 -0.26281879542E+02  0.28048458857E+01  0.11927859300E+04  0.11930787398E+04  0.00000000000E+00 0.  1.
         21    1    1    2  503  502  0.26281879542E+02 -0.28048458857E+01  0.17100231411E+03  0.17303293265E+03  0.00000000000E+00 0. -1.
</event>
<event>
 4    1  0.2048241E+005  0.2173756E+02  0.7546771E-02  0.1508990E+00
          2   -1    0    0  502    0  0.00000000000E+00  0.00000000000E+00  0.31103528667E+03  0.31103528667E+03  0.00000000000E+00 0.  1.
         21   -1    0    0  503  502 -0.00000000000E+00 -0.00000000000E+00 -0.48355116595E+02  0.48355116595E+02  0.00000000000E+00 0.  1.
          2    1    1    2  501    0 -0.21656050312E+02 -0.18806627193E+01  0.30818998791E+03  0.30895564415E+03  0.00000000000E+00 0.  1.
         21    1    1    2  503  501  0.21656050312E+02  0.18806627193E+01 -0.45509817834E+02  0.50434759111E+02  0.00000000000E+00 0.  1.
</event>
<event>
 4    1  0.2048241E+005  0.2741468E+02  0.7546771E-02  0.1443486E+00
          2   -1    0    0  502    0  0.00000000000E+00  0.00000000000E+00  0.12565791953E+03  0.12565791953E+03  0.00000000000E+00 0. -1.
         21   -1    0    0  503  502 -0.00000000000E+00 -0.00000000000E+00 -0.38984412145E+02  0.38984412145E+02  0.00000000000E+00 0. -1.
          2    1    1    2  501    0  0.17776310919E+01  0.27356985078E+02  0.11908022391E+03  0.12219518948E+03  0.00000000000E+00 0. -1.
         21    1    1    2  503  501 -0.17776310919E+01 -0.27356985078E+02 -0.32406716525E+02  0.42447142198E+02  0.00000000000E+00 0. -1.
</event>
<event>
 4    1  0.2048241E+005  0.2799380E+02  0.7546771E-02  0.1437873E+00
          2   -1    0    0  503    0  0.00000000000E+00  0.00000000000E+00  0.21301934712E+03  0.21301934712E+03  0.00000000000E+00 0. -1.
         21   -1    0    0  501  502 -0.00000000000E+00 -0.00000000000E+00 -0.14369083047E+02  0.14369083047E+02  0.00000000000E+00 0.  1.
          2    1    1    2  501    0 -0.72626875169E+01  0.27035280323E+02  0.19739118295E+03  0.19936632644E+03  0.00000000000E+00 0. -1.
         21    1    1    2  503  502  0.72626875169E+01 -0.27035280323E+02  0.12590811249E+01  0.28022103729E+02  0.00000000000E+00 0.  1.
</event>
<event>
 4    1  0.2048241E+005  0.3795221E+02  0.7546771E-02  0.1360922E+00
          2   -1    0    0  503    0  0.00000000000E+00  0.00000000000E+00  0.22716619715E+04  0.22716619715E+04  0.00000000000E+00 0. -1.
         21   -1    0    0  501  502 -0.00000000000E+00 -0.00000000000E+00 -0.89541519138E+01  0.89541519138E+01  0.00000000000E+00 0.  1.
          2    1    1    2  501    0 -0.61480388783E+00 -0.37947230548E+02  0.22305470873E+04  0.22308699377E+04  0.00000000000E+00 0. -1.
         21    1    1    2  503  502  0.61480388783E+00  0.37947230548E+02  0.32160732248E+02  0.49746185671E+02  0.00000000000E+00 0.  1.
</event>
<event>
 4    1  0.2048241E+005  0.2400114E+02  0.7546771E-02  0.1480295E+00
          2   -1    0    0  503    0  0.00000000000E+00  0.00000000000E+00  0.87880591224E+02  0.87880591224E+02  0.00000000000E+00 0.  1.
         21   -1    0    0  501  502 -0.00000000000E+00 -0.00000000000E+00 -0.31260729088E+02  0.31260729088E+02  0.00000000000E+00 0.  1.
          2    1    1    2  501    0 -0.82151725068E+01 -0.22551396445E+02  0.81267979501E+02  0.84738061301E+02  0.00000000000E+00 0.  1.
         21    1    1    2  503  502  0.82151725068E+01  0.22551396445E+02 -0.24648117365E+02  0.34403259011E+02  0.00000000000E+00 0.  1.
</event>
<event>
 4    1  0.2048241E+005  0.2062962E+02  0.7546771E-02  0.1524619E+00
          2   -1    0    0  503    0  0.00000000000E+00  0.00000000000E+00  0.82234517738E+02  0.82234517738E+02  0.00000000000E+00 0.  1.
         21   -1    0    0  501  502 -0.00000000000E+00 -0.00000000000E+00 -0.62411110875E+01  0.62411110875E+01  0.00000000000E+00 0.  1.
          2    1    1    2  501    0  0.88457494923E+00 -0.20610642009E+02  0.19714824925E+02  0.28535160043E+02  0.00000000000E+00 0.  1.
         21    1    1    2  503  502 -0.88457494923E+00  0.20610642009E+02  0.56278581726E+02  0.59940468783E+02  0.00000000000E+00 0.  1.
</event>
<event>
 4    1  0.2048241E+005  0.2015374E+02  0.7546771E-02  0.1531698E+00
          2   -1    0    0  503    0  0.00000000000E+00  0.00000000000E+00  0.46714834122E+03  0.46714834122E+03  0.00000000000E+00 0.  1.
         21   -1    0    0  501  502 -0.00000000000E+00 -0.00000000000E+00 -0.31097300755E+01  0.31097300755E+01  0.00000000000E+00 0.  1.
          2    1    1    2  501    0  0.41842361935E+01 -0.19714596198E+02  0.43158863098E+03  0.43205893062E+03  0.00000000000E+00 0.  1.
         21    1    1    2  503  502 -0.41842361935E+01  0.19714596198E+02  0.32449980160E+02  0.38199140673E+02  0.00000000000E+00 0.  1.
</event>
<event>
 4    1  0.2048241E+005  0.4220279E+02  0.7546771E-02  0.1336039E+00
          2   -1    0    0  503    0  0.00000000000E+00  0.00000000000E+00  0.97890991357E+03  0.97890991357E+03  0.00000000000E+00 0.  1.
         21   -1    0    0  501  502 -0.00000000000E+00 -0.00000000000E+00 -0.20727243802E+01  0.20727243802E+01  0.00000000000E+00 0.  1.
          2    1    1    2  501    0 -0.38945573462E+02 -0.16257862590E+02  0.31696057552E+03  0.31975784936E+03  0.00000000000E+00 0.  1.
         21    1    1    2  503  502  0.38945573462E+02  0.16257862590E+02  0.65987661366E+03  0.66122478859E+03  0.00000000000E+00 0.  1.
</event>
<event>
 4    1  0.2048241E+005  0.7823511E+02  0.7546771E-02  0.1208005E+00
          2   -1    0    0  503    0  0.00000000000E+00  0.00000000000E+00  0.84361646384E+03  0.84361646384E+03  0.00000000000E+00 0.  1.
         21   -1    0    0  501  502 -0.00000000000E+00 -0.00000000000E+00 -0.76130967329E+01  0.76130967329E+01  0.00000000000E+00 0.  1.
          2    1    1    2  501    0 -0.77343999628E+02  0.11774448957E+02  0.51026401602E+03  0.51622678928E+03  0.00000000000E+00 0.  1.
         21    1    1    2  503  502  0.77343999628E+02 -0.11774448957E+02  0.32573935109E+03  0.33500277129E+03  0.00000000000E+00 0.  1.
</event>
<event>
 4    1  0.2048241E+005  0.2160191E+02  0.7546771E-02  0.1510842E+00
          2   -1    0    0  502    0  0.00000000000E+00  0.00000000000E+00  0.12947329974E+04  0.12947329974E+04  0.00000000000E+00 0. -1.
         21   -1    0    0  503  502 -0.00000000000E+00 -0.00000000000E+00 -0.23941225331E+01  0.23941225331E+01  0.00000000000E+00 0. -1.
          2    1    1    2  501    0 -0.21352995066E+02  0.32698813410E+01  0.12439248205E+04  0.12441123750E+04  0.00000000000E+00 0. -1.
         21    1    1    2  503  501  0.21352995066E+02 -0.32698813410E+01  0.48414054372E+02  0.53014744958E+02  0.00000000000E+00 0. -1.
</event>
<event>
 4    1  0.2048241E+005  0.2088819E+02  0.7546771E-02  0.1520867E+00
          2   -1    0    0  502    0  0.00000000000E+00  0.00000000000E+00  0.59041971913E+01  0.59041971913E+01  0.00000000000E+00 0. -1.
         21   -1    0    0  503  502 -0.00000000000E+00 -0.00000000000E+00 -0.15240948102E+03  0.15240948102E+03  0.00000000000E+00 0.  1.
          2    1    1    2  501    0  0.64051172521E+00 -0.20878366505E+02 -0.16439965159E+02  0.26581739928E+02  0.00000000000E+00 0. -1.
         21    1    1    2  503  501 -0.64051172521E+00  0.20878366505E+02 -0.13006531867E+03  0.13173193828E+03  0.00000000000E+00 0.  1.
</event>
<event>
 4    1  0.2048241E+005  0.2795202E+02  0.7546771E-02  0.1438272E+00
          2   -1    0    0  502    0  0.00000000000E+00  0.00000000000E+00  0.67142825616E+03  0.67142825616E+03  0.00000000000E+00 0.  1.
         21   -1    0    0  503  502 -0.00000000000E+00 -0.00000000000E+00 -0.14948224871E+01  0.14948224871E+01  0.00000000000E+00 0. -1.
          2    1    1    2  501    0 -0.26795674311E+02  0.79566023752E+01  0.49333191192E+03  0.49412315368E+03  0.00000000000E+00 0.  1.
         21    1    1    2  503  501  0.26795674311E+02 -0.79566023752E+01  0.17660152176E+03  0.17879992497E+03  0.00000000000E+00 0. -1.
</event>
<event>
 4    1  0.2048241E+005  0.5533106E+02  0.7546771E-02  0.1276578E+00
          2   -1    0    0  503    0  0.00000000000E+00  0.00000000000E+00  0.24108342814E+03  0.24108342814E+03  0.00000000000E+00 0.  1.
         21   -1    0    0  501  502 -0.00000000000E+00 -0.00000000000E+00 -0.19667081227E+02  0.19667081227E+02  0.00000000000E+00 0. -1.
          2    1    1    2  501    0  0.22175900416E+02  0.50692755748E+02  0.18831158882E+03  0.19627221028E+03  0.00000000000E+00 0.  1.
         21    1    1    2  503  502 -0.22175900416E+02 -0.50692755748E+02  0.33104758093E+02  0.64478299086E+02  0.00000000000E+00 0. -1.
</event>
<event>
 4    1  0.2048241E+005  0.2589144E+02  0.7546771E-02  0.1459073E+00
          2   -1    0    0  503    0  0.00000000000E+00  0.00000000000E+00  0.98696554505E+03  0.98696554505E+03  0.00000000000E+00 0. -1.
         21   -1    0    0  501  502 -0.00000000000E+00 -0.00000000000E+00 -0.98329274195E+00  0.98329274195E+00  0.00000000000E+00 0.  1.
          2    1    1    2  501    0 -0.41804248444E+01 -0.25551729011E+02  0.76768674757E+03  0.76812323830E+03  0.00000000000E+00 0. -1.
         21    1    1    2  503  502  0.41804248444E+01  0.25551729011E+02  0.21829550473E+03  0.21982559950E+03  0.00000000000E+00 0.  1.
</event>
<event>
 4    1  0.2048241E+005  0.2047617E+02  0.7546771E-02  0.1526877E+00
          2   -1    0    0  503    0  0.00000000000E+00  0.00000000000E+00  0.10013781563E+04  0.10013781563E+04  0.00000000000E+00 0.  1.
         21   -1    0    0  501  502 -0.00000000000E+00 -0.00000000000E+00 -0.29086754609E+01  0.29086754609E+01  0.00000000000E+00 0.  1.
          2    1    1    2  501    0 -0.12469298574E+02 -0.16241621942E+02  0.96383341212E+03  0.96405089078E+03  0.00000000000E+00 0.  1.
         21    1    1    2  503  502  0.12469298574E+02  0.16241621942E+02  0.34636068695E+02  0.40235940959E+02  0.00000000000E+00 0.  1.
</event>
<event>
 4    1  0.2048241E+005  0.6684841E+02  0.7546771E-02  0.1238186E+00
          2   -1    0    0  503    0  0.00000000000E+00  0.00000000000E+00  0.72690204648E+03  0.72690204648E+03  0.00000000000E+00 0.  1.
         21   -1    0    0  501  502 -0.00000000000E+00 -0.00000000000E+00 -0.71066261578E+02  0.71066261578E+02  0.00000000000E+00 0.  1.
          2    1    1    2  501    0 -0.36539063118E+02  0.55978627255E+02  0.70925464162E+03  0.71239796217E+03  0.00000000000E+00 0.  1.
         21    1    1    2  503  502  0.36539063118E+02 -0.55978627255E+02 -0.53418856717E+02  0.85570345890E+02  0.00000000000E+00 0.  1.
</event>
<event>
 4    1  0.2048241E+005  0.2141468E+02  0.7546771E-02  0.1513426E+00
          2   -1    0    0  502    0  0.00000000000E+00  0.00000000000E+00  0.64611089149E+02  0.64611089149E+02  0.00000000000E+00 0.  1.
         21   -1    0    0  503  502 -0.00000000000E+00 -0.00000000000E+00 -0.86114091570E+02  0.86114091570E+02  0.00000000000E+00 0.  1.
          2    1    1    2  501    0 -0.12534973375E+02 -0.17362691893E+02  0.61438552612E+02  0.65063694749E+02  0.00000000000E+00 0.  1.
         21    1    1    2  503  501  0.12534973375E+02  0.17362691893E+02 -0.82941555033E+02  0.85661485970E+02  0.00000000000E+00 0.  1.
</event>
<event>
 4    1  0.2048241E+005  0.2060579E+02  0.7546771E-02  0.1524968E+00
          2   -1    0    0  503    0  0.00000000000E+00  0.00000000000E+00  0.61244579513E+03  0.61244579513E+03  0.00000000000E+00 0. -1.
         21   -1    0    0  501  502 -0.00000000000E+00 -0.00000000000E+00 -0.32918260311E+01  0.32918260311E+01  0.00000000000E+00 0. -1.
          2    1    1    2  501    0  0.15259078456E+02 -0.13847710848E+02  0.57811152221E+03  0.57847863460E+03  0.00000000000E+00 0. -1.
         21    1    1    2  503  502 -0.15259078456E+02  0.13847710848E+02  0.31042446888E+02  0.37258986565E+02  0.00000000000E+00 0. -1.
</event>
<event>
 4    1  0.2048241E+005  0.2067026E+02  0.7546771E-02  0.1524025E+00
          2   -1    0    0  502    0  0.00000000000E+00  0.00000000000E+00  0.19342193567E+03  0.19342193567E+03  0.00000000000E+00 0. -1.
         21   -1    0    0  503  502 -0.00000000000E+00 -0.00000000000E+00 -0.68410487870E+02  0.68410487870E+02  0.00000000000E+00 0. -1.
          2    1    1    2  501    0 -0.14345787348E+02  0.14881468278E+02  0.19129097222E+03  0.19240451078E+03  0.00000000000E+00 0. -1.
         21    1    1    2  503  501  0.14345787348E+02 -0.14881468278E+02 -0.66279524425E+02  0.69427912764E+02  0.00000000000E+00 0. -1.
</event>
<event>
 4    1  0.2048241E+005  0.2503723E+02  0.7546771E-02  0.1468387E+00
          2   -1    0    0  503    0  0.00000000000E+00  0.00000000000E+00  0.55134164857E+03  0.55134164857E+03  0.00000000000E+00 0. -1.
         21   -1    0    0  501  502 -0.00000000000E+00 -0.00000000000E+00 -0.16812502724E+01  0.16812502724E+01  0.00000000000E+00 0. -1.
          2    1    1    2  501    0  0.13365679478E+02 -0.21171243183E+02  0.43215794804E+03  0.43288261109E+03  0.00000000000E+00 0. -1.
         21    1    1    2  503  502 -0.13365679478E+02  0.21171243183E+02  0.11750245025E+03  0.12014028775E+03  0.00000000000E+00 0. -1.
</event>
<event>
 4    1  0.2048241E+005  0.2584752E+02  0.7546771E-02  0.1459542E+00
          2   -1    0    0  503    0  0.00000000000E+00  0.00000000000E+00  0.10075163954E+04  0.10075163954E+04  0.00000000000E+00 0.  1.
         21   -1    0    0  501  502 -0.00000000000E+00 -0.00000000000E+00 -0.10287596221E+01  0.10287596221E+01  0.00000000000E+00 0. -1.
          2    1    1    2  501    0 -0.19596320692E+02 -0.16854626236E+02  0.80387979630E+03  0.80429523256E+03  0.00000000000E+00 0.  1.
         21    1    1    2  503  502  0.19596320692E+02  0.16854626236E+02  0.20260783947E+03  0.20424992246E+03  0.00000000000E+00 0. -1.
</event>
<event>
 4    1  0.2048241E+005  0.2191757E+02  0.7546771E-02  0.1506557E+00
          2   -1    0    0  503    0  0.00000000000E+00  0.00000000000E+00  0.54873982833E+02  0.54873982833E+02  0.00000000000E+00 0.  1.
         21   -1    0    0  501  502 -0.00000000000E+00 -0.00000000000E+00 -0.39733397923E+02  0.39733397923E+02  0.00000000000E+00 0.  1.
          2    1    1    2  501    0  0.87667192452E+01 -0.20087914795E+02  0.49339094178E+02  0.53988201502E+02  0.00000000000E+00 0.  1.
         21    1    1    2  503  502 -0.87667192452E+01  0.20087914795E+02 -0.34198509268E+02  0.40619179254E+02  0.00000000000E+00 0.  1.
</event>
<event>
 4    1  0.2048241E+005  0.2334516E+02  0.7546771E-02  0.1488209E+00
          2   -1    0    0  502    0  0.00000000000E+00  0.00000000000E+00  0.16929732374E+02  0.16929732374E+02  0.00000000000E+00 0. -1.
         21   -1    0    0  503  502 -0.00000000000E+00 -0.00000000000E+00 -0.80458168388E+02  0.80458168388E+02  0.00000000000E+00 0. -1.
          2    1    1    2  501    0 -0.14916744861E+02 -0.17957922916E+02  0.59506730104E+01  0.24091633029E+02  0.00000000000E+00 0. -1.
         21    1    1    2  503  501  0.14916744861E+02  0.17957922916E+02 -0.69479109025E+02  0.73296267733E+02  0.00000000000E+00 0. -1.
</event>
<event>
 4    1  0.2048241E+005  0.2208113E+02  0.7546771E-02  0.1504370E+00
          2   -1    0    0  502    0  0.00000000000E+00  0.00000000000E+00  0.61245659340E+03  0.61245659340E+03  0.00000000000E+00 0.  1.
         21   -1    0    0  503  502 -0.00000000000E+00 -0.00000000000E+00 -0.24536539749E+01  0.24536539749E+01  0.00000000000E+00 0. -1.
          2    1    1    2  501    0  0.46985207491E+01 -0.21575455462E+02  0.55770364728E+03  0.55814060465E+03  0.00000000000E+00 0.  1.
         21    1    1    2  503  501 -0.46985207491E+01  0.21575455462E+02  0.52299292146E+02  0.56769642721E+02  0.00000000000E+00 0. -1.
</event>
<event>
 4    1  0.2048241E+005  0.2046127E+02  0.7546771E-02  0.1527097E+00
          2   -1    0    0  502    0  0.00000000000E+00  0.00000000000E+00  0.70175359423E+03  0.70175359423E+03  0.00000000000E+00 0.  1.
         21   -1    0    0  503  502 -0.00000000000E+00 -0.00000000000E+00 -0.10161152566E+01  0.10161152566E+01  0.00000000000E+00 0.  1.
          2    1    1    2  501    0  0.15629073421E+02  0.13205887556E+02  0.57614979133E+03  0.57651300545E+03  0.00000000000E+00 0.  1.
         21    1    1    2  503  501 -0.15629073421E+02 -0.13205887556E+02  0.12458768764E+03  0.12625670404E+03  0.00000000000E+00 0.  1.
</event>
<event>
 4    1  0.2048241E+005  0.3438437E+02  0.7546771E-02  0.1384944E+00
          2   -1    0    0  503    0  0.00000000000E+00  0.00000000000E+00  0.22030115904E+04  0.22030115904E+04  0.00000000000E+00 0.  1.
         21   -1    0    0  501  502 -0.00000000000E+00 -0.00000000000E+00 -0.13039652620E+01  0.13039652620E+01  0.00000000000E+00 0. -1.
          2    1    1    2  501    0 -0.29720968815E+02 -0.17290143070E+02  0.19463130714E+04  0.19466167719E+04  0.00000000000E+00 0.  1.
         21    1    1    2  503  502  0.29720968815E+02  0.17290143070E+02  0.25539455382E+03  0.25769878377E+03  0.00000000000E+00 0. -1.
</event>
<event>
 4    1  0.2048241E+005  0.3057810E+02  0.7546771E-02  0.1414638E+00
          2   -1    0    0  502    0  0.00000000000E+00  0.00000000000E+00  0.74392501946E+03  0.74392501946E+03  0.00000000000E+00 0.  1.
         21   -1    0    0  503  502 -0.00000000000E+00 -0.00000000000E+00 -0.74175580337E+01  0.74175580337E+01  0.00000000000E+00 0. -1.
          2    1    1    2  501    0  0.53032172235E+01 -0.30114718448E+02  0.71062079488E+03  0.71127838045E+03  0.00000000000E+00 0.  1.
         21    1    1    2  503  501 -0.53032172235E+01  0.30114718448E+02  0.25886666556E+02  0.40064197053E+02  0.00000000000E+00 0. -1.
</event>
<event>
 4    1  0.2048241E+005  0.4722141E+02  0.7546771E-02  0.1310691E+00
          2   -1    0    0  503    0  0.00000000000E+00  0.00000000000E+00  0.18553523960E+04  0.18553523960E+04  0.00000000000E+00 0.  1.
         21   -1    0    0  501  502 -0.00000000000E+00 -0.00000000000E+00 -0.88351229722E+01  0.88351229722E+01  0.00000000000E+00 0.  1.
          2    1    1    2  501    0  0.36556789475E+02  0.29890841568E+02  0.17896390108E+04  0.17902618943E+04  0.00000000000E+00 0.  1.
         21    1    1    2  503  502 -0.36556789475E+02 -0.29890841568E+02  0.56878262221E+02  0.73925624649E+02  0.00000000000E+00 0.  1.
</event>
<event>
 4    1  0.2048241E+005  0.2692492E+02  0.7546771E-02  0.1448364E+00
          2   -1    0    0  502    0  0.00000000000E+00  0.00000000000E+00  0.85777837207E+03  0.85777837207E+03  0.00000000000E+00 0. -1.
         21   -1    0    0  503  502 -0.00000000000E+00 -0.00000000000E+00 -0.23349355280E+02  0.23349355280E+02  0.00000000000E+00 0.  1.
          2    1    1    2  501    0 -0.21701770913E+02  0.15936891061E+02  0.84973159230E+03  0.85015806196E+03  0.00000000000E+00 0. -1.
         21    1    1    2  503  501  0.21701770913E+02 -0.15936891061E+02 -0.15302575508E+02  0.30969665394E+02  0.00000000000E+00 0.  1.
</event>
<event>
 4    1  0.2048241E+005  0.3718221E+02  0.7546771E-02  0.1365839E+00
          2   -1    0    0  503    0  0.00000000000E+00  0.00000000000E+00  0.10478827908E+04  0.10478827908E+04  0.00000000000E+00 0.  1.
         21   -1    0    0  501  502 -0.00000000000E+00 -0.00000000000E+00 -0.51070659999E+01  0.51070659999E+01  0.00000000000E+00 0. -1.
          2    1    1    2  501    0 -0.36653654289E+01 -0.37001103539E+02  0.97480463005E+03  0.97551349726E+03  0.00000000000E+00 0.  1.
         21    1    1    2  503  502  0.36653654289E+01  0.37001103539E+02  0.67971094781E+02  0.77476359572E+02  0.00000000000E+00 0. -1.
</event>
<event>
 4    1  0.2048241E+005  0.3088454E+02  0.7546771E-02  0.1412062E+00
          2   -1    0    0  502    0  0.00000000000E+00  0.00000000000E+00  0.19689033198E+04  0.19689033198E+04  0.00000000000E+00 0. -1.
         21   -1    0    0  503  502 -0.00000000000E+00 -0.00000000000E+00 -0.71543297302E+00  0.71543297302E+00  0.00000000000E+00 0. -1.
          2    1    1    2  501    0 -0.59213806264E+01  0.30311580269E+02  0.15436561872E+04  0.15439651158E+04  0.00000000000E+00 0. -1.
         21    1    1    2  503  501  0.59213806264E+01 -0.30311580269E+02  0.42453169961E+03  0.42565363692E+03  0.00000000000E+00 0. -1.
</event>
<event>
 4    1  0.2048241E+005  0.2109147E+02  0.7546771E-02  0.1517963E+00
          2   -1    0    0  503    0  0.00000000000E+00  0.00000000000E+00  0.24656465844E+03  0.24656465844E+03  0.00000000000E+00 0. -1.
         21   -1    0    0  501  502 -0.00000000000E+00 -0.00000000000E+00 -0.19430853545E+01  0.19430853545E+01  0.00000000000E+00 0.  1.
          2    1    1    2  501    0  0.16215165511E+02  0.13487713027E+02  0.15553117108E+03  0.15695475518E+03  0.00000000000E+00 0. -1.
         21    1    1    2  503  502 -0.16215165511E+02 -0.13487713027E+02  0.89090402006E+02  0.91552988617E+02  0.00000000000E+00 0.  1.
</event>
<event>
 4    1  0.2048241E+005  0.2019872E+02  0.7546771E-02  0.1531019E+00
          2   -1    0    0  503    0  0.00000000000E+00  0.00000000000E+00  0.23695610041E+03  0.23695610041E+03  0.00000000000E+00 0. -1.
         21   -1    0    0  501  502 -0.00000000000E+00 -0.00000000000E+00 -0.47710709960E+01  0.47710709960E+01  0.00000000000E+00 0.  1.
          2    1    1    2  501    0  0.35201182114E+01 -0.19889625372E+02  0.21271680631E+03  0.21367364862E+03  0.00000000000E+00 0. -1.
         21    1    1    2  503  502 -0.35201182114E+01  0.19889625372E+02  0.19468223106E+02  0.28053522784E+02  0.00000000000E+00 0.  1.
</event>
<event>
 4    1  0.2048241E+005  0.2923399E+02  0.7546771E-02  0.1426372E+00
          2   -1    0    0  503    0  0.00000000000E+00  0.00000000000E+00  0.86546656031E+03  0.86546656031E+03  0.00000000000E+00 0.  1.
         21   -1    0    0  501  502 -0.00000000000E+00 -0.00000000000E+00 -0.99697546764E+00  0.99697546764E+00  0.00000000000E+00 0. -1.
          2    1    1    2  501    0  0.29175778678E+02  0.18438801863E+01  0.47452768084E+03  0.47542732971E+03  0.00000000000E+00 0.  1.
         21    1    1    2  503  502 -0.29175778678E+02 -0.18438801863E+01  0.38994190400E+03  0.39103620606E+03  0.00000000000E+00 0. -1.
</event>
<event>
 4    1  0.2048241E+005  0.2036929E+02  0.7546771E-02  0.1528463E+00
          2   -1    0    0  503    0  0.00000000000E+00  0.00000000000E+00  0.12211160939E+04  0.12211160939E+04  0.00000000000E+00 0.  1.
         21   -1    0    0  501  502 -0.00000000000E+00 -0.00000000000E+00 -0.52496138298E+01  0.52496138298E+01  0.00000000000E+00 0. -1.
          2    1    1    2  501    0 -0.19805897040E+02 -0.47575780200E+01  0.12009402392E+04  0.12011129698E+04  0.00000000000E+00 0.  1.
         21    1    1    2  503  502  0.19805897040E+02  0.47575780200E+01  0.14926240871E+02  0.25252737925E+02  0.00000000000E+00 0. -1.
</event>
<event>
 4    1  0.2048241E+005  0.5864060E+02  0.7546771E-02  0.1264523E+00
          2   -1    0    0  502    0  0.00000000000E+00  0.00000000000E+00  0.20138117819E+04  0.20138117819E+04  0.00000000000E+00 0.  1.
         21   -1    0    0  503  502 -0.00000000000E+00 -0.00000000000E+00 -0.19821647011E+03  0.19821647011E+03  0.00000000000E+00 0.  1.
          2    1    1    2  501    0 -0.29397056005E+02  0.50739853217E+02  0.20090375095E+04  0.20098931400E+04  0.00000000000E+00 0.  1.
         21    1    1    2  503  501  0.29397056005E+02 -0.50739853217E+02 -0.19344219777E+03  0.20213511195E+03  0.00000000000E+00 0.  1.
</event>
<event>
 4    1  0.2048241E+005  0.3550821E+02  0.7546771E-02  0.1377025E+00
          2   -1    0    0  503    0  0.00000000000E+00  0.00000000000E+00  0.84421342649E+03  0.84421342649E+03  0.00000000000E+00 0. -1.
         21   -1    0    0  501  502 -0.00000000000E+00 -0.00000000000E+00 -0.18819027026E+01  0.18819027026E+01  0.00000000000E+00 0. -1.
          2    1    1    2  501    0 -0.13351871157E+02 -0.32902289681E+02  0.22897540611E+03  0.23171225633E+03  0.00000000000E+00 0. -1.
         21    1    1    2  503  502  0.13351871157E+02  0.32902289681E+02  0.61335611768E+03  0.61438307286E+03  0.00000000000E+00 0. -1.
</event>
<event>
 4    1  0.2048241E+005  0.2662264E+02  0.7546771E-02  0.1451436E+00
          2   -1    0    0  503    0  0.00000000000E+00  0.00000000000E+00  0.42567374322E+03  0.42567374322E+03  0.00000000000E+00 0. -1.
         21   -1    0    0  501  502 -0.00000000000E+00 -0.00000000000E+00 -0.91018200998E+01  0.91018200998E+01  0.00000000000E+00 0.  1.
          2    1    1    2  501    0 -0.25792523112E+02 -0.65962678135E+01  0.40478634202E+03  0.40566087769E+03  0.00000000000E+00 0. -1.
         21    1    1    2  503  502  0.25792523112E+02  0.65962678135E+01  0.11785581093E+02  0.29114685628E+02  0.00000000000E+00 0.  1.
</event>
<event>
 4    1  0.2048241E+005  0.2205756E+02  0.7546771E-02  0.1504684E+00
          2   -1    0    0  503    0  0.00000000000E+00  0.00000000000E+00  0.77086951286E+01  0.77086951286E+01  0.00000000000E+00 0.  1.
         21   -1    0    0  501  502 -0.00000000000E+00 -0.00000000000E+00 -0.62380771883E+03  0.62380771883E+03  0.00000000000E+00 0.  1.
          2    1    1    2  501    0  0.20273300995E+01  0.21964193317E+02 -0.86909699542E+01  0.23707990512E+02  0.00000000000E+00 0.  1.
         21    1    1    2  503  502 -0.20273300995E+01 -0.21964193317E+02 -0.60740805374E+03  0.60780842344E+03  0.00000000000E+00 0.  1.
</event>
<event>
 4    1  0.2048241E+005  0.2886177E+02  0.7546771E-02  0.1429752E+00
          2   -1    0    0  502    0  0.00000000000E+00  0.00000000000E+00  0.10731798694E+04  0.10731798694E+04  0.00000000000E+00 0. -1.
         21   -1    0    0  503  502 -0.00000000000E+00 -0.00000000000E+00 -0.43770914246E+01  0.43770914246E+01  0.00000000000E+00 0. -1.
          2    1    1    2  501    0 -0.28314659486E+02 -0.55929965500E+01  0.10230790457E+04  0.10234860699E+04  0.00000000000E+00 0. -1.
         21    1    1    2  503  501  0.28314659486E+02  0.55929965500E+01  0.45723732351E+02  0.54070890989E+02  0.00000000000E+00 0. -1.
</event>
<event>
 4    1  0.2048241E+005  0.2434593E+02  0.7546771E-02  0.1476255E+00
          2   -1    0    0  502    0  0.00000000000E+00  0.00000000000E+00  0.53745773701E+02  0.53745773701E+02  0.00000000000E+00 0.  1.
         21   -1    0    0  503  502 -0.00000000000E+00 -0.00000000000E+00 -0.13685844020E+03  0.13685844020E+03  0.00000000000E+00 0. -1.
          2    1    1    2  501    0 -0.13597590858E+02  0.20194802905E+02  0.49825327936E+02  0.55455277886E+02  0.00000000000E+00 0.  1.
         21    1    1    2  503  501  0.13597590858E+02 -0.20194802905E+02 -0.13293799443E+03  0.13514893601E+03  0.00000000000E+00 0. -1.
</event>
<event>
 4    1  0.2048241E+005  0.2410191E+02  0.7546771E-02  0.1479106E+00
          2   -1    0    0  502    0  0.00000000000E+00  0.00000000000E+00  0.92077500992E+02  0.92077500992E+02  0.00000000000E+00 0. -1.
         21   -1    0    0  503  502 -0.00000000000E+00 -0.00000000000E+00 -0.10270812502E+03  0.10270812502E+03  0.00000000000E+00 0. -1.
          2    1    1    2  501    0  0.29185562614E+01  0.23924550379E+02  0.89038927602E+02  0.92243334231E+02  0.00000000000E+00 0. -1.
         21    1    1    2  503  501 -0.29185562614E+01 -0.23924550379E+02 -0.99669551628E+02  0.10254229178E+03  0.00000000000E+00 0. -1.
</event>
<event>
 4    1  0.2048241E+005  0.3447258E+02  0.7546771E-02  0.1384309E+00
          2   -1    0    0  503    0  0.00000000000E+00  0.00000000000E+00  0.84496025711E+03  0.84496025711E+03  0.00000000000E+00 0.  1.
         21   -1    0    0  501  502 -0.00000000000E+00 -0.00000000000E+00 -0.14066498377E+01  0.14066498377E+01  0.00000000000E+00 0.  1.
          2    1    1    2  501    0 -0.29224559638E+02 -0.18283424349E+02  0.41622295447E+03  0.41764806515E+03  0.00000000000E+00 0.  1.
         21    1    1    2  503  502  0.29224559638E+02  0.18283424349E+02  0.42733065280E+03  0.42871884180E+03  0.00000000000E+00 0.  1.
</event>
<event>
 4    1  0.2048241E+005  0.2718472E+02  0.7546771E-02  0.1445761E+00
          2   -1    0    0  503    0  0.00000000000E+00  0.00000000000E+00  0.91867024742E+02  0.91867024742E+02  0.00000000000E+00 0.  1.
         21   -1    0    0  501  502 -0.00000000000E+00 -0.00000000000E+00 -0.13231783117E+02  0.13231783117E+02  0.00000000000E+00 0.  1.
          2    1    1    2  501    0 -0.19566595892E+02  0.18872135601E+02  0.72220618394E+02  0.77167524894E+02  0.00000000000E+00 0.  1.
         21    1    1    2  503  502  0.19566595892E+02 -0.18872135601E+02  0.64146232306E+01  0.27931282966E+02  0.00000000000E+00 0.  1.
</event>
<event>
 4    1  0.2048241E+005  0.2721607E+02  0.7546771E-02  0.1445450E+00
          2   -1    0    0  502    0  0.00000000000E+00  0.00000000000E+00  0.95475646671E+02  0.95475646671E+02  0.00000000000E+00 0. -1.
         21   -1    0    0  503  502 -0.00000000000E+00 -0.00000000000E+00 -0.49555349850E+02  0.49555349850E+02  0.00000000000E+00 0. -1.
          2    1    1    2  501    0  0.24645954788E+02  0.11545186126E+02  0.89557836767E+02  0.93601925923E+02  0.00000000000E+00 0. -1.
         21    1    1    2  503  501 -0.24645954788E+02 -0.11545186126E+02 -0.43637539945E+02  0.51429070598E+02  0.00000000000E+00 0. -1.
</event>
<event>
 4    1  0.2048241E+005  0.3256546E+02  0.7546771E-02  0.1398537E+00
          2   -1    0    0  503    0  0.00000000000E+00  0.00000000000E+00  0.14929584352E+04  0.14929584352E+04  0.00000000000E+00 0. -1.
         21   -1    0    0  501  502 -0.00000000000E+00 -0.00000000000E+00 -0.12464615854E+02  0.12464615854E+02  0.00000000000E+00 0. -1.
          2    1    1    2  501    0 -0.30918028612E+02 -0.10226651519E+02  0.14711958590E+04  0.14715562390E+04  0.00000000000E+00 0. -1.
         21    1    1    2  503  502  0.30918028612E+02  0.10226651519E+02  0.92979603462E+01  0.33866812090E+02  0.00000000000E+00 0. -1.
</event>
<event>
 4    1  0.2048241E+005  0.2511032E+02  0.7546771E-02  0.1467573E+00
          2   -1    0    0  503    0  0.00000000000E+00  0.00000000000E+00  0.35603225369E+03  0.35603225369E+03  0.00000000000E+00 0.  1.
         21   -1    0    0  501  502 -0.00000000000E+00 -0.00000000000E+00 -0.13265265944E+02  0.13265265944E+02  0.00000000000E+00 0.  1.
          2    1    1    2  501    0  0.57501699525E+01 -0.24443071064E+02  0.34326505812E+03  0.34418226030E+03  0.00000000000E+00 0.  1.
         21    1    1    2  503  502 -0.57501699525E+01  0.24443071064E+02 -0.49807037131E+00  0.25115259338E+02  0.00000000000E+00 0.  1.
</event>
<event>
 4    1  0.2048241E+005  0.4283628E+02  0.7546771E-02  0.1332622E+00
          2   -1    0    0  502    0  0.00000000000E+00  0.00000000000E+00  0.12953391001E+04  0.12953391001E+04  0.00000000000E+00 0.  1.
         21   -1    0    0  503  502 -0.00000000000E+00 -0.00000000000E+00 -0.44116005289E+01  0.44116005289E+01  0.00000000000E+00 0.  1.
          2    1    1    2  501    0  0.30562587589E+02  0.30014577599E+02  0.11809300540E+04  0.11817067060E+04  0.00000000000E+00 0.  1.
         21    1    1    2  503  501 -0.30562587589E+02 -0.30014577599E+02  0.10999744552E+03  0.11804399455E+03  0.00000000000E+00 0.  1.
</event>
<event>
 4    1  0.2048241E+005  0.4959803E+02  0.7546771E-02  0.1299925E+00
          2   -1    0    0  502    0  0.00000000000E+00  0.00000000000E+00  0.10209270407E+03  0.10209270407E+03  0.00000000000E+00 0. -1.
         21   -1    0    0  503  502 -0.00000000000E+00 -0.00000000000E+00 -0.46016682939E+02  0.46016682939E+02  0.00000000000E+00 0.  1.
          2    1    1    2  501    0 -0.23171328179E+02  0.43852642222E+02  0.79150602456E+02  0.93406544463E+02  0.00000000000E+00 0. -1.
         21    1    1    2  503  501  0.23171328179E+02 -0.43852642222E+02 -0.23074581324E+02  0.54702842547E+02  0.00000000000E+00 0.  1.
</event>
<event>
 4    1  0.2048241E+005  0.2021657E+02  0.7546771E-02  0.1530750E+00
          2   -1    0    0  503    0  0.00000000000E+00  0.00000000000E+00  0.46647043735E+03  0.46647043735E+03  0.00000000000E+00 0. -1.
         21   -1    0    0  501  502 -0.00000000000E+00 -0.00000000000E+00 -0.35883560108E+01  0.35883560108E+01  0.00000000000E+00 0.  1.
          2    1    1    2  501    0 -0.18505326520E+02 -0.81401759857E+01  0.43577181781E+03  0.43624051482E+03  0.00000000000E+00 0. -1.
         21    1    1    2  503  502  0.18505326520E+02  0.81401759857E+01  0.27110263529E+02  0.33818278539E+02  0.00000000000E+00 0.  1.
</event>
<event>
 4    1  0.2048241E+005  0.2153017E+02  0.7546771E-02  0.1511828E+00
          2   -1    0    0  503    0  0.00000000000E+00  0.00000000000E+00  0.13207541901E+02  0.13207541901E+02  0.00000000000E+00 0.  1.
         21   -1    0    0  501  502 -0.00000000000E+00 -0.00000000000E+00 -0.11463341128E+03  0.11463341128E+03  0.00000000000E+00 0.  1.
          2    1    1    2  501    0 -0.29261054168E+01 -0.21330400205E+02  0.25305876358E+01  0.21678374930E+02  0.00000000000E+00 0.  1.
         21    1    1    2  503  502  0.29261054168E+01  0.21330400205E+02 -0.10395645701E+03  0.10616257825E+03  0.00000000000E+00 0.  1.
</event>
<event>
 4    1  0.2048241E+005  0.2120332E+02  0.7546771E-02  0.1516382E+00
          2   -1    0    0  503    0  0.00000000000E+00  0.00000000000E+00  0.86072987076E+03  0.86072987076E+03  0.00000000000E+00 0. -1.
         21   -1    0    0  501  502 -0.00000000000E+00 -0.00000000000E+00 -0.82678511438E+00  0.82678511438E+00  0.00000000000E+00 0.  1.
          2    1    1    2  501    0  0.14696482728E+02  0.15283782998E+02  0.69136191158E+03  0.69168697647E+03  0.00000000000E+00 0. -1.
         21    1    1    2  503  502 -0.14696482728E+02 -0.15283782998E+02  0.16854117407E+03  0.16986967941E+03  0.00000000000E+00 0.  1.
</event>
<event>
 4    1  0.2048241E+005  0.2983501E+02  0.7546771E-02  0.1421036E+00
          2   -1    0    0  502    0  0.00000000000E+00  0.00000000000E+00  0.14701584339E+04  0.14701584339E+04  0.00000000000E+00 0. -1.
         21   -1    0    0  503  502 -0.00000000000E+00 -0.00000000000E+00 -0.50170636419E+01  0.50170636419E+01  0.00000000000E+00 0.  1.
          2    1    1    2  501    0  0.52007106189E+01  0.29378231241E+02  0.14242215760E+04  0.14245340380E+04  0.00000000000E+00 0. -1.
         21    1    1    2  503  501 -0.52007106189E+01 -0.29378231241E+02  0.40919794199E+02  0.50641459488E+02  0.00000000000E+00 0.  1.
</event>
<event>
 4    1  0.2048241E+005  0.2562770E+02  0.7546771E-02  0.1461902E+00
          2   -1    0    0  502    0  0.00000000000E+00  0.00000000000E+00  0.43211654206E+02  0.43211654206E+02  0.00000000000E+00 0. -1.
         21   -1    0    0  503  502 -0.00000000000E+00 -0.00000000000E+00 -0.39668248796E+02  0.39668248796E+02  0.00000000000E+00 0. -1.
          2    1    1    2  501    0 -0.26687750651E+01  0.25488359580E+02  0.34318408330E+02  0.42831436875E+02  0.00000000000E+00 0. -1.
         21    1    1    2  503  501  0.26687750651E+01 -0.25488359580E+02 -0.30775002920E+02  0.40048466127E+02  0.00000000000E+00 0. -1.
</event>
<event>
 4    1  0.2048241E+005  0.3096501E+02  0.7546771E-02  0.1411392E+00
          2   -1    0    0  503    0  0.00000000000E+00  0.00000000000E+00  0.68535104589E+03  0.68535104589E+03  0.00000000000E+00 0. -1.
         21   -1    0    0  501  502 -0.00000000000E+00 -0.00000000000E+00 -0.77472041232E+01  0.77472041232E+01  0.00000000000E+00 0. -1.
          2    1    1    2  501    0 -0.20675566990E+02 -0.23051092375E+02  0.65250332318E+03  0.65323764335E+03  0.00000000000E+00 0. -1.
         21    1    1    2  503  502  0.20675566990E+02  0.23051092375E+02  0.25100518584E+02  0.39860606659E+02  0.00000000000E+00 0. -1.
</event>
<event>
 4    1  0.2048241E+005  0.6049909E+02  0.7546771E-02  0.1258146E+00
          2   -1    0    0  502    0  0.00000000000E+00  0.00000000000E+00  0.19377440097E+04  0.19377440097E+04  0.00000000000E+00 0.  1.
         21   -1    0    0  503  502 -0.00000000000E+00 -0.00000000000E+00 -0.54286674666E+02  0.54286674666E+02  0.00000000000E+00 0. -1.
          2    1    1    2  501    0  0.55558163997E+02 -0.23946403846E+02  0.19202627761E+04  0.19212155707E+04  0.00000000000E+00 0.  1.
         21    1    1    2  503  501 -0.55558163997E+02  0.23946403846E+02 -0.36805441005E+02  0.70815113723E+02  0.00000000000E+00 0. -1.
</event>
<event>
 4    1  0.2048241E+005  0.2934709E+02  0.7546771E-02  0.1425356E+00
          2   -1    0    0  503    0  0.00000000000E+00  0.00000000000E+00  0.71298156757E+03  0.71298156757E+03  0.00000000000E+00 0.  1.
         21   -1    0    0  501  502 -0.00000000000E+00 -0.00000000000E+00 -0.12552720455E+01  0.12552720455E+01  0.00000000000E+00 0.  1.
          2    1    1    2  501    0  0.16494004517E+02 -0.24273427023E+02  0.42519624125E+03  0.42620780731E+03  0.00000000000E+00 0.  1.
         21    1    1    2  503  502 -0.16494004517E+02  0.24273427023E+02  0.28653005427E+03  0.28802903230E+03  0.00000000000E+00 0.  1.
</event>
<event>
 4    1  0.2048241E+005  0.2111652E+02  0.7546771E-02  0.1517608E+00
          2   -1    0    0  503    0  0.00000000000E+00  0.00000000000E+00  0.70569685637E+03  0.70569685637E+03  0.00000000000E+00 0.  1.
         21   -1    0    0  501  502 -0.00000000000E+00 -0.00000000000E+00 -0.14164646293E+03  0.14164646293E+03  0.00000000000E+00 0. -1.
          2    1    1    2  501    0 -0.16036488729E+02 -0.13738214181E+02  0.70475082525E+03  0.70506711254E+03  0.00000000000E+00 0.  1.
         21    1    1    2  503  502  0.16036488729E+02  0.13738214181E+02 -0.14070043180E+03  0.14227620676E+03  0.00000000000E+00 0. -1.
</event>
<event>
 4    1  0.2048241E+005  0.2109692E+02  0.7546771E-02  0.1517886E+00
          2   -1    0    0  503    0  0.00000000000E+00  0.00000000000E+00  0.59918129607E+03  0.59918129607E+03  0.00000000000E+00 0.  1.
         21   -1    0    0  501  502 -0.00000000000E+00 -0.00000000000E+00 -0.74413641577E+00  0.74413641577E+00  0.00000000000E+00 0.  1.
          2    1    1    2  501    0  0.20635992868E+02 -0.43858523094E+01  0.28657058249E+03  0.28734609559E+03  0.00000000000E+00 0.  1.
         21    1    1    2  503  502 -0.20635992868E+02  0.43858523094E+01  0.31186657716E+03  0.31257933689E+03  0.00000000000E+00 0.  1.
</event>
<event>
 4    1  0.2048241E+005  0.2142496E+02  0.7546771E-02  0.1513283E+00
          2   -1    0    0  502    0  0.00000000000E+00  0.00000000000E+00  0.50318840029E+03  0.50318840029E+03  0.00000000000E+00 0.  1.
         21   -1    0    0  503  502 -0.00000000000E+00 -0.00000000000E+00 -0.30898139854E+03  0.30898139854E+03  0.00000000000E+00 0. -1.
          2    1    1    2  501    0  0.20568174669E+02 -0.59982496573E+01  0.50258849217E+03  0.50304494955E+03  0.00000000000E+00 0.  1.
         21    1    1    2  503  501 -0.20568174669E+02  0.59982496573E+01 -0.30838149042E+03  0.30912484927E+03  0.00000000000E+00 0. -1.
</event>
<event>
 4    1  0.2048241E+005  0.2087233E+02  0.7546771E-02  0.1521095E+00
          2   -1    0    0  502    0  0.00000000000E+00  0.00000000000E+00  0.27460415408E+03  0.27460415408E+03  0.00000000000E+00 0.  1.
         21   -1    0    0  503  502 -0.00000000000E+00 -0.00000000000E+00 -0.53704950061E+02  0.53704950061E+02  0.00000000000E+00 0. -1.
          2    1    1    2  501    0  0.20824096075E+02 -0.14181772764E+01  0.27216135984E+03  0.27296054658E+03  0.00000000000E+00 0.  1.
         21    1    1    2  503  501 -0.20824096075E+02  0.14181772764E+01 -0.51262155819E+02  0.55348557554E+02  0.00000000000E+00 0. -1.
</event>
<event>
 4    1  0.2048241E+005  0.2487206E+02  0.7546771E-02  0.1470240E+00
          2   -1    0    0  503    0  0.00000000000E+00  0.00000000000E+00  0.22686992468E+04  0.22686992468E+04  0.00000000000E+00 0.  1.
         21   -1    0    0  501  502 -0.00000000000E+00 -0.00000000000E+00 -0.27307693372E+00  0.27307693372E+00  0.00000000000E+00 0.  1.
          2    1    1    2  501    0 -0.16455095693E+02 -0.18650713370E+02  0.11776966163E+04  0.11779592265E+04  0.00000000000E+00 0.  1.
         21    1    1    2  503  502  0.16455095693E+02  0.18650713370E+02  0.10907295535E+04  0.10910130972E+04  0.00000000000E+00 0.  1.
</event>
<event>
 4    1  0.2048241E+005  0.2092095E+02  0.7546771E-02  0.1520396E+00
          2   -1    0    0  502    0  0.00000000000E+00  0.00000000000E+00  0.33390963145E+02  0.33390963145E+02  0.00000000000E+00 0. -1.
         21   -1    0    0  503  502 -0.00000000000E+00 -0.00000000000E+00 -0.98930008832E+02  0.98930008832E+02  0.00000000000E+00 0. -1.
          2    1    1    2  501    0  0.15888046161E+02  0.13610890577E+02  0.28852249039E+02  0.35639004303E+02  0.00000000000E+00 0. -1.
         21    1    1    2  503  501 -0.15888046161E+02 -0.13610890577E+02 -0.94391294726E+02  0.96681967673E+02  0.00000000000E+00 0. -1.
</event>
<event>
 4    1  0.2048241E+005  0.2554104E+02  0.7546771E-02  0.1462841E+00
          2   -1    0    0  503    0  0.00000000000E+00  0.00000000000E+00  0.15216153255E+02  0.15216153255E+02  0.00000000000E+00 0.  1.
         21   -1    0    0  501  502 -0.00000000000E+00 -0.00000000000E+00 -0.83656565362E+02  0.83656565362E+02  0.00000000000E+00 0.  1.
          2    1    1    2  501    0 -0.25422601376E+02 -0.24568110653E+01  0.29776048517E+00  0.25542772806E+02  0.00000000000E+00 0.  1.
         21    1    1    2  503  502  0.25422601376E+02  0.24568110653E+01 -0.68738172592E+02  0.73329945811E+02  0.00000000000E+00 0.  1.
</event>
<event>
 4    1  0.2048241E+005  0.3446654E+02  0.7546771E-02  0.1384353E+00
          2   -1    0    0  503    0  0.00000000000E+00  0.00000000000E+00  0.30426016769E+03  0.30426016769E+03  0.00000000000E+00 0.  1.
         21   -1    0    0  501  502 -0.00000000000E+00 -0.00000000000E+00 -0.63392720064E+03  0.63392720064E+03  0.00000000000E+00 0. -1.
          2    1    1    2  501    0 -0.27875775121E+00 -0.34465414364E+02  0.30281336011E+03  0.30476855736E+03  0.00000000000E+00 0.  1.
         21    1    1    2  503  502  0.27875775121E+00  0.34465414364E+02 -0.63248039306E+03  0.63341881098E+03  0.00000000000E+00 0. -1.
</event>
<event>
 4    1  0.2048241E+005  0.2429187E+02  0.7546771E-02  0.1476883E+00
          2   -1    0    0  503    0  0.00000000000E+00  0.00000000000E+00  0.76260229948E+02  0.76260229948E+02  0.00000000000E+00 0. -1.
         21   -1    0    0  501  502 -0.00000000000E+00 -0.00000000000E+00 -0.86215768878E+02  0.86215768878E+02  0.00000000000E+00 0.  1.
          2    1    1    2  501    0 -0.46508075470E+01  0.23842504044E+02  0.72528963678E+02  0.76488859203E+02  0.00000000000E+00 0. -1.
         21    1    1    2  503  502  0.46508075470E+01 -0.23842504044E+02 -0.82484502608E+02  0.85987139623E+02  0.00000000000E+00 0.  1.
</event>
<event>
 4    1  0.2048241E+005  0.3705975E+02  0.7546771E-02  0.1366634E+00
          2   -1    0    0  502    0  0.00000000000E+00  0.00000000000E+00  0.12616946347E+03  0.12616946347E+03  0.00000000000E+00 0. -1.
         21   -1    0    0  503  502 -0.00000000000E+00 -0.00000000000E+00 -0.13046934798E+02  0.13046934798E+02  0.00000000000E+00 0. -1.
          2    1    1    2  501    0  0.12050331990E+02 -0.35045894564E+02  0.84892872309E+02  0.92629503916E+02  0.00000000000E+00 0. -1.
         21    1    1    2  503  501 -0.12050331990E+02  0.35045894564E+02  0.28229656361E+02  0.46586894350E+02  0.00000000000E+00 0. -1.
</event>
<event>
 4    1  0.2048241E+005  0.3128653E+02  0.7546771E-02  0.1408736E+00
          2   -1    0    0  503    0  0.00000000000E+00  0.00000000000E+00  0.41218707368E+03  0.41218707368E+03  0.00000000000E+00 0.  1.
         21   -1    0    0  501  502 -0.00000000000E+00 -0.00000000000E+00 -0.35568744798E+01  0.35568744798E+01  0.00000000000E+00 0.  1.
          2    1    1    2  501    0  0.31270369200E+02 -0.10053485278E+01  0.32415207573E+03  0.32565843289E+03  0.00000000000E+00 0.  1.
         21    1    1    2  503  502 -0.31270369200E+02  0.10053485278E+01  0.84478123475E+02  0.90085515270E+02  0.00000000000E+00 0.  1.
</event>
<event>
 4    1  0.2048241E+005  0.2526616E+02  0.7546771E-02  0.1465848E+00
          2   -1    0    0  503    0  0.00000000000E+00  0.00000000000E+00  0.73820078222E+01  0.73820078222E+01  0.00000000000E+00 0. -1.
         21   -1    0    0  501  502 -0.00000000000E+00 -0.00000000000E+00 -0.10003857327E+03  0.10003857327E+03  0.00000000000E+00 0. -1.
          2    1    1    2  501    0  0.25264862687E+02  0.25554940253E+00 -0.26553186925E+02  0.36653108026E+02  0.00000000000E+00 0. -1.
         21    1    1    2  503  502 -0.25264862687E+02 -0.25554940253E+00 -0.66103378522E+02  0.70767473065E+02  0.00000000000E+00 0. -1.
</event>
<event>
 4    1  0.2048241E+005  0.2527820E+02  0.7546771E-02  0.1465715E+00
          2   -1    0    0  503    0  0.00000000000E+00  0.00000000000E+00  0.25743123937E+03  0.25743123937E+03  0.00000000000E+00 0.  1.
         21   -1    0    0  501  502 -0.00000000000E+00 -0.00000000000E+00 -0.63611756601E+01  0.63611756601E+01  0.00000000000E+00 0. -1.
          2    1    1    2  501    0 -0.18832103355E+02  0.16862362355E+02  0.22853188996E+03  0.22992566648E+03  0.00000000000E+00 0.  1.
         21    1    1    2  503  502  0.18832103355E+02 -0.16862362355E+02  0.22538173754E+02  0.33866748547E+02  0.00000000000E+00 0. -1.
</event>
<event>
 4    1  0.2048241E+005  0.2770194E+02  0.7546771E-02  0.1440682E+00
          2   -1    0    0  503    0  0.00000000000E+00  0.00000000000E+00  0.17011128612E+03  0.17011128612E+03  0.00000000000E+00 0. -1.
         21   -1    0    0  501  502 -0.00000000000E+00 -0.00000000000E+00 -0.47389305133E+01  0.47389305133E+01  0.00000000000E+00 0. -1.
          2    1    1    2  501    0 -0.24664902320E+02 -0.12611118953E+02  0.10185313511E+03  0.10555310919E+03  0.00000000000E+00 0. -1.
         21    1    1    2  503  502  0.24664902320E+02  0.12611118953E+02  0.63519220501E+02  0.69297107449E+02  0.00000000000E+00 0. -1.
</event>
<event>
 4    1  0.2048241E+005  0.3116623E+02  0.7546771E-02  0.1409725E+00
          2   -1    0    0  503    0  0.00000000000E+00  0.00000000000E+00  0.14427121693E+03  0.14427121693E+03  0.00000000000E+00 0.  1.
         21   -1    0    0  501  502 -0.00000000000E+00 -0.00000000000E+00 -0.10010165533E+02  0.10010165533E+02  0.00000000000E+00 0. -1.
          2    1    1    2  501    0 -0.11888770163E+02 -0.28809562047E+02  0.11127053991E+03  0.11555287436E+03  0.00000000000E+00 0.  1.
         21    1    1    2  503  502  0.11888770163E+02  0.28809562047E+02  0.22990511487E+02  0.38728508102E+02  0.00000000000E+00 0. -1.
</event>
<event>
 4    1  0.2048241E+005  0.2905088E+02  0.7546771E-02  0.1428027E+00
          2   -1    0    0  503    0  0.00000000000E+00  0.00000000000E+00  0.35971540928E+02  0.35971540928E+02  0.00000000000E+00 0. -1.
         21   -1    0    0  501  502 -0.00000000000E+00 -0.00000000000E+00 -0.23635103082E+02  0.23635103082E+02  0.00000000000E+00 0.  1.
          2    1    1    2  501    0  0.19087799851E+02  0.21899986150E+02  0.87210055410E+01  0.30331657293E+02  0.00000000000E+00 0. -1.
         21    1    1    2  503  502 -0.19087799851E+02 -0.21899986150E+02  0.36154323048E+01  0.29274986717E+02  0.00000000000E+00 0.  1.
</event>
<event>
 4    1  0.2048241E+005  0.2668228E+02  0.7546771E-02  0.1450826E+00
          2   -1    0    0  502    0  0.00000000000E+00  0.00000000000E+00  0.10982009366E+04  0.10982009366E+04  0.00000000000E+00 0. -1.
         21   -1    0    0  503  502 -0.00000000000E+00 -0.00000000000E+00 -0.18720671451E+01  0.18720671451E+01  0.00000000000E+00 0. -1.
          2    1    1    2  501    0  0.43543775907E+01  0.26324583146E+02  0.99288102111E+03  0.99323948087E+03  0.00000000000E+00 0. -1.
         21    1    1    2  503  501 -0.43543775907E+01 -0.26324583146E+02  0.10344784830E+03  0.10683352283E+03  0.00000000000E+00 0. -1.
</event>
<event>
 4    1  0.2048241E+005  0.4597170E+02  0.7546771E-02  0.1316651E+00
          2   -1    0    0  503    0  0.00000000000E+00  0.00000000000E+00  0.25669592661E+04  0.25669592661E+04  0.00000000000E+00 0. -1.
         21   -1    0    0  501  502 -0.00000000000E+00 -0.00000000000E+00 -0.81599307108E+02  0.81599307108E+02  0.00000000000E+00 0.  1.
          2    1    1    2  501    0 -0.43151249438E+02  0.15854554060E+02  0.25602615782E+04  0.25606742756E+04  0.00000000000E+00 0. -1.
         21    1    1    2  503  502  0.43151249438E+02 -0.15854554060E+02 -0.74901619157E+02  0.87884297601E+02  0.00000000000E+00 0.  1.
</event>
<event>
 4    1  0.2048241E+005  0.2489564E+02  0.7546771E-02  0.1469974E+00
          2   -1    0    0  503    0  0.00000000000E+00  0.00000000000E+00  0.69556729999E+03  0.69556729999E+03  0.00000000000E+00 0.  1.
         21   -1    0    0  501  502 -0.00000000000E+00 -0.00000000000E+00 -0.98132608866E+00  0.98132608866E+00  0.00000000000E+00 0.  1.
          2    1    1    2  501    0 -0.19708401476E+02 -0.15210917945E+02  0.45291973735E+03  0.45360344090E+03  0.00000000000E+00 0.  1.
         21    1    1    2  503  502  0.19708401476E+02  0.15210917945E+02  0.24166623655E+03  0.24294518518E+03  0.00000000000E+00 0.  1.
</event>
<event>
 4    1  0.2048241E+005  0.2962089E+02  0.7546771E-02  0.1422920E+00
          2   -1    0    0  503    0  0.00000000000E+00  0.00000000000E+00  0.16552747185E+03  0.16552747185E+03  0.00000000000E+00 0.  1.
         21   -1    0    0  501  502 -0.00000000000E+00 -0.00000000000E+00 -0.33276622940E+03  0.33276622940E+03  0.00000000000E+00 0. -1.
          2    1    1    2  501    0 -0.84804152117E+00 -0.29608744896E+02  0.16353518401E+03  0.16619612919E+03  0.00000000000E+00 0.  1.
         21    1    1    2  503  502  0.84804152117E+00  0.29608744896E+02 -0.33077394156E+03  0.33209757206E+03  0.00000000000E+00 0. -1.
</event>
<event>
 4    1  0.2048241E+005  0.2229061E+02  0.7546771E-02  0.1501603E+00
          2   -1    0    0  503    0  0.00000000000E+00  0.00000000000E+00  0.28780983580E+03  0.28780983580E+03  0.00000000000E+00 0.  1.
         21   -1    0    0  501  502 -0.00000000000E+00 -0.00000000000E+00 -0.53412061026E+01  0.53412061026E+01  0.00000000000E+00 0.  1.
          2    1    1    2  501    0 -0.22089449343E+01 -0.22180893822E+02  0.26181701197E+03  0.26276418943E+03  0.00000000000E+00 0.  1.
         21    1    1    2  503  502  0.22089449343E+01  0.22180893822E+02  0.20651617720E+02  0.30386852468E+02  0.00000000000E+00 0.  1.
</event>
<event>
 4    1  0.2048241E+005  0.2035711E+02  0.7546771E-02  0.1528645E+00
          2   -1    0    0  503    0  0.00000000000E+00  0.00000000000E+00  0.12488270890E+04  0.12488270890E+04  0.00000000000E+00 0. -1.
         21   -1    0    0  501  502 -0.00000000000E+00 -0.00000000000E+00 -0.43456132089E+00  0.43456132089E+00  0.00000000000E+00 0. -1.
          2    1    1    2  501    0 -0.17857625597E+02 -0.97732816211E+01  0.92788340847E+03  0.92810669190E+03  0.00000000000E+00 0. -1.
         21    1    1    2  503  502  0.17857625597E+02  0.97732816211E+01  0.32050911921E+03  0.32115495843E+03  0.00000000000E+00 0. -1.
</event>
<event>
 4    1  0.2048241E+005  0.2148819E+02  0.7546771E-02  0.1512408E+00
          2   -1    0    0  503    0  0.00000000000E+00  0.00000000000E+00  0.65660031958E+03  0.65660031958E+03  0.00000000000E+00 0.  1.
         21   -1    0    0  501  502 -0.00000000000E+00 -0.00000000000E+00 -0.55997189970E+01  0.55997189970E+01  0.00000000000E+00 0. -1.
          2    1    1    2  501    0  0.42648352667E+01  0.21060709795E+02  0.63511273494E+03  0.63547614306E+03  0.00000000000E+00 0.  1.
         21    1    1    2  503  502 -0.42648352667E+01 -0.21060709795E+02  0.15887865646E+02  0.26723895519E+02  0.00000000000E+00 0. -1.
</event>
<event>
 4    1  0.2048241E+005  0.2350633E+02  0.7546771E-02  0.1486236E+00
          2   -1    0    0  503    0  0.00000000000E+00  0.00000000000E+00  0.93476458808E+01  0.93476458808E+01  0.00000000000E+00 0. -1.
         21   -1    0    0  501  502 -0.00000000000E+00 -0.00000000000E+00 -0.63461026701E+02  0.63461026701E+02  0.00000000000E+00 0. -1.
          2    1    1    2  501    0  0.37367897597E+00  0.23503358353E+02 -0.36587986722E+02  0.43488254301E+02  0.00000000000E+00 0. -1.
         21    1    1    2  503  502 -0.37367897597E+00 -0.23503358353E+02 -0.17525394098E+02  0.29320418280E+02  0.00000000000E+00 0. -1.
</event>
<event>
 4    1  0.2048241E+005  0.2216349E+02  0.7546771E-02  0.1503278E+00
          2   -1    0    0  502    0  0.00000000000E+00  0.00000000000E+00  0.68774266933E+02  0.68774266933E+02  0.00000000000E+00 0. -1.
         21   -1    0    0  503  502 -0.00000000000E+00 -0.00000000000E+00 -0.12317771517E+02  0.12317771517E+02  0.00000000000E+00 0.  1.
          2    1    1    2  501    0 -0.19018224816E+02 -0.11381014030E+02  0.54509655553E+02  0.58843206099E+02  0.00000000000E+00 0. -1.
         21    1    1    2  503  501  0.19018224816E+02  0.11381014030E+02  0.19468398627E+01  0.22248832351E+02  0.00000000000E+00 0.  1.
</event>
<event>
 4    1  0.2048241E+005  0.2830230E+02  0.7546771E-02  0.1434947E+00
          2   -1    0    0  503    0  0.00000000000E+00  0.00000000000E+00  0.23762544958E+03  0.23762544958E+03  0.00000000000E+00 0.  1.
         21   -1    0    0  501  502 -0.00000000000E+00 -0.00000000000E+00 -0.48242726668E+02  0.48242726668E+02  0.00000000000E+00 0. -1.
          2    1    1    2  501    0  0.93838562526E+01  0.26701374508E+02  0.23254130523E+03  0.23425729188E+03  0.00000000000E+00 0.  1.
         21    1    1    2  503  502 -0.93838562526E+01 -0.26701374508E+02 -0.43158582314E+02  0.51610884377E+02  0.00000000000E+00 0. -1.
</event>
<event>
 4    1  0.2048241E+005  0.1052790E+03  0.7546771E-02  0.1154962E+00
          2   -1    0    0  502    0  0.00000000000E+00  0.00000000000E+00  0.82500818640E+03  0.82500818640E+03  0.00000000000E+00 0.  1.
         21   -1    0    0  503  502 -0.00000000000E+00 -0.00000000000E+00 -0.17695577171E+02  0.17695577171E+02  0.00000000000E+00 0.  1.
          2    1    1    2  501    0 -0.10088080378E+03 -0.30112004508E+02  0.61041619126E+03  0.61942844296E+03  0.00000000000E+00 0.  1.
         21    1    1    2  503  501  0.10088080378E+03  0.30112004508E+02  0.19689641797E+03  0.22327532061E+03  0.00000000000E+00 0.  1.
</event>
<event>
 4    1  0.2048241E+005  0.7969183E+02  0.7546771E-02  0.1204565E+00
          2   -1    0    0  503    0  0.00000000000E+00  0.00000000000E+00  0.25011458208E+04  0.25011458208E+04  0.00000000000E+00 0.  1.
         21   -1    0    0  501  502 -0.00000000000E+00 -0.00000000000E+00 -0.85472776052E+01  0.85472776052E+01  0.00000000000E+00 0.  1.
          2    1    1    2  501    0  0.27216916467E+02 -0.74900111068E+02  0.22983731794E+04  0.22997543475E+04  0.00000000000E+00 0.  1.
         21    1    1    2  503  502 -0.27216916467E+02  0.74900111068E+02  0.19422536381E+03  0.20993875090E+03  0.00000000000E+00 0.  1.
</event>
<event>
 4    1  0.2048241E+005  0.2141801E+02  0.7546771E-02  0.1513380E+00
          2   -1    0    0  503    0  0.00000000000E+00  0.00000000000E+00  0.58425388773E+03  0.58425388773E+03  0.00000000000E+00 0.  1.
         21   -1    0    0  501  502 -0.00000000000E+00 -0.00000000000E+00 -0.30054622351E+01  0.30054622351E+01  0.00000000000E+00 0. -1.
          2    1    1    2  501    0 -0.17923801838E+02 -0.11724694971E+02  0.54300170985E+03  0.54342394872E+03  0.00000000000E+00 0.  1.
         21    1    1    2  503  502  0.17923801838E+02  0.11724694971E+02  0.38246715642E+02  0.43835401240E+02  0.00000000000E+00 0. -1.
</event>
<event>
 4    1  0.2048241E+005  0.2399560E+02  0.7546771E-02  0.1480361E+00
          2   -1    0    0  502    0  0.00000000000E+00  0.00000000000E+00  0.92623405467E+00  0.92623405467E+00  0.00000000000E+00 0. -1.
         21   -1    0    0  503  502 -0.00000000000E+00 -0.00000000000E+00 -0.71081563161E+03  0.71081563161E+03  0.00000000000E+00 0.  1.
          2    1    1    2  501    0  0.31069865898E+01 -0.23793603848E+02 -0.22890003104E+03  0.23015432466E+03  0.00000000000E+00 0. -1.
         21    1    1    2  503  501 -0.31069865898E+01  0.23793603848E+02 -0.48098936652E+03  0.48158754100E+03  0.00000000000E+00 0.  1.
</event>
<event>
 4    1  0.2048241E+005  0.3776119E+02  0.7546771E-02  0.1362129E+00
          2   -1    0    0  503    0  0.00000000000E+00  0.00000000000E+00  0.83388932203E+03  0.83388932203E+03  0.00000000000E+00 0.  1.
         21   -1    0    0  501  502 -0.00000000000E+00 -0.00000000000E+00 -0.25440913522E+01  0.25440913522E+01  0.00000000000E+00 0.  1.
          2    1    1    2  501    0 -0.21913490215E+02  0.30752334392E+02  0.65514500768E+03  0.65623234316E+03  0.00000000000E+00 0.  1.
         21    1    1    2  503  502  0.21913490215E+02 -0.30752334392E+02  0.17620022300E+03  0.18020107022E+03  0.00000000000E+00 0.  1.
</event>
<event>
 4    1  0.2048241E+005  0.2098011E+02  0.7546771E-02  0.1519549E+00
          2   -1    0    0  502    0  0.00000000000E+00  0.00000000000E+00  0.83965419795E+01  0.83965419795E+01  0.00000000000E+00 0. -1.
         21   -1    0    0  503  502 -0.00000000000E+00 -0.00000000000E+00 -0.25362164496E+03  0.25362164496E+03  0.00000000000E+00 0.  1.
          2    1    1    2  501    0  0.18472046221E+02  0.99472777167E+01 -0.59257537237E+01  0.21800903256E+02  0.00000000000E+00 0. -1.
         21    1    1    2  503  501 -0.18472046221E+02 -0.99472777167E+01 -0.23929934926E+03  0.24021728369E+03  0.00000000000E+00 0.  1.
</event>
<event>
 4    1  0.2048241E+005  0.3842238E+02  0.7546771E-02  0.1357987E+00
          2   -1    0    0  503    0  0.00000000000E+00  0.00000000000E+00  0.93447562800E+02  0.93447562800E+02  0.00000000000E+00 0.  1.
         21   -1    0    0  501  502 -0.00000000000E+00 -0.00000000000E+00 -0.54530827634E+02  0.54530827634E+02  0.00000000000E+00 0.  1.
          2    1    1    2  501    0 -0.23593543825E+02 -0.30325304937E+02  0.81815648638E+02  0.90388493691E+02  0.00000000000E+00 0.  1.
         21    1    1    2  503  502  0.23593543825E+02  0.30325304937E+02 -0.42898913472E+02  0.57589896742E+02  0.00000000000E+00 0.  1.
</event>
<event>
 4    1  0.2048241E+005  0.2285828E+02  0.7546771E-02  0.1494285E+00
          2   -1    0    0  503    0  0.00000000000E+00  0.00000000000E+00  0.48307922557E+03  0.48307922557E+03  0.00000000000E+00 0. -1.
         21   -1    0    0  501  502 -0.00000000000E+00 -0.00000000000E+00 -0.78516322465E+01  0.78516322465E+01  0.00000000000E+00 0.  1.
          2    1    1    2  501    0 -0.12082457955E+02  0.19404000066E+02  0.46554593331E+03  0.46610676570E+03  0.00000000000E+00 0. -1.
         21    1    1    2  503  502  0.12082457955E+02 -0.19404000066E+02  0.96816600127E+01  0.24824092117E+02  0.00000000000E+00 0.  1.
</event>
<event>
 4    1  0.2048241E+005  0.6606048E+02  0.7546771E-02  0.1240524E+00
          2   -1    0    0  502    0  0.00000000000E+00  0.00000000000E+00  0.36266650821E+03  0.36266650821E+03  0.00000000000E+00 0.  1.
         21   -1    0    0  503  502 -0.00000000000E+00 -0.00000000000E+00 -0.52418374061E+02  0.52418374061E+02  0.00000000000E+00 0.  1.
          2    1    1    2  501    0 -0.85562270551E+01  0.65504029156E+02  0.33729408241E+03  0.34370232016E+03  0.00000000000E+00 0.  1.
         21    1    1    2  503  501  0.85562270551E+01 -0.65504029156E+02 -0.27045948254E+02  0.71382562115E+02  0.00000000000E+00 0.  1.
</event>
<event>
 4    1  0.2048241E+005  0.2482448E+02  0.7546771E-02  0.1470777E+00
          2   -1    0    0  503    0  0.00000000000E+00  0.00000000000E+00  0.46084773706E+03  0.46084773706E+03  0.00000000000E+00 0.  1.
         21   -1    0    0  501  502 -0.00000000000E+00 -0.00000000000E+00 -0.55060116402E+01  0.55060116402E+01  0.00000000000E+00 0.  1.
          2    1    1    2  501    0  0.22196051533E+02  0.11117102681E+02  0.43056617995E+03  0.43128121915E+03  0.00000000000E+00 0.  1.
         21    1    1    2  503  502 -0.22196051533E+02 -0.11117102681E+02  0.24775545472E+02  0.35072529551E+02  0.00000000000E+00 0.  1.
</event>
<event>
 4    1  0.2048241E+005  0.4735201E+02  0.7546771E-02  0.1310080E+00
          2   -1    0    0  503    0  0.00000000000E+00  0.00000000000E+00  0.11632753471E+04  0.11632753471E+04  0.00000000000E+00 0. -1.
         21   -1    0    0  501  502 -0.00000000000E+00 -0.00000000000E+00 -0.28958907498E+01  0.28958907498E+01  0.00000000000E+00 0.  1.
          2    1    1    2  501    0 -0.44981716334E+02 -0.14793847362E+02  0.91737349444E+03  0.91859476431E+03  0.00000000000E+00 0. -1.
         21    1    1    2  503  502  0.44981716334E+02  0.14793847362E+02  0.24300596186E+03  0.24757647349E+03  0.00000000000E+00 0.  1.
</event>
<event>
 4    1  0.2048241E+005  0.4418221E+02  0.7546771E-02  0.1325580E+00
          2   -1    0    0  503    0  0.00000000000E+00  0.00000000000E+00  0.10851631438E+04  0.10851631438E+04  0.00000000000E+00 0. -1.
         21   -1    0    0  501  502 -0.00000000000E+00 -0.00000000000E+00 -0.90886548391E+01  0.90886548391E+01  0.00000000000E+00 0. -1.
          2    1    1    2  501    0  0.44110843403E+02 -0.25101655910E+01  0.10280358261E+04  0.10289848042E+04  0.00000000000E+00 0. -1.
         21    1    1    2  503  502 -0.44110843403E+02  0.25101655910E+01  0.48038662789E+02  0.65266994413E+02  0.00000000000E+00 0. -1.
</event>
<event>
 4    1  0.2048241E+005  0.2514799E+02  0.7546771E-02  0.1467155E+00
          2   -1    0    0  502    0  0.00000000000E+00  0.00000000000E+00  0.72769164133E+03  0.72769164133E+03  0.00000000000E+00 0.  1.
         21   -1    0    0  503  502 -0.00000000000E+00 -0.00000000000E+00 -0.23162004566E+02  0.23162004566E+02  0.00000000000E+00 0.  1.
          2    1    1    2  501    0  0.20980984889E+02  0.13864330964E+02  0.72058096764E+03  0.72101966154E+03  0.00000000000E+00 0.  1.
         21    1    1    2  503  501 -0.20980984889E+02 -0.13864330964E+02 -0.16051330873E+02  0.29833984360E+02  0.00000000000E+00 0.  1.
</event>
<event>
 4    1  0.2048241E+005  0.2000699E+02  0.7546771E-02  0.1533929E+00
          2   -1    0    0  502    0  0.00000000000E+00  0.00000000000E+00  0.17273440265E+02  0.17273440265E+02  0.00000000000E+00 0.  1.
         21   -1    0    0  503  502 -0.00000000000E+00 -0.00000000000E+00 -0.35071349759E+03  0.35071349759E+03  0.00000000000E+00 0.  1.
          2    1    1    2  501    0 -0.19126604238E+02 -0.58696435416E+01  0.11090954047E+02  0.22875510195E+02  0.00000000000E+00 0.  1.
         21    1    1    2  503  501  0.19126604238E+02  0.58696435416E+01 -0.34453101137E+03  0.34511142766E+03  0.00000000000E+00 0.  1.
</event>
<event>
 4    1  0.2048241E+005  0.2723334E+02  0.7546771E-02  0.1445278E+00
          2   -1    0    0  502    0  0.00000000000E+00  0.00000000000E+00  0.54690299483E+03  0.54690299483E+03  0.00000000000E+00 0. -1.
         21   -1    0    0  503  502 -0.00000000000E+00 -0.00000000000E+00 -0.61508856271E+01  0.61508856271E+01  0.00000000000E+00 0.  1.
          2    1    1    2  501    0 -0.27188718100E+02 -0.15583032745E+01  0.51452410300E+03  0.51524431804E+03  0.00000000000E+00 0. -1.
         21    1    1    2  503  501  0.27188718100E+02  0.15583032745E+01  0.26228006202E+02  0.37809562419E+02  0.00000000000E+00 0.  1.
</event>
<event>
 4    1  0.2048241E+005  0.5236044E+02  0.7546771E-02  0.1288250E+00
          2   -1    0    0  502    0  0.00000000000E+00  0.00000000000E+00  0.97987356256E+03  0.97987356256E+03  0.00000000000E+00 0.  1.
         21   -1    0    0  503  502 -0.00000000000E+00 -0.00000000000E+00 -0.91750041401E+02  0.91750041401E+02  0.00000000000E+00 0.  1.
          2    1    1    2  501    0 -0.44358540036E+02  0.27819703776E+02  0.97164048743E+03  0.97305028278E+03  0.00000000000E+00 0.  1.
         21    1    1    2  503  501  0.44358540036E+02 -0.27819703776E+02 -0.83516966278E+02  0.98573321180E+02  0.00000000000E+00 0.  1.
</event>
<event>
 4    1  0.2048241E+005  0.2543667E+02  0.7546771E-02  0.1463977E+00
          2   -1    0    0  503    0  0.00000000000E+00  0.00000000000E+00  0.60512145909E+03  0.60512145909E+03  0.00000000000E+00 0.  1.
         21   -1    0    0  501  502 -0.00000000000E+00 -0.00000000000E+00 -0.10816552263E+01  0.10816552263E+01  0.00000000000E+00 0.  1.
          2    1    1    2  501    0  0.25346905559E+02 -0.21351007398E+01  0.33448370612E+03  0.33544951027E+03  0.00000000000E+00 0.  1.
         21    1    1    2  503  502 -0.25346905559E+02  0.21351007398E+01  0.26955609774E+03  0.27075360405E+03  0.00000000000E+00 0.  1.
</event>
<event>
 4    1  0.2048241E+005  0.2144367E+02  0.7546771E-02  0.1513024E+00
          2   -1    0    0  503    0  0.00000000000E+00  0.00000000000E+00  0.14123656804E+04  0.14123656804E+04  0.00000000000E+00 0. -1.
         21   -1    0    0  501  502 -0.00000000000E+00 -0.00000000000E+00 -0.63249247802E+00  0.63249247802E+00  0.00000000000E+00 0. -1.
          2    1    1    2  501    0 -0.98363753159E+01 -0.19054575157E+02  0.11980133805E+04  0.11982052791E+04  0.00000000000E+00 0. -1.
         21    1    1    2  503  502  0.98363753159E+01  0.19054575157E+02  0.21371980742E+03  0.21479289373E+03  0.00000000000E+00 0. -1.
</event>
<event>
 4    1  0.2048241E+005  0.2063413E+02  0.7546771E-02  0.1524553E+00
          2   -1    0    0  503    0  0.00000000000E+00  0.00000000000E+00  0.67781093923E+02  0.67781093923E+02  0.00000000000E+00 0. -1.
         21   -1    0    0  501  502 -0.00000000000E+00 -0.00000000000E+00 -0.64233905002E+01  0.64233905002E+01  0.00000000000E+00 0. -1.
          2    1    1    2  501    0  0.20617664789E+02 -0.82424115291E+00  0.36193052950E+02  0.41661787728E+02  0.00000000000E+00 0. -1.
         21    1    1    2  503  502 -0.20617664789E+02  0.82424115291E+00  0.25164650473E+02  0.32542696696E+02  0.00000000000E+00 0. -1.
</event>
<event>
 4    1  0.2048241E+005  0.2089789E+02  0.7546771E-02  0.1520728E+00
          2   -1    0    0  502    0  0.00000000000E+00  0.00000000000E+00  0.11498230531E+03  0.11498230531E+03  0.00000000000E+00 0. -1.
         21   -1    0    0  503  502 -0.00000000000E+00 -0.00000000000E+00 -0.81006408976E+01  0.81006408976E+01  0.00000000000E+00 0.  1.
          2    1    1    2  501    0  0.20896879504E+02  0.20571705877E+00  0.98291340134E+02  0.10048835474E+03  0.00000000000E+00 0. -1.
         21    1    1    2  503  501 -0.20896879504E+02 -0.20571705877E+00  0.85903242787E+01  0.22594591470E+02  0.00000000000E+00 0.  1.
</event>
<event>
 4    1  0.2048241E+005  0.2428935E+02  0.7546771E-02  0.1476913E+00
          2   -1    0    0  502    0  0.00000000000E+00  0.00000000000E+00  0.72221020433E+03  0.72221020433E+03  0.00000000000E+00 0.  1.
         21   -1    0    0  503  502 -0.00000000000E+00 -0.00000000000E+00 -0.81738817027E+00  0.81738817027E+00  0.00000000000E+00 0.  1.
          2    1    1    2  501    0  0.17391852503E+02  0.16955707679E+02  0.35184960113E+03  0.35268699206E+03  0.00000000000E+00 0.  1.
         21    1    1    2  503  501 -0.17391852503E+02 -0.16955707679E+02  0.36954321504E+03  0.37034060044E+03  0.00000000000E+00 0.  1.
</event>
<event>
 4    1  0.2048241E+005  0.2105186E+02  0.7546771E-02  0.1518526E+00
          2   -1    0    0  502    0  0.00000000000E+00  0.00000000000E+00  0.42796980886E+03  0.42796980886E+03  0.00000000000E+00 0.  1.
         21   -1    0    0  503  502 -0.00000000000E+00 -0.00000000000E+00 -0.44837445944E+01  0.44837445944E+01  0.00000000000E+00 0. -1.
          2    1    1    2  501    0  0.59112620189E+01  0.20204894083E+02  0.40136359040E+03  0.40191530508E+03  0.00000000000E+00 0.  1.
         21    1    1    2  503  501 -0.59112620189E+01 -0.20204894083E+02  0.22122473870E+02  0.30538248373E+02  0.00000000000E+00 0. -1.
</event>
<event>
 4    1  0.2048241E+005  0.7265585E+02  0.7546771E-02  0.1222007E+00
          2   -1    0    0  503    0  0.00000000000E+00  0.00000000000E+00  0.13607106511E+04  0.13607106511E+04  0.00000000000E+00 0.  1.
         21   -1    0    0  501  502 -0.00000000000E+00 -0.00000000000E+00 -0.68841110412E+01  0.68841110412E+01  0.00000000000E+00 0.  1.
          2    1    1    2  501    0 -0.32339536944E+02  0.65061718976E+02  0.11286629399E+04  0.11309990738E+04  0.00000000000E+00 0.  1.
         21    1    1    2  503  502  0.32339536944E+02 -0.65061718976E+02  0.22516360009E+03  0.23659568832E+03  0.00000000000E+00 0.  1.
</event>
<event>
 4    1  0.2048241E+005  0.2397468E+02  0.7546771E-02  0.1480609E+00
          2   -1    0    0  503    0  0.00000000000E+00  0.00000000000E+00  0.10795379795E+04  0.10795379795E+04  0.00000000000E+00 0.  1.
         21   -1    0    0  501  502 -0.00000000000E+00 -0.00000000000E+00 -0.91883429480E+00  0.91883429480E+00  0.00000000000E+00 0.  1.
          2    1    1    2  501    0  0.81294124687E+00 -0.23960888777E+02  0.88963876284E+03  0.88996174829E+03  0.00000000000E+00 0.  1.
         21    1    1    2  503  502 -0.81294124687E+00  0.23960888777E+02  0.18898038239E+03  0.19049506554E+03  0.00000000000E+00 0.  1.
</event>
<event>
 4    1  0.2048241E+005  0.2654926E+02  0.7546771E-02  0.1452189E+00
          2   -1    0    0  503    0  0.00000000000E+00  0.00000000000E+00  0.61002768000E+02  0.61002768000E+02  0.00000000000E+00 0.  1.
         21   -1    0    0  501  502 -0.00000000000E+00 -0.00000000000E+00 -0.21999573165E+03  0.21999573165E+03  0.00000000000E+00 0. -1.
          2    1    1    2  501    0  0.20249523453E+02  0.17170318719E+02  0.57263357318E+02  0.63118579961E+02  0.00000000000E+00 0.  1.
         21    1    1    2  503  502 -0.20249523453E+02 -0.17170318719E+02 -0.21625632097E+03  0.21787991969E+03  0.00000000000E+00 0. -1.
</event>
<event>
 4    1  0.2048241E+005  0.4223949E+02  0.7546771E-02  0.1335840E+00
          2   -1    0    0  503    0  0.00000000000E+00  0.00000000000E+00  0.38572499949E+03  0.38572499949E+03  0.00000000000E+00 0. -1.
         21   -1    0    0  501  502 -0.00000000000E+00 -0.00000000000E+00 -0.11564511898E+02  0.11564511898E+02  0.00000000000E+00 0. -1.
          2    1    1    2  501    0 -0.35509352793E+02 -0.22874878078E+02  0.34095309706E+03  0.34355958520E+03  0.00000000000E+00 0. -1.
         21    1    1    2  503  502  0.35509352793E+02  0.22874878078E+02  0.33207390528E+02  0.53729926191E+02  0.00000000000E+00 0. -1.
</event>
<event>
 4    1  0.2048241E+005  0.2148734E+02  0.7546771E-02  0.1512419E+00
          2   -1    0    0  503    0  0.00000000000E+00  0.00000000000E+00  0.30560847435E+03  0.30560847435E+03  0.00000000000E+00 0.  1.
         21   -1    0    0  501  502 -0.00000000000E+00 -0.00000000000E+00 -0.16178715285E+01  0.16178715285E+01  0.00000000000E+00 0.  1.
          2    1    1    2  501    0 -0.20578488495E+02 -0.61831592325E+01  0.19151777464E+03  0.19271939095E+03  0.00000000000E+00 0.  1.
         21    1    1    2  503  502  0.20578488495E+02  0.61831592325E+01  0.11247282819E+03  0.11450695493E+03  0.00000000000E+00 0.  1.
</event>
<event>
 4    1  0.2048241E+005  0.2434530E+02  0.7546771E-02  0.1476262E+00
          2   -1    0    0  503    0  0.00000000000E+00  0.00000000000E+00  0.11055457659E+04  0.11055457659E+04  0.00000000000E+00 0. -1.
         21   -1    0    0  501  502 -0.00000000000E+00 -0.00000000000E+00 -0.16784538685E+02  0.16784538685E+02  0.00000000000E+00 0. -1.
          2    1    1    2  501    0  0.16916141109E+02  0.17508222138E+02  0.10965110384E+04  0.10967812685E+04  0.00000000000E+00 0. -1.
         21    1    1    2  503  502 -0.16916141109E+02 -0.17508222138E+02 -0.77498111442E+01  0.25549036092E+02  0.00000000000E+00 0. -1.
</event>
<event>
 4    1  0.2048241E+005  0.2217496E+02  0.7546771E-02  0.1503126E+00
          2   -1    0    0  503    0  0.00000000000E+00  0.00000000000E+00  0.96626851004E+01  0.96626851004E+01  0.00000000000E+00 0. -1.
         21   -1    0    0  501  502 -0.00000000000E+00 -0.00000000000E+00 -0.84116379710E+02  0.84116379710E+02  0.00000000000E+00 0. -1.
          2    1    1    2  501    0  0.21325213161E+02  0.60798018709E+01 -0.77568064791E+01  0.23492482923E+02  0.00000000000E+00 0. -1.
         21    1    1    2  503  502 -0.21325213161E+02 -0.60798018709E+01 -0.66696888130E+02  0.70286581887E+02  0.00000000000E+00 0. -1.
</event>
<event>
 4    1  0.2048241E+005  0.2231365E+02  0.7546771E-02  0.1501301E+00
          2   -1    0    0  503    0  0.00000000000E+00  0.00000000000E+00  0.87814046404E+03  0.87814046404E+03  0.00000000000E+00 0.  1.
         21   -1    0    0  501  502 -0.00000000000E+00 -0.00000000000E+00 -0.69162982478E+02  0.69162982478E+02  0.00000000000E+00 0. -1.
          2    1    1    2  501    0  0.95802256092E+01 -0.20152374666E+02  0.87619499000E+03  0.87647906959E+03  0.00000000000E+00 0.  1.
         21    1    1    2  503  502 -0.95802256092E+01  0.20152374666E+02 -0.67217508435E+02  0.70824376931E+02  0.00000000000E+00 0. -1.
</event>
<event>
 4    1  0.2048241E+005  0.3015981E+02  0.7546771E-02  0.1418213E+00
          2   -1    0    0  502    0  0.00000000000E+00  0.00000000000E+00  0.19865253039E+02  0.19865253039E+02  0.00000000000E+00 0. -1.
         21   -1    0    0  503  502 -0.00000000000E+00 -0.00000000000E+00 -0.59697340082E+02  0.59697340082E+02  0.00000000000E+00 0.  1.
          2    1    1    2  501    0 -0.12566472670E+01  0.30133618198E+02 -0.71450971059E+00  0.30168271946E+02  0.00000000000E+00 0. -1.
         21    1    1    2  503  501  0.12566472670E+01 -0.30133618198E+02 -0.39117577332E+02  0.49394321176E+02  0.00000000000E+00 0.  1.
</event>
<event>
 4    1  0.2048241E+005  0.2280350E+02  0.7546771E-02  0.1494980E+00
          2   -1    0    0  502    0  0.00000000000E+00  0.00000000000E+00  0.68908634192E+03  0.68908634192E+03  0.00000000000E+00 0. -1.
         21   -1    0    0  503  502 -0.00000000000E+00 -0.00000000000E+00 -0.19822094530E+03  0.19822094530E+03  0.00000000000E+00 0.  1.
          2    1    1    2  501    0  0.12318125315E+02  0.19190187583E+02  0.68824104802E+03  0.68861871866E+03  0.00000000000E+00 0. -1.
         21    1    1    2  503  501 -0.12318125315E+02 -0.19190187583E+02 -0.19737565140E+03  0.19868856856E+03  0.00000000000E+00 0.  1.
</event>
<event>
 4    1  0.2048241E+005  0.2721087E+02  0.7546771E-02  0.1445501E+00
          2   -1    0    0  503    0  0.00000000000E+00  0.00000000000E+00  0.22641365674E+03  0.22641365674E+03  0.00000000000E+00 0. -1.
         21   -1    0    0  501  502 -0.00000000000E+00 -0.00000000000E+00 -0.28609507240E+02  0.28609507240E+02  0.00000000000E+00 0.  1.
          2    1    1    2  501    0  0.27080349033E+02 -0.26620038168E+01  0.21890485222E+03  0.22058958701E+03  0.00000000000E+00 0. -1.
         21    1    1    2  503  502 -0.27080349033E+02  0.26620038168E+01 -0.21100702722E+02  0.34433576977E+02  0.00000000000E+00 0.  1.
</event>
<event>
 4    1  0.2048241E+005  0.2271987E+02  0.7546771E-02  0.1496046E+00
          2   -1    0    0  502    0  0.00000000000E+00  0.00000000000E+00  0.35172143523E+03  0.35172143523E+03  0.00000000000E+00 0.  1.
         21   -1    0    0  503  502 -0.00000000000E+00 -0.00000000000E+00 -0.17421539992E+01  0.17421539992E+01  0.00000000000E+00 0. -1.
          2    1    1    2  501    0  0.64143157398E+01 -0.21795623519E+02  0.24514667099E+03  0.24619724399E+03  0.00000000000E+00 0.  1.
         21    1    1    2  503  501 -0.64143157398E+01  0.21795623519E+02  0.10483261024E+03  0.10726634524E+03  0.00000000000E+00 0. -1.
</event>
<event>
 4    1  0.2048241E+005  0.2330711E+02  0.7546771E-02  0.1488677E+00
          2   -1    0    0  503    0  0.00000000000E+00  0.00000000000E+00  0.54123157067E+01  0.54123157067E+01  0.00000000000E+00 0.  1.
         21   -1    0    0  501  502 -0.00000000000E+00 -0.00000000000E+00 -0.10324386398E+03  0.10324386398E+03  0.00000000000E+00 0.  1.
          2    1    1    2  501    0 -0.62494346480E+01 -0.22453638324E+02 -0.57983623937E+02  0.62492575177E+02  0.00000000000E+00 0.  1.
         21    1    1    2  503  502  0.62494346480E+01  0.22453638324E+02 -0.39847924333E+02  0.46163604507E+02  0.00000000000E+00 0.  1.
</event>
<event>
 4    1  0.2048241E+005  0.2460288E+02  0.7546771E-02  0.1473295E+00
          2   -1    0    0  502    0  0.00000000000E+00  0.00000000000E+00  0.99232135141E+02  0.99232135141E+02  0.00000000000E+00 0. -1.
         21   -1    0    0  503  502 -0.00000000000E+00 -0.00000000000E+00 -0.41468578855E+02  0.41468578855E+02  0.00000000000E+00 0. -1.
          2    1    1    2  501    0  0.41735942464E+01  0.24246293080E+02  0.93852310576E+02  0.97023491061E+02  0.00000000000E+00 0. -1.
         21    1    1    2  503  501 -0.41735942464E+01 -0.24246293080E+02 -0.36088754291E+02  0.43677222935E+02  0.00000000000E+00 0. -1.
</event>
<event>
 4    1  0.2048241E+005  0.2420191E+02  0.7546771E-02  0.1477933E+00
          2   -1    0    0  502    0  0.00000000000E+00  0.00000000000E+00  0.13165635773E+02  0.13165635773E+02  0.00000000000E+00 0. -1.
         21   -1    0    0  503  502 -0.00000000000E+00 -0.00000000000E+00 -0.88627619718E+02  0.88627619718E+02  0.00000000000E+00 0.  1.
          2    1    1    2  501    0 -0.77659061348E+01  0.22922110732E+02 -0.18130524525E+01  0.24269726363E+02  0.00000000000E+00 0. -1.
         21    1    1    2  503  501  0.77659061348E+01 -0.22922110732E+02 -0.73648931492E+02  0.77523529128E+02  0.00000000000E+00 0.  1.
</event>
<event>
 4    1  0.2048241E+005  0.2121442E+02  0.7546771E-02  0.1516225E+00
          2   -1    0    0  503    0  0.00000000000E+00  0.00000000000E+00  0.13451033396E+04  0.13451033396E+04  0.00000000000E+00 0. -1.
         21   -1    0    0  501  502 -0.00000000000E+00 -0.00000000000E+00 -0.45131876232E+00  0.45131876232E+00  0.00000000000E+00 0.  1.
          2    1    1    2  501    0  0.60313628223E+00  0.21205847905E+02  0.10144845635E+04  0.10147063523E+04  0.00000000000E+00 0. -1.
         21    1    1    2  503  502 -0.60313628223E+00 -0.21205847905E+02  0.33016745725E+03  0.33084830600E+03  0.00000000000E+00 0.  1.
</event>
<event>
 4    1  0.2048241E+005  0.2328541E+02  0.7546771E-02  0.1488945E+00
          2   -1    0    0  502    0  0.00000000000E+00  0.00000000000E+00  0.57478445019E+03  0.57478445019E+03  0.00000000000E+00 0.  1.
         21   -1    0    0  503  502 -0.00000000000E+00 -0.00000000000E+00 -0.32468741381E+01  0.32468741381E+01  0.00000000000E+00 0.  1.
          2    1    1    2  501    0 -0.23152059192E+02  0.24884450585E+01  0.52920608618E+03  0.52971812490E+03  0.00000000000E+00 0.  1.
         21    1    1    2  503  501  0.23152059192E+02 -0.24884450585E+01  0.42331489872E+02  0.48313199422E+02  0.00000000000E+00 0.  1.
</event>
<event>
 4    1  0.2048241E+005  0.2246177E+02  0.7546771E-02  0.1499370E+00
          2   -1    0    0  503    0  0.00000000000E+00  0.00000000000E+00  0.21640308569E+04  0.21640308569E+04  0.00000000000E+00 0. -1.
         21   -1    0    0  501  502 -0.00000000000E+00 -0.00000000000E+00 -0.32814099142E+00  0.32814099142E+00  0.00000000000E+00 0. -1.
          2    1    1    2  501    0  0.22206333879E+02  0.33778792818E+01  0.16641200416E+04  0.16642716257E+04  0.00000000000E+00 0. -1.
         21    1    1    2  503  502 -0.22206333879E+02 -0.33778792818E+01  0.49958267436E+03  0.50008737222E+03  0.00000000000E+00 0. -1.
</event>
<event>
 4    1  0.2048241E+005  0.2594203E+02  0.7546771E-02  0.1458535E+00
          2   -1    0    0  502    0  0.00000000000E+00  0.00000000000E+00  0.38656640994E+03  0.38656640994E+03  0.00000000000E+00 0.  1.
         21   -1    0    0  503  502 -0.00000000000E+00 -0.00000000000E+00 -0.46437722113E+02  0.46437722113E+02  0.00000000000E+00 0. -1.
          2    1    1    2  501    0  0.20338258108E+02  0.16104169558E+02  0.38246933550E+03  0.38334812067E+03  0.00000000000E+00 0.  1.
         21    1    1    2  503  501 -0.20338258108E+02 -0.16104169558E+02 -0.42340647682E+02  0.49656011380E+02  0.00000000000E+00 0. -1.
</event>
<event>
 4    1  0.2048241E+005  0.3935960E+02  0.7546771E-02  0.1352280E+00
          2   -1    0    0  502    0  0.00000000000E+00  0.00000000000E+00  0.44775654546E+03  0.44775654546E+03  0.00000000000E+00 0. -1.
         21   -1    0    0  503  502 -0.00000000000E+00 -0.00000000000E+00 -0.14890466150E+02  0.14890466150E+02  0.00000000000E+00 0.  1.
          2    1    1    2  501    0 -0.33263817566E+02 -0.21040352219E+02  0.41910801142E+03  0.42095213887E+03  0.00000000000E+00 0. -1.
         21    1    1    2  503  501  0.33263817566E+02  0.21040352219E+02  0.13758067884E+02  0.41694872736E+02  0.00000000000E+00 0.  1.
</event>
<event>
 4    1  0.2048241E+005  0.2036765E+02  0.7546771E-02  0.1528488E+00
          2   -1    0    0  503    0  0.00000000000E+00  0.00000000000E+00  0.37555566597E+03  0.37555566597E+03  0.00000000000E+00 0. -1.
         21   -1    0    0  501  502 -0.00000000000E+00 -0.00000000000E+00 -0.54844974270E+02  0.54844974270E+02  0.00000000000E+00 0.  1.
          2    1    1    2  501    0 -0.11347089400E+02  0.16914038152E+02  0.37337751992E+03  0.37393263231E+03  0.00000000000E+00 0. -1.
         21    1    1    2  503  502  0.11347089400E+02 -0.16914038152E+02 -0.52666828222E+02  0.56468007929E+02  0.00000000000E+00 0.  1.
</event>
<event>
 4    1  0.2048241E+005  0.2376960E+02  0.7546771E-02  0.1483054E+00
          2   -1    0    0  503    0  0.00000000000E+00  0.00000000000E+00  0.28698838374E+02  0.28698838374E+02  0.00000000000E+00 0. -1.
         21   -1    0    0  501  502 -0.00000000000E+00 -0.00000000000E+00 -0.53250627286E+02  0.53250627286E+02  0.00000000000E+00 0. -1.
          2    1    1    2  501    0 -0.15554546468E+02 -0.17973591420E+02  0.20254418386E+02  0.31228758678E+02  0.00000000000E+00 0. -1.
         21    1    1    2  503  502  0.15554546468E+02  0.17973591420E+02 -0.44806207298E+02  0.50720706983E+02  0.00000000000E+00 0. -1.
</event>
<event>
 4    1  0.2048241E+005  0.2204401E+02  0.7546771E-02  0.1504865E+00
          2   -1    0    0  503    0  0.00000000000E+00  0.00000000000E+00  0.53042938543E+03  0.53042938543E+03  0.00000000000E+00 0.  1.
         21   -1    0    0  501  502 -0.00000000000E+00 -0.00000000000E+00 -0.17254586545E+01  0.17254586545E+01  0.00000000000E+00 0. -1.
          2    1    1    2  501    0 -0.20773054778E+02 -0.73768864776E+01  0.44658211410E+03  0.44712584682E+03  0.00000000000E+00 0.  1.
         21    1    1    2  503  502  0.20773054778E+02  0.73768864776E+01  0.82121812666E+02  0.85028997257E+02  0.00000000000E+00 0. -1.
</event>
<event>
 4    1  0.2048241E+005  0.2562632E+02  0.7546771E-02  0.1461917E+00
          2   -1    0    0  503    0  0.00000000000E+00  0.00000000000E+00  0.15484454483E+04  0.15484454483E+04  0.00000000000E+00 0. -1.
         21   -1    0    0  501  502 -0.00000000000E+00 -0.00000000000E+00 -0.24466189925E+02  0.24466189925E+02  0.00000000000E+00 0. -1.
          2    1    1    2  501    0  0.25342278784E+02  0.38048815235E+01  0.15415992583E+04  0.15418122393E+04  0.00000000000E+00 0. -1.
         21    1    1    2  503  502 -0.25342278784E+02 -0.38048815235E+01 -0.17619999881E+02  0.31099398920E+02  0.00000000000E+00 0. -1.
</event>
<event>
 4    1  0.2048241E+005  0.4095401E+02  0.7546771E-02  0.1342984E+00
          2   -1    0    0  502    0  0.00000000000E+00  0.00000000000E+00  0.35451639512E+03  0.35451639512E+03  0.00000000000E+00 0. -1.
         21   -1    0    0  503  502 -0.00000000000E+00 -0.00000000000E+00 -0.11295514117E+02  0.11295514117E+02  0.00000000000E+00 0. -1.
          2    1    1    2  501    0  0.35431709422E+02 -0.20538375239E+02  0.31104641827E+03  0.31373094398E+03  0.00000000000E+00 0. -1.
         21    1    1    2  503  501 -0.35431709422E+02  0.20538375239E+02  0.32174462728E+02  0.52080965255E+02  0.00000000000E+00 0. -1.
</event>
<event>
 4    1  0.2048241E+005  0.2021569E+02  0.7546771E-02  0.1530764E+00
          2   -1    0    0  502    0  0.00000000000E+00  0.00000000000E+00  0.91115792321E+02  0.91115792321E+02  0.00000000000E+00 0. -1.
         21   -1    0    0  503  502 -0.00000000000E+00 -0.00000000000E+00 -0.44069499857E+02  0.44069499857E+02  0.00000000000E+00 0.  1.
          2    1    1    2  501    0 -0.17981121149E+02  0.92386969773E+01  0.87583859480E+02  0.89886632383E+02  0.00000000000E+00 0. -1.
         21    1    1    2  503  501  0.17981121149E+02 -0.92386969773E+01 -0.40537567017E+02  0.45298659795E+02  0.00000000000E+00 0.  1.
</event>
<event>
 4    1  0.2048241E+005  0.5734209E+02  0.7546771E-02  0.1269141E+00
          2   -1    0    0  502    0  0.00000000000E+00  0.00000000000E+00  0.14583309944E+04  0.14583309944E+04  0.00000000000E+00 0.  1.
         21   -1    0    0  503  502 -0.00000000000E+00 -0.00000000000E+00 -0.83416055218E+01  0.83416055218E+01  0.00000000000E+00 0. -1.
          2    1    1    2  501    0  0.31036726017E+02  0.48216564583E+02  0.13514300112E+04  0.13526459961E+04  0.00000000000E+00 0.  1.
         21    1    1    2  503  501 -0.31036726017E+02 -0.48216564583E+02  0.98559377683E+02  0.11402660388E+03  0.00000000000E+00 0. -1.
</event>
<event>
 4    1  0.2048241E+005  0.3036569E+02  0.7546771E-02  0.1416445E+00
          2   -1    0    0  503    0  0.00000000000E+00  0.00000000000E+00  0.27499352095E+02  0.27499352095E+02  0.00000000000E+00 0.  1.
         21   -1    0    0  501  502 -0.00000000000E+00 -0.00000000000E+00 -0.26040584535E+03  0.26040584535E+03  0.00000000000E+00 0. -1.
          2    1    1    2  501    0  0.30185013327E+02 -0.33075867135E+01  0.17912173296E+02  0.35255086323E+02  0.00000000000E+00 0.  1.
         21    1    1    2  503  502 -0.30185013327E+02  0.33075867135E+01 -0.25081866655E+03  0.25265011112E+03  0.00000000000E+00 0. -1.
</event>
<event>
 4    1  0.2048241E+005  0.2468408E+02  0.7546771E-02  0.1472369E+00
          2   -1    0    0  502    0  0.00000000000E+00  0.00000000000E+00  0.63054866058E+03  0.63054866058E+03  0.00000000000E+00 0.  1.
         21   -1    0    0  503  502 -0.00000000000E+00 -0.00000000000E+00 -0.86857714799E+01  0.86857714799E+01  0.00000000000E+00 0. -1.
          2    1    1    2  501    0 -0.18571293025E+02  0.16260717656E+02  0.61224560284E+03  0.61274299838E+03  0.00000000000E+00 0.  1.
         21    1    1    2  503  501  0.18571293025E+02 -0.16260717656E+02  0.96172862534E+01  0.26491433676E+02  0.00000000000E+00 0. -1.
</event>
<event>
 4    1  0.2048241E+005  0.2746449E+02  0.7546771E-02  0.1442997E+00
          2   -1    0    0  502    0  0.00000000000E+00  0.00000000000E+00  0.23177009310E+03  0.23177009310E+03  0.00000000000E+00 0. -1.
         21   -1    0    0  503  502 -0.00000000000E+00 -0.00000000000E+00 -0.56729200463E+02  0.56729200463E+02  0.00000000000E+00 0.  1.
          2    1    1    2  501    0 -0.26317867425E+02 -0.78529065812E+01  0.22757123639E+03  0.22922252490E+03  0.00000000000E+00 0. -1.
         21    1    1    2  503  501  0.26317867425E+02  0.78529065812E+01 -0.52530343758E+02  0.59276768662E+02  0.00000000000E+00 0.  1.
</event>
<event>
 4    1  0.2048241E+005  0.2082078E+02  0.7546771E-02  0.1521839E+00
          2   -1    0    0  503    0  0.00000000000E+00  0.00000000000E+00  0.29306043364E+03  0.29306043364E+03  0.00000000000E+00 0.  1.
         21   -1    0    0  501  502 -0.00000000000E+00 -0.00000000000E+00 -0.12585144141E+02  0.12585144141E+02  0.00000000000E+00 0. -1.
          2    1    1    2  501    0  0.20303733434E+02  0.46112089650E+01  0.28379852396E+03  0.28456125358E+03  0.00000000000E+00 0.  1.
         21    1    1    2  503  502 -0.20303733434E+02 -0.46112089650E+01 -0.33232344626E+01  0.21084324195E+02  0.00000000000E+00 0. -1.
</event>
<event>
 4    1  0.2048241E+005  0.3646747E+02  0.7546771E-02  0.1370530E+00
          2   -1    0    0  502    0  0.00000000000E+00  0.00000000000E+00  0.13973655664E+04  0.13973655664E+04  0.00000000000E+00 0.  1.
         21   -1    0    0  503  502 -0.00000000000E+00 -0.00000000000E+00 -0.87721462671E+01  0.87721462671E+01  0.00000000000E+00 0. -1.
          2    1    1    2  501    0  0.35020052523E+02  0.10172129745E+02  0.13581324448E+04  0.13586219540E+04  0.00000000000E+00 0.  1.
         21    1    1    2  503  501 -0.35020052523E+02 -0.10172129745E+02  0.30460975328E+02  0.47515758651E+02  0.00000000000E+00 0. -1.
</event>
<event>
 4    1  0.2048241E+005  0.2867740E+02  0.7546771E-02  0.1431449E+00
          2   -1    0    0  502    0  0.00000000000E+00  0.00000000000E+00  0.15761216715E+02  0.15761216715E+02  0.00000000000E+00 0.  1.
         21   -1    0    0  503  502 -0.00000000000E+00 -0.00000000000E+00 -0.11312389861E+04  0.11312389861E+04  0.00000000000E+00 0. -1.
          2    1    1    2  501    0  0.25563040062E+02 -0.12997089836E+02  0.23787598045E+01  0.28775890248E+02  0.00000000000E+00 0.  1.
         21    1    1    2  503  501 -0.25563040062E+02  0.12997089836E+02 -0.11178565292E+04  0.11182243126E+04  0.00000000000E+00 0. -1.
</event>
<event>
 4    1  0.2048241E+005  0.2065445E+02  0.7546771E-02  0.1524256E+00
          2   -1    0    0  502    0  0.00000000000E+00  0.00000000000E+00  0.35866943630E+02  0.35866943630E+02  0.00000000000E+00 0. -1.
         21   -1    0    0  503  502 -0.00000000000E+00 -0.00000000000E+00 -0.20620395598E+03  0.20620395598E+03  0.00000000000E+00 0. -1.
          2    1    1    2  501    0  0.95217861349E+01 -0.18328722853E+02  0.32324349889E+02  0.38359745676E+02  0.00000000000E+00 0. -1.
         21    1    1    2  503  501 -0.95217861349E+01  0.18328722853E+02 -0.20266136223E+03  0.20371115393E+03  0.00000000000E+00 0. -1.
</event>
<event>
 4    1  0.2048241E+005  0.2484325E+02  0.7546771E-02  0.1470565E+00
          2   -1    0    0  503    0  0.00000000000E+00  0.00000000000E+00  0.17610694102E+04  0.17610694102E+04  0.00000000000E+00 0.  1.
         21   -1    0    0  501  502 -0.00000000000E+00 -0.00000000000E+00 -0.12350661334E+01  0.12350661334E+01  0.00000000000E+00 0. -1.
          2    1    1    2  501    0 -0.11252953709E+02 -0.22148542783E+02  0.16256451939E+04  0.16258350111E+04  0.00000000000E+00 0.  1.
         21    1    1    2  503  502  0.11252953709E+02  0.22148542783E+02  0.13418915012E+03  0.13646946518E+03  0.00000000000E+00 0. -1.
</event>
<event>
 4    1  0.2048241E+005  0.2858885E+02  0.7546771E-02  0.1432269E+00
          2   -1    0    0  503    0  0.00000000000E+00  0.00000000000E+00  0.37657440499E+02  0.37657440499E+02  0.00000000000E+00 0. -1.
         21   -1    0    0  501  502 -0.00000000000E+00 -0.00000000000E+00 -0.11634259097E+03  0.11634259097E+03  0.00000000000E+00 0. -1.
          2    1    1    2  501    0  0.28304804671E+02 -0.40199652902E+01  0.30104710483E+02  0.41516450735E+02  0.00000000000E+00 0. -1.
         21    1    1    2  503  502 -0.28304804671E+02  0.40199652902E+01 -0.10878986095E+03  0.11248358074E+03  0.00000000000E+00 0. -1.
</event>
<event>
 4    1  0.2048241E+005  0.2030725E+02  0.7546771E-02  0.1529390E+00
          2   -1    0    0  503    0  0.00000000000E+00  0.00000000000E+00  0.17599946599E+03  0.17599946599E+03  0.00000000000E+00 0.  1.
         21   -1    0    0  501  502 -0.00000000000E+00 -0.00000000000E+00 -0.23645135298E+02  0.23645135298E+02  0.00000000000E+00 0. -1.
          2    1    1    2  501    0  0.52372963246E+01  0.19620270939E+02  0.17092454892E+03  0.17212665606E+03  0.00000000000E+00 0.  1.
         21    1    1    2  503  502 -0.52372963246E+01 -0.19620270939E+02 -0.18570218225E+02  0.27517945226E+02  0.00000000000E+00 0. -1.
</event>
<event>
 4    1  0.2048241E+005  0.2221909E+02  0.7546771E-02  0.1502544E+00
          2   -1    0    0  503    0  0.00000000000E+00  0.00000000000E+00  0.68464601860E+02  0.68464601860E+02  0.00000000000E+00 0.  1.
         21   -1    0    0  501  502 -0.00000000000E+00 -0.00000000000E+00 -0.12365378819E+03  0.12365378819E+03  0.00000000000E+00 0. -1.
          2    1    1    2  501    0 -0.80335042052E+01  0.20715950259E+02  0.65621696594E+02  0.69281273436E+02  0.00000000000E+00 0.  1.
         21    1    1    2  503  502  0.80335042052E+01 -0.20715950259E+02 -0.12081088292E+03  0.12283711661E+03  0.00000000000E+00 0. -1.
</event>
<event>
 4    1  0.2048241E+005  0.2389893E+02  0.7546771E-02  0.1481508E+00
          2   -1    0    0  503    0  0.00000000000E+00  0.00000000000E+00  0.16022033074E+04  0.16022033074E+04  0.00000000000E+00 0. -1.
         21   -1    0    0  501  502 -0.00000000000E+00 -0.00000000000E+00 -0.60974371958E+00  0.60974371958E+00  0.00000000000E+00 0.  1.
          2    1    1    2  501    0  0.23892524861E+02 -0.55348620291E+00  0.13172876771E+04  0.13175044528E+04  0.00000000000E+00 0. -1.
         21    1    1    2  503  502 -0.23892524861E+02  0.55348620291E+00  0.28430588658E+03  0.28530859825E+03  0.00000000000E+00 0.  1.
</event>
<event>
 4    1  0.2048241E+005  0.4775726E+02  0.7546771E-02  0.1308200E+00
          2   -1    0    0  503    0  0.00000000000E+00  0.00000000000E+00  0.14813225909E+03  0.14813225909E+03  0.00000000000E+00 0. -1.
         21   -1    0    0  501  502 -0.00000000000E+00 -0.00000000000E+00 -0.34522554161E+03  0.34522554161E+03  0.00000000000E+00 0.  1.
          2    1    1    2  501    0  0.28641306082E+02  0.38215597702E+02  0.14256868762E+03  0.15035487027E+03  0.00000000000E+00 0. -1.
         21    1    1    2  503  502 -0.28641306082E+02 -0.38215597702E+02 -0.33966197014E+03  0.34300293043E+03  0.00000000000E+00 0.  1.
</event>
<event>
 4    1  0.2048241E+005  0.2265606E+02  0.7546771E-02  0.1496863E+00
          2   -1    0    0  502    0  0.00000000000E+00  0.00000000000E+00  0.37601504307E+02  0.37601504307E+02  0.00000000000E+00 0.  1.
         21   -1    0    0  503  502 -0.00000000000E+00 -0.00000000000E+00 -0.14627203144E+03  0.14627203144E+03  0.00000000000E+00 0. -1.
          2    1    1    2  501    0  0.19749292838E+02  0.11102368701E+02  0.33206406654E+02  0.40199037317E+02  0.00000000000E+00 0.  1.
         21    1    1    2  503  501 -0.19749292838E+02 -0.11102368701E+02 -0.14187693379E+03  0.14367449843E+03  0.00000000000E+00 0. -1.
</event>
<event>
 4    1  0.2048241E+005  0.2371641E+02  0.7546771E-02  0.1483693E+00
          2   -1    0    0  503    0  0.00000000000E+00  0.00000000000E+00  0.20774053545E+03  0.20774053545E+03  0.00000000000E+00 0.  1.
         21   -1    0    0  501  502 -0.00000000000E+00 -0.00000000000E+00 -0.61191801118E+01  0.61191801118E+01  0.00000000000E+00 0.  1.
          2    1    1    2  501    0  0.19690300995E+02  0.13219694613E+02  0.18065301099E+03  0.18220312472E+03  0.00000000000E+00 0.  1.
         21    1    1    2  503  502 -0.19690300995E+02 -0.13219694613E+02  0.20968344351E+02  0.31656590842E+02  0.00000000000E+00 0.  1.
</event>
<event>
 4    1  0.2048241E+005  0.2260834E+02  0.7546771E-02  0.1497476E+00
          2   -1    0    0  503    0  0.00000000000E+00  0.00000000000E+00  0.16004919901E+04  0.16004919901E+04  0.00000000000E+00 0.  1.
         21   -1    0    0  501  502 -0.00000000000E+00 -0.00000000000E+00 -0.38421304696E+00  0.38421304696E+00  0.00000000000E+00 0. -1.
          2    1    1    2  501    0 -0.99834579338E+01 -0.20284662479E+02  0.11289046511E+04  0.11291310147E+04  0.00000000000E+00 0.  1.
         21    1    1    2  503  502  0.99834579338E+01  0.20284662479E+02  0.47120312588E+03  0.47174518843E+03  0.00000000000E+00 0. -1.
</event>
<event>
 4    1  0.2048241E+005  0.2128555E+02  0.7546771E-02  0.1515227E+00
          2   -1    0    0  503    0  0.00000000000E+00  0.00000000000E+00  0.63303437634E+02  0.63303437634E+02  0.00000000000E+00 0. -1.
         21   -1    0    0  501  502 -0.00000000000E+00 -0.00000000000E+00 -0.74505755284E+01  0.74505755284E+01  0.00000000000E+00 0.  1.
          2    1    1    2  501    0  0.32378742661E+01  0.21037847355E+02  0.34946544154E+02  0.40918648553E+02  0.00000000000E+00 0. -1.
         21    1    1    2  503  502 -0.32378742661E+01 -0.21037847355E+02  0.20906317952E+02  0.29835364610E+02  0.00000000000E+00 0.  1.
</event>
<event>
 4    1  0.2048241E+005  0.5100077E+02  0.7546771E-02  0.1293891E+00
          2   -1    0    0  502    0  0.00000000000E+00  0.00000000000E+00  0.96441660783E+03  0.96441660783E+03  0.00000000000E+00 0. -1.
         21   -1    0    0  503  502 -0.00000000000E+00 -0.00000000000E+00 -0.56714658335E+01  0.56714658335E+01  0.00000000000E+00 0.  1.
          2    1    1    2  501    0  0.17557994445E+02 -0.47883139723E+02  0.83063724100E+03  0.83220148064E+03  0.00000000000E+00 0. -1.
         21    1    1    2  503  501 -0.17557994445E+02  0.47883139723E+02  0.12810790100E+03  0.13788659303E+03  0.00000000000E+00 0.  1.
</event>
<event>
 4    1  0.2048241E+005  0.2695557E+02  0.7546771E-02  0.1448055E+00
          2   -1    0    0  503    0  0.00000000000E+00  0.00000000000E+00  0.14700169772E+04  0.14700169772E+04  0.00000000000E+00 0. -1.
         21   -1    0    0  501  502 -0.00000000000E+00 -0.00000000000E+00 -0.52512077794E+00  0.52512077794E+00  0.00000000000E+00 0. -1.
          2    1    1    2  501    0 -0.26454397201E+02  0.51737561029E+01  0.91292909559E+03  0.91332696033E+03  0.00000000000E+00 0. -1.
         21    1    1    2  503  502  0.26454397201E+02 -0.51737561029E+01  0.55656276078E+03  0.55721513760E+03  0.00000000000E+00 0. -1.
</event>
<event>
 4    1  0.2048241E+005  0.2015850E+02  0.7546771E-02  0.1531626E+00
          2   -1    0    0  503    0  0.00000000000E+00  0.00000000000E+00  0.33503975773E+03  0.33503975773E+03  0.00000000000E+00 0.  1.
         21   -1    0    0  501  502 -0.00000000000E+00 -0.00000000000E+00 -0.11012466197E+02  0.11012466197E+02  0.00000000000E+00 0.  1.
          2    1    1    2  501    0  0.81424135393E+01  0.18440883882E+02  0.32523353778E+03  0.32585766707E+03  0.00000000000E+00 0.  1.
         21    1    1    2  503  502 -0.81424135393E+01 -0.18440883882E+02 -0.12062462405E+01  0.20194556855E+02  0.00000000000E+00 0.  1.
</event>
<event>
 4    1  0.2048241E+005  0.2067853E+02  0.7546771E-02  0.1523905E+00
          2   -1    0    0  503    0  0.00000000000E+00  0.00000000000E+00  0.47262110690E+03  0.47262110690E+03  0.00000000000E+00 0.  1.
         21   -1    0    0  501  502 -0.00000000000E+00 -0.00000000000E+00 -0.67203544822E+01  0.67203544822E+01  0.00000000000E+00 0.  1.
          2    1    1    2  501    0  0.20399841442E+02  0.33834794807E+01  0.45590502723E+03  0.45637374521E+03  0.00000000000E+00 0.  1.
         21    1    1    2  503  502 -0.20399841442E+02 -0.33834794807E+01  0.99957251933E+01  0.22967716177E+02  0.00000000000E+00 0.  1.
</event>
<event>
 4    1  0.2048241E+005  0.2044533E+02  0.7546771E-02  0.1527333E+00
          2   -1    0    0  503    0  0.00000000000E+00  0.00000000000E+00  0.27283843214E+03  0.27283843214E+03  0.00000000000E+00 0. -1.
         21   -1    0    0  501  502 -0.00000000000E+00 -0.00000000000E+00 -0.33141268436E+02  0.33141268436E+02  0.00000000000E+00 0.  1.
          2    1    1    2  501    0  0.19454173286E+02 -0.62886236006E+01  0.26926031222E+03  0.27003541875E+03  0.00000000000E+00 0. -1.
         21    1    1    2  503  502 -0.19454173286E+02  0.62886236006E+01 -0.29563148520E+02  0.35944281818E+02  0.00000000000E+00 0.  1.
</event>
<event>
 4    1  0.2048241E+005  0.2772127E+02  0.7546771E-02  0.1440494E+00
          2   -1    0    0  502    0  0.00000000000E+00  0.00000000000E+00  0.49593478339E+03  0.49593478339E+03  0.00000000000E+00 0. -1.
         21   -1    0    0  503  502 -0.00000000000E+00 -0.00000000000E+00 -0.15483067008E+02  0.15483067008E+02  0.00000000000E+00 0.  1.
          2    1    1    2  501    0 -0.65766944925E+01  0.26929829182E+02  0.48280194751E+03  0.48359713515E+03  0.00000000000E+00 0. -1.
         21    1    1    2  503  501  0.65766944925E+01 -0.26929829182E+02 -0.23502311300E+01  0.27820715242E+02  0.00000000000E+00 0.  1.
</event>
<event>
 4    1  0.2048241E+005  0.2002844E+02  0.7546771E-02  0.1533601E+00
          2   -1    0    0  503    0  0.00000000000E+00  0.00000000000E+00  0.14362947365E+03  0.14362947365E+03  0.00000000000E+00 0.  1.
         21   -1    0    0  501  502 -0.00000000000E+00 -0.00000000000E+00 -0.73781343389E+01  0.73781343389E+01  0.00000000000E+00 0.  1.
          2    1    1    2  501    0  0.65019411288E+01 -0.18943689043E+02  0.12764769417E+03  0.12920941305E+03  0.00000000000E+00 0.  1.
         21    1    1    2  503  502 -0.65019411288E+01  0.18943689043E+02  0.86036451397E+01  0.21798194941E+02  0.00000000000E+00 0.  1.
</event>
<event>
 4    1  0.2048241E+005  0.2391503E+02  0.7546771E-02  0.1481317E+00
          2   -1    0    0  502    0  0.00000000000E+00  0.00000000000E+00  0.23054602392E+02  0.23054602392E+02  0.00000000000E+00 0. -1.
         21   -1    0    0  503  502 -0.00000000000E+00 -0.00000000000E+00 -0.60274415270E+03  0.60274415270E+03  0.00000000000E+00 0.  1.
          2    1    1    2  501    0  0.95032818109E+01 -0.21945760950E+02  0.16547835440E+02  0.29081947091E+02  0.00000000000E+00 0. -1.
         21    1    1    2  503  501 -0.95032818109E+01  0.21945760950E+02 -0.59623738575E+03  0.59671680800E+03  0.00000000000E+00 0.  1.
</event>
<event>
 4    1  0.2048241E+005  0.2160898E+02  0.7546771E-02  0.1510745E+00
          2   -1    0    0  503    0  0.00000000000E+00  0.00000000000E+00  0.40508153385E+03  0.40508153385E+03  0.00000000000E+00 0. -1.
         21   -1    0    0  501  502 -0.00000000000E+00 -0.00000000000E+00 -0.12573908567E+01  0.12573908567E+01  0.00000000000E+00 0. -1.
          2    1    1    2  501    0  0.15169906914E+02  0.15389013806E+02  0.26052922432E+03  0.26142384082E+03  0.00000000000E+00 0. -1.
         21    1    1    2  503  502 -0.15169906914E+02 -0.15389013806E+02  0.14329491866E+03  0.14491508388E+03  0.00000000000E+00 0. -1.
</event>
<event>
 4    1  0.2048241E+005  0.2081870E+02  0.7546771E-02  0.1521869E+00
          2   -1    0    0  502    0  0.00000000000E+00  0.00000000000E+00  0.52797749968E+03  0.52797749968E+03  0.00000000000E+00 0. -1.
         21   -1    0    0  503  502 -0.00000000000E+00 -0.00000000000E+00 -0.17936797318E+01  0.17936797318E+01  0.00000000000E+00 0. -1.
          2    1    1    2  501    0  0.19889338749E+02 -0.61507950694E+01  0.45816284674E+03  0.45863559850E+03  0.00000000000E+00 0. -1.
         21    1    1    2  503  501 -0.19889338749E+02  0.61507950694E+01  0.68020973201E+02  0.71135580908E+02  0.00000000000E+00 0. -1.
</event>
<event>
 4    1  0.2048241E+005  0.2423991E+02  0.7546771E-02  0.1477489E+00
          2   -1    0    0  503    0  0.00000000000E+00  0.00000000000E+00  0.10647357309E+04  0.10647357309E+04  0.00000000000E+00 0.  1.
         21   -1    0    0  501  502 -0.00000000000E+00 -0.00000000000E+00 -0.29671610163E+02  0.29671610163E+02  0.00000000000E+00 0. -1.
          2    1    1    2  501    0  0.13622142104E+02  0.20050199694E+02  0.10596232508E+04  0.10599004703E+04  0.00000000000E+00 0.  1.
         21    1    1    2  503  502 -0.13622142104E+02 -0.20050199694E+02 -0.24559130051E+02  0.34506870796E+02  0.00000000000E+00 0. -1.
</event>
<event>
 4    1  0.2048241E+005  0.3760798E+02  0.7546771E-02  0.1363103E+00
          2   -1    0    0  502    0  0.00000000000E+00  0.00000000000E+00  0.40199682887E+03  0.40199682887E+03  0.00000000000E+00 0.  1.
         21   -1    0    0  503  502 -0.00000000000E+00 -0.00000000000E+00 -0.35192403767E+01  0.35192403767E+01  0.00000000000E+00 0.  1.
          2    1    1    2  501    0 -0.37560277553E+02  0.18935391066E+01  0.20248901720E+03  0.20595184395E+03  0.00000000000E+00 0.  1.
         21    1    1    2  503  501  0.37560277553E+02 -0.18935391066E+01  0.19598857129E+03  0.19956422530E+03  0.00000000000E+00 0.  1.
</event>
<event>
 4    1  0.2111492E+005  0.2431844E+02  0.7546771E-02  0.1476574E+00
          2   -1    0    0  503    0  0.00000000000E+00  0.00000000000E+00  0.12676839932E+04  0.12676839932E+04  0.00000000000E+00 0.  1.
         21   -1    0    0  501  502 -0.00000000000E+00 -0.00000000000E+00 -0.58639935340E+02  0.58639935340E+02  0.00000000000E+00 0. -1.
          2    1    1    2  501    0 -0.15667760408E+02 -0.18598603338E+02  0.12650408355E+04  0.12652745561E+04  0.00000000000E+00 0.  1.
         21    1    1    2  503  502  0.15667760408E+02  0.18598603338E+02 -0.55996777684E+02  0.61049372423E+02  0.00000000000E+00 0. -1.
</event>
<event>
 4    1  0.2048241E+005  0.2559488E+02  0.7546771E-02  0.1462257E+00
          2   -1    0    0  503    0  0.00000000000E+00  0.00000000000E+00  0.11841164671E+03  0.11841164671E+03  0.00000000000E+00 0.  1.
         21   -1    0    0  501  502 -0.00000000000E+00 -0.00000000000E+00 -0.49815227578E+02  0.49815227578E+02  0.00000000000E+00 0. -1.
          2    1    1    2  501    0 -0.19068204798E+02  0.17073420238E+02  0.11360348821E+03  0.11645106546E+03  0.00000000000E+00 0.  1.
         21    1    1    2  503  502  0.19068204798E+02 -0.17073420238E+02 -0.45007069079E+02  0.51775808829E+02  0.00000000000E+00 0. -1.
</event>
<event>
 4    1  0.2048241E+005  0.4297403E+02  0.7546771E-02  0.1331887E+00
          2   -1    0    0  502    0  0.00000000000E+00  0.00000000000E+00  0.12821438271E+01  0.12821438271E+01  0.00000000000E+00 0. -1.
         21   -1    0    0  503  502 -0.00000000000E+00 -0.00000000000E+00 -0.19126036348E+04  0.19126036348E+04  0.00000000000E+00 0. -1.
          2    1    1    2  501    0 -0.20529484630E+01  0.42924964751E+02 -0.48016137300E+03  0.48208060666E+03  0.00000000000E+00 0. -1.
         21    1    1    2  503  501  0.20529484630E+01 -0.42924964751E+02 -0.14311601179E+04  0.14318051719E+04  0.00000000000E+00 0. -1.
</event>
<event>
 4    1  0.2048241E+005  0.2227759E+02  0.7546771E-02  0.1501774E+00
          2   -1    0    0  502    0  0.00000000000E+00  0.00000000000E+00  0.33980430627E+03  0.33980430627E+03  0.00000000000E+00 0. -1.
         21   -1    0    0  503  502 -0.00000000000E+00 -0.00000000000E+00 -0.84492933783E+02  0.84492933783E+02  0.00000000000E+00 0. -1.
          2    1    1    2  501    0  0.99087931076E+00 -0.22255543206E+02  0.33796274386E+03  0.33869618729E+03  0.00000000000E+00 0. -1.
         21    1    1    2  503  501 -0.99087931076E+00  0.22255543206E+02 -0.82651371372E+02  0.85601052768E+02  0.00000000000E+00 0. -1.
</event>
<event>
 4    1  0.2048241E+005  0.2193576E+02  0.7546771E-02  0.1506312E+00
          2   -1    0    0  503    0  0.00000000000E+00  0.00000000000E+00  0.48951372227E+02  0.48951372227E+02  0.00000000000E+00 0. -1.
         21   -1    0    0  501  502 -0.00000000000E+00 -0.00000000000E+00 -0.25649798311E+02  0.25649798311E+02  0.00000000000E+00 0. -1.
          2    1    1    2  501    0  0.19076731541E+02 -0.10828485312E+02  0.40944749658E+02  0.46450514583E+02  0.00000000000E+00 0. -1.
         21    1    1    2  503  502 -0.19076731541E+02  0.10828485312E+02 -0.17643175742E+02  0.28150655955E+02  0.00000000000E+00 0. -1.
</event>
<event>
 4    1  0.2048241E+005  0.2460796E+02  0.7546771E-02  0.1473237E+00
          2   -1    0    0  503    0  0.00000000000E+00  0.00000000000E+00  0.40079678365E+02  0.40079678365E+02  0.00000000000E+00 0. -1.
         21   -1    0    0  501  502 -0.00000000000E+00 -0.00000000000E+00 -0.14698579213E+03  0.14698579213E+03  0.00000000000E+00 0.  1.
          2    1    1    2  501    0  0.23785195029E+02  0.63100072488E+01  0.35142235022E+02  0.42901379656E+02  0.00000000000E+00 0. -1.
         21    1    1    2  503  502 -0.23785195029E+02 -0.63100072488E+01 -0.14204834879E+03  0.14416409084E+03  0.00000000000E+00 0.  1.
</event>
<event>
 4    1  0.2048241E+005  0.2668589E+02  0.7546771E-02  0.1450789E+00
          2   -1    0    0  503    0  0.00000000000E+00  0.00000000000E+00  0.11834256961E+04  0.11834256961E+04  0.00000000000E+00 0.  1.
         21   -1    0    0  501  502 -0.00000000000E+00 -0.00000000000E+00 -0.19035463152E+02  0.19035463152E+02  0.00000000000E+00 0.  1.
          2    1    1    2  501    0 -0.15780587766E+02  0.21519986405E+02  0.11738461765E+04  0.11741494721E+04  0.00000000000E+00 0.  1.
         21    1    1    2  503  502  0.15780587766E+02 -0.21519986405E+02 -0.94559434916E+01  0.28311687206E+02  0.00000000000E+00 0.  1.
</event>
<event>
 4    1  0.2048241E+005  0.2089714E+02  0.7546771E-02  0.1520738E+00
          2   -1    0    0  503    0  0.00000000000E+00  0.00000000000E+00  0.74172401709E+02  0.74172401709E+02  0.00000000000E+00 0.  1.
         21   -1    0    0  501  502 -0.00000000000E+00 -0.00000000000E+00 -0.76366279477E+01  0.76366279477E+01  0.00000000000E+00 0.  1.
          2    1    1    2  501    0 -0.15059238431E+02 -0.14488264990E+02  0.52844178834E+02  0.56826030313E+02  0.00000000000E+00 0.  1.
         21    1    1    2  503  502  0.15059238431E+02  0.14488264990E+02  0.13691594928E+02  0.24982999344E+02  0.00000000000E+00 0.  1.
</event>
<event>
 4    1  0.2048241E+005  0.2608792E+02  0.7546771E-02  0.1456992E+00
          2   -1    0    0  502    0  0.00000000000E+00  0.00000000000E+00  0.39500335509E+02  0.39500335509E+02  0.00000000000E+00 0. -1.
         21   -1    0    0  503  502 -0.00000000000E+00 -0.00000000000E+00 -0.60201983253E+02  0.60201983253E+02  0.00000000000E+00 0.  1.
          2    1    1    2  501    0  0.17276619564E+02 -0.19547331827E+02  0.31766810675E+02  0.41106082587E+02  0.00000000000E+00 0. -1.
         21    1    1    2  503  501 -0.17276619564E+02  0.19547331827E+02 -0.52468458419E+02  0.58596236176E+02  0.00000000000E+00 0.  1.
</event>
<event>
 4    1  0.2048241E+005  0.2334730E+02  0.7546771E-02  0.1488183E+00
          2   -1    0    0  503    0  0.00000000000E+00  0.00000000000E+00  0.10856167414E+03  0.10856167414E+03  0.00000000000E+00 0. -1.
         21   -1    0    0  501  502 -0.00000000000E+00 -0.00000000000E+00 -0.11800713877E+02  0.11800713877E+02  0.00000000000E+00 0.  1.
          2    1    1    2  501    0  0.72531839922E+01 -0.22192063862E+02  0.93995715519E+02  0.96851901956E+02  0.00000000000E+00 0. -1.
         21    1    1    2  503  502 -0.72531839922E+01  0.22192063862E+02  0.27652447474E+01  0.23510486064E+02  0.00000000000E+00 0.  1.
</event>
<event>
 4    1  0.2048241E+005  0.2133517E+02  0.7546771E-02  0.1514533E+00
          2   -1    0    0  502    0  0.00000000000E+00  0.00000000000E+00  0.20211436187E+03  0.20211436187E+03  0.00000000000E+00 0. -1.
         21   -1    0    0  503  502 -0.00000000000E+00 -0.00000000000E+00 -0.86624743871E+01  0.86624743871E+01  0.00000000000E+00 0. -1.
          2    1    1    2  501    0  0.53833671094E+01  0.20644829594E+02  0.18738522700E+03  0.18859589850E+03  0.00000000000E+00 0. -1.
         21    1    1    2  503  501 -0.53833671094E+01 -0.20644829594E+02  0.60666604743E+01  0.22180937756E+02  0.00000000000E+00 0. -1.
</event>
<event>
 4    1  0.2048241E+005  0.3394653E+02  0.7546771E-02  0.1388124E+00
          2   -1    0    0  503    0  0.00000000000E+00  0.00000000000E+00  0.48607260775E+03  0.48607260775E+03  0.00000000000E+00 0. -1.
         21   -1    0    0  501  502 -0.00000000000E+00 -0.00000000000E+00 -0.26937227604E+02  0.26937227604E+02  0.00000000000E+00 0. -1.
          2    1    1    2  501    0 -0.26690935716E+02  0.20975244046E+02  0.47452505772E+03  0.47573774006E+03  0.00000000000E+00 0. -1.
         21    1    1    2  503  502  0.26690935716E+02 -0.20975244046E+02 -0.15389677571E+02  0.37272095298E+02  0.00000000000E+00 0. -1.
</event>
<event>
 4    1  0.2048241E+005  0.2717771E+02  0.7546771E-02  0.1445831E+00
          2   -1    0    0  503    0  0.00000000000E+00  0.00000000000E+00  0.45150615723E+02  0.45150615723E+02  0.00000000000E+00 0. -1.
         21   -1    0    0  501  502 -0.00000000000E+00 -0.00000000000E+00 -0.41921330241E+02  0.41921330241E+02  0.00000000000E+00 0. -1.
          2    1    1    2  501    0  0.23620621389E+02 -0.13442249353E+02  0.35610756473E+02  0.44796805679E+02  0.00000000000E+00 0. -1.
         21    1    1    2  503  502 -0.23620621389E+02  0.13442249353E+02 -0.32381470992E+02  0.42275140284E+02  0.00000000000E+00 0. -1.
</event>
<event>
 4    1  0.2048241E+005  0.2562482E+02  0.7546771E-02  0.1461933E+00
          2   -1    0    0  503    0  0.00000000000E+00  0.00000000000E+00  0.74416153698E+03  0.74416153698E+03  0.00000000000E+00 0.  1.
         21   -1    0    0  501  502 -0.00000000000E+00 -0.00000000000E+00 -0.27470878958E+02  0.27470878958E+02  0.00000000000E+00 0.  1.
          2    1    1    2  501    0 -0.22917574350E+02  0.11463691453E+02  0.73791466541E+03  0.73835945505E+03  0.00000000000E+00 0.  1.
         21    1    1    2  503  502  0.22917574350E+02 -0.11463691453E+02 -0.21224007395E+02  0.33272960880E+02  0.00000000000E+00 0.  1.
</event>
<event>
 4    1  0.2048241E+005  0.2356289E+02  0.7546771E-02  0.1485548E+00
          2   -1    0    0  503    0  0.00000000000E+00  0.00000000000E+00  0.15639361183E+04  0.15639361183E+04  0.00000000000E+00 0. -1.
         21   -1    0    0  501  502 -0.00000000000E+00 -0.00000000000E+00 -0.32910690856E+02  0.32910690856E+02  0.00000000000E+00 0.  1.
          2    1    1    2  501    0  0.65308379966E+01 -0.22639740977E+02  0.15596181419E+04  0.15597961271E+04  0.00000000000E+00 0. -1.
         21    1    1    2  503  502 -0.65308379966E+01  0.22639740977E+02 -0.28592714463E+02  0.37050682002E+02  0.00000000000E+00 0.  1.
</event>
<event>
 4    1  0.2048241E+005  0.2838169E+02  0.7546771E-02  0.1434202E+00
          2   -1    0    0  503    0  0.00000000000E+00  0.00000000000E+00  0.14929138877E+03  0.14929138877E+03  0.00000000000E+00 0.  1.
         21   -1    0    0  501  502 -0.00000000000E+00 -0.00000000000E+00 -0.88916264118E+01  0.88916264118E+01  0.00000000000E+00 0. -1.
          2    1    1    2  501    0  0.92396403706E+01 -0.26835599291E+02  0.11979341467E+03  0.12310963627E+03  0.00000000000E+00 0.  1.
         21    1    1    2  503  502 -0.92396403706E+01  0.26835599291E+02  0.20606347688E+02  0.35073378915E+02  0.00000000000E+00 0. -1.
</event>
<event>
 4    1  0.2048241E+005  0.2430260E+02  0.7546771E-02  0.1476759E+00
          2   -1    0    0  502    0  0.00000000000E+00  0.00000000000E+00  0.77694669733E+01  0.77694669733E+01  0.00000000000E+00 0.  1.
         21   -1    0    0  503  502 -0.00000000000E+00 -0.00000000000E+00 -0.29068043536E+03  0.29068043536E+03  0.00000000000E+00 0.  1.
          2    1    1    2  501    0 -0.19293023693E+02 -0.14778215371E+02 -0.13218896930E+02  0.27665061880E+02  0.00000000000E+00 0.  1.
         21    1    1    2  503  501  0.19293023693E+02  0.14778215371E+02 -0.26969207146E+03  0.27078484046E+03  0.00000000000E+00 0.  1.
</event>
<event>
 4    1  0.2048241E+005  0.2099051E+02  0.7546771E-02  0.1519400E+00
          2   -1    0    0  502    0  0.00000000000E+00  0.00000000000E+00  0.40959595256E+02  0.40959595256E+02  0.00000000000E+00 0. -1.
         21   -1    0    0  503  502 -0.00000000000E+00 -0.00000000000E+00 -0.33550672553E+03  0.33550672553E+03  0.00000000000E+00 0.  1.
          2    1    1    2  501    0 -0.13810284639E+02  0.15807514987E+02  0.37917457297E+02  0.43339763033E+02  0.00000000000E+00 0. -1.
         21    1    1    2  503  501  0.13810284639E+02 -0.15807514987E+02 -0.33246458757E+03  0.33312655775E+03  0.00000000000E+00 0.  1.
</event>
<event>
 4    1  0.2048241E+005  0.2415433E+02  0.7546771E-02  0.1478490E+00
          2   -1    0    0  503    0  0.00000000000E+00  0.00000000000E+00  0.18298664031E+04  0.18298664031E+04  0.00000000000E+00 0.  1.
         21   -1    0    0  501  502 -0.00000000000E+00 -0.00000000000E+00 -0.31582021880E+01  0.31582021880E+01  0.00000000000E+00 0.  1.
          2    1    1    2  501    0 -0.16454625832E+02  0.17682678051E+02  0.17823722520E+04  0.17825359117E+04  0.00000000000E+00 0.  1.
         21    1    1    2  503  502  0.16454625832E+02 -0.17682678051E+02  0.44335948945E+02  0.50488693617E+02  0.00000000000E+00 0.  1.
</event>
<event>
 4    1  0.2048241E+005  0.2969641E+02  0.7546771E-02  0.1422253E+00
          2   -1    0    0  502    0  0.00000000000E+00  0.00000000000E+00  0.47689450507E+03  0.47689450507E+03  0.00000000000E+00 0.  1.
         21   -1    0    0  503  502 -0.00000000000E+00 -0.00000000000E+00 -0.13917432282E+02  0.13917432282E+02  0.00000000000E+00 0.  1.
          2    1    1    2  501    0 -0.16267593273E+02  0.24844361031E+02  0.46001013808E+03  0.46096768217E+03  0.00000000000E+00 0.  1.
         21    1    1    2  503  501  0.16267593273E+02 -0.24844361031E+02  0.29669347060E+01  0.29844255184E+02  0.00000000000E+00 0.  1.
</event>
<event>
 4    1  0.2048241E+005  0.2017475E+02  0.7546771E-02  0.1531381E+00
          2   -1    0    0  502    0  0.00000000000E+00  0.00000000000E+00  0.10095240536E+04  0.10095240536E+04  0.00000000000E+00 0. -1.
         21   -1    0    0  503  502 -0.00000000000E+00 -0.00000000000E+00 -0.18713476627E+02  0.18713476627E+02  0.00000000000E+00 0.  1.
          2    1    1    2  501    0 -0.13570138272E+02 -0.14928891104E+02  0.10039555710E+04  0.10041582589E+04  0.00000000000E+00 0. -1.
         21    1    1    2  503  501  0.13570138272E+02  0.14928891104E+02 -0.13144993970E+02  0.24079271350E+02  0.00000000000E+00 0.  1.
</event>
<event>
 4    1  0.2048241E+005  0.2324148E+02  0.7546771E-02  0.1489488E+00
          2   -1    0    0  503    0  0.00000000000E+00  0.00000000000E+00  0.17651190388E+03  0.17651190388E+03  0.00000000000E+00 0. -1.
         21   -1    0    0  501  502 -0.00000000000E+00 -0.00000000000E+00 -0.47625153681E+02  0.47625153681E+02  0.00000000000E+00 0. -1.
          2    1    1    2  501    0  0.23130469116E+02 -0.22688687205E+01  0.17285156106E+03  0.17440707706E+03  0.00000000000E+00 0. -1.
         21    1    1    2  503  502 -0.23130469116E+02  0.22688687205E+01 -0.43964810861E+02  0.49729980503E+02  0.00000000000E+00 0. -1.
</event>
<event>
 4    1  0.2048241E+005  0.4581663E+02  0.7546771E-02  0.1317406E+00
          2   -1    0    0  503    0  0.00000000000E+00  0.00000000000E+00  0.42222164297E+03  0.42222164297E+03  0.00000000000E+00 0.  1.
         21   -1    0    0  501  502 -0.00000000000E+00 -0.00000000000E+00 -0.50496125117E+01  0.50496125117E+01  0.00000000000E+00 0.  1.
          2    1    1    2  501    0  0.24701301894E+02 -0.38587685393E+02  0.18205102285E+03  0.18772783145E+03  0.00000000000E+00 0.  1.
         21    1    1    2  503  502 -0.24701301894E+02  0.38587685393E+02  0.23512100760E+03  0.23954342402E+03  0.00000000000E+00 0.  1.
</event>
<event>
 4    1  0.2048241E+005  0.4814578E+02  0.7546771E-02  0.1306418E+00
          2   -1    0    0  503    0  0.00000000000E+00  0.00000000000E+00  0.56881112706E+02  0.56881112706E+02  0.00000000000E+00 0. -1.
         21   -1    0    0  501  502 -0.00000000000E+00 -0.00000000000E+00 -0.43271078510E+03  0.43271078510E+03  0.00000000000E+00 0.  1.
          2    1    1    2  501    0 -0.46584215310E+02  0.12162535232E+02  0.45068894109E+02  0.65948628458E+02  0.00000000000E+00 0. -1.
         21    1    1    2  503  502  0.46584215310E+02 -0.12162535232E+02 -0.42089856651E+03  0.42364326935E+03  0.00000000000E+00 0.  1.
</event>
<event>
 4    1  0.2048241E+005  0.3050222E+02  0.7546771E-02  0.1415281E+00
          2   -1    0    0  502    0  0.00000000000E+00  0.00000000000E+00  0.22716156392E+04  0.22716156392E+04  0.00000000000E+00 0. -1.
         21   -1    0    0  503  502 -0.00000000000E+00 -0.00000000000E+00 -0.63570011605E+01  0.63570011605E+01  0.00000000000E+00 0. -1.
          2    1    1    2  501    0 -0.29943939998E+02 -0.58091282443E+01  0.22343134057E+04  0.22345215999E+04  0.00000000000E+00 0. -1.
         21    1    1    2  503  501  0.29943939998E+02  0.58091282443E+01  0.30945232369E+02  0.43451040493E+02  0.00000000000E+00 0. -1.
</event>
<event>
 4    1  0.2048241E+005  0.2076673E+02  0.7546771E-02  0.1522622E+00
          2   -1    0    0  503    0  0.00000000000E+00  0.00000000000E+00  0.98852814801E+03  0.98852814801E+03  0.00000000000E+00 0. -1.
         21   -1    0    0  501  502 -0.00000000000E+00 -0.00000000000E+00 -0.95052277137E+00  0.95052277137E+00  0.00000000000E+00 0.  1.
          2    1    1    2  501    0  0.59953943278E+01  0.19882466471E+02  0.85769286714E+03  0.85794423570E+03  0.00000000000E+00 0. -1.
         21    1    1    2  503  502 -0.59953943278E+01 -0.19882466471E+02  0.12988475810E+03  0.13153443508E+03  0.00000000000E+00 0.  1.
</event>
<event>
 4    1  0.2048241E+005  0.3425897E+02  0.7546771E-02  0.1385849E+00
          2   -1    0    0  503    0  0.00000000000E+00  0.00000000000E+00  0.85078285988E+03  0.85078285988E+03  0.00000000000E+00 0. -1.
         21   -1    0    0  501  502 -0.00000000000E+00 -0.00000000000E+00 -0.18824707032E+03  0.18824707032E+03  0.00000000000E+00 0.  1.
          2    1    1    2  501    0 -0.26577156494E+02 -0.21617850035E+02  0.84887578634E+03  0.84956681746E+03  0.00000000000E+00 0. -1.
         21    1    1    2  503  502  0.26577156494E+02  0.21617850035E+02 -0.18633999678E+03  0.18946311274E+03  0.00000000000E+00 0.  1.
</event>
<event>
 4    1  0.2048241E+005  0.2012480E+02  0.7546771E-02  0.1532136E+00
          2   -1    0    0  503    0  0.00000000000E+00  0.00000000000E+00  0.63757156594E+03  0.63757156594E+03  0.00000000000E+00 0.  1.
         21   -1    0    0  501  502 -0.00000000000E+00 -0.00000000000E+00 -0.49519941480E+01  0.49519941480E+01  0.00000000000E+00 0.  1.
          2    1    1    2  501    0  0.19582013068E+02  0.46424669974E+01  0.61625912681E+03  0.61658764107E+03  0.00000000000E+00 0.  1.
         21    1    1    2  503  502 -0.19582013068E+02 -0.46424669974E+01  0.16360444982E+02  0.25935919025E+02  0.00000000000E+00 0.  1.
</event>
<event>
 4    1  0.2048241E+005  0.2276268E+02  0.7546771E-02  0.1495500E+00
          2   -1    0    0  503    0  0.00000000000E+00  0.00000000000E+00  0.15905374037E+04  0.15905374037E+04  0.00000000000E+00 0.  1.
         21   -1    0    0  501  502 -0.00000000000E+00 -0.00000000000E+00 -0.17586501869E+01  0.17586501869E+01  0.00000000000E+00 0.  1.
          2    1    1    2  501    0  0.19062059503E+02 -0.12440956460E+02  0.15130270326E+04  0.15131982491E+04  0.00000000000E+00 0.  1.
         21    1    1    2  503  502 -0.19062059503E+02  0.12440956460E+02  0.75751720818E+02  0.79097804755E+02  0.00000000000E+00 0.  1.
</event>
<event>
 4    1  0.2048241E+005  0.2436780E+02  0.7546771E-02  0.1476002E+00
          2   -1    0    0  503    0  0.00000000000E+00  0.00000000000E+00  0.44742187236E+03  0.44742187236E+03  0.00000000000E+00 0. -1.
         21   -1    0    0  501  502 -0.00000000000E+00 -0.00000000000E+00 -0.15449659222E+01  0.15449659222E+01  0.00000000000E+00 0. -1.
          2    1    1    2  501    0  0.23130928330E+02 -0.76648422774E+01  0.30722992408E+03  0.30819476943E+03  0.00000000000E+00 0. -1.
         21    1    1    2  503  502 -0.23130928330E+02  0.76648422774E+01  0.13864698236E+03  0.14077206885E+03  0.00000000000E+00 0. -1.
</event>
<event>
 4    1  0.2048241E+005  0.5725743E+02  0.7546771E-02  0.1269447E+00
          2   -1    0    0  503    0  0.00000000000E+00  0.00000000000E+00  0.31129368920E+04  0.31129368920E+04  0.00000000000E+00 0.  1.
         21   -1    0    0  501  502 -0.00000000000E+00 -0.00000000000E+00 -0.37977466029E+01  0.37977466029E+01  0.00000000000E+00 0.  1.
          2    1    1    2  501    0 -0.52315425183E+02 -0.23270356446E+02  0.28793548654E+04  0.28799241056E+04  0.00000000000E+00 0.  1.
         21    1    1    2  503  502  0.52315425183E+02  0.23270356446E+02  0.22978428007E+03  0.23681053306E+03  0.00000000000E+00 0.  1.
</event>
<event>
 4    1  0.2048241E+005  0.2126335E+02  0.7546771E-02  0.1515538E+00
          2   -1    0    0  503    0  0.00000000000E+00  0.00000000000E+00  0.19453708912E+03  0.19453708912E+03  0.00000000000E+00 0.  1.
         21   -1    0    0  501  502 -0.00000000000E+00 -0.00000000000E+00 -0.28845709677E+01  0.28845709677E+01  0.00000000000E+00 0.  1.
          2    1    1    2  501    0 -0.12059275833E+02  0.17512965231E+02  0.13933614374E+03  0.14094924987E+03  0.00000000000E+00 0.  1.
         21    1    1    2  503  502  0.12059275833E+02 -0.17512965231E+02  0.52316374406E+02  0.56472410217E+02  0.00000000000E+00 0.  1.
</event>
<event>
 4    1  0.2048241E+005  0.2291885E+02  0.7546771E-02  0.1493520E+00
          2   -1    0    0  503    0  0.00000000000E+00  0.00000000000E+00  0.14064072499E+03  0.14064072499E+03  0.00000000000E+00 0. -1.
         21   -1    0    0  501  502 -0.00000000000E+00 -0.00000000000E+00 -0.44583156124E+01  0.44583156124E+01  0.00000000000E+00 0. -1.
          2    1    1    2  501    0  0.20622472476E+02  0.99993589527E+01  0.97316223742E+02  0.99978602481E+02  0.00000000000E+00 0. -1.
         21    1    1    2  503  502 -0.20622472476E+02 -0.99993589527E+01  0.38866185637E+02  0.45120438124E+02  0.00000000000E+00 0. -1.
</event>
<event>
 4    1  0.2048241E+005  0.2425569E+02  0.7546771E-02  0.1477305E+00
          2   -1    0    0  503    0  0.00000000000E+00  0.00000000000E+00  0.89943469700E+03  0.89943469700E+03  0.00000000000E+00 0.  1.
         21   -1    0    0  501  502 -0.00000000000E+00 -0.00000000000E+00 -0.54824443319E+01  0.54824443319E+01  0.00000000000E+00 0.  1.
          2    1    1    2  501    0 -0.21395318060E+02 -0.11427116259E+02  0.87158581702E+03  0.87192326214E+03  0.00000000000E+00 0.  1.
         21    1    1    2  503  502  0.21395318060E+02  0.11427116259E+02  0.22366435648E+02  0.32993879197E+02  0.00000000000E+00 0.  1.
</event>
<event>
 4    1  0.2048241E+005  0.3388235E+02  0.7546771E-02  0.1388595E+00
          2   -1    0    0  502    0  0.00000000000E+00  0.00000000000E+00  0.19802157801E+03  0.19802157801E+03  0.00000000000E+00 0.  1.
         21   -1    0    0  503  502 -0.00000000000E+00 -0.00000000000E+00 -0.79011433845E+01  0.79011433845E+01  0.00000000000E+00 0. -1.
          2    1    1    2  501    0 -0.12103115107E+02 -0.31646930297E+02  0.14818827825E+03  0.15201243174E+03  0.00000000000E+00 0.  1.
         21    1    1    2  503  501  0.12103115107E+02  0.31646930297E+02  0.41932156378E+02  0.53910289658E+02  0.00000000000E+00 0. -1.
</event>
<event>
 4    1  0.2048241E+005  0.3823235E+02  0.7546771E-02  0.1359167E+00
          2   -1    0    0  503    0  0.00000000000E+00  0.00000000000E+00  0.46092195115E+03  0.46092195115E+03  0.00000000000E+00 0. -1.
         21   -1    0    0  501  502 -0.00000000000E+00 -0.00000000000E+00 -0.57857631341E+02  0.57857631341E+02  0.00000000000E+00 0.  1.
          2    1    1    2  501    0  0.51084383730E+01  0.37889533597E+02  0.45371296447E+03  0.45532094947E+03  0.00000000000E+00 0. -1.
         21    1    1    2  503  502 -0.51084383730E+01 -0.37889533597E+02 -0.50648644661E+02  0.63458633021E+02  0.00000000000E+00 0.  1.
</event>
<event>
 4    1  0.2048241E+005  0.6622549E+02  0.7546771E-02  0.1240031E+00
          2   -1    0    0  503    0  0.00000000000E+00  0.00000000000E+00  0.37365137757E+03  0.37365137757E+03  0.00000000000E+00 0.  1.
         21   -1    0    0  501  502 -0.00000000000E+00 -0.00000000000E+00 -0.37838164277E+02  0.37838164277E+02  0.00000000000E+00 0. -1.
          2    1    1    2  501    0 -0.55791848559E+01  0.65990066185E+02  0.33878521844E+03  0.34519739335E+03  0.00000000000E+00 0.  1.
         21    1    1    2  503  502  0.55791848559E+01 -0.65990066185E+02 -0.29720051453E+01  0.66292148505E+02  0.00000000000E+00 0. -1.
</event>
<event>
 4    1  0.2048241E+005  0.3172192E+02  0.7546771E-02  0.1405201E+00
          2   -1    0    0  502    0  0.00000000000E+00  0.00000000000E+00  0.14542052390E+04  0.14542052390E+04  0.00000000000E+00 0.  1.
         21   -1    0    0  503  502 -0.00000000000E+00 -0.00000000000E+00 -0.25023677839E+01  0.25023677839E+01  0.00000000000E+00 0.  1.
          2    1    1    2  501    0  0.13062929464E+02  0.28907442906E+02  0.13453676446E+04  0.13457415723E+04  0.00000000000E+00 0.  1.
         21    1    1    2  503  501 -0.13062929464E+02 -0.28907442906E+02  0.10633522665E+03  0.11096603448E+03  0.00000000000E+00 0.  1.
</event>
<event>
 4    1  0.2048241E+005  0.2064013E+02  0.7546771E-02  0.1524465E+00
          2   -1    0    0  503    0  0.00000000000E+00  0.00000000000E+00  0.28647651459E+03  0.28647651459E+03  0.00000000000E+00 0.  1.
         21   -1    0    0  501  502 -0.00000000000E+00 -0.00000000000E+00 -0.38532982520E+01  0.38532982520E+01  0.00000000000E+00 0.  1.
          2    1    1    2  501    0 -0.74046212728E+01  0.19266198573E+02  0.25506708107E+03  0.25590082194E+03  0.00000000000E+00 0.  1.
         21    1    1    2  503  502  0.74046212728E+01 -0.19266198573E+02  0.27556135266E+02  0.34428990901E+02  0.00000000000E+00 0.  1.
</event>
<event>
 4    1  0.2048241E+005  0.2033971E+02  0.7546771E-02  0.1528904E+00
          2   -1    0    0  503    0  0.00000000000E+00  0.00000000000E+00  0.35749121897E+02  0.35749121897E+02  0.00000000000E+00 0.  1.
         21   -1    0    0  501  502 -0.00000000000E+00 -0.00000000000E+00 -0.55580601298E+02  0.55580601298E+02  0.00000000000E+00 0. -1.
          2    1    1    2  501    0 -0.72633387893E+01  0.18998628419E+02  0.30718039785E+02  0.36841578962E+02  0.00000000000E+00 0.  1.
         21    1    1    2  503  502  0.72633387893E+01 -0.18998628419E+02 -0.50549519185E+02  0.54488144234E+02  0.00000000000E+00 0. -1.
</event>
<event>
 4    1  0.2048241E+005  0.2153932E+02  0.7546771E-02  0.1511702E+00
          2   -1    0    0  503    0  0.00000000000E+00  0.00000000000E+00  0.88150020841E+03  0.88150020841E+03  0.00000000000E+00 0. -1.
         21   -1    0    0  501  502 -0.00000000000E+00 -0.00000000000E+00 -0.65036512283E+00  0.65036512283E+00  0.00000000000E+00 0.  1.
          2    1    1    2  501    0  0.19029394556E+02  0.10090819342E+02  0.63306259388E+03  0.63342891492E+03  0.00000000000E+00 0. -1.
         21    1    1    2  503  502 -0.19029394556E+02 -0.10090819342E+02  0.24778724940E+03  0.24872165861E+03  0.00000000000E+00 0.  1.
</event>
<event>
 4    1  0.2048241E+005  0.3889539E+02  0.7546771E-02  0.1355083E+00
          2   -1    0    0  503    0  0.00000000000E+00  0.00000000000E+00  0.15799250630E+04  0.15799250630E+04  0.00000000000E+00 0.  1.
         21   -1    0    0  501  502 -0.00000000000E+00 -0.00000000000E+00 -0.12924592660E+03  0.12924592660E+03  0.00000000000E+00 0. -1.
          2    1    1    2  501    0  0.38124933554E+02 -0.77032771801E+01  0.15767534881E+04  0.15772331512E+04  0.00000000000E+00 0.  1.
         21    1    1    2  503  502 -0.38124933554E+02  0.77032771801E+01 -0.12607435171E+03  0.13193783838E+03  0.00000000000E+00 0. -1.
</event>
<event>
 4    1  0.2048241E+005  0.3269242E+02  0.7546771E-02  0.1397555E+00
          2   -1    0    0  502    0  0.00000000000E+00  0.00000000000E+00  0.11946206103E+03  0.11946206103E+03  0.00000000000E+00 0.  1.
         21   -1    0    0  503  502 -0.00000000000E+00 -0.00000000000E+00 -0.19669081337E+02  0.19669081337E+02  0.00000000000E+00 0.  1.
          2    1    1    2  501    0  0.25866419852E+02 -0.19993071584E+02  0.10125913374E+03  0.10640585864E+03  0.00000000000E+00 0.  1.
         21    1    1    2  503  501 -0.25866419852E+02  0.19993071584E+02 -0.14661540458E+01  0.32725283727E+02  0.00000000000E+00 0.  1.
</event>
<event>
 4    1  0.2048241E+005  0.2702838E+02  0.7546771E-02  0.1447323E+00
          2   -1    0    0  502    0  0.00000000000E+00  0.00000000000E+00  0.44929174620E+02  0.44929174620E+02  0.00000000000E+00 0. -1.
         21   -1    0    0  503  502 -0.00000000000E+00 -0.00000000000E+00 -0.66147291425E+03  0.66147291425E+03  0.00000000000E+00 0.  1.
          2    1    1    2  501    0  0.10414792096E+02  0.24941236898E+02  0.40561148558E+02  0.48741563011E+02  0.00000000000E+00 0. -1.
         21    1    1    2  503  501 -0.10414792096E+02 -0.24941236898E+02 -0.65710488819E+03  0.65766052586E+03  0.00000000000E+00 0.  1.
</event>
<event>
 4    1  0.2048241E+005  0.2042144E+02  0.7546771E-02  0.1527688E+00
          2   -1    0    0  502    0  0.00000000000E+00  0.00000000000E+00  0.74336294462E+03  0.74336294462E+03  0.00000000000E+00 0. -1.
         21   -1    0    0  503  502 -0.00000000000E+00 -0.00000000000E+00 -0.98587803030E+00  0.98587803030E+00  0.00000000000E+00 0. -1.
          2    1    1    2  501    0  0.13178803708E+02 -0.15599822076E+02  0.61550968612E+03  0.61584836529E+03  0.00000000000E+00 0. -1.
         21    1    1    2  503  501 -0.13178803708E+02  0.15599822076E+02  0.12686738046E+03  0.12850045736E+03  0.00000000000E+00 0. -1.
</event>
<event>
 4    1  0.2048241E+005  0.6199831E+02  0.7546771E-02  0.1253190E+00
          2   -1    0    0  502    0  0.00000000000E+00  0.00000000000E+00  0.34237500213E+04  0.34237500213E+04  0.00000000000E+00 0.  1.
         21   -1    0    0  503  502 -0.00000000000E+00 -0.00000000000E+00 -0.15757409833E+02  0.15757409833E+02  0.00000000000E+00 0.  1.
          2    1    1    2  501    0  0.49264608570E+02  0.37640255800E+02  0.33613535523E+04  0.33619252659E+04  0.00000000000E+00 0.  1.
         21    1    1    2  503  501 -0.49264608570E+02 -0.37640255800E+02  0.46639059255E+02  0.77582165235E+02  0.00000000000E+00 0.  1.
</event>
<event>
 4    1  0.2048241E+005  0.2554254E+02  0.7546771E-02  0.1462825E+00
          2   -1    0    0  503    0  0.00000000000E+00  0.00000000000E+00  0.98139502016E+03  0.98139502016E+03  0.00000000000E+00 0. -1.
         21   -1    0    0  501  502 -0.00000000000E+00 -0.00000000000E+00 -0.15538052537E+01  0.15538052537E+01  0.00000000000E+00 0. -1.
          2    1    1    2  501    0 -0.50265421308E+01 -0.25043062562E+02  0.86167606011E+03  0.86205455377E+03  0.00000000000E+00 0. -1.
         21    1    1    2  503  502  0.50265421308E+01  0.25043062562E+02  0.11816515480E+03  0.12089427164E+03  0.00000000000E+00 0. -1.
</event>
<event>
 4    1  0.2048241E+005  0.2703272E+02  0.7546771E-02  0.1447280E+00
          2   -1    0    0  503    0  0.00000000000E+00  0.00000000000E+00  0.18163252247E+03  0.18163252247E+03  0.00000000000E+00 0. -1.
         21   -1    0    0  501  502 -0.00000000000E+00 -0.00000000000E+00 -0.40509539798E+01  0.40509539798E+01  0.00000000000E+00 0. -1.
          2    1    1    2  501    0  0.87964644020E+01  0.25561501386E+02  0.96457041486E+02  0.10017349445E+03  0.00000000000E+00 0. -1.
         21    1    1    2  503  502 -0.87964644020E+01 -0.25561501386E+02  0.81124527001E+02  0.85509981992E+02  0.00000000000E+00 0. -1.
</event>
<event>
 4    1  0.2048241E+005  0.2298479E+02  0.7546771E-02  0.1492689E+00
          2   -1    0    0  503    0  0.00000000000E+00  0.00000000000E+00  0.73196602849E+02  0.73196602849E+02  0.00000000000E+00 0. -1.
         21   -1    0    0  501  502 -0.00000000000E+00 -0.00000000000E+00 -0.13347533136E+02  0.13347533136E+02  0.00000000000E+00 0. -1.
          2    1    1    2  501    0 -0.22857996486E+02  0.24109186840E+01  0.59249438748E+02  0.63551526530E+02  0.00000000000E+00 0. -1.
         21    1    1    2  503  502  0.22857996486E+02 -0.24109186840E+01  0.59963096462E+00  0.22992609455E+02  0.00000000000E+00 0. -1.
</event>
<event>
 4    1  0.2048241E+005  0.2510148E+02  0.7546771E-02  0.1467671E+00
          2   -1    0    0  503    0  0.00000000000E+00  0.00000000000E+00  0.14748926347E+04  0.14748926347E+04  0.00000000000E+00 0. -1.
         21   -1    0    0  501  502 -0.00000000000E+00 -0.00000000000E+00 -0.44097831414E+00  0.44097831414E+00  0.00000000000E+00 0. -1.
          2    1    1    2  501    0 -0.23412703341E+02 -0.90514961449E+01  0.60686670516E+03  0.60738561236E+03  0.00000000000E+00 0. -1.
         21    1    1    2  503  502  0.23412703341E+02  0.90514961449E+01  0.86758495126E+03  0.86794800070E+03  0.00000000000E+00 0. -1.
</event>
<event>
 4    1  0.2048241E+005  0.2021410E+02  0.7546771E-02  0.1530788E+00
          2   -1    0    0  503    0  0.00000000000E+00  0.00000000000E+00  0.67468730162E+03  0.67468730162E+03  0.00000000000E+00 0.  1.
         21   -1    0    0  501  502 -0.00000000000E+00 -0.00000000000E+00 -0.21060759623E+02  0.21060759623E+02  0.00000000000E+00 0. -1.
          2    1    1    2  501    0  0.50132560950E+00  0.20207877992E+02  0.66964904295E+03  0.66995406588E+03  0.00000000000E+00 0.  1.
         21    1    1    2  503  502 -0.50132560950E+00 -0.20207877992E+02 -0.16022500951E+02  0.25793995368E+02  0.00000000000E+00 0. -1.
</event>
<event>
 4    1  0.2048241E+005  0.2328427E+02  0.7546771E-02  0.1488959E+00
          2   -1    0    0  503    0  0.00000000000E+00  0.00000000000E+00  0.54983237591E+03  0.54983237591E+03  0.00000000000E+00 0.  1.
         21   -1    0    0  501  502 -0.00000000000E+00 -0.00000000000E+00 -0.99297627368E+00  0.99297627368E+00  0.00000000000E+00 0.  1.
          2    1    1    2  501    0 -0.30036857036E+01  0.23089722039E+02  0.25140320829E+03  0.25247916851E+03  0.00000000000E+00 0.  1.
         21    1    1    2  503  502  0.30036857036E+01 -0.23089722039E+02  0.29743619134E+03  0.29834618367E+03  0.00000000000E+00 0.  1.
</event>
<event>
 4    1  0.2048241E+005  0.2714313E+02  0.7546771E-02  0.1446176E+00
          2   -1    0    0  503    0  0.00000000000E+00  0.00000000000E+00  0.95543079410E+03  0.95543079410E+03  0.00000000000E+00 0. -1.
         21   -1    0    0  501  502 -0.00000000000E+00 -0.00000000000E+00 -0.23404863012E+01  0.23404863012E+01  0.00000000000E+00 0. -1.
          2    1    1    2  501    0  0.26583037628E+02  0.54856022713E+01  0.86868522592E+03  0.86910918270E+03  0.00000000000E+00 0. -1.
         21    1    1    2  503  502 -0.26583037628E+02 -0.54856022713E+01  0.84405081878E+02  0.88662097700E+02  0.00000000000E+00 0. -1.
</event>
<event>
 4    1  0.2048241E+005  0.4381436E+02  0.7546771E-02  0.1327475E+00
          2   -1    0    0  503    0  0.00000000000E+00  0.00000000000E+00  0.96019927139E+03  0.96019927139E+03  0.00000000000E+00 0.  1.
         21   -1    0    0  501  502 -0.00000000000E+00 -0.00000000000E+00 -0.21953918787E+01  0.21953918787E+01  0.00000000000E+00 0.  1.
          2    1    1    2  501    0 -0.29472874741E+02 -0.32419866109E+02  0.33517850109E+03  0.33803006621E+03  0.00000000000E+00 0.  1.
         21    1    1    2  503  502  0.29472874741E+02  0.32419866109E+02  0.62282537841E+03  0.62436459706E+03  0.00000000000E+00 0.  1.
</event>
<event>
 4    1  0.2048241E+005  0.4038137E+02  0.7546771E-02  0.1346265E+00
          2   -1    0    0  503    0  0.00000000000E+00  0.00000000000E+00  0.46638646645E+03  0.46638646645E+03  0.00000000000E+00 0.  1.
         21   -1    0    0  501  502 -0.00000000000E+00 -0.00000000000E+00 -0.65084150503E+01  0.65084150503E+01  0.00000000000E+00 0.  1.
          2    1    1    2  501    0 -0.10688526064E+02  0.38941118652E+02  0.69086309263E+02  0.80022330876E+02  0.00000000000E+00 0.  1.
         21    1    1    2  503  502  0.10688526064E+02 -0.38941118652E+02  0.39079174214E+03  0.39287255062E+03  0.00000000000E+00 0.  1.
</event>
<event>
 4    1  0.2048241E+005  0.2352222E+02  0.7546771E-02  0.1486043E+00
          2   -1    0    0  502    0  0.00000000000E+00  0.00000000000E+00  0.17025320570E+03  0.17025320570E+03  0.00000000000E+00 0.  1.
         21   -1    0    0  503  502 -0.00000000000E+00 -0.00000000000E+00 -0.15455975887E+03  0.15455975887E+03  0.00000000000E+00 0.  1.
          2    1    1    2  501    0  0.11789564351E+02 -0.20354382758E+02  0.16853672356E+03  0.17017027330E+03  0.00000000000E+00 0.  1.
         21    1    1    2  503  501 -0.11789564351E+02  0.20354382758E+02 -0.15284327673E+03  0.15464269128E+03  0.00000000000E+00 0.  1.
</event>
<event>
 4    1  0.2048241E+005  0.2230273E+02  0.7546771E-02  0.1501444E+00
          2   -1    0    0  503    0  0.00000000000E+00  0.00000000000E+00  0.61240254435E+02  0.61240254435E+02  0.00000000000E+00 0. -1.
         21   -1    0    0  501  502 -0.00000000000E+00 -0.00000000000E+00 -0.93195688046E+02  0.93195688046E+02  0.00000000000E+00 0. -1.
          2    1    1    2  501    0  0.20244636702E+02 -0.93576923133E+01  0.57798663233E+02  0.61952378422E+02  0.00000000000E+00 0. -1.
         21    1    1    2  503  502 -0.20244636702E+02  0.93576923133E+01 -0.89754096844E+02  0.92483564058E+02  0.00000000000E+00 0. -1.
</event>
<event>
 4    1  0.2048241E+005  0.3424543E+02  0.7546771E-02  0.1385947E+00
          2   -1    0    0  503    0  0.00000000000E+00  0.00000000000E+00  0.11763232344E+02  0.11763232344E+02  0.00000000000E+00 0.  1.
         21   -1    0    0  501  502 -0.00000000000E+00 -0.00000000000E+00 -0.34482632777E+03  0.34482632777E+03  0.00000000000E+00 0. -1.
          2    1    1    2  501    0 -0.10240631682E+02 -0.32678420364E+02 -0.16204628933E+02  0.37885877231E+02  0.00000000000E+00 0.  1.
         21    1    1    2  503  502  0.10240631682E+02  0.32678420364E+02 -0.31685846650E+03  0.31870368289E+03  0.00000000000E+00 0. -1.
</event>
<event>
 4    1  0.2048241E+005  0.2878374E+02  0.7546771E-02  0.1430468E+00
          2   -1    0    0  503    0  0.00000000000E+00  0.00000000000E+00  0.34612661374E+03  0.34612661374E+03  0.00000000000E+00 0. -1.
         21   -1    0    0  501  502 -0.00000000000E+00 -0.00000000000E+00 -0.24350754081E+01  0.24350754081E+01  0.00000000000E+00 0. -1.
          2    1    1    2  501    0 -0.16900243418E+02 -0.23299905231E+02  0.19457891405E+03  0.19669635890E+03  0.00000000000E+00 0. -1.
         21    1    1    2  503  502  0.16900243418E+02  0.23299905231E+02  0.14911262428E+03  0.15186533025E+03  0.00000000000E+00 0. -1.
</event>
<event>
 4    1  0.2048241E+005  0.2064324E+02  0.7546771E-02  0.1524420E+00
          2   -1    0    0  503    0  0.00000000000E+00  0.00000000000E+00  0.90854334988E+03  0.90854334988E+03  0.00000000000E+00 0. -1.
         21   -1    0    0  501  502 -0.00000000000E+00 -0.00000000000E+00 -0.87622525416E+02  0.87622525416E+02  0.00000000000E+00 0.  1.
          2    1    1    2  501    0 -0.19974678340E+02 -0.52111190730E+01  0.90720845055E+03  0.90744328543E+03  0.00000000000E+00 0. -1.
         21    1    1    2  503  502  0.19974678340E+02  0.52111190730E+01 -0.86287626082E+02  0.88722589861E+02  0.00000000000E+00 0.  1.
</event>
<event>
 4    1  0.2048241E+005  0.5516700E+02  0.7546771E-02  0.1277201E+00
          2   -1    0    0  503    0  0.00000000000E+00  0.00000000000E+00  0.18828496629E+04  0.18828496629E+04  0.00000000000E+00 0. -1.
         21   -1    0    0  501  502 -0.00000000000E+00 -0.00000000000E+00 -0.18787287953E+02  0.18787287953E+02  0.00000000000E+00 0.  1.
          2    1    1    2  501    0 -0.49714218681E+02  0.23914320434E+02  0.18410276882E+04  0.18418540515E+04  0.00000000000E+00 0. -1.
         21    1    1    2  503  502  0.49714218681E+02 -0.23914320434E+02  0.23034686717E+02  0.59782899336E+02  0.00000000000E+00 0.  1.
</event>
<event>
 4    1  0.2048241E+005  0.2478227E+02  0.7546771E-02  0.1471254E+00
          2   -1    0    0  503    0  0.00000000000E+00  0.00000000000E+00  0.29108027425E+03  0.29108027425E+03  0.00000000000E+00 0. -1.
         21   -1    0    0  501  502 -0.00000000000E+00 -0.00000000000E+00 -0.57719141202E+01  0.57719141202E+01  0.00000000000E+00 0. -1.
          2    1    1    2  501    0  0.92998034963E+01 -0.22971166647E+02  0.26087886970E+03  0.26205332567E+03  0.00000000000E+00 0. -1.
         21    1    1    2  503  502 -0.92998034963E+01  0.22971166647E+02  0.24429490434E+02  0.34798862698E+02  0.00000000000E+00 0. -1.
</event>
<event>
 4    1  0.2048241E+005  0.2261867E+02  0.7546771E-02  0.1497343E+00
          2   -1    0    0  503    0  0.00000000000E+00  0.00000000000E+00  0.41709457964E+03  0.41709457964E+03  0.00000000000E+00 0. -1.
         21   -1    0    0  501  502 -0.00000000000E+00 -0.00000000000E+00 -0.12266567068E+01  0.12266567068E+01  0.00000000000E+00 0. -1.
          2    1    1    2  501    0  0.17833250384E+02  0.13913285967E+02  0.20640002317E+03  0.20763567591E+03  0.00000000000E+00 0. -1.
         21    1    1    2  503  502 -0.17833250384E+02 -0.13913285967E+02  0.20946789976E+03  0.21068556044E+03  0.00000000000E+00 0. -1.
</event>
<event>
 4    1  0.2048241E+005  0.2030846E+02  0.7546771E-02  0.1529371E+00
          2   -1    0    0  502    0  0.00000000000E+00  0.00000000000E+00  0.36900110720E+03  0.36900110720E+03  0.00000000000E+00 0. -1.
         21   -1    0    0  503  502 -0.00000000000E+00 -0.00000000000E+00 -0.71756799520E+01  0.71756799520E+01  0.00000000000E+00 0.  1.
          2    1    1    2  501    0  0.19322168946E+02 -0.62519877215E+01  0.35373282608E+03  0.35431531975E+03  0.00000000000E+00 0. -1.
         21    1    1    2  503  501 -0.19322168946E+02  0.62519877215E+01  0.80926011669E+01  0.21861467401E+02  0.00000000000E+00 0.  1.
</event>
<event>
 4    1  0.2048241E+005  0.2143577E+02  0.7546771E-02  0.1513133E+00
          2   -1    0    0  503    0  0.00000000000E+00  0.00000000000E+00  0.21192400585E+01  0.21192400585E+01  0.00000000000E+00 0. -1.
         21   -1    0    0  501  502 -0.00000000000E+00 -0.00000000000E+00 -0.22406708722E+03  0.22406708722E+03  0.00000000000E+00 0. -1.
          2    1    1    2  501    0  0.84252464724E+01 -0.19710595605E+02 -0.90634106143E+02  0.93134491750E+02  0.00000000000E+00 0. -1.
         21    1    1    2  503  502 -0.84252464724E+01  0.19710595605E+02 -0.13131374102E+03  0.13305183553E+03  0.00000000000E+00 0. -1.
</event>
<event>
 4    1  0.2228820E+005  0.2074995E+02  0.7546771E-02  0.1522865E+00
          2   -1    0    0  502    0  0.00000000000E+00  0.00000000000E+00  0.91237003714E+03  0.91237003714E+03  0.00000000000E+00 0. -1.
         21   -1    0    0  503  502 -0.00000000000E+00 -0.00000000000E+00 -0.38070169257E+03  0.38070169257E+03  0.00000000000E+00 0.  1.
          2    1    1    2  501    0 -0.10358815142E+02 -0.17979304257E+02  0.91196919297E+03  0.91220522327E+03  0.00000000000E+00 0. -1.
         21    1    1    2  503  501  0.10358815142E+02  0.17979304257E+02 -0.38030084841E+03  0.38086650644E+03  0.00000000000E+00 0.  1.
</event>
<event>
 4    1  0.2048241E+005  0.2029060E+02  0.7546771E-02  0.1529639E+00
          2   -1    0    0  503    0  0.00000000000E+00  0.00000000000E+00  0.40504876017E+03  0.40504876017E+03  0.00000000000E+00 0. -1.
         21   -1    0    0  501  502 -0.00000000000E+00 -0.00000000000E+00 -0.80778280947E+01  0.80778280947E+01  0.00000000000E+00 0.  1.
          2    1    1    2  501    0  0.20284548071E+02  0.49535557746E+00  0.39161595926E+03  0.39214126002E+03  0.00000000000E+00 0. -1.
         21    1    1    2  503  502 -0.20284548071E+02 -0.49535557746E+00  0.53549728203E+01  0.20985328244E+02  0.00000000000E+00 0.  1.
</event>
