<event>
 4    1  0.2253948E+005  0.4866497E+02  0.7546771E-02  0.1304067E+00
          2   -1    0    0  502    0  0.00000000000E+00  0.00000000000E+00  0.14794175715E+03  0.14794175715E+03  0.00000000000E+00 0.  1.
         21   -1    0    0  503  502 -0.00000000000E+00 -0.00000000000E+00 -0.31437083429E+02  0.31437083429E+02  0.00000000000E+00 0.  1.
          2    1    1    2  501    0  0.48637210462E+02 -0.16434327288E+01  0.12108530043E+03  0.13049877047E+03  0.00000000000E+00 0.  1.
         21    1    1    2  503  501 -0.48637210462E+02  0.16434327288E+01 -0.45806267144E+01  0.48880070108E+02  0.00000000000E+00 0.  1.
</event>
<event>
 4    1  0.2253948E+005  0.4024260E+02  0.7546771E-02  0.1347070E+00
          2   -1    0    0  503    0  0.00000000000E+00  0.00000000000E+00  0.16370148897E+04  0.16370148897E+04  0.00000000000E+00 0.  1.
         21   -1    0    0  501  502 -0.00000000000E+00 -0.00000000000E+00 -0.11828921832E+01  0.11828921832E+01  0.00000000000E+00 0.  1.
          2    1    1    2  501    0  0.37753880699E+02  0.13932383196E+02  0.11492985256E+04  0.11500028555E+04  0.00000000000E+00 0.  1.
         21    1    1    2  503  502 -0.37753880699E+02 -0.13932383196E+02  0.48653347189E+03  0.48819492631E+03  0.00000000000E+00 0.  1.
</event>
<event>
 4    1  0.2253948E+005  0.2426602E+02  0.7546771E-02  0.1477184E+00
          2   -1    0    0  503    0  0.00000000000E+00  0.00000000000E+00  0.15014316853E+04  0.15014316853E+04  0.00000000000E+00 0.  1.
         21   -1    0    0  501  502 -0.00000000000E+00 -0.00000000000E+00 -0.44240356252E+00  0.44240356252E+00  0.00000000000E+00 0.  1.
          2    1    1    2  501    0 -0.16674230434E+02 -0.17629801860E+02  0.10034965512E+04  0.10037899024E+04  0.00000000000E+00 0.  1.
         21    1    1    2  503  502  0.16674230434E+02  0.17629801860E+02  0.49749273053E+03  0.49808418647E+03  0.00000000000E+00 0.  1.
</event>
<event>
 4    1  0.2253948E+005  0.2006524E+02  0.7546771E-02  0.1533041E+00
          2   -1    0    0  503    0  0.00000000000E+00  0.00000000000E+00  0.79734856283E+03  0.79734856283E+03  0.00000000000E+00 0. -1.
         21   -1    0    0  501  502 -0.00000000000E+00 -0.00000000000E+00 -0.12203544274E+02  0.12203544274E+02  0.00000000000E+00 0. -1.
          2    1    1    2  501    0  0.20062499014E+02  0.33178550278E+00  0.78888597491E+03  0.78914111245E+03  0.00000000000E+00 0. -1.
         21    1    1    2  503  502 -0.20062499014E+02 -0.33178550278E+00 -0.37409563539E+01  0.20410994654E+02  0.00000000000E+00 0. -1.
</event>
<event>
 4    1  0.2253948E+005  0.2268603E+02  0.7546771E-02  0.1496479E+00
          2   -1    0    0  503    0  0.00000000000E+00  0.00000000000E+00  0.51416423786E+03  0.51416423786E+03  0.00000000000E+00 0.  1.
         21   -1    0    0  501  502 -0.00000000000E+00 -0.00000000000E+00 -0.18044957665E+01  0.18044957665E+01  0.00000000000E+00 0.  1.
          2    1    1    2  501    0 -0.18176447942E+02  0.13574714050E+02  0.42833460246E+03  0.42893494587E+03  0.00000000000E+00 0.  1.
         21    1    1    2  503  502  0.18176447942E+02 -0.13574714050E+02  0.84025139631E+02  0.87033787757E+02  0.00000000000E+00 0.  1.
</event>
<event>
 4    1  0.2253948E+005  0.2419433E+02  0.7546771E-02  0.1478022E+00
          2   -1    0    0  502    0  0.00000000000E+00  0.00000000000E+00  0.12195091643E+04  0.12195091643E+04  0.00000000000E+00 0.  1.
         21   -1    0    0  503  502 -0.00000000000E+00 -0.00000000000E+00 -0.43643211161E+02  0.43643211161E+02  0.00000000000E+00 0.  1.
          2    1    1    2  501    0 -0.10382049772E+02  0.21853572198E+02  0.12160264308E+04  0.12162670948E+04  0.00000000000E+00 0.  1.
         21    1    1    2  503  501  0.10382049772E+02 -0.21853572198E+02 -0.40160477651E+02  0.46885280637E+02  0.00000000000E+00 0.  1.
</event>
<event>
 4    1  0.2253948E+005  0.2401761E+02  0.7546771E-02  0.1480101E+00
          2   -1    0    0  503    0  0.00000000000E+00  0.00000000000E+00  0.10259363185E+04  0.10259363185E+04  0.00000000000E+00 0.  1.
         21   -1    0    0  501  502 -0.00000000000E+00 -0.00000000000E+00 -0.42796167346E+01  0.42796167346E+01  0.00000000000E+00 0. -1.
          2    1    1    2  501    0  0.15019645514E+02  0.18741814519E+02  0.99090746447E+03  0.99119849098E+03  0.00000000000E+00 0.  1.
         21    1    1    2  503  502 -0.15019645514E+02 -0.18741814519E+02  0.30749237312E+02  0.39017444280E+02  0.00000000000E+00 0. -1.
</event>
<event>
 4    1  0.2253948E+005  0.2458982E+02  0.7546771E-02  0.1473445E+00
          2   -1    0    0  502    0  0.00000000000E+00  0.00000000000E+00  0.39477537560E+02  0.39477537560E+02  0.00000000000E+00 0. -1.
         21   -1    0    0  503  502 -0.00000000000E+00 -0.00000000000E+00 -0.17408938793E+02  0.17408938793E+02  0.00000000000E+00 0.  1.
          2    1    1    2  501    0 -0.10864757152E+02 -0.22059384290E+02  0.20895160819E+02  0.32268671012E+02  0.00000000000E+00 0. -1.
         21    1    1    2  503  501  0.10864757152E+02  0.22059384290E+02  0.11734379476E+01  0.24617805341E+02  0.00000000000E+00 0.  1.
</event>
<event>
 4    1  0.2253948E+005  0.3529722E+02  0.7546771E-02  0.1378486E+00
          2   -1    0    0  502    0  0.00000000000E+00  0.00000000000E+00  0.10808553264E+04  0.10808553264E+04  0.00000000000E+00 0. -1.
         21   -1    0    0  503  502 -0.00000000000E+00 -0.00000000000E+00 -0.14562269904E+01  0.14562269904E+01  0.00000000000E+00 0. -1.
          2    1    1    2  501    0 -0.19662197496E+02 -0.29313677426E+02  0.29263418200E+03  0.29475525130E+03  0.00000000000E+00 0. -1.
         21    1    1    2  503  501  0.19662197496E+02  0.29313677426E+02  0.78676491743E+03  0.78755630211E+03  0.00000000000E+00 0. -1.
</event>
<event>
 4    1  0.2253948E+005  0.2320424E+02  0.7546771E-02  0.1489949E+00
          2   -1    0    0  502    0  0.00000000000E+00  0.00000000000E+00  0.31499123441E+03  0.31499123441E+03  0.00000000000E+00 0. -1.
         21   -1    0    0  503  502 -0.00000000000E+00 -0.00000000000E+00 -0.18753207886E+01  0.18753207886E+01  0.00000000000E+00 0. -1.
          2    1    1    2  501    0 -0.18498131959E+02  0.14009128096E+02  0.10942786062E+03  0.11186104432E+03  0.00000000000E+00 0. -1.
         21    1    1    2  503  501  0.18498131959E+02 -0.14009128096E+02  0.20368805300E+03  0.20500551088E+03  0.00000000000E+00 0. -1.
</event>
<event>
 4    1  0.2253948E+005  0.2326286E+02  0.7546771E-02  0.1489223E+00
          2   -1    0    0  503    0  0.00000000000E+00  0.00000000000E+00  0.69056903270E+02  0.69056903270E+02  0.00000000000E+00 0.  1.
         21   -1    0    0  501  502 -0.00000000000E+00 -0.00000000000E+00 -0.74294276515E+02  0.74294276515E+02  0.00000000000E+00 0.  1.
          2    1    1    2  501    0 -0.13970052057E+01  0.23220876973E+02  0.65171475752E+02  0.69198858391E+02  0.00000000000E+00 0.  1.
         21    1    1    2  503  502  0.13970052057E+01 -0.23220876973E+02 -0.70408848997E+02  0.74152321393E+02  0.00000000000E+00 0.  1.
</event>
<event>
 4    1  0.2253948E+005  0.2551005E+02  0.7546771E-02  0.1463178E+00
          2   -1    0    0  503    0  0.00000000000E+00  0.00000000000E+00  0.73539623959E+03  0.73539623959E+03  0.00000000000E+00 0. -1.
         21   -1    0    0  501  502 -0.00000000000E+00 -0.00000000000E+00 -0.34618500727E+01  0.34618500727E+01  0.00000000000E+00 0.  1.
          2    1    1    2  501    0  0.16207453136E+02 -0.19699779026E+02  0.68470140956E+03  0.68517646127E+03  0.00000000000E+00 0. -1.
         21    1    1    2  503  502 -0.16207453136E+02  0.19699779026E+02  0.47232979961E+02  0.53681628392E+02  0.00000000000E+00 0.  1.
</event>
<event>
 4    1  0.2253948E+005  0.2302200E+02  0.7546771E-02  0.1492222E+00
          2   -1    0    0  502    0  0.00000000000E+00  0.00000000000E+00  0.29313608177E+03  0.29313608177E+03  0.00000000000E+00 0. -1.
         21   -1    0    0  503  502 -0.00000000000E+00 -0.00000000000E+00 -0.11170189505E+02  0.11170189505E+02  0.00000000000E+00 0.  1.
          2    1    1    2  501    0  0.11500152227E+02  0.19943895740E+02  0.28027860261E+03  0.28122252321E+03  0.00000000000E+00 0. -1.
         21    1    1    2  503  501 -0.11500152227E+02 -0.19943895740E+02  0.16872896571E+01  0.23083748069E+02  0.00000000000E+00 0.  1.
</event>
<event>
 4    1  0.2253948E+005  0.2200312E+02  0.7546771E-02  0.1505410E+00
          2   -1    0    0  503    0  0.00000000000E+00  0.00000000000E+00  0.45493006392E+03  0.45493006392E+03  0.00000000000E+00 0. -1.
         21   -1    0    0  501  502 -0.00000000000E+00 -0.00000000000E+00 -0.11237065508E+02  0.11237065508E+02  0.00000000000E+00 0. -1.
          2    1    1    2  501    0 -0.21753368025E+02  0.33057830365E+01  0.44361855184E+03  0.44416388503E+03  0.00000000000E+00 0. -1.
         21    1    1    2  503  502  0.21753368025E+02 -0.33057830365E+01  0.74446569539E-01  0.22003244402E+02  0.00000000000E+00 0. -1.
</event>
<event>
 4    1  0.2253948E+005  0.2865108E+02  0.7546771E-02  0.1431692E+00
          2   -1    0    0  503    0  0.00000000000E+00  0.00000000000E+00  0.70211824880E+02  0.70211824880E+02  0.00000000000E+00 0.  1.
         21   -1    0    0  501  502 -0.00000000000E+00 -0.00000000000E+00 -0.26766626429E+02  0.26766626429E+02  0.00000000000E+00 0. -1.
          2    1    1    2  501    0 -0.28321297346E+02  0.43345543163E+01  0.58112289465E+02  0.64791376212E+02  0.00000000000E+00 0.  1.
         21    1    1    2  503  502  0.28321297346E+02 -0.43345543163E+01 -0.14667091015E+02  0.32187075098E+02  0.00000000000E+00 0. -1.
</event>
<event>
 4    1  0.2253948E+005  0.2248529E+02  0.7546771E-02  0.1499065E+00
          2   -1    0    0  503    0  0.00000000000E+00  0.00000000000E+00  0.11223654015E+04  0.11223654015E+04  0.00000000000E+00 0.  1.
         21   -1    0    0  501  502 -0.00000000000E+00 -0.00000000000E+00 -0.10432619015E+01  0.10432619015E+01  0.00000000000E+00 0.  1.
          2    1    1    2  501    0  0.21259963478E+02 -0.73213527405E+01  0.98407333486E+03  0.98433018680E+03  0.00000000000E+00 0.  1.
         21    1    1    2  503  502 -0.21259963478E+02  0.73213527405E+01  0.13724880473E+03  0.13907847660E+03  0.00000000000E+00 0.  1.
</event>
<event>
 4    1  0.2253948E+005  0.3616645E+02  0.7546771E-02  0.1372543E+00
          2   -1    0    0  503    0  0.00000000000E+00  0.00000000000E+00  0.17576100976E+03  0.17576100976E+03  0.00000000000E+00 0.  1.
         21   -1    0    0  501  502 -0.00000000000E+00 -0.00000000000E+00 -0.38369135288E+02  0.38369135288E+02  0.00000000000E+00 0. -1.
          2    1    1    2  501    0  0.13222101599E+02 -0.33662855424E+02  0.16481880557E+03  0.16874018631E+03  0.00000000000E+00 0.  1.
         21    1    1    2  503  502 -0.13222101599E+02  0.33662855424E+02 -0.27426931091E+02  0.45389958747E+02  0.00000000000E+00 0. -1.
</event>
<event>
 4    1  0.2253948E+005  0.2939105E+02  0.7546771E-02  0.1424963E+00
          2   -1    0    0  502    0  0.00000000000E+00  0.00000000000E+00  0.11032710472E+04  0.11032710472E+04  0.00000000000E+00 0.  1.
         21   -1    0    0  503  502 -0.00000000000E+00 -0.00000000000E+00 -0.19676239514E+01  0.19676239514E+01  0.00000000000E+00 0. -1.
          2    1    1    2  501    0 -0.13764774440E+02  0.25968536187E+02  0.97944682119E+03  0.97988770246E+03  0.00000000000E+00 0.  1.
         21    1    1    2  503  501  0.13764774440E+02 -0.25968536187E+02  0.12185660201E+03  0.12535096865E+03  0.00000000000E+00 0. -1.
</event>
<event>
 4    1  0.2253948E+005  0.6929363E+02  0.7546771E-02  0.1231154E+00
          2   -1    0    0  502    0  0.00000000000E+00  0.00000000000E+00  0.13775507534E+04  0.13775507534E+04  0.00000000000E+00 0. -1.
         21   -1    0    0  503  502 -0.00000000000E+00 -0.00000000000E+00 -0.60136829533E+01  0.60136829533E+01  0.00000000000E+00 0.  1.
          2    1    1    2  501    0 -0.68927009186E+02  0.71185729386E+01  0.11343009221E+04  0.11364155000E+04  0.00000000000E+00 0. -1.
         21    1    1    2  503  501  0.68927009186E+02 -0.71185729386E+01  0.23723614829E+03  0.24714893633E+03  0.00000000000E+00 0.  1.
</event>
<event>
 4    1  0.2253948E+005  0.2154385E+02  0.7546771E-02  0.1511640E+00
          2   -1    0    0  502    0  0.00000000000E+00  0.00000000000E+00  0.31390722014E+03  0.31390722014E+03  0.00000000000E+00 0. -1.
         21   -1    0    0  503  502 -0.00000000000E+00 -0.00000000000E+00 -0.31526942780E+01  0.31526942780E+01  0.00000000000E+00 0.  1.
          2    1    1    2  501    0 -0.17921368918E+02  0.11956671890E+02  0.27089874307E+03  0.27175405510E+03  0.00000000000E+00 0. -1.
         21    1    1    2  503  501  0.17921368918E+02 -0.11956671890E+02  0.39855782794E+02  0.45305859320E+02  0.00000000000E+00 0.  1.
</event>
<event>
 4    1  0.2253948E+005  0.2207387E+02  0.7546771E-02  0.1504467E+00
          2   -1    0    0  503    0  0.00000000000E+00  0.00000000000E+00  0.11193328813E+04  0.11193328813E+04  0.00000000000E+00 0. -1.
         21   -1    0    0  501  502 -0.00000000000E+00 -0.00000000000E+00 -0.68140195935E+03  0.68140195935E+03  0.00000000000E+00 0.  1.
          2    1    1    2  501    0 -0.18930094486E+02 -0.11353727086E+02  0.11190452386E+04  0.11192629278E+04  0.00000000000E+00 0. -1.
         21    1    1    2  503  502  0.18930094486E+02  0.11353727086E+02 -0.68111431666E+03  0.68147191281E+03  0.00000000000E+00 0.  1.
</event>
<event>
 4    1  0.2253948E+005  0.2083978E+02  0.7546771E-02  0.1521565E+00
          2   -1    0    0  503    0  0.00000000000E+00  0.00000000000E+00  0.15456377867E+04  0.15456377867E+04  0.00000000000E+00 0.  1.
         21   -1    0    0  501  502 -0.00000000000E+00 -0.00000000000E+00 -0.62204144800E+01  0.62204144800E+01  0.00000000000E+00 0.  1.
          2    1    1    2  501    0 -0.57473845894E+01 -0.20031571414E+02  0.15279105639E+04  0.15280526783E+04  0.00000000000E+00 0.  1.
         21    1    1    2  503  502  0.57473845894E+01  0.20031571414E+02  0.11506808300E+02  0.23805522892E+02  0.00000000000E+00 0.  1.
</event>
<event>
 4    1  0.2253948E+005  0.2293204E+02  0.7546771E-02  0.1493353E+00
          2   -1    0    0  502    0  0.00000000000E+00  0.00000000000E+00  0.92290318731E+03  0.92290318731E+03  0.00000000000E+00 0.  1.
         21   -1    0    0  503  502 -0.00000000000E+00 -0.00000000000E+00 -0.86819602634E+00  0.86819602634E+00  0.00000000000E+00 0.  1.
          2    1    1    2  501    0  0.13456107549E+02  0.18569106995E+02  0.73179685866E+03  0.73215607688E+03  0.00000000000E+00 0.  1.
         21    1    1    2  503  501 -0.13456107549E+02 -0.18569106995E+02  0.19023813262E+03  0.19161530646E+03  0.00000000000E+00 0.  1.
</event>
<event>
 4    1  0.2253948E+005  0.2632739E+02  0.7546771E-02  0.1454484E+00
          2   -1    0    0  503    0  0.00000000000E+00  0.00000000000E+00  0.31871444806E+03  0.31871444806E+03  0.00000000000E+00 0.  1.
         21   -1    0    0  501  502 -0.00000000000E+00 -0.00000000000E+00 -0.23023405779E+01  0.23023405779E+01  0.00000000000E+00 0.  1.
          2    1    1    2  501    0 -0.17477138602E+02  0.19689621117E+02  0.12042420165E+03  0.12326848704E+03  0.00000000000E+00 0.  1.
         21    1    1    2  503  502  0.17477138602E+02 -0.19689621117E+02  0.19598790583E+03  0.19774830160E+03  0.00000000000E+00 0.  1.
</event>
<event>
 4    1  0.2253948E+005  0.2309377E+02  0.7546771E-02  0.1491324E+00
          2   -1    0    0  502    0  0.00000000000E+00  0.00000000000E+00  0.43529958467E+02  0.43529958467E+02  0.00000000000E+00 0. -1.
         21   -1    0    0  503  502 -0.00000000000E+00 -0.00000000000E+00 -0.24856047677E+02  0.24856047677E+02  0.00000000000E+00 0.  1.
          2    1    1    2  501    0 -0.22506704359E+02 -0.51740123121E+01  0.33685833796E+02  0.40841860181E+02  0.00000000000E+00 0. -1.
         21    1    1    2  503  501  0.22506704359E+02  0.51740123121E+01 -0.15011923006E+02  0.27544145963E+02  0.00000000000E+00 0.  1.
</event>
<event>
 4    1  0.2253948E+005  0.2655551E+02  0.7546771E-02  0.1452125E+00
          2   -1    0    0  503    0  0.00000000000E+00  0.00000000000E+00  0.23286147433E+01  0.23286147433E+01  0.00000000000E+00 0.  1.
         21   -1    0    0  501  502 -0.00000000000E+00 -0.00000000000E+00 -0.11676415519E+04  0.11676415519E+04  0.00000000000E+00 0.  1.
          2    1    1    2  501    0  0.14483600538E+02 -0.22258042157E+02 -0.79215530593E+02  0.83548162232E+02  0.00000000000E+00 0.  1.
         21    1    1    2  503  502 -0.14483600538E+02  0.22258042157E+02 -0.10860974066E+04  0.10864220044E+04  0.00000000000E+00 0.  1.
</event>
<event>
 4    1  0.2253948E+005  0.2270194E+02  0.7546771E-02  0.1496275E+00
          2   -1    0    0  503    0  0.00000000000E+00  0.00000000000E+00  0.68186861176E+03  0.68186861176E+03  0.00000000000E+00 0. -1.
         21   -1    0    0  501  502 -0.00000000000E+00 -0.00000000000E+00 -0.11539685035E+01  0.11539685035E+01  0.00000000000E+00 0. -1.
          2    1    1    2  501    0 -0.21922955235E+02 -0.58959346141E+01  0.54095420046E+03  0.54143035102E+03  0.00000000000E+00 0. -1.
         21    1    1    2  503  502  0.21922955235E+02  0.58959346141E+01  0.13976044280E+03  0.14159222924E+03  0.00000000000E+00 0. -1.
</event>
<event>
 4    1  0.2253948E+005  0.2476252E+02  0.7546771E-02  0.1471478E+00
          2   -1    0    0  503    0  0.00000000000E+00  0.00000000000E+00  0.12727474871E+04  0.12727474871E+04  0.00000000000E+00 0. -1.
         21   -1    0    0  501  502 -0.00000000000E+00 -0.00000000000E+00 -0.19493637289E+01  0.19493637289E+01  0.00000000000E+00 0.  1.
          2    1    1    2  501    0  0.11167523338E+02  0.22101333426E+02  0.11884079686E+04  0.11886659255E+04  0.00000000000E+00 0. -1.
         21    1    1    2  503  502 -0.11167523338E+02 -0.22101333426E+02  0.82390154772E+02  0.86030925371E+02  0.00000000000E+00 0.  1.
</event>
<event>
 4    1  0.2253948E+005  0.2887756E+02  0.7546771E-02  0.1429608E+00
          2   -1    0    0  503    0  0.00000000000E+00  0.00000000000E+00  0.58687134554E+03  0.58687134554E+03  0.00000000000E+00 0.  1.
         21   -1    0    0  501  502 -0.00000000000E+00 -0.00000000000E+00 -0.12140959902E+02  0.12140959902E+02  0.00000000000E+00 0.  1.
          2    1    1    2  501    0 -0.27037590803E+02 -0.10143087011E+02  0.56879939447E+03  0.56953196985E+03  0.00000000000E+00 0.  1.
         21    1    1    2  503  502  0.27037590803E+02  0.10143087011E+02  0.59309911703E+01  0.29480335595E+02  0.00000000000E+00 0.  1.
</event>
<event>
 4    1  0.2253948E+005  0.2036471E+02  0.7546771E-02  0.1528532E+00
          2   -1    0    0  502    0  0.00000000000E+00  0.00000000000E+00  0.57641472892E+03  0.57641472892E+03  0.00000000000E+00 0. -1.
         21   -1    0    0  503  502 -0.00000000000E+00 -0.00000000000E+00 -0.36171370205E+01  0.36171370205E+01  0.00000000000E+00 0.  1.
          2    1    1    2  501    0 -0.15598287760E+02 -0.13092547565E+02  0.54597360335E+03  0.54635327119E+03  0.00000000000E+00 0. -1.
         21    1    1    2  503  501  0.15598287760E+02  0.13092547565E+02  0.26823988548E+02  0.33678594751E+02  0.00000000000E+00 0.  1.
</event>
<event>
 4    1  0.2253948E+005  0.2708219E+02  0.7546771E-02  0.1446784E+00
          2   -1    0    0  503    0  0.00000000000E+00  0.00000000000E+00  0.38740061584E+03  0.38740061584E+03  0.00000000000E+00 0.  1.
         21   -1    0    0  501  502 -0.00000000000E+00 -0.00000000000E+00 -0.11938324247E+02  0.11938324247E+02  0.00000000000E+00 0.  1.
          2    1    1    2  501    0 -0.26929431235E+02 -0.28724043992E+01  0.37088523736E+03  0.37187269900E+03  0.00000000000E+00 0.  1.
         21    1    1    2  503  502  0.26929431235E+02  0.28724043992E+01  0.45770542315E+01  0.27466241081E+02  0.00000000000E+00 0.  1.
</event>
<event>
 4    1  0.2253948E+005  0.2519982E+02  0.7546771E-02  0.1466580E+00
          2   -1    0    0  503    0  0.00000000000E+00  0.00000000000E+00  0.10103455807E+04  0.10103455807E+04  0.00000000000E+00 0. -1.
         21   -1    0    0  501  502 -0.00000000000E+00 -0.00000000000E+00 -0.10634394349E+01  0.10634394349E+01  0.00000000000E+00 0. -1.
          2    1    1    2  501    0 -0.16026276178E+02  0.19447096912E+02  0.82804147128E+03  0.82842483622E+03  0.00000000000E+00 0. -1.
         21    1    1    2  503  502  0.16026276178E+02 -0.19447096912E+02  0.18124067001E+03  0.18298418394E+03  0.00000000000E+00 0. -1.
</event>
<event>
 4    1  0.2253948E+005  0.2054464E+02  0.7546771E-02  0.1525867E+00
          2   -1    0    0  503    0  0.00000000000E+00  0.00000000000E+00  0.30177566736E+02  0.30177566736E+02  0.00000000000E+00 0. -1.
         21   -1    0    0  501  502 -0.00000000000E+00 -0.00000000000E+00 -0.21419389894E+02  0.21419389894E+02  0.00000000000E+00 0.  1.
          2    1    1    2  501    0 -0.20526359448E+02 -0.86656059054E+00  0.19576362355E+02  0.28378095822E+02  0.00000000000E+00 0. -1.
         21    1    1    2  503  502  0.20526359448E+02  0.86656059054E+00 -0.10818185513E+02  0.23218860808E+02  0.00000000000E+00 0.  1.
</event>
<event>
 4    1  0.2253948E+005  0.3429015E+02  0.7546771E-02  0.1385623E+00
          2   -1    0    0  502    0  0.00000000000E+00  0.00000000000E+00  0.14184523828E+03  0.14184523828E+03  0.00000000000E+00 0.  1.
         21   -1    0    0  503  502 -0.00000000000E+00 -0.00000000000E+00 -0.11014707144E+02  0.11014707144E+02  0.00000000000E+00 0. -1.
          2    1    1    2  501    0  0.21095896697E+02  0.27032900246E+02  0.10343275855E+03  0.10896857388E+03  0.00000000000E+00 0.  1.
         21    1    1    2  503  501 -0.21095896697E+02 -0.27032900246E+02  0.27397772590E+02  0.43891371544E+02  0.00000000000E+00 0. -1.
</event>
<event>
 4    1  0.2253948E+005  0.2065580E+02  0.7546771E-02  0.1524236E+00
          2   -1    0    0  503    0  0.00000000000E+00  0.00000000000E+00  0.10615710089E+04  0.10615710089E+04  0.00000000000E+00 0. -1.
         21   -1    0    0  501  502 -0.00000000000E+00 -0.00000000000E+00 -0.15561656543E+02  0.15561656543E+02  0.00000000000E+00 0.  1.
          2    1    1    2  501    0 -0.22978550427E+01  0.20527590134E+02  0.10545706532E+04  0.10547729256E+04  0.00000000000E+00 0. -1.
         21    1    1    2  503  502  0.22978550427E+01 -0.20527590134E+02 -0.85613007937E+01  0.22359739842E+02  0.00000000000E+00 0.  1.
</event>
<event>
 4    1  0.2253948E+005  0.2158778E+02  0.7546771E-02  0.1511036E+00
          2   -1    0    0  502    0  0.00000000000E+00  0.00000000000E+00  0.66329814192E+02  0.66329814192E+02  0.00000000000E+00 0.  1.
         21   -1    0    0  503  502 -0.00000000000E+00 -0.00000000000E+00 -0.90653210603E+02  0.90653210603E+02  0.00000000000E+00 0. -1.
          2    1    1    2  501    0  0.76577772242E+01  0.20183918653E+02  0.63226775873E+02  0.66810607776E+02  0.00000000000E+00 0.  1.
         21    1    1    2  503  501 -0.76577772242E+01 -0.20183918653E+02 -0.87550172284E+02  0.90172417019E+02  0.00000000000E+00 0. -1.
</event>
<event>
 4    1  0.2253948E+005  0.2205081E+02  0.7546771E-02  0.1504774E+00
          2   -1    0    0  503    0  0.00000000000E+00  0.00000000000E+00  0.65627873924E+03  0.65627873924E+03  0.00000000000E+00 0. -1.
         21   -1    0    0  501  502 -0.00000000000E+00 -0.00000000000E+00 -0.88872839519E+00  0.88872839519E+00  0.00000000000E+00 0. -1.
          2    1    1    2  501    0 -0.21067014344E+02 -0.65129991674E+01  0.46170508910E+03  0.46223135717E+03  0.00000000000E+00 0. -1.
         21    1    1    2  503  502  0.21067014344E+02  0.65129991674E+01  0.19368492174E+03  0.19493611046E+03  0.00000000000E+00 0. -1.
</event>
<event>
 4    1  0.2253948E+005  0.2259446E+02  0.7546771E-02  0.1497654E+00
          2   -1    0    0  502    0  0.00000000000E+00  0.00000000000E+00  0.58246929018E+03  0.58246929018E+03  0.00000000000E+00 0. -1.
         21   -1    0    0  503  502 -0.00000000000E+00 -0.00000000000E+00 -0.67838941945E+02  0.67838941945E+02  0.00000000000E+00 0.  1.
          2    1    1    2  501    0  0.17167433371E+01  0.22529141194E+02  0.58036201867E+03  0.58080167194E+03  0.00000000000E+00 0. -1.
         21    1    1    2  503  501 -0.17167433371E+01 -0.22529141194E+02 -0.65731670436E+02  0.69506560186E+02  0.00000000000E+00 0.  1.
</event>
<event>
 4    1  0.2253948E+005  0.2513402E+02  0.7546771E-02  0.1467310E+00
          2   -1    0    0  503    0  0.00000000000E+00  0.00000000000E+00  0.99588448375E+03  0.99588448375E+03  0.00000000000E+00 0.  1.
         21   -1    0    0  501  502 -0.00000000000E+00 -0.00000000000E+00 -0.70068522066E+00  0.70068522066E+00  0.00000000000E+00 0. -1.
          2    1    1    2  501    0 -0.24878970549E+02 -0.35715346145E+01  0.65093410588E+03  0.65141916554E+03  0.00000000000E+00 0.  1.
         21    1    1    2  503  502  0.24878970549E+02  0.35715346145E+01  0.34424969265E+03  0.34516600343E+03  0.00000000000E+00 0. -1.
</event>
<event>
 4    1  0.2253948E+005  0.2469280E+02  0.7546771E-02  0.1472269E+00
          2   -1    0    0  503    0  0.00000000000E+00  0.00000000000E+00  0.11702346120E+04  0.11702346120E+04  0.00000000000E+00 0. -1.
         21   -1    0    0  501  502 -0.00000000000E+00 -0.00000000000E+00 -0.52463865763E+00  0.52463865763E+00  0.00000000000E+00 0.  1.
          2    1    1    2  501    0  0.21170270335E+02 -0.12710397314E+02  0.53634742492E+03  0.53691553784E+03  0.00000000000E+00 0. -1.
         21    1    1    2  503  502 -0.21170270335E+02  0.12710397314E+02  0.63336254843E+03  0.63384371284E+03  0.00000000000E+00 0.  1.
</event>
<event>
 4    1  0.2253948E+005  0.3160570E+02  0.7546771E-02  0.1406138E+00
          2   -1    0    0  503    0  0.00000000000E+00  0.00000000000E+00  0.14627289147E+03  0.14627289147E+03  0.00000000000E+00 0. -1.
         21   -1    0    0  501  502 -0.00000000000E+00 -0.00000000000E+00 -0.72124589921E+01  0.72124589921E+01  0.00000000000E+00 0. -1.
          2    1    1    2  501    0 -0.29472694993E+02 -0.11414038200E+02  0.87221845017E+02  0.92771602693E+02  0.00000000000E+00 0. -1.
         21    1    1    2  503  502  0.29472694993E+02  0.11414038200E+02  0.51838587461E+02  0.60713747769E+02  0.00000000000E+00 0. -1.
</event>
<event>
 4    1  0.2253948E+005  0.2784276E+02  0.7546771E-02  0.1439321E+00
          2   -1    0    0  503    0  0.00000000000E+00  0.00000000000E+00  0.96028089958E+00  0.96028089958E+00  0.00000000000E+00 0.  1.
         21   -1    0    0  501  502 -0.00000000000E+00 -0.00000000000E+00 -0.10340315486E+04  0.10340315486E+04  0.00000000000E+00 0.  1.
          2    1    1    2  501    0  0.27616504540E+02  0.35423308132E+01 -0.27420333263E+03  0.27561329260E+03  0.00000000000E+00 0.  1.
         21    1    1    2  503  502 -0.27616504540E+02 -0.35423308132E+01 -0.75886793503E+03  0.75937853687E+03  0.00000000000E+00 0.  1.
</event>
<event>
 4    1  0.2253948E+005  0.2128872E+02  0.7546771E-02  0.1515182E+00
          2   -1    0    0  502    0  0.00000000000E+00  0.00000000000E+00  0.70117243349E+03  0.70117243349E+03  0.00000000000E+00 0. -1.
         21   -1    0    0  503  502 -0.00000000000E+00 -0.00000000000E+00 -0.11141519817E+01  0.11141519817E+01  0.00000000000E+00 0.  1.
          2    1    1    2  501    0  0.44319143227E+01  0.20822285029E+02  0.57755921440E+03  0.57795143011E+03  0.00000000000E+00 0. -1.
         21    1    1    2  503  501 -0.44319143227E+01 -0.20822285029E+02  0.12249906710E+03  0.12433515536E+03  0.00000000000E+00 0.  1.
</event>
<event>
 4    1  0.2253948E+005  0.3753901E+02  0.7546771E-02  0.1363544E+00
          2   -1    0    0  503    0  0.00000000000E+00  0.00000000000E+00  0.70579222071E+03  0.70579222071E+03  0.00000000000E+00 0. -1.
         21   -1    0    0  501  502 -0.00000000000E+00 -0.00000000000E+00 -0.12040980042E+02  0.12040980042E+02  0.00000000000E+00 0.  1.
          2    1    1    2  501    0  0.30556741344E+02 -0.21805115894E+02  0.67468729528E+03  0.67573080730E+03  0.00000000000E+00 0. -1.
         21    1    1    2  503  502 -0.30556741344E+02  0.21805115894E+02  0.19063945387E+02  0.42102393452E+02  0.00000000000E+00 0.  1.
</event>
<event>
 4    1  0.2253948E+005  0.2495707E+02  0.7546771E-02  0.1469284E+00
          2   -1    0    0  502    0  0.00000000000E+00  0.00000000000E+00  0.42234450185E+03  0.42234450185E+03  0.00000000000E+00 0. -1.
         21   -1    0    0  503  502 -0.00000000000E+00 -0.00000000000E+00 -0.49487415900E+02  0.49487415900E+02  0.00000000000E+00 0. -1.
          2    1    1    2  501    0  0.28963101223E+01  0.24788443278E+02  0.41880269101E+03  0.41954564654E+03  0.00000000000E+00 0. -1.
         21    1    1    2  503  501 -0.28963101223E+01 -0.24788443278E+02 -0.45945605062E+02  0.52286271209E+02  0.00000000000E+00 0. -1.
</event>
<event>
 4    1  0.2253948E+005  0.2099690E+02  0.7546771E-02  0.1519309E+00
          2   -1    0    0  503    0  0.00000000000E+00  0.00000000000E+00  0.36078321934E+02  0.36078321934E+02  0.00000000000E+00 0. -1.
         21   -1    0    0  501  502 -0.00000000000E+00 -0.00000000000E+00 -0.23675648494E+02  0.23675648494E+02  0.00000000000E+00 0.  1.
          2    1    1    2  501    0 -0.37306239187E+00 -0.20993581594E+02  0.26983922627E+02  0.34190667207E+02  0.00000000000E+00 0. -1.
         21    1    1    2  503  502  0.37306239187E+00  0.20993581594E+02 -0.14581249187E+02  0.25563303221E+02  0.00000000000E+00 0.  1.
</event>
<event>
 4    1  0.2253948E+005  0.2903622E+02  0.7546771E-02  0.1428161E+00
          2   -1    0    0  503    0  0.00000000000E+00  0.00000000000E+00  0.89556732251E+03  0.89556732251E+03  0.00000000000E+00 0.  1.
         21   -1    0    0  501  502 -0.00000000000E+00 -0.00000000000E+00 -0.55118026942E+01  0.55118026942E+01  0.00000000000E+00 0.  1.
          2    1    1    2  501    0 -0.51088762232E+01 -0.28583238139E+02  0.85529093547E+03  0.85578366800E+03  0.00000000000E+00 0.  1.
         21    1    1    2  503  502  0.51088762232E+01  0.28583238139E+02  0.34764584355E+02  0.45295457213E+02  0.00000000000E+00 0.  1.
</event>
<event>
 4    1  0.2253948E+005  0.2110116E+02  0.7546771E-02  0.1517825E+00
          2   -1    0    0  503    0  0.00000000000E+00  0.00000000000E+00  0.11508220414E+04  0.11508220414E+04  0.00000000000E+00 0. -1.
         21   -1    0    0  501  502 -0.00000000000E+00 -0.00000000000E+00 -0.12752296439E+01  0.12752296439E+01  0.00000000000E+00 0. -1.
          2    1    1    2  501    0  0.35140819560E+01 -0.20806496555E+02  0.10555582297E+04  0.10557691203E+04  0.00000000000E+00 0. -1.
         21    1    1    2  503  502 -0.35140819560E+01  0.20806496555E+02  0.93988582098E+02  0.96328150796E+02  0.00000000000E+00 0. -1.
</event>
<event>
 4    1  0.2253948E+005  0.3240691E+02  0.7546771E-02  0.1399771E+00
          2   -1    0    0  502    0  0.00000000000E+00  0.00000000000E+00  0.14054059962E+04  0.14054059962E+04  0.00000000000E+00 0.  1.
         21   -1    0    0  503  502 -0.00000000000E+00 -0.00000000000E+00 -0.58932701949E+01  0.58932701949E+01  0.00000000000E+00 0.  1.
          2    1    1    2  501    0 -0.27191107222E+02  0.17630981929E+02  0.13591521075E+04  0.13595383993E+04  0.00000000000E+00 0.  1.
         21    1    1    2  503  501  0.27191107222E+02 -0.17630981929E+02  0.40360618457E+02  0.51760867052E+02  0.00000000000E+00 0.  1.
</event>
<event>
 4    1  0.2253948E+005  0.4715882E+02  0.7546771E-02  0.1310984E+00
          2   -1    0    0  502    0  0.00000000000E+00  0.00000000000E+00  0.89906631834E+03  0.89906631834E+03  0.00000000000E+00 0.  1.
         21   -1    0    0  503  502 -0.00000000000E+00 -0.00000000000E+00 -0.46978112601E+01  0.46978112601E+01  0.00000000000E+00 0. -1.
          2    1    1    2  501    0  0.37494232970E+02  0.28603094558E+02  0.75811432383E+03  0.75957967490E+03  0.00000000000E+00 0.  1.
         21    1    1    2  503  501 -0.37494232970E+02 -0.28603094558E+02  0.13625418325E+03  0.14418445470E+03  0.00000000000E+00 0. -1.
</event>
<event>
 4    1  0.2253948E+005  0.2013534E+02  0.7546771E-02  0.1531977E+00
          2   -1    0    0  502    0  0.00000000000E+00  0.00000000000E+00  0.82248377371E+03  0.82248377371E+03  0.00000000000E+00 0. -1.
         21   -1    0    0  503  502 -0.00000000000E+00 -0.00000000000E+00 -0.55881974571E+00  0.55881974571E+00  0.00000000000E+00 0.  1.
          2    1    1    2  501    0  0.20074971973E+02 -0.15580188172E+01  0.55226351130E+03  0.55263045323E+03  0.00000000000E+00 0. -1.
         21    1    1    2  503  501 -0.20074971973E+02  0.15580188172E+01  0.26966144266E+03  0.27041214022E+03  0.00000000000E+00 0.  1.
</event>
<event>
 4    1  0.2253948E+005  0.2272138E+02  0.7546771E-02  0.1496027E+00
          2   -1    0    0  503    0  0.00000000000E+00  0.00000000000E+00  0.63348648187E+03  0.63348648187E+03  0.00000000000E+00 0.  1.
         21   -1    0    0  501  502 -0.00000000000E+00 -0.00000000000E+00 -0.24494834076E+01  0.24494834076E+01  0.00000000000E+00 0. -1.
          2    1    1    2  501    0 -0.34849370736E+00  0.22718703698E+02  0.57526087151E+03  0.57570941562E+03  0.00000000000E+00 0.  1.
         21    1    1    2  503  502  0.34849370736E+00 -0.22718703698E+02  0.55776126950E+02  0.60226549653E+02  0.00000000000E+00 0. -1.
</event>
<event>
 4    1  0.2253948E+005  0.2409822E+02  0.7546771E-02  0.1479150E+00
          2   -1    0    0  503    0  0.00000000000E+00  0.00000000000E+00  0.10777323471E+04  0.10777323471E+04  0.00000000000E+00 0. -1.
         21   -1    0    0  501  502 -0.00000000000E+00 -0.00000000000E+00 -0.52410749163E+01  0.52410749163E+01  0.00000000000E+00 0. -1.
          2    1    1    2  501    0  0.11213911043E+02  0.21330080227E+02  0.10491422481E+04  0.10494189730E+04  0.00000000000E+00 0. -1.
         21    1    1    2  503  502 -0.11213911043E+02 -0.21330080227E+02  0.23349024064E+02  0.33554449007E+02  0.00000000000E+00 0. -1.
</event>
<event>
 4    1  0.2253948E+005  0.2059888E+02  0.7546771E-02  0.1525070E+00
          2   -1    0    0  503    0  0.00000000000E+00  0.00000000000E+00  0.33833916920E+03  0.33833916920E+03  0.00000000000E+00 0.  1.
         21   -1    0    0  501  502 -0.00000000000E+00 -0.00000000000E+00 -0.23484424720E+03  0.23484424720E+03  0.00000000000E+00 0. -1.
          2    1    1    2  501    0  0.95822632922E+01 -0.18234417771E+02  0.33757292093E+03  0.33820081418E+03  0.00000000000E+00 0.  1.
         21    1    1    2  503  502 -0.95822632922E+01  0.18234417771E+02 -0.23407799894E+03  0.23498260223E+03  0.00000000000E+00 0. -1.
</event>
<event>
 4    1  0.2253948E+005  0.6187427E+02  0.7546771E-02  0.1253594E+00
          2   -1    0    0  502    0  0.00000000000E+00  0.00000000000E+00  0.59875821552E+03  0.59875821552E+03  0.00000000000E+00 0. -1.
         21   -1    0    0  503  502 -0.00000000000E+00 -0.00000000000E+00 -0.51921981057E+02  0.51921981057E+02  0.00000000000E+00 0.  1.
          2    1    1    2  501    0  0.55531758128E+02 -0.27288259951E+02  0.57806829719E+03  0.58137026197E+03  0.00000000000E+00 0. -1.
         21    1    1    2  503  501 -0.55531758128E+02  0.27288259951E+02 -0.31232062729E+02  0.69309934600E+02  0.00000000000E+00 0.  1.
</event>
<event>
 4    1  0.2253948E+005  0.2969931E+02  0.7546771E-02  0.1422228E+00
          2   -1    0    0  502    0  0.00000000000E+00  0.00000000000E+00  0.50636550246E+02  0.50636550246E+02  0.00000000000E+00 0.  1.
         21   -1    0    0  503  502 -0.00000000000E+00 -0.00000000000E+00 -0.12600048715E+04  0.12600048715E+04  0.00000000000E+00 0.  1.
          2    1    1    2  501    0 -0.26239558356E+02  0.13911662876E+02  0.46090973321E+02  0.54830891004E+02  0.00000000000E+00 0.  1.
         21    1    1    2  503  501  0.26239558356E+02 -0.13911662876E+02 -0.12554592946E+04  0.12558105308E+04  0.00000000000E+00 0.  1.
</event>
<event>
 4    1  0.2253948E+005  0.3216407E+02  0.7546771E-02  0.1401678E+00
          2   -1    0    0  502    0  0.00000000000E+00  0.00000000000E+00  0.36976033069E+03  0.36976033069E+03  0.00000000000E+00 0. -1.
         21   -1    0    0  503  502 -0.00000000000E+00 -0.00000000000E+00 -0.41489900851E+02  0.41489900851E+02  0.00000000000E+00 0. -1.
          2    1    1    2  501    0 -0.11935987688E+02 -0.29867362432E+02  0.36270626821E+03  0.36412959800E+03  0.00000000000E+00 0. -1.
         21    1    1    2  503  501  0.11935987688E+02  0.29867362432E+02 -0.34435838373E+02  0.47120633540E+02  0.00000000000E+00 0. -1.
</event>
<event>
 4    1  0.2253948E+005  0.2197291E+02  0.7546771E-02  0.1505814E+00
          2   -1    0    0  503    0  0.00000000000E+00  0.00000000000E+00  0.11476166128E+02  0.11476166128E+02  0.00000000000E+00 0. -1.
         21   -1    0    0  501  502 -0.00000000000E+00 -0.00000000000E+00 -0.23256267558E+03  0.23256267558E+03  0.00000000000E+00 0. -1.
          2    1    1    2  501    0 -0.17537184903E+02 -0.13238434104E+02 -0.11062126588E+00  0.21973193416E+02  0.00000000000E+00 0. -1.
         21    1    1    2  503  502  0.17537184903E+02  0.13238434104E+02 -0.22097588819E+03  0.22206564829E+03  0.00000000000E+00 0. -1.
</event>
<event>
 4    1  0.2253948E+005  0.2295410E+02  0.7546771E-02  0.1493075E+00
          2   -1    0    0  503    0  0.00000000000E+00  0.00000000000E+00  0.10068231230E+04  0.10068231230E+04  0.00000000000E+00 0.  1.
         21   -1    0    0  501  502 -0.00000000000E+00 -0.00000000000E+00 -0.66146792772E+00  0.66146792772E+00  0.00000000000E+00 0. -1.
          2    1    1    2  501    0 -0.87002359885E+01 -0.21241385731E+02  0.73329198518E+03  0.73365116104E+03  0.00000000000E+00 0.  1.
         21    1    1    2  503  502  0.87002359885E+01  0.21241385731E+02  0.27286966991E+03  0.27383342990E+03  0.00000000000E+00 0. -1.
</event>
<event>
 4    1  0.2253948E+005  0.3678830E+02  0.7546771E-02  0.1368409E+00
          2   -1    0    0  502    0  0.00000000000E+00  0.00000000000E+00  0.74691542728E+03  0.74691542728E+03  0.00000000000E+00 0.  1.
         21   -1    0    0  503  502 -0.00000000000E+00 -0.00000000000E+00 -0.63689129766E+02  0.63689129766E+02  0.00000000000E+00 0. -1.
          2    1    1    2  501    0 -0.16214065608E+02  0.33022468218E+02  0.74110839482E+03  0.74202091089E+03  0.00000000000E+00 0.  1.
         21    1    1    2  503  501  0.16214065608E+02 -0.33022468218E+02 -0.57882097306E+02  0.68583646151E+02  0.00000000000E+00 0. -1.
</event>
<event>
 4    1  0.2253948E+005  0.2223816E+02  0.7546771E-02  0.1502293E+00
          2   -1    0    0  503    0  0.00000000000E+00  0.00000000000E+00  0.16460760938E+02  0.16460760938E+02  0.00000000000E+00 0.  1.
         21   -1    0    0  501  502 -0.00000000000E+00 -0.00000000000E+00 -0.30103745115E+02  0.30103745115E+02  0.00000000000E+00 0.  1.
          2    1    1    2  501    0  0.13862127869E+02 -0.17388999019E+02 -0.57783810386E+01  0.22976630810E+02  0.00000000000E+00 0.  1.
         21    1    1    2  503  502 -0.13862127869E+02  0.17388999019E+02 -0.78646031393E+01  0.23587875243E+02  0.00000000000E+00 0.  1.
</event>
<event>
 4    1  0.2253948E+005  0.2016333E+02  0.7546771E-02  0.1531553E+00
          2   -1    0    0  502    0  0.00000000000E+00  0.00000000000E+00  0.44173208561E+03  0.44173208561E+03  0.00000000000E+00 0.  1.
         21   -1    0    0  503  502 -0.00000000000E+00 -0.00000000000E+00 -0.91525515585E+02  0.91525515585E+02  0.00000000000E+00 0. -1.
          2    1    1    2  501    0  0.19155336954E+02  0.62954802020E+01  0.44038809406E+03  0.44084944527E+03  0.00000000000E+00 0.  1.
         21    1    1    2  503  501 -0.19155336954E+02 -0.62954802020E+01 -0.90181524034E+02  0.92408155927E+02  0.00000000000E+00 0. -1.
</event>
<event>
 4    1  0.2253948E+005  0.6634844E+02  0.7546771E-02  0.1239665E+00
          2   -1    0    0  502    0  0.00000000000E+00  0.00000000000E+00  0.42533798291E+03  0.42533798291E+03  0.00000000000E+00 0. -1.
         21   -1    0    0  503  502 -0.00000000000E+00 -0.00000000000E+00 -0.19142558321E+02  0.19142558321E+02  0.00000000000E+00 0.  1.
          2    1    1    2  501    0  0.24339510101E+02 -0.61722798797E+02  0.35371960088E+03  0.35988841561E+03  0.00000000000E+00 0. -1.
         21    1    1    2  503  501 -0.24339510101E+02  0.61722798797E+02  0.52475823710E+02  0.84592125623E+02  0.00000000000E+00 0.  1.
</event>
<event>
 4    1  0.2253948E+005  0.2194341E+02  0.7546771E-02  0.1506210E+00
          2   -1    0    0  502    0  0.00000000000E+00  0.00000000000E+00  0.57062145895E+03  0.57062145895E+03  0.00000000000E+00 0. -1.
         21   -1    0    0  503  502 -0.00000000000E+00 -0.00000000000E+00 -0.63622302352E+01  0.63622302352E+01  0.00000000000E+00 0.  1.
          2    1    1    2  501    0 -0.42206344133E+01 -0.21533682093E+02  0.55080943746E+03  0.55124636018E+03  0.00000000000E+00 0. -1.
         21    1    1    2  503  501  0.42206344133E+01  0.21533682093E+02  0.13449791253E+02  0.25737329001E+02  0.00000000000E+00 0.  1.
</event>
<event>
 4    1  0.2253948E+005  0.2030619E+02  0.7546771E-02  0.1529405E+00
          2   -1    0    0  503    0  0.00000000000E+00  0.00000000000E+00  0.54293905016E+03  0.54293905016E+03  0.00000000000E+00 0.  1.
         21   -1    0    0  501  502 -0.00000000000E+00 -0.00000000000E+00 -0.31973051493E+02  0.31973051493E+02  0.00000000000E+00 0. -1.
          2    1    1    2  501    0 -0.17408846593E+02 -0.10453385212E+02  0.53950453630E+03  0.53988654909E+03  0.00000000000E+00 0.  1.
         21    1    1    2  503  502  0.17408846593E+02  0.10453385212E+02 -0.28538537632E+02  0.35025552562E+02  0.00000000000E+00 0. -1.
</event>
<event>
 4    1  0.2253948E+005  0.6222086E+02  0.7546771E-02  0.1252468E+00
          2   -1    0    0  502    0  0.00000000000E+00  0.00000000000E+00  0.97785202167E+03  0.97785202167E+03  0.00000000000E+00 0.  1.
         21   -1    0    0  503  502 -0.00000000000E+00 -0.00000000000E+00 -0.13488404976E+02  0.13488404976E+02  0.00000000000E+00 0.  1.
          2    1    1    2  501    0 -0.47932473869E+02 -0.39672574845E+02  0.89880423059E+03  0.90095531530E+03  0.00000000000E+00 0.  1.
         21    1    1    2  503  501  0.47932473869E+02  0.39672574845E+02  0.65559386099E+02  0.90385111339E+02  0.00000000000E+00 0.  1.
</event>
<event>
 4    1  0.2253948E+005  0.2012998E+02  0.7546771E-02  0.1532058E+00
          2   -1    0    0  502    0  0.00000000000E+00  0.00000000000E+00  0.17584289296E+03  0.17584289296E+03  0.00000000000E+00 0. -1.
         21   -1    0    0  503  502 -0.00000000000E+00 -0.00000000000E+00 -0.86999041317E+02  0.86999041317E+02  0.00000000000E+00 0.  1.
          2    1    1    2  501    0 -0.96075293786E+01  0.17689306622E+02  0.17409067936E+03  0.17525062291E+03  0.00000000000E+00 0. -1.
         21    1    1    2  503  501  0.96075293786E+01 -0.17689306622E+02 -0.85246827723E+02  0.87591311364E+02  0.00000000000E+00 0.  1.
</event>
<event>
 4    1  0.2253948E+005  0.2247491E+02  0.7546771E-02  0.1499199E+00
          2   -1    0    0  503    0  0.00000000000E+00  0.00000000000E+00  0.28557829006E+03  0.28557829006E+03  0.00000000000E+00 0. -1.
         21   -1    0    0  501  502 -0.00000000000E+00 -0.00000000000E+00 -0.54255236660E+03  0.54255236660E+03  0.00000000000E+00 0.  1.
          2    1    1    2  501    0  0.15985774951E+02  0.15797995317E+02  0.28490279465E+03  0.28578790047E+03  0.00000000000E+00 0. -1.
         21    1    1    2  503  502 -0.15985774951E+02 -0.15797995317E+02 -0.54187687119E+03  0.54234275619E+03  0.00000000000E+00 0.  1.
</event>
<event>
 4    1  0.2253948E+005  0.2322547E+02  0.7546771E-02  0.1489686E+00
          2   -1    0    0  503    0  0.00000000000E+00  0.00000000000E+00  0.98672732721E+01  0.98672732721E+01  0.00000000000E+00 0.  1.
         21   -1    0    0  501  502 -0.00000000000E+00 -0.00000000000E+00 -0.56603644039E+03  0.56603644039E+03  0.00000000000E+00 0.  1.
          2    1    1    2  501    0 -0.15742378976E+02 -0.17076292442E+02 -0.43909296538E+01  0.23636889022E+02  0.00000000000E+00 0.  1.
         21    1    1    2  503  502  0.15742378976E+02  0.17076292442E+02 -0.55177823747E+03  0.55226682464E+03  0.00000000000E+00 0.  1.
</event>
<event>
 4    1  0.2253948E+005  0.2443083E+02  0.7546771E-02  0.1475272E+00
          2   -1    0    0  503    0  0.00000000000E+00  0.00000000000E+00  0.64303221329E+02  0.64303221329E+02  0.00000000000E+00 0. -1.
         21   -1    0    0  501  502 -0.00000000000E+00 -0.00000000000E+00 -0.60723744918E+02  0.60723744918E+02  0.00000000000E+00 0. -1.
          2    1    1    2  501    0  0.16835468300E+02  0.17704020613E+02  0.59327383343E+02  0.64160764904E+02  0.00000000000E+00 0. -1.
         21    1    1    2  503  502 -0.16835468300E+02 -0.17704020613E+02 -0.55747906931E+02  0.60866201343E+02  0.00000000000E+00 0. -1.
</event>
<event>
 4    1  0.2253948E+005  0.2437850E+02  0.7546771E-02  0.1475878E+00
          2   -1    0    0  502    0  0.00000000000E+00  0.00000000000E+00  0.77468063871E+03  0.77468063871E+03  0.00000000000E+00 0. -1.
         21   -1    0    0  503  502 -0.00000000000E+00 -0.00000000000E+00 -0.93310439026E+00  0.93310439026E+00  0.00000000000E+00 0. -1.
          2    1    1    2  501    0 -0.18246479728E+02  0.16167167979E+02  0.55041198692E+03  0.55095160104E+03  0.00000000000E+00 0. -1.
         21    1    1    2  503  501  0.18246479728E+02 -0.16167167979E+02  0.22333554740E+03  0.22466214206E+03  0.00000000000E+00 0. -1.
</event>
<event>
 4    1  0.2253948E+005  0.3083496E+02  0.7546771E-02  0.1412477E+00
          2   -1    0    0  503    0  0.00000000000E+00  0.00000000000E+00  0.18928459737E+03  0.18928459737E+03  0.00000000000E+00 0.  1.
         21   -1    0    0  501  502 -0.00000000000E+00 -0.00000000000E+00 -0.12246113194E+02  0.12246113194E+02  0.00000000000E+00 0. -1.
          2    1    1    2  501    0  0.30657562782E+02 -0.33028141136E+01  0.16590685041E+03  0.16874797110E+03  0.00000000000E+00 0.  1.
         21    1    1    2  503  502 -0.30657562782E+02  0.33028141136E+01  0.11131633772E+02  0.32782739471E+02  0.00000000000E+00 0. -1.
</event>
<event>
 4    1  0.2253948E+005  0.3757015E+02  0.7546771E-02  0.1363345E+00
          2   -1    0    0  502    0  0.00000000000E+00  0.00000000000E+00  0.62967046935E+03  0.62967046935E+03  0.00000000000E+00 0. -1.
         21   -1    0    0  503  502 -0.00000000000E+00 -0.00000000000E+00 -0.31906882105E+01  0.31906882105E+01  0.00000000000E+00 0. -1.
          2    1    1    2  501    0 -0.36752045305E+02  0.77976355536E+01  0.48581279444E+03  0.48726336533E+03  0.00000000000E+00 0. -1.
         21    1    1    2  503  501  0.36752045305E+02 -0.77976355536E+01  0.14066698670E+03  0.14559779223E+03  0.00000000000E+00 0. -1.
</event>
<event>
 4    1  0.2253948E+005  0.2542504E+02  0.7546771E-02  0.1464104E+00
          2   -1    0    0  502    0  0.00000000000E+00  0.00000000000E+00  0.57715532892E+03  0.57715532892E+03  0.00000000000E+00 0. -1.
         21   -1    0    0  503  502 -0.00000000000E+00 -0.00000000000E+00 -0.85087423889E+01  0.85087423889E+01  0.00000000000E+00 0. -1.
          2    1    1    2  501    0  0.20432220979E+02  0.15131322304E+02  0.55720235576E+03  0.55778212398E+03  0.00000000000E+00 0. -1.
         21    1    1    2  503  501 -0.20432220979E+02 -0.15131322304E+02  0.11444230770E+02  0.27881947327E+02  0.00000000000E+00 0. -1.
</event>
<event>
 4    1  0.2253948E+005  0.2449355E+02  0.7546771E-02  0.1474549E+00
          2   -1    0    0  502    0  0.00000000000E+00  0.00000000000E+00  0.11621884883E+04  0.11621884883E+04  0.00000000000E+00 0.  1.
         21   -1    0    0  503  502 -0.00000000000E+00 -0.00000000000E+00 -0.10421890654E+01  0.10421890654E+01  0.00000000000E+00 0.  1.
          2    1    1    2  501    0  0.10703341100E+02  0.22031171087E+02  0.99376008360E+03  0.99406188830E+03  0.00000000000E+00 0.  1.
         21    1    1    2  503  501 -0.10703341100E+02 -0.22031171087E+02  0.16738621567E+03  0.16916878911E+03  0.00000000000E+00 0.  1.
</event>
<event>
 4    1  0.2253948E+005  0.3708135E+02  0.7546771E-02  0.1366493E+00
          2   -1    0    0  502    0  0.00000000000E+00  0.00000000000E+00  0.51336433215E+03  0.51336433215E+03  0.00000000000E+00 0.  1.
         21   -1    0    0  503  502 -0.00000000000E+00 -0.00000000000E+00 -0.13268903286E+02  0.13268903286E+02  0.00000000000E+00 0. -1.
          2    1    1    2  501    0  0.22815795153E+02  0.29231253469E+02  0.48529129920E+03  0.48670593973E+03  0.00000000000E+00 0.  1.
         21    1    1    2  503  501 -0.22815795153E+02 -0.29231253469E+02  0.14804129672E+02  0.39927295716E+02  0.00000000000E+00 0. -1.
</event>
<event>
 4    1  0.2253948E+005  0.2056692E+02  0.7546771E-02  0.1525539E+00
          2   -1    0    0  503    0  0.00000000000E+00  0.00000000000E+00  0.38109747803E+02  0.38109747803E+02  0.00000000000E+00 0. -1.
         21   -1    0    0  501  502 -0.00000000000E+00 -0.00000000000E+00 -0.14232903968E+03  0.14232903968E+03  0.00000000000E+00 0. -1.
          2    1    1    2  501    0  0.13729018585E+02 -0.15313790276E+02  0.34520489210E+02  0.40182860764E+02  0.00000000000E+00 0. -1.
         21    1    1    2  503  502 -0.13729018585E+02  0.15313790276E+02 -0.13873978108E+03  0.14025592672E+03  0.00000000000E+00 0. -1.
</event>
<event>
 4    1  0.2253948E+005  0.2093388E+02  0.7546771E-02  0.1520211E+00
          2   -1    0    0  503    0  0.00000000000E+00  0.00000000000E+00  0.13625865722E+04  0.13625865722E+04  0.00000000000E+00 0. -1.
         21   -1    0    0  501  502 -0.00000000000E+00 -0.00000000000E+00 -0.32199077928E+00  0.32199077928E+00  0.00000000000E+00 0. -1.
          2    1    1    2  501    0 -0.20736223823E+02 -0.28698803162E+01  0.65782763202E+03  0.65816063438E+03  0.00000000000E+00 0. -1.
         21    1    1    2  503  502  0.20736223823E+02  0.28698803162E+01  0.70443694944E+03  0.70474792864E+03  0.00000000000E+00 0. -1.
</event>
<event>
 4    1  0.2253948E+005  0.4021932E+02  0.7546771E-02  0.1347205E+00
          2   -1    0    0  502    0  0.00000000000E+00  0.00000000000E+00  0.31444698199E+03  0.31444698199E+03  0.00000000000E+00 0. -1.
         21   -1    0    0  503  502 -0.00000000000E+00 -0.00000000000E+00 -0.61538276370E+01  0.61538276370E+01  0.00000000000E+00 0.  1.
          2    1    1    2  501    0 -0.29191868015E+02 -0.27666383368E+02  0.21907454183E+03  0.22273582739E+03  0.00000000000E+00 0. -1.
         21    1    1    2  503  501  0.29191868015E+02  0.27666383368E+02  0.89218612519E+02  0.97864982229E+02  0.00000000000E+00 0.  1.
</event>
<event>
 4    1  0.2253948E+005  0.2017872E+02  0.7546771E-02  0.1531321E+00
          2   -1    0    0  502    0  0.00000000000E+00  0.00000000000E+00  0.79267415925E+03  0.79267415925E+03  0.00000000000E+00 0. -1.
         21   -1    0    0  503  502 -0.00000000000E+00 -0.00000000000E+00 -0.27458330666E+01  0.27458330666E+01  0.00000000000E+00 0.  1.
          2    1    1    2  501    0 -0.12664173886E+02  0.15709857135E+02  0.75354858761E+03  0.75381871481E+03  0.00000000000E+00 0. -1.
         21    1    1    2  503  501  0.12664173886E+02 -0.15709857135E+02  0.36379738577E+02  0.41601277508E+02  0.00000000000E+00 0.  1.
</event>
<event>
 4    1  0.2253948E+005  0.2697679E+02  0.7546771E-02  0.1447841E+00
          2   -1    0    0  502    0  0.00000000000E+00  0.00000000000E+00  0.24423289219E+02  0.24423289219E+02  0.00000000000E+00 0. -1.
         21   -1    0    0  503  502 -0.00000000000E+00 -0.00000000000E+00 -0.15272275157E+03  0.15272275157E+03  0.00000000000E+00 0.  1.
          2    1    1    2  501    0  0.18892764004E+02  0.19256445976E+02  0.15314292345E+02  0.31020554369E+02  0.00000000000E+00 0. -1.
         21    1    1    2  503  501 -0.18892764004E+02 -0.19256445976E+02 -0.14361375470E+03  0.14612548642E+03  0.00000000000E+00 0.  1.
</event>
<event>
 4    1  0.2253948E+005  0.2116273E+02  0.7546771E-02  0.1516954E+00
          2   -1    0    0  502    0  0.00000000000E+00  0.00000000000E+00  0.14065390771E+04  0.14065390771E+04  0.00000000000E+00 0.  1.
         21   -1    0    0  503  502 -0.00000000000E+00 -0.00000000000E+00 -0.92998250708E+01  0.92998250708E+01  0.00000000000E+00 0.  1.
          2    1    1    2  501    0 -0.59258396576E+01  0.20316143763E+02  0.13943144153E+04  0.13944750087E+04  0.00000000000E+00 0.  1.
         21    1    1    2  503  501  0.59258396576E+01 -0.20316143763E+02  0.29248367349E+01  0.21363893441E+02  0.00000000000E+00 0.  1.
</event>
<event>
 4    1  0.2253948E+005  0.2101570E+02  0.7546771E-02  0.1519041E+00
          2   -1    0    0  503    0  0.00000000000E+00  0.00000000000E+00  0.52999991463E+02  0.52999991463E+02  0.00000000000E+00 0. -1.
         21   -1    0    0  501  502 -0.00000000000E+00 -0.00000000000E+00 -0.87342572742E+01  0.87342572742E+01  0.00000000000E+00 0. -1.
          2    1    1    2  501    0 -0.20919547139E+02 -0.20080096683E+01  0.15518533265E+02  0.26124402960E+02  0.00000000000E+00 0. -1.
         21    1    1    2  503  502  0.20919547139E+02  0.20080096683E+01  0.28747200923E+02  0.35609845777E+02  0.00000000000E+00 0. -1.
</event>
<event>
 4    1  0.2253948E+005  0.3377191E+02  0.7546771E-02  0.1389409E+00
          2   -1    0    0  503    0  0.00000000000E+00  0.00000000000E+00  0.25763548780E+03  0.25763548780E+03  0.00000000000E+00 0. -1.
         21   -1    0    0  501  502 -0.00000000000E+00 -0.00000000000E+00 -0.52553867187E+02  0.52553867187E+02  0.00000000000E+00 0. -1.
          2    1    1    2  501    0  0.90505071038E+01 -0.32536595660E+02  0.25095948036E+03  0.25322164702E+03  0.00000000000E+00 0. -1.
         21    1    1    2  503  502 -0.90505071038E+01  0.32536595660E+02 -0.45877859748E+02  0.56967707967E+02  0.00000000000E+00 0. -1.
</event>
<event>
 4    1  0.2253948E+005  0.2126240E+02  0.7546771E-02  0.1515551E+00
          2   -1    0    0  502    0  0.00000000000E+00  0.00000000000E+00  0.25402232782E+02  0.25402232782E+02  0.00000000000E+00 0.  1.
         21   -1    0    0  503  502 -0.00000000000E+00 -0.00000000000E+00 -0.43541036194E+02  0.43541036194E+02  0.00000000000E+00 0. -1.
          2    1    1    2  501    0  0.50767124826E+01  0.20647433345E+02  0.17436881275E+02  0.27497897046E+02  0.00000000000E+00 0.  1.
         21    1    1    2  503  501 -0.50767124826E+01 -0.20647433345E+02 -0.35575684688E+02  0.41445371930E+02  0.00000000000E+00 0. -1.
</event>
<event>
 4    1  0.2253948E+005  0.4602193E+02  0.7546771E-02  0.1316407E+00
          2   -1    0    0  502    0  0.00000000000E+00  0.00000000000E+00  0.65961805483E+03  0.65961805483E+03  0.00000000000E+00 0. -1.
         21   -1    0    0  503  502 -0.00000000000E+00 -0.00000000000E+00 -0.32960171963E+02  0.32960171963E+02  0.00000000000E+00 0. -1.
          2    1    1    2  501    0 -0.35052274779E+02 -0.29822066676E+02  0.64231820225E+03  0.64396482091E+03  0.00000000000E+00 0. -1.
         21    1    1    2  503  501  0.35052274779E+02  0.29822066676E+02 -0.15660319386E+02  0.48613405880E+02  0.00000000000E+00 0. -1.
</event>
<event>
 4    1  0.2253948E+005  0.2081973E+02  0.7546771E-02  0.1521854E+00
          2   -1    0    0  502    0  0.00000000000E+00  0.00000000000E+00  0.14393779535E+04  0.14393779535E+04  0.00000000000E+00 0. -1.
         21   -1    0    0  503  502 -0.00000000000E+00 -0.00000000000E+00 -0.30648592679E+00  0.30648592679E+00  0.00000000000E+00 0. -1.
          2    1    1    2  501    0 -0.17580693039E+02  0.11152595826E+02  0.62450826014E+03  0.62485520574E+03  0.00000000000E+00 0. -1.
         21    1    1    2  503  501  0.17580693039E+02 -0.11152595826E+02  0.81456320746E+03  0.81482923371E+03  0.00000000000E+00 0. -1.
</event>
<event>
 4    1  0.2253948E+005  0.2108686E+02  0.7546771E-02  0.1518028E+00
          2   -1    0    0  502    0  0.00000000000E+00  0.00000000000E+00  0.12865347622E+03  0.12865347622E+03  0.00000000000E+00 0.  1.
         21   -1    0    0  503  502 -0.00000000000E+00 -0.00000000000E+00 -0.55806416754E+01  0.55806416754E+01  0.00000000000E+00 0.  1.
          2    1    1    2  501    0 -0.79292409909E+01  0.19539267735E+02  0.10294690196E+03  0.10508434931E+03  0.00000000000E+00 0.  1.
         21    1    1    2  503  501  0.79292409909E+01 -0.19539267735E+02  0.20125932585E+02  0.29149768588E+02  0.00000000000E+00 0.  1.
</event>
<event>
 4    1  0.2253948E+005  0.2039696E+02  0.7546771E-02  0.1528051E+00
          2   -1    0    0  502    0  0.00000000000E+00  0.00000000000E+00  0.14966755677E+02  0.14966755677E+02  0.00000000000E+00 0.  1.
         21   -1    0    0  503  502 -0.00000000000E+00 -0.00000000000E+00 -0.78676777203E+02  0.78676777203E+02  0.00000000000E+00 0. -1.
          2    1    1    2  501    0  0.16328725431E+02 -0.12223284158E+02  0.57976503898E+01  0.21204921595E+02  0.00000000000E+00 0.  1.
         21    1    1    2  503  501 -0.16328725431E+02  0.12223284158E+02 -0.69507671916E+02  0.72438611285E+02  0.00000000000E+00 0. -1.
</event>
<event>
 4    1  0.2253948E+005  0.2151119E+02  0.7546771E-02  0.1512090E+00
          2   -1    0    0  502    0  0.00000000000E+00  0.00000000000E+00  0.79660906741E+02  0.79660906741E+02  0.00000000000E+00 0. -1.
         21   -1    0    0  503  502 -0.00000000000E+00 -0.00000000000E+00 -0.68376567233E+02  0.68376567233E+02  0.00000000000E+00 0. -1.
          2    1    1    2  501    0 -0.16668282597E+01  0.21446513426E+02  0.76447097443E+02  0.79415930153E+02  0.00000000000E+00 0. -1.
         21    1    1    2  503  501  0.16668282597E+01 -0.21446513426E+02 -0.65162757935E+02  0.68621543821E+02  0.00000000000E+00 0. -1.
</event>
<event>
 4    1  0.2253948E+005  0.2629999E+02  0.7546771E-02  0.1454769E+00
          2   -1    0    0  503    0  0.00000000000E+00  0.00000000000E+00  0.34605741037E+03  0.34605741037E+03  0.00000000000E+00 0. -1.
         21   -1    0    0  501  502 -0.00000000000E+00 -0.00000000000E+00 -0.19157829620E+02  0.19157829620E+02  0.00000000000E+00 0.  1.
          2    1    1    2  501    0 -0.17755980595E+02 -0.19401411097E+02  0.33626918074E+03  0.33729608880E+03  0.00000000000E+00 0. -1.
         21    1    1    2  503  502  0.17755980595E+02  0.19401411097E+02 -0.93695999917E+01  0.27919151194E+02  0.00000000000E+00 0.  1.
</event>
<event>
 4    1  0.2253948E+005  0.2132888E+02  0.7546771E-02  0.1514621E+00
          2   -1    0    0  503    0  0.00000000000E+00  0.00000000000E+00  0.50349986488E+01  0.50349986488E+01  0.00000000000E+00 0.  1.
         21   -1    0    0  501  502 -0.00000000000E+00 -0.00000000000E+00 -0.46646310852E+03  0.46646310852E+03  0.00000000000E+00 0. -1.
          2    1    1    2  501    0  0.87710469011E+01  0.19441960938E+02 -0.19024459922E+02  0.28580608534E+02  0.00000000000E+00 0.  1.
         21    1    1    2  503  502 -0.87710469011E+01 -0.19441960938E+02 -0.44240364995E+03  0.44291749864E+03  0.00000000000E+00 0. -1.
</event>
<event>
 4    1  0.2253948E+005  0.2005933E+02  0.7546771E-02  0.1533131E+00
          2   -1    0    0  502    0  0.00000000000E+00  0.00000000000E+00  0.54398951862E+01  0.54398951862E+01  0.00000000000E+00 0. -1.
         21   -1    0    0  503  502 -0.00000000000E+00 -0.00000000000E+00 -0.38316434683E+03  0.38316434683E+03  0.00000000000E+00 0. -1.
          2    1    1    2  501    0  0.43888314253E+01  0.19573322718E+02 -0.14319260990E+02  0.24645852365E+02  0.00000000000E+00 0. -1.
         21    1    1    2  503  501 -0.43888314253E+01 -0.19573322718E+02 -0.36340519066E+03  0.36395838965E+03  0.00000000000E+00 0. -1.
</event>
<event>
 4    1  0.2253948E+005  0.2047382E+02  0.7546771E-02  0.1526912E+00
          2   -1    0    0  503    0  0.00000000000E+00  0.00000000000E+00  0.51436934709E+02  0.51436934709E+02  0.00000000000E+00 0. -1.
         21   -1    0    0  501  502 -0.00000000000E+00 -0.00000000000E+00 -0.16195409101E+02  0.16195409101E+02  0.00000000000E+00 0. -1.
          2    1    1    2  501    0 -0.20458638276E+02 -0.78839476217E+00  0.41456037553E+02  0.46236138420E+02  0.00000000000E+00 0. -1.
         21    1    1    2  503  502  0.20458638276E+02  0.78839476217E+00 -0.62145119452E+01  0.21396205391E+02  0.00000000000E+00 0. -1.
</event>
<event>
 4    1  0.2253948E+005  0.2741313E+02  0.7546771E-02  0.1443502E+00
          2   -1    0    0  503    0  0.00000000000E+00  0.00000000000E+00  0.39540839004E+03  0.39540839004E+03  0.00000000000E+00 0.  1.
         21   -1    0    0  501  502 -0.00000000000E+00 -0.00000000000E+00 -0.27345745311E+01  0.27345745311E+01  0.00000000000E+00 0.  1.
          2    1    1    2  501    0 -0.75966886378E+01  0.26339511541E+02  0.86395140841E+02  0.90639946533E+02  0.00000000000E+00 0.  1.
         21    1    1    2  503  502  0.75966886378E+01 -0.26339511541E+02  0.30627867467E+03  0.30750301804E+03  0.00000000000E+00 0.  1.
</event>
<event>
 4    1  0.2253948E+005  0.3584905E+02  0.7546771E-02  0.1374690E+00
          2   -1    0    0  502    0  0.00000000000E+00  0.00000000000E+00  0.54683801718E+03  0.54683801718E+03  0.00000000000E+00 0. -1.
         21   -1    0    0  503  502 -0.00000000000E+00 -0.00000000000E+00 -0.61765667331E+01  0.61765667331E+01  0.00000000000E+00 0. -1.
          2    1    1    2  501    0 -0.31279584158E+02  0.17514054271E+02  0.48796577045E+03  0.48928084738E+03  0.00000000000E+00 0. -1.
         21    1    1    2  503  501  0.31279584158E+02 -0.17514054271E+02  0.52695679997E+02  0.63733736533E+02  0.00000000000E+00 0. -1.
</event>
<event>
 4    1  0.2253948E+005  0.2717691E+02  0.7546771E-02  0.1445839E+00
          2   -1    0    0  502    0  0.00000000000E+00  0.00000000000E+00  0.22767255718E+04  0.22767255718E+04  0.00000000000E+00 0.  1.
         21   -1    0    0  503  502 -0.00000000000E+00 -0.00000000000E+00 -0.40537344528E+00  0.40537344528E+00  0.00000000000E+00 0.  1.
          2    1    1    2  501    0 -0.16203585854E+02 -0.21818075394E+02  0.16470035609E+04  0.16472277664E+04  0.00000000000E+00 0.  1.
         21    1    1    2  503  501  0.16203585854E+02  0.21818075394E+02  0.62931663746E+03  0.62990317890E+03  0.00000000000E+00 0.  1.
</event>
<event>
 4    1  0.2253948E+005  0.2225658E+02  0.7546771E-02  0.1502050E+00
          2   -1    0    0  503    0  0.00000000000E+00  0.00000000000E+00  0.67137533544E+03  0.67137533544E+03  0.00000000000E+00 0.  1.
         21   -1    0    0  501  502 -0.00000000000E+00 -0.00000000000E+00 -0.75678604749E+00  0.75678604749E+00  0.00000000000E+00 0.  1.
          2    1    1    2  501    0 -0.49052303972E+01 -0.21709307313E+02  0.38850867581E+03  0.38914566230E+03  0.00000000000E+00 0.  1.
         21    1    1    2  503  502  0.49052303972E+01  0.21709307313E+02  0.28210987358E+03  0.28298645918E+03  0.00000000000E+00 0.  1.
</event>
<event>
 4    1  0.2253948E+005  0.3995754E+02  0.7546771E-02  0.1348735E+00
          2   -1    0    0  502    0  0.00000000000E+00  0.00000000000E+00  0.55756940872E+03  0.55756940872E+03  0.00000000000E+00 0.  1.
         21   -1    0    0  503  502 -0.00000000000E+00 -0.00000000000E+00 -0.14550845961E+02  0.14550845961E+02  0.00000000000E+00 0.  1.
          2    1    1    2  501    0  0.35360393200E+02 -0.18607737761E+02  0.52788151022E+03  0.52939162644E+03  0.00000000000E+00 0.  1.
         21    1    1    2  503  501 -0.35360393200E+02  0.18607737761E+02  0.15137052539E+02  0.42728628242E+02  0.00000000000E+00 0.  1.
</event>
<event>
 4    1  0.2253948E+005  0.2281976E+02  0.7546771E-02  0.1494774E+00
          2   -1    0    0  503    0  0.00000000000E+00  0.00000000000E+00  0.88276455481E+03  0.88276455481E+03  0.00000000000E+00 0. -1.
         21   -1    0    0  501  502 -0.00000000000E+00 -0.00000000000E+00 -0.14044429071E+01  0.14044429071E+01  0.00000000000E+00 0.  1.
          2    1    1    2  501    0  0.37928621913E+01  0.22502343486E+02  0.77735491913E+03  0.77768979135E+03  0.00000000000E+00 0. -1.
         21    1    1    2  503  502 -0.37928621913E+01 -0.22502343486E+02  0.10400519277E+03  0.10647920637E+03  0.00000000000E+00 0.  1.
</event>
<event>
 4    1  0.2253948E+005  0.2160983E+02  0.7546771E-02  0.1510733E+00
          2   -1    0    0  503    0  0.00000000000E+00  0.00000000000E+00  0.78643154160E+03  0.78643154160E+03  0.00000000000E+00 0.  1.
         21   -1    0    0  501  502 -0.00000000000E+00 -0.00000000000E+00 -0.71654422728E+00  0.71654422728E+00  0.00000000000E+00 0.  1.
          2    1    1    2  501    0  0.88641903123E+00 -0.21591642930E+02  0.55575018492E+03  0.55617016535E+03  0.00000000000E+00 0.  1.
         21    1    1    2  503  502 -0.88641903123E+00  0.21591642930E+02  0.22996481245E+03  0.23097792048E+03  0.00000000000E+00 0.  1.
</event>
<event>
 4    1  0.2253948E+005  0.2447641E+02  0.7546771E-02  0.1474747E+00
          2   -1    0    0  503    0  0.00000000000E+00  0.00000000000E+00  0.19728936033E+03  0.19728936033E+03  0.00000000000E+00 0. -1.
         21   -1    0    0  501  502 -0.00000000000E+00 -0.00000000000E+00 -0.31208369268E+01  0.31208369268E+01  0.00000000000E+00 0. -1.
          2    1    1    2  501    0 -0.23887597179E+02 -0.53364364856E+01  0.11354416828E+03  0.11615236977E+03  0.00000000000E+00 0. -1.
         21    1    1    2  503  502  0.23887597179E+02  0.53364364856E+01  0.80624355125E+02  0.84257827486E+02  0.00000000000E+00 0. -1.
</event>
<event>
 4    1  0.2253948E+005  0.2063760E+02  0.7546771E-02  0.1524502E+00
          2   -1    0    0  503    0  0.00000000000E+00  0.00000000000E+00  0.11233766616E+02  0.11233766616E+02  0.00000000000E+00 0.  1.
         21   -1    0    0  501  502 -0.00000000000E+00 -0.00000000000E+00 -0.46044266150E+02  0.46044266150E+02  0.00000000000E+00 0.  1.
          2    1    1    2  501    0  0.13166538407E+02 -0.15891910622E+02 -0.53704717246E+01  0.21324927277E+02  0.00000000000E+00 0.  1.
         21    1    1    2  503  502 -0.13166538407E+02  0.15891910622E+02 -0.29440027810E+02  0.35953105489E+02  0.00000000000E+00 0.  1.
</event>
<event>
 4    1  0.2253948E+005  0.2436199E+02  0.7546771E-02  0.1476069E+00
          2   -1    0    0  502    0  0.00000000000E+00  0.00000000000E+00  0.37986645029E+03  0.37986645029E+03  0.00000000000E+00 0.  1.
         21   -1    0    0  503  502 -0.00000000000E+00 -0.00000000000E+00 -0.65462581775E+01  0.65462581775E+01  0.00000000000E+00 0. -1.
          2    1    1    2  501    0  0.82165466920E+01 -0.22934577666E+02  0.35524058813E+03  0.35607496675E+03  0.00000000000E+00 0.  1.
         21    1    1    2  503  501 -0.82165466920E+01  0.22934577666E+02  0.18079603984E+02  0.30337741717E+02  0.00000000000E+00 0. -1.
</event>
<event>
 4    1  0.2253948E+005  0.2223090E+02  0.7546771E-02  0.1502388E+00
          2   -1    0    0  503    0  0.00000000000E+00  0.00000000000E+00  0.85034414743E+02  0.85034414743E+02  0.00000000000E+00 0. -1.
         21   -1    0    0  501  502 -0.00000000000E+00 -0.00000000000E+00 -0.60581101736E+01  0.60581101736E+01  0.00000000000E+00 0. -1.
          2    1    1    2  501    0  0.20143273992E+02  0.94053821591E+01  0.48669889537E+02  0.53506736475E+02  0.00000000000E+00 0. -1.
         21    1    1    2  503  502 -0.20143273992E+02 -0.94053821591E+01  0.30306415033E+02  0.37585788442E+02  0.00000000000E+00 0. -1.
</event>
<event>
 4    1  0.2253948E+005  0.3986923E+02  0.7546771E-02  0.1349254E+00
          2   -1    0    0  503    0  0.00000000000E+00  0.00000000000E+00  0.12429151798E+04  0.12429151798E+04  0.00000000000E+00 0.  1.
         21   -1    0    0  501  502 -0.00000000000E+00 -0.00000000000E+00 -0.24448171914E+01  0.24448171914E+01  0.00000000000E+00 0.  1.
          2    1    1    2  501    0  0.33020931384E+02 -0.22342192577E+02  0.10502435262E+04  0.10510000094E+04  0.00000000000E+00 0.  1.
         21    1    1    2  503  502 -0.33020931384E+02  0.22342192577E+02  0.19022683646E+03  0.19435998762E+03  0.00000000000E+00 0.  1.
</event>
<event>
 4    1  0.2253948E+005  0.3167647E+02  0.7546771E-02  0.1405567E+00
          2   -1    0    0  503    0  0.00000000000E+00  0.00000000000E+00  0.12499683382E+03  0.12499683382E+03  0.00000000000E+00 0.  1.
         21   -1    0    0  501  502 -0.00000000000E+00 -0.00000000000E+00 -0.11583187063E+02  0.11583187063E+02  0.00000000000E+00 0.  1.
          2    1    1    2  501    0 -0.92701874356E+01  0.30289637386E+02  0.94543374473E+02  0.99708816886E+02  0.00000000000E+00 0.  1.
         21    1    1    2  503  502  0.92701874356E+01 -0.30289637386E+02  0.18870272281E+02  0.36871203995E+02  0.00000000000E+00 0.  1.
</event>
<event>
 4    1  0.2253948E+005  0.2152688E+02  0.7546771E-02  0.1511874E+00
          2   -1    0    0  502    0  0.00000000000E+00  0.00000000000E+00  0.55849220126E+03  0.55849220126E+03  0.00000000000E+00 0. -1.
         21   -1    0    0  503  502 -0.00000000000E+00 -0.00000000000E+00 -0.21940319708E+02  0.21940319708E+02  0.00000000000E+00 0. -1.
          2    1    1    2  501    0 -0.21471602331E+02  0.15417400188E+01  0.55295156654E+03  0.55337043796E+03  0.00000000000E+00 0. -1.
         21    1    1    2  503  501  0.21471602331E+02 -0.15417400188E+01 -0.16399684988E+02  0.27062083007E+02  0.00000000000E+00 0. -1.
</event>
<event>
 4    1  0.2253948E+005  0.2386519E+02  0.7546771E-02  0.1481911E+00
          2   -1    0    0  503    0  0.00000000000E+00  0.00000000000E+00  0.77326183356E+02  0.77326183356E+02  0.00000000000E+00 0.  1.
         21   -1    0    0  501  502 -0.00000000000E+00 -0.00000000000E+00 -0.26964935299E+03  0.26964935299E+03  0.00000000000E+00 0. -1.
          2    1    1    2  501    0  0.17469046079E+02 -0.16259750972E+02  0.74940355616E+02  0.78648610747E+02  0.00000000000E+00 0.  1.
         21    1    1    2  503  502 -0.17469046079E+02  0.16259750972E+02 -0.26726352525E+03  0.26832692560E+03  0.00000000000E+00 0. -1.
</event>
<event>
 4    1  0.2253948E+005  0.9844219E+02  0.7546771E-02  0.1166535E+00
          2   -1    0    0  503    0  0.00000000000E+00  0.00000000000E+00  0.17485379018E+04  0.17485379018E+04  0.00000000000E+00 0. -1.
         21   -1    0    0  501  502 -0.00000000000E+00 -0.00000000000E+00 -0.26746515510E+02  0.26746515510E+02  0.00000000000E+00 0. -1.
          2    1    1    2  501    0  0.42979783241E+02  0.88564122224E+02  0.16512389882E+04  0.16541708079E+04  0.00000000000E+00 0. -1.
         21    1    1    2  503  502 -0.42979783241E+02 -0.88564122224E+02  0.70552398106E+02  0.12111360944E+03  0.00000000000E+00 0. -1.
</event>
<event>
 4    1  0.2253948E+005  0.2020011E+02  0.7546771E-02  0.1530998E+00
          2   -1    0    0  503    0  0.00000000000E+00  0.00000000000E+00  0.11028449282E+03  0.11028449282E+03  0.00000000000E+00 0.  1.
         21   -1    0    0  501  502 -0.00000000000E+00 -0.00000000000E+00 -0.20347314046E+02  0.20347314046E+02  0.00000000000E+00 0. -1.
          2    1    1    2  501    0 -0.17794683361E+02  0.95600111958E+01  0.10404831001E+03  0.10599101559E+03  0.00000000000E+00 0.  1.
         21    1    1    2  503  502  0.17794683361E+02 -0.95600111958E+01 -0.14111131235E+02  0.24640791276E+02  0.00000000000E+00 0. -1.
</event>
<event>
 4    1  0.2253948E+005  0.2671206E+02  0.7546771E-02  0.1450522E+00
          2   -1    0    0  503    0  0.00000000000E+00  0.00000000000E+00  0.10473412352E+04  0.10473412352E+04  0.00000000000E+00 0. -1.
         21   -1    0    0  501  502 -0.00000000000E+00 -0.00000000000E+00 -0.18284255398E+02  0.18284255398E+02  0.00000000000E+00 0. -1.
          2    1    1    2  501    0 -0.93778180510E+01  0.25011805890E+02  0.10373205601E+04  0.10376644344E+04  0.00000000000E+00 0. -1.
         21    1    1    2  503  502  0.93778180510E+01 -0.25011805890E+02 -0.82635803252E+01  0.27961056222E+02  0.00000000000E+00 0. -1.
</event>
<event>
 4    1  0.2253948E+005  0.3256014E+02  0.7546771E-02  0.1398578E+00
          2   -1    0    0  502    0  0.00000000000E+00  0.00000000000E+00  0.51578342195E+02  0.51578342195E+02  0.00000000000E+00 0.  1.
         21   -1    0    0  503  502 -0.00000000000E+00 -0.00000000000E+00 -0.20250732336E+03  0.20250732336E+03  0.00000000000E+00 0.  1.
          2    1    1    2  501    0 -0.81806660115E+01  0.31515699485E+02  0.44958471124E+02  0.55510600215E+02  0.00000000000E+00 0.  1.
         21    1    1    2  503  501  0.81806660115E+01 -0.31515699485E+02 -0.19588745229E+03  0.19857506534E+03  0.00000000000E+00 0.  1.
</event>
<event>
 4    1  0.2253948E+005  0.2415209E+02  0.7546771E-02  0.1478517E+00
          2   -1    0    0  503    0  0.00000000000E+00  0.00000000000E+00  0.82020885531E+02  0.82020885531E+02  0.00000000000E+00 0. -1.
         21   -1    0    0  501  502 -0.00000000000E+00 -0.00000000000E+00 -0.31297218351E+02  0.31297218351E+02  0.00000000000E+00 0. -1.
          2    1    1    2  501    0 -0.23987618586E+02  0.28138642411E+01  0.75169065918E+02  0.78953860883E+02  0.00000000000E+00 0. -1.
         21    1    1    2  503  502  0.23987618586E+02 -0.28138642411E+01 -0.24445398738E+02  0.34364242998E+02  0.00000000000E+00 0. -1.
</event>
<event>
 4    1  0.2253948E+005  0.2664300E+02  0.7546771E-02  0.1451228E+00
          2   -1    0    0  502    0  0.00000000000E+00  0.00000000000E+00  0.83054957111E+03  0.83054957111E+03  0.00000000000E+00 0.  1.
         21   -1    0    0  503  502 -0.00000000000E+00 -0.00000000000E+00 -0.21156887583E+01  0.21156887583E+01  0.00000000000E+00 0.  1.
          2    1    1    2  501    0 -0.15682718428E+02 -0.21538385464E+02  0.73563814609E+03  0.73612046004E+03  0.00000000000E+00 0.  1.
         21    1    1    2  503  501  0.15682718428E+02  0.21538385464E+02  0.92795736264E+02  0.96544799831E+02  0.00000000000E+00 0.  1.
</event>
<event>
 4    1  0.2253948E+005  0.2050142E+02  0.7546771E-02  0.1526504E+00
          2   -1    0    0  503    0  0.00000000000E+00  0.00000000000E+00  0.11515724644E+04  0.11515724644E+04  0.00000000000E+00 0. -1.
         21   -1    0    0  501  502 -0.00000000000E+00 -0.00000000000E+00 -0.18259830573E+01  0.18259830573E+01  0.00000000000E+00 0. -1.
          2    1    1    2  501    0  0.13137589003E+02  0.15738868156E+02  0.10907258308E+04  0.10909184874E+04  0.00000000000E+00 0. -1.
         21    1    1    2  503  502 -0.13137589003E+02 -0.15738868156E+02  0.59020650484E+02  0.62479959981E+02  0.00000000000E+00 0. -1.
</event>
<event>
 4    1  0.2253948E+005  0.2895416E+02  0.7546771E-02  0.1428908E+00
          2   -1    0    0  503    0  0.00000000000E+00  0.00000000000E+00  0.52930950570E+01  0.52930950570E+01  0.00000000000E+00 0.  1.
         21   -1    0    0  501  502 -0.00000000000E+00 -0.00000000000E+00 -0.22684212853E+03  0.22684212853E+03  0.00000000000E+00 0.  1.
          2    1    1    2  501    0 -0.74172246182E+01  0.27988004198E+02 -0.47012729055E+02  0.55213587940E+02  0.00000000000E+00 0.  1.
         21    1    1    2  503  502  0.74172246182E+01 -0.27988004198E+02 -0.17453630442E+03  0.17692163564E+03  0.00000000000E+00 0.  1.
</event>
<event>
 4    1  0.2253948E+005  0.6072321E+02  0.7546771E-02  0.1257395E+00
          2   -1    0    0  503    0  0.00000000000E+00  0.00000000000E+00  0.11449234844E+04  0.11449234844E+04  0.00000000000E+00 0. -1.
         21   -1    0    0  501  502 -0.00000000000E+00 -0.00000000000E+00 -0.68640548799E+01  0.68640548799E+01  0.00000000000E+00 0. -1.
          2    1    1    2  501    0  0.40704000622E+02 -0.45060981541E+02  0.98860549838E+03  0.99046864623E+03  0.00000000000E+00 0. -1.
         21    1    1    2  503  502 -0.40704000622E+02  0.45060981541E+02  0.14945393115E+03  0.16131889307E+03  0.00000000000E+00 0. -1.
</event>
<event>
 4    1  0.2253948E+005  0.3341414E+02  0.7546771E-02  0.1392069E+00
          2   -1    0    0  502    0  0.00000000000E+00  0.00000000000E+00  0.15771066936E+02  0.15771066936E+02  0.00000000000E+00 0. -1.
         21   -1    0    0  503  502 -0.00000000000E+00 -0.00000000000E+00 -0.18405444903E+03  0.18405444903E+03  0.00000000000E+00 0.  1.
          2    1    1    2  501    0 -0.32423224214E+02 -0.80770949899E+01 -0.57651754360E+01  0.33907848350E+02  0.00000000000E+00 0. -1.
         21    1    1    2  503  501  0.32423224214E+02  0.80770949899E+01 -0.16251820666E+03  0.16591766761E+03  0.00000000000E+00 0.  1.
</event>
<event>
 4    1  0.2253948E+005  0.3620683E+02  0.7546771E-02  0.1372272E+00
          2   -1    0    0  502    0  0.00000000000E+00  0.00000000000E+00  0.74009179988E+03  0.74009179988E+03  0.00000000000E+00 0.  1.
         21   -1    0    0  503  502 -0.00000000000E+00 -0.00000000000E+00 -0.90947692837E+01  0.90947692837E+01  0.00000000000E+00 0.  1.
          2    1    1    2  501    0 -0.12709716884E+02  0.33902763402E+02  0.70164005825E+03  0.70257363003E+03  0.00000000000E+00 0.  1.
         21    1    1    2  503  501  0.12709716884E+02 -0.33902763402E+02  0.29356972348E+02  0.46612939137E+02  0.00000000000E+00 0.  1.
</event>
<event>
 4    1  0.2253948E+005  0.4767195E+02  0.7546771E-02  0.1308594E+00
          2   -1    0    0  502    0  0.00000000000E+00  0.00000000000E+00  0.10617582470E+04  0.10617582470E+04  0.00000000000E+00 0.  1.
         21   -1    0    0  503  502 -0.00000000000E+00 -0.00000000000E+00 -0.16448872600E+02  0.16448872600E+02  0.00000000000E+00 0. -1.
          2    1    1    2  501    0 -0.31332112572E+02 -0.35929290799E+02  0.10254605940E+04  0.10265680908E+04  0.00000000000E+00 0.  1.
         21    1    1    2  503  501  0.31332112572E+02  0.35929290799E+02  0.19848780465E+02  0.51639028859E+02  0.00000000000E+00 0. -1.
</event>
<event>
 4    1  0.2253948E+005  0.2814934E+02  0.7546771E-02  0.1436392E+00
          2   -1    0    0  503    0  0.00000000000E+00  0.00000000000E+00  0.36560352723E+03  0.36560352723E+03  0.00000000000E+00 0.  1.
         21   -1    0    0  501  502 -0.00000000000E+00 -0.00000000000E+00 -0.25790002662E+01  0.25790002662E+01  0.00000000000E+00 0. -1.
          2    1    1    2  501    0  0.15752095293E+02 -0.23329310620E+02  0.25506176177E+03  0.25661038084E+03  0.00000000000E+00 0.  1.
         21    1    1    2  503  502 -0.15752095293E+02  0.23329310620E+02  0.10796276520E+03  0.11157214665E+03  0.00000000000E+00 0. -1.
</event>
<event>
 4    1  0.2253948E+005  0.3084174E+02  0.7546771E-02  0.1412420E+00
          2   -1    0    0  503    0  0.00000000000E+00  0.00000000000E+00  0.10237421334E+02  0.10237421334E+02  0.00000000000E+00 0. -1.
         21   -1    0    0  501  502 -0.00000000000E+00 -0.00000000000E+00 -0.96690248245E+02  0.96690248245E+02  0.00000000000E+00 0. -1.
          2    1    1    2  501    0  0.18899549970E+00  0.30841165787E+02 -0.32662534512E+02  0.44922760235E+02  0.00000000000E+00 0. -1.
         21    1    1    2  503  502 -0.18899549970E+00 -0.30841165787E+02 -0.53790292399E+02  0.62004909344E+02  0.00000000000E+00 0. -1.
</event>
<event>
 4    1  0.2253948E+005  0.2009127E+02  0.7546771E-02  0.1532645E+00
          2   -1    0    0  503    0  0.00000000000E+00  0.00000000000E+00  0.85704518262E+03  0.85704518262E+03  0.00000000000E+00 0.  1.
         21   -1    0    0  501  502 -0.00000000000E+00 -0.00000000000E+00 -0.47682402724E+00  0.47682402724E+00  0.00000000000E+00 0.  1.
          2    1    1    2  501    0  0.19489886833E+02 -0.48788690312E+01  0.47571373398E+03  0.47613781172E+03  0.00000000000E+00 0.  1.
         21    1    1    2  503  502 -0.19489886833E+02  0.48788690312E+01  0.38085462461E+03  0.38138419493E+03  0.00000000000E+00 0.  1.
</event>
<event>
 4    1  0.2253948E+005  0.2501395E+02  0.7546771E-02  0.1468647E+00
          2   -1    0    0  503    0  0.00000000000E+00  0.00000000000E+00  0.60892975475E+03  0.60892975475E+03  0.00000000000E+00 0. -1.
         21   -1    0    0  501  502 -0.00000000000E+00 -0.00000000000E+00 -0.10466894322E+01  0.10466894322E+01  0.00000000000E+00 0. -1.
          2    1    1    2  501    0  0.85848992654E+01  0.23494625395E+02  0.26268574193E+03  0.26387401716E+03  0.00000000000E+00 0. -1.
         21    1    1    2  503  502 -0.85848992654E+01 -0.23494625395E+02  0.34519732339E+03  0.34610242703E+03  0.00000000000E+00 0. -1.
</event>
<event>
 4    1  0.2253948E+005  0.3458857E+02  0.7546771E-02  0.1383479E+00
          2   -1    0    0  502    0  0.00000000000E+00  0.00000000000E+00  0.14393292878E+03  0.14393292878E+03  0.00000000000E+00 0.  1.
         21   -1    0    0  503  502 -0.00000000000E+00 -0.00000000000E+00 -0.93821082596E+02  0.93821082596E+02  0.00000000000E+00 0.  1.
          2    1    1    2  501    0  0.14893675125E+02  0.31217748382E+02  0.13854492613E+03  0.14279728964E+03  0.00000000000E+00 0.  1.
         21    1    1    2  503  501 -0.14893675125E+02 -0.31217748382E+02 -0.88433079949E+02  0.94956721731E+02  0.00000000000E+00 0.  1.
</event>
<event>
 4    1  0.2253948E+005  0.2026973E+02  0.7546771E-02  0.1529952E+00
          2   -1    0    0  503    0  0.00000000000E+00  0.00000000000E+00  0.80584435973E+03  0.80584435973E+03  0.00000000000E+00 0.  1.
         21   -1    0    0  501  502 -0.00000000000E+00 -0.00000000000E+00 -0.16107711872E+01  0.16107711872E+01  0.00000000000E+00 0. -1.
          2    1    1    2  501    0  0.13699861205E+02 -0.14939063897E+02  0.73588816505E+03  0.73616727262E+03  0.00000000000E+00 0.  1.
         21    1    1    2  503  502 -0.13699861205E+02  0.14939063897E+02  0.68345423501E+02  0.71287858298E+02  0.00000000000E+00 0. -1.
</event>
<event>
 4    1  0.2253948E+005  0.2239712E+02  0.7546771E-02  0.1500211E+00
          2   -1    0    0  502    0  0.00000000000E+00  0.00000000000E+00  0.20355913958E+02  0.20355913958E+02  0.00000000000E+00 0. -1.
         21   -1    0    0  503  502 -0.00000000000E+00 -0.00000000000E+00 -0.38860423784E+02  0.38860423784E+02  0.00000000000E+00 0. -1.
          2    1    1    2  501    0  0.22396587658E+02  0.15398106550E+00  0.86566153925E+01  0.24011827064E+02  0.00000000000E+00 0. -1.
         21    1    1    2  503  501 -0.22396587658E+02 -0.15398106550E+00 -0.27161125219E+02  0.35204510678E+02  0.00000000000E+00 0. -1.
</event>
<event>
 4    1  0.2253948E+005  0.2166955E+02  0.7546771E-02  0.1509916E+00
          2   -1    0    0  503    0  0.00000000000E+00  0.00000000000E+00  0.11752868739E+03  0.11752868739E+03  0.00000000000E+00 0.  1.
         21   -1    0    0  501  502 -0.00000000000E+00 -0.00000000000E+00 -0.17395055792E+03  0.17395055792E+03  0.00000000000E+00 0. -1.
          2    1    1    2  501    0 -0.52616478868E+00  0.21663165786E+02  0.11584526374E+03  0.11785454905E+03  0.00000000000E+00 0.  1.
         21    1    1    2  503  502  0.52616478868E+00 -0.21663165786E+02 -0.17226713427E+03  0.17362469626E+03  0.00000000000E+00 0. -1.
</event>
<event>
 4    1  0.2253948E+005  0.4234311E+02  0.7546771E-02  0.1335276E+00
          2   -1    0    0  502    0  0.00000000000E+00  0.00000000000E+00  0.15942980822E+04  0.15942980822E+04  0.00000000000E+00 0.  1.
         21   -1    0    0  503  502 -0.00000000000E+00 -0.00000000000E+00 -0.66808740011E+01  0.66808740011E+01  0.00000000000E+00 0.  1.
          2    1    1    2  501    0 -0.42139053242E+02 -0.41520387727E+01  0.15238223200E+04  0.15244105097E+04  0.00000000000E+00 0.  1.
         21    1    1    2  503  501  0.42139053242E+02  0.41520387727E+01  0.63794888154E+02  0.76568446430E+02  0.00000000000E+00 0.  1.
</event>
<event>
 4    1  0.2253948E+005  0.2944711E+02  0.7546771E-02  0.1424463E+00
          2   -1    0    0  503    0  0.00000000000E+00  0.00000000000E+00  0.72726262725E+02  0.72726262725E+02  0.00000000000E+00 0. -1.
         21   -1    0    0  501  502 -0.00000000000E+00 -0.00000000000E+00 -0.16257761134E+02  0.16257761134E+02  0.00000000000E+00 0.  1.
          2    1    1    2  501    0  0.24540026578E+02  0.16276347358E+02  0.51207501011E+02  0.59070640318E+02  0.00000000000E+00 0. -1.
         21    1    1    2  503  502 -0.24540026578E+02 -0.16276347358E+02  0.52610005798E+01  0.29913383541E+02  0.00000000000E+00 0.  1.
</event>
<event>
 4    1  0.2253948E+005  0.2340906E+02  0.7546771E-02  0.1487424E+00
          2   -1    0    0  503    0  0.00000000000E+00  0.00000000000E+00  0.12692272961E+04  0.12692272961E+04  0.00000000000E+00 0. -1.
         21   -1    0    0  501  502 -0.00000000000E+00 -0.00000000000E+00 -0.88968435664E+00  0.88968435664E+00  0.00000000000E+00 0. -1.
          2    1    1    2  501    0 -0.15800361647E+02 -0.17272313201E+02  0.10897849474E+04  0.10900363369E+04  0.00000000000E+00 0. -1.
         21    1    1    2  503  502  0.15800361647E+02  0.17272313201E+02  0.17855266431E+03  0.18008064350E+03  0.00000000000E+00 0. -1.
</event>
<event>
 4    1  0.2253948E+005  0.2046148E+02  0.7546771E-02  0.1527094E+00
          2   -1    0    0  502    0  0.00000000000E+00  0.00000000000E+00  0.30848751087E+03  0.30848751087E+03  0.00000000000E+00 0.  1.
         21   -1    0    0  503  502 -0.00000000000E+00 -0.00000000000E+00 -0.16417512918E+01  0.16417512918E+01  0.00000000000E+00 0. -1.
          2    1    1    2  501    0  0.20358756124E+02  0.20477605226E+01  0.21798185132E+03  0.21894008263E+03  0.00000000000E+00 0.  1.
         21    1    1    2  503  501 -0.20358756124E+02 -0.20477605226E+01  0.88863908258E+02  0.91189179539E+02  0.00000000000E+00 0. -1.
</event>
<event>
 4    1  0.2253948E+005  0.3362561E+02  0.7546771E-02  0.1390492E+00
          2   -1    0    0  503    0  0.00000000000E+00  0.00000000000E+00  0.20124598141E+03  0.20124598141E+03  0.00000000000E+00 0. -1.
         21   -1    0    0  501  502 -0.00000000000E+00 -0.00000000000E+00 -0.92611023058E+01  0.92611023058E+01  0.00000000000E+00 0. -1.
          2    1    1    2  501    0  0.32399978288E+01  0.33469153917E+02  0.16200351306E+03  0.16545639937E+03  0.00000000000E+00 0. -1.
         21    1    1    2  503  502 -0.32399978288E+01 -0.33469153917E+02  0.29981366045E+02  0.45050684343E+02  0.00000000000E+00 0. -1.
</event>
<event>
 4    1  0.2253948E+005  0.3244040E+02  0.7546771E-02  0.1399510E+00
          2   -1    0    0  503    0  0.00000000000E+00  0.00000000000E+00  0.17353836923E+04  0.17353836923E+04  0.00000000000E+00 0.  1.
         21   -1    0    0  501  502 -0.00000000000E+00 -0.00000000000E+00 -0.93345453361E+00  0.93345453361E+00  0.00000000000E+00 0.  1.
          2    1    1    2  501    0  0.12640090098E+02 -0.29876538701E+02  0.13810867556E+04  0.13814677000E+04  0.00000000000E+00 0.  1.
         21    1    1    2  503  502 -0.12640090098E+02  0.29876538701E+02  0.35336348212E+03  0.35484944687E+03  0.00000000000E+00 0.  1.
</event>
<event>
 4    1  0.2253948E+005  0.2002311E+02  0.7546771E-02  0.1533683E+00
          2   -1    0    0  503    0  0.00000000000E+00  0.00000000000E+00  0.13099947970E+02  0.13099947970E+02  0.00000000000E+00 0. -1.
         21   -1    0    0  501  502 -0.00000000000E+00 -0.00000000000E+00 -0.36551231414E+02  0.36551231414E+02  0.00000000000E+00 0. -1.
          2    1    1    2  501    0  0.19497178340E+02 -0.45590539270E+01 -0.17125866780E+01  0.20096215790E+02  0.00000000000E+00 0. -1.
         21    1    1    2  503  502 -0.19497178340E+02  0.45590539270E+01 -0.21738696766E+02  0.29554963594E+02  0.00000000000E+00 0. -1.
</event>
<event>
 4    1  0.2253948E+005  0.2370232E+02  0.7546771E-02  0.1483863E+00
          2   -1    0    0  503    0  0.00000000000E+00  0.00000000000E+00  0.14710268654E+01  0.14710268654E+01  0.00000000000E+00 0. -1.
         21   -1    0    0  501  502 -0.00000000000E+00 -0.00000000000E+00 -0.49098296977E+03  0.49098296977E+03  0.00000000000E+00 0.  1.
          2    1    1    2  501    0 -0.60864108732E+01  0.22907541228E+02 -0.12870171777E+03  0.13086608422E+03  0.00000000000E+00 0. -1.
         21    1    1    2  503  502  0.60864108732E+01 -0.22907541228E+02 -0.36081022514E+03  0.36158791242E+03  0.00000000000E+00 0.  1.
</event>
<event>
 4    1  0.2253948E+005  0.2249975E+02  0.7546771E-02  0.1498877E+00
          2   -1    0    0  503    0  0.00000000000E+00  0.00000000000E+00  0.27625045306E+03  0.27625045306E+03  0.00000000000E+00 0. -1.
         21   -1    0    0  501  502 -0.00000000000E+00 -0.00000000000E+00 -0.23835041865E+01  0.23835041865E+01  0.00000000000E+00 0. -1.
          2    1    1    2  501    0  0.18237766291E+02  0.13176599461E+02  0.20391566711E+03  0.20515320662E+03  0.00000000000E+00 0. -1.
         21    1    1    2  503  502 -0.18237766291E+02 -0.13176599461E+02  0.69951281766E+02  0.73480750632E+02  0.00000000000E+00 0. -1.
</event>
<event>
 4    1  0.2253948E+005  0.2720586E+02  0.7546771E-02  0.1445551E+00
          2   -1    0    0  502    0  0.00000000000E+00  0.00000000000E+00  0.19337464948E+04  0.19337464948E+04  0.00000000000E+00 0. -1.
         21   -1    0    0  503  502 -0.00000000000E+00 -0.00000000000E+00 -0.12332112530E+01  0.12332112530E+01  0.00000000000E+00 0. -1.
          2    1    1    2  501    0  0.95616327973E+01 -0.25470257325E+02  0.17696951684E+04  0.17699042765E+04  0.00000000000E+00 0. -1.
         21    1    1    2  503  501 -0.95616327973E+01  0.25470257325E+02  0.16281811514E+03  0.16507542957E+03  0.00000000000E+00 0. -1.
</event>
<event>
 4    1  0.2253948E+005  0.3721596E+02  0.7546771E-02  0.1365621E+00
          2   -1    0    0  503    0  0.00000000000E+00  0.00000000000E+00  0.61159171602E+01  0.61159171602E+01  0.00000000000E+00 0. -1.
         21   -1    0    0  501  502 -0.00000000000E+00 -0.00000000000E+00 -0.25768793458E+03  0.25768793458E+03  0.00000000000E+00 0.  1.
          2    1    1    2  501    0 -0.27016550805E+02 -0.25595578086E+02 -0.79870821881E+02  0.88115695667E+02  0.00000000000E+00 0. -1.
         21    1    1    2  503  502  0.27016550805E+02  0.25595578086E+02 -0.17170119554E+03  0.17568815607E+03  0.00000000000E+00 0.  1.
</event>
<event>
 4    1  0.2253948E+005  0.2142845E+02  0.7546771E-02  0.1513235E+00
          2   -1    0    0  502    0  0.00000000000E+00  0.00000000000E+00  0.95130487484E+02  0.95130487484E+02  0.00000000000E+00 0.  1.
         21   -1    0    0  503  502 -0.00000000000E+00 -0.00000000000E+00 -0.66991458934E+01  0.66991458934E+01  0.00000000000E+00 0. -1.
          2    1    1    2  501    0 -0.20133848034E+02 -0.73353108786E+01  0.71132513218E+02  0.74290060298E+02  0.00000000000E+00 0.  1.
         21    1    1    2  503  501  0.20133848034E+02  0.73353108786E+01  0.17298828372E+02  0.27539573079E+02  0.00000000000E+00 0. -1.
</event>
<event>
 4    1  0.2253948E+005  0.2014755E+02  0.7546771E-02  0.1531792E+00
          2   -1    0    0  502    0  0.00000000000E+00  0.00000000000E+00  0.55044077193E+03  0.55044077193E+03  0.00000000000E+00 0.  1.
         21   -1    0    0  503  502 -0.00000000000E+00 -0.00000000000E+00 -0.19491469767E+01  0.19491469767E+01  0.00000000000E+00 0. -1.
          2    1    1    2  501    0  0.17383719463E+02 -0.10184790304E+02  0.49201182823E+03  0.49242416956E+03  0.00000000000E+00 0.  1.
         21    1    1    2  503  501 -0.17383719463E+02  0.10184790304E+02  0.56479796724E+02  0.59965749340E+02  0.00000000000E+00 0. -1.
</event>
<event>
 4    1  0.2253948E+005  0.2218434E+02  0.7546771E-02  0.1503002E+00
          2   -1    0    0  503    0  0.00000000000E+00  0.00000000000E+00  0.57474714280E+01  0.57474714280E+01  0.00000000000E+00 0.  1.
         21   -1    0    0  501  502 -0.00000000000E+00 -0.00000000000E+00 -0.97914508664E+02  0.97914508664E+02  0.00000000000E+00 0. -1.
          2    1    1    2  501    0  0.21052371226E+02 -0.69958992392E+01 -0.27723258889E+02  0.35506675764E+02  0.00000000000E+00 0.  1.
         21    1    1    2  503  502 -0.21052371226E+02  0.69958992392E+01 -0.64443778347E+02  0.68155304328E+02  0.00000000000E+00 0. -1.
</event>
<event>
 4    1  0.2253948E+005  0.2321603E+02  0.7546771E-02  0.1489803E+00
          2   -1    0    0  503    0  0.00000000000E+00  0.00000000000E+00  0.12320415355E+03  0.12320415355E+03  0.00000000000E+00 0. -1.
         21   -1    0    0  501  502 -0.00000000000E+00 -0.00000000000E+00 -0.42980679821E+02  0.42980679821E+02  0.00000000000E+00 0.  1.
          2    1    1    2  501    0 -0.22200126645E+02 -0.67925414919E+01  0.11886197964E+03  0.12110802800E+03  0.00000000000E+00 0. -1.
         21    1    1    2  503  502  0.22200126645E+02  0.67925414919E+01 -0.38638505912E+02  0.45076805367E+02  0.00000000000E+00 0.  1.
</event>
<event>
 4    1  0.2253948E+005  0.2383917E+02  0.7546771E-02  0.1482221E+00
          2   -1    0    0  503    0  0.00000000000E+00  0.00000000000E+00  0.92052511355E+03  0.92052511355E+03  0.00000000000E+00 0.  1.
         21   -1    0    0  501  502 -0.00000000000E+00 -0.00000000000E+00 -0.10378035839E+01  0.10378035839E+01  0.00000000000E+00 0. -1.
          2    1    1    2  501    0 -0.14734327443E+02 -0.18740478944E+02  0.75302561165E+03  0.75340286551E+03  0.00000000000E+00 0.  1.
         21    1    1    2  503  502  0.14734327443E+02  0.18740478944E+02  0.16646169832E+03  0.16816005163E+03  0.00000000000E+00 0. -1.
</event>
<event>
 4    1  0.2253948E+005  0.4206633E+02  0.7546771E-02  0.1336785E+00
          2   -1    0    0  502    0  0.00000000000E+00  0.00000000000E+00  0.19946559595E+03  0.19946559595E+03  0.00000000000E+00 0. -1.
         21   -1    0    0  503  502 -0.00000000000E+00 -0.00000000000E+00 -0.34886585907E+02  0.34886585907E+02  0.00000000000E+00 0.  1.
          2    1    1    2  501    0 -0.41256333265E+02 -0.82153197241E+01  0.18347579465E+03  0.18823640385E+03  0.00000000000E+00 0. -1.
         21    1    1    2  503  501  0.41256333265E+02  0.82153197241E+01 -0.18896784607E+02  0.46115778006E+02  0.00000000000E+00 0.  1.
</event>
<event>
 4    1  0.2253948E+005  0.2060277E+02  0.7546771E-02  0.1525013E+00
          2   -1    0    0  502    0  0.00000000000E+00  0.00000000000E+00  0.12830290209E+04  0.12830290209E+04  0.00000000000E+00 0. -1.
         21   -1    0    0  503  502 -0.00000000000E+00 -0.00000000000E+00 -0.13248258993E+01  0.13248258993E+01  0.00000000000E+00 0. -1.
          2    1    1    2  501    0  0.17075763000E+02 -0.11527896546E+02  0.11970968844E+04  0.11972741644E+04  0.00000000000E+00 0. -1.
         21    1    1    2  503  501 -0.17075763000E+02  0.11527896546E+02  0.84607310559E+02  0.87079682365E+02  0.00000000000E+00 0. -1.
</event>
<event>
 4    1  0.2253948E+005  0.4647955E+02  0.7546771E-02  0.1314203E+00
          2   -1    0    0  502    0  0.00000000000E+00  0.00000000000E+00  0.47401224465E+03  0.47401224465E+03  0.00000000000E+00 0. -1.
         21   -1    0    0  503  502 -0.00000000000E+00 -0.00000000000E+00 -0.12007336617E+02  0.12007336617E+02  0.00000000000E+00 0.  1.
          2    1    1    2  501    0 -0.33065474987E+02  0.32665321571E+02  0.42241546803E+03  0.42496491208E+03  0.00000000000E+00 0. -1.
         21    1    1    2  503  501  0.33065474987E+02 -0.32665321571E+02  0.39589440000E+02  0.61054669183E+02  0.00000000000E+00 0.  1.
</event>
<event>
 4    1  0.2253948E+005  0.2158536E+02  0.7546771E-02  0.1511069E+00
          2   -1    0    0  502    0  0.00000000000E+00  0.00000000000E+00  0.15715818320E+03  0.15715818320E+03  0.00000000000E+00 0.  1.
         21   -1    0    0  503  502 -0.00000000000E+00 -0.00000000000E+00 -0.11397710169E+02  0.11397710169E+02  0.00000000000E+00 0. -1.
          2    1    1    2  501    0  0.12807900331E+02 -0.17374847033E+02  0.14537327945E+03  0.14696706433E+03  0.00000000000E+00 0.  1.
         21    1    1    2  503  501 -0.12807900331E+02  0.17374847033E+02  0.38719358020E+00  0.21588829037E+02  0.00000000000E+00 0. -1.
</event>
<event>
 4    1  0.2253948E+005  0.2718474E+02  0.7546771E-02  0.1445761E+00
          2   -1    0    0  502    0  0.00000000000E+00  0.00000000000E+00  0.27520914925E+03  0.27520914925E+03  0.00000000000E+00 0.  1.
         21   -1    0    0  503  502 -0.00000000000E+00 -0.00000000000E+00 -0.24420740453E+02  0.24420740453E+02  0.00000000000E+00 0.  1.
          2    1    1    2  501    0 -0.20585030980E+02 -0.17755743866E+02  0.26673264030E+03  0.26811436244E+03  0.00000000000E+00 0.  1.
         21    1    1    2  503  501  0.20585030980E+02  0.17755743866E+02 -0.15944231506E+02  0.31515527268E+02  0.00000000000E+00 0.  1.
</event>
<event>
 4    1  0.2253948E+005  0.3385220E+02  0.7546771E-02  0.1388817E+00
          2   -1    0    0  502    0  0.00000000000E+00  0.00000000000E+00  0.77832122984E+03  0.77832122984E+03  0.00000000000E+00 0.  1.
         21   -1    0    0  503  502 -0.00000000000E+00 -0.00000000000E+00 -0.16501021567E+01  0.16501021567E+01  0.00000000000E+00 0.  1.
          2    1    1    2  501    0 -0.33445265458E+02 -0.52331237800E+01  0.51632814866E+03  0.51743669030E+03  0.00000000000E+00 0.  1.
         21    1    1    2  503  501  0.33445265458E+02  0.52331237800E+01  0.26034297902E+03  0.26253464170E+03  0.00000000000E+00 0.  1.
</event>
<event>
 4    1  0.2253948E+005  0.3958328E+02  0.7546771E-02  0.1350945E+00
          2   -1    0    0  502    0  0.00000000000E+00  0.00000000000E+00  0.11019351003E+04  0.11019351003E+04  0.00000000000E+00 0. -1.
         21   -1    0    0  503  502 -0.00000000000E+00 -0.00000000000E+00 -0.26850074485E+01  0.26850074485E+01  0.00000000000E+00 0.  1.
          2    1    1    2  501    0 -0.15112655992E+02 -0.36584746214E+02  0.92844356945E+03  0.92928698349E+03  0.00000000000E+00 0. -1.
         21    1    1    2  503  501  0.15112655992E+02  0.36584746214E+02  0.17080652342E+03  0.17533312428E+03  0.00000000000E+00 0.  1.
</event>
<event>
 4    1  0.2253948E+005  0.2165731E+02  0.7546771E-02  0.1510084E+00
          2   -1    0    0  503    0  0.00000000000E+00  0.00000000000E+00  0.92456005841E+02  0.92456005841E+02  0.00000000000E+00 0. -1.
         21   -1    0    0  501  502 -0.00000000000E+00 -0.00000000000E+00 -0.63429174084E+01  0.63429174084E+01  0.00000000000E+00 0. -1.
          2    1    1    2  501    0  0.50234953151E+01 -0.21066641557E+02  0.65159365822E+02  0.68664269063E+02  0.00000000000E+00 0. -1.
         21    1    1    2  503  502 -0.50234953151E+01  0.21066641557E+02  0.20953722611E+02  0.30134654187E+02  0.00000000000E+00 0. -1.
</event>
<event>
 4    1  0.2253948E+005  0.2031829E+02  0.7546771E-02  0.1529224E+00
          2   -1    0    0  502    0  0.00000000000E+00  0.00000000000E+00  0.14515007132E+02  0.14515007132E+02  0.00000000000E+00 0.  1.
         21   -1    0    0  503  502 -0.00000000000E+00 -0.00000000000E+00 -0.50666694203E+03  0.50666694203E+03  0.00000000000E+00 0.  1.
          2    1    1    2  501    0  0.82435501421E+01  0.18570860711E+02  0.70952243857E+01  0.21521505421E+02  0.00000000000E+00 0.  1.
         21    1    1    2  503  501 -0.82435501421E+01 -0.18570860711E+02 -0.49924715929E+03  0.49966044375E+03  0.00000000000E+00 0.  1.
</event>
<event>
 4    1  0.2253948E+005  0.2155003E+02  0.7546771E-02  0.1511555E+00
          2   -1    0    0  503    0  0.00000000000E+00  0.00000000000E+00  0.12588995728E+04  0.12588995728E+04  0.00000000000E+00 0. -1.
         21   -1    0    0  501  502 -0.00000000000E+00 -0.00000000000E+00 -0.14668491287E+03  0.14668491287E+03  0.00000000000E+00 0. -1.
          2    1    1    2  501    0  0.13656871689E+02 -0.16670146262E+02  0.12580152932E+04  0.12581998577E+04  0.00000000000E+00 0. -1.
         21    1    1    2  503  502 -0.13656871689E+02  0.16670146262E+02 -0.14580063325E+03  0.14738462802E+03  0.00000000000E+00 0. -1.
</event>
<event>
 4    1  0.2253948E+005  0.2908068E+02  0.7546771E-02  0.1427757E+00
          2   -1    0    0  503    0  0.00000000000E+00  0.00000000000E+00  0.19723501817E+04  0.19723501817E+04  0.00000000000E+00 0.  1.
         21   -1    0    0  501  502 -0.00000000000E+00 -0.00000000000E+00 -0.55782195802E+00  0.55782195802E+00  0.00000000000E+00 0.  1.
          2    1    1    2  501    0  0.11266988150E+02  0.26809345705E+02  0.14603676427E+04  0.14606571595E+04  0.00000000000E+00 0.  1.
         21    1    1    2  503  502 -0.11266988150E+02 -0.26809345705E+02  0.51142471714E+03  0.51225084416E+03  0.00000000000E+00 0.  1.
</event>
<event>
 4    1  0.2253948E+005  0.2067775E+02  0.7546771E-02  0.1523916E+00
          2   -1    0    0  503    0  0.00000000000E+00  0.00000000000E+00  0.38765195987E+02  0.38765195987E+02  0.00000000000E+00 0.  1.
         21   -1    0    0  501  502 -0.00000000000E+00 -0.00000000000E+00 -0.30185030229E+02  0.30185030229E+02  0.00000000000E+00 0. -1.
          2    1    1    2  501    0  0.11135372291E+02  0.17423341322E+02  0.31753493058E+02  0.37892659715E+02  0.00000000000E+00 0.  1.
         21    1    1    2  503  502 -0.11135372291E+02 -0.17423341322E+02 -0.23173327300E+02  0.31057566502E+02  0.00000000000E+00 0. -1.
</event>
<event>
 4    1  0.2253948E+005  0.2677271E+02  0.7546771E-02  0.1449905E+00
          2   -1    0    0  502    0  0.00000000000E+00  0.00000000000E+00  0.13137924706E+04  0.13137924706E+04  0.00000000000E+00 0. -1.
         21   -1    0    0  503  502 -0.00000000000E+00 -0.00000000000E+00 -0.19563475871E+01  0.19563475871E+01  0.00000000000E+00 0. -1.
          2    1    1    2  501    0 -0.12203172738E+02  0.23829829719E+02  0.12145783488E+04  0.12148733859E+04  0.00000000000E+00 0. -1.
         21    1    1    2  503  501  0.12203172738E+02 -0.23829829719E+02  0.97257774176E+02  0.10087543233E+03  0.00000000000E+00 0. -1.
</event>
<event>
 4    1  0.2253948E+005  0.3099322E+02  0.7546771E-02  0.1411157E+00
          2   -1    0    0  503    0  0.00000000000E+00  0.00000000000E+00  0.76915173699E+03  0.76915173699E+03  0.00000000000E+00 0. -1.
         21   -1    0    0  501  502 -0.00000000000E+00 -0.00000000000E+00 -0.45599391321E+01  0.45599391321E+01  0.00000000000E+00 0.  1.
          2    1    1    2  501    0  0.74027350445E+01  0.30096163026E+02  0.71194583097E+03  0.71262012724E+03  0.00000000000E+00 0. -1.
         21    1    1    2  503  502 -0.74027350445E+01 -0.30096163026E+02  0.52645966890E+02  0.61091548883E+02  0.00000000000E+00 0.  1.
</event>
<event>
 4    1  0.2253948E+005  0.2350915E+02  0.7546771E-02  0.1486202E+00
          2   -1    0    0  503    0  0.00000000000E+00  0.00000000000E+00  0.35181469459E+03  0.35181469459E+03  0.00000000000E+00 0.  1.
         21   -1    0    0  501  502 -0.00000000000E+00 -0.00000000000E+00 -0.21614203117E+01  0.21614203117E+01  0.00000000000E+00 0.  1.
          2    1    1    2  501    0 -0.88909871088E+01 -0.21763057164E+02  0.82319231249E+02  0.85610374034E+02  0.00000000000E+00 0.  1.
         21    1    1    2  503  502  0.88909871088E+01  0.21763057164E+02  0.26733404303E+03  0.26836574086E+03  0.00000000000E+00 0.  1.
</event>
<event>
 4    1  0.2253948E+005  0.2432676E+02  0.7546771E-02  0.1476478E+00
          2   -1    0    0  503    0  0.00000000000E+00  0.00000000000E+00  0.25265939263E+03  0.25265939263E+03  0.00000000000E+00 0. -1.
         21   -1    0    0  501  502 -0.00000000000E+00 -0.00000000000E+00 -0.32244105536E+01  0.32244105536E+01  0.00000000000E+00 0. -1.
          2    1    1    2  501    0  0.24319403917E+02  0.59830711555E+00  0.19163835410E+03  0.19317621526E+03  0.00000000000E+00 0. -1.
         21    1    1    2  503  502 -0.24319403917E+02 -0.59830711555E+00  0.57796627971E+02  0.62707587923E+02  0.00000000000E+00 0. -1.
</event>
<event>
 4    1  0.2253948E+005  0.3994095E+02  0.7546771E-02  0.1348832E+00
          2   -1    0    0  502    0  0.00000000000E+00  0.00000000000E+00  0.22474937787E+03  0.22474937787E+03  0.00000000000E+00 0.  1.
         21   -1    0    0  503  502 -0.00000000000E+00 -0.00000000000E+00 -0.14047031724E+02  0.14047031724E+02  0.00000000000E+00 0. -1.
          2    1    1    2  501    0  0.52964898629E+01  0.39588217535E+02  0.18932935237E+03  0.19349646881E+03  0.00000000000E+00 0.  1.
         21    1    1    2  503  501 -0.52964898629E+01 -0.39588217535E+02  0.21372993782E+02  0.45299940791E+02  0.00000000000E+00 0. -1.
</event>
<event>
 4    1  0.2253948E+005  0.2151883E+02  0.7546771E-02  0.1511985E+00
          2   -1    0    0  503    0  0.00000000000E+00  0.00000000000E+00  0.12936070778E+04  0.12936070778E+04  0.00000000000E+00 0. -1.
         21   -1    0    0  501  502 -0.00000000000E+00 -0.00000000000E+00 -0.17764476843E+01  0.17764476843E+01  0.00000000000E+00 0.  1.
          2    1    1    2  501    0 -0.16896210394E+02  0.13325846914E+02  0.12246838127E+04  0.12248728511E+04  0.00000000000E+00 0. -1.
         21    1    1    2  503  502  0.16896210394E+02 -0.13325846914E+02  0.67146817401E+02  0.70510674431E+02  0.00000000000E+00 0.  1.
</event>
<event>
 4    1  0.2253948E+005  0.3685621E+02  0.7546771E-02  0.1367963E+00
          2   -1    0    0  503    0  0.00000000000E+00  0.00000000000E+00  0.21599204202E+03  0.21599204202E+03  0.00000000000E+00 0. -1.
         21   -1    0    0  501  502 -0.00000000000E+00 -0.00000000000E+00 -0.21946274324E+02  0.21946274324E+02  0.00000000000E+00 0.  1.
          2    1    1    2  501    0 -0.23844549316E+02  0.28103699141E+02  0.19751029339E+03  0.20091962679E+03  0.00000000000E+00 0. -1.
         21    1    1    2  503  502  0.23844549316E+02 -0.28103699141E+02 -0.34645256931E+01  0.37018689547E+02  0.00000000000E+00 0.  1.
</event>
<event>
 4    1  0.2253948E+005  0.3985820E+02  0.7546771E-02  0.1349319E+00
          2   -1    0    0  503    0  0.00000000000E+00  0.00000000000E+00  0.96268916771E+03  0.96268916771E+03  0.00000000000E+00 0. -1.
         21   -1    0    0  501  502 -0.00000000000E+00 -0.00000000000E+00 -0.21005396939E+01  0.21005396939E+01  0.00000000000E+00 0. -1.
          2    1    1    2  501    0  0.36867595584E+02 -0.15147826729E+02  0.70364330493E+03  0.70477129399E+03  0.00000000000E+00 0. -1.
         21    1    1    2  503  502 -0.36867595584E+02  0.15147826729E+02  0.25694532309E+03  0.26001841342E+03  0.00000000000E+00 0. -1.
</event>
<event>
 4    1  0.2253948E+005  0.3061385E+02  0.7546771E-02  0.1414336E+00
          2   -1    0    0  502    0  0.00000000000E+00  0.00000000000E+00  0.27513827844E+03  0.27513827844E+03  0.00000000000E+00 0.  1.
         21   -1    0    0  503  502 -0.00000000000E+00 -0.00000000000E+00 -0.15753361643E+02  0.15753361643E+02  0.00000000000E+00 0.  1.
          2    1    1    2  501    0 -0.28921219261E+02 -0.10038468992E+02  0.25845696221E+03  0.26026372989E+03  0.00000000000E+00 0.  1.
         21    1    1    2  503  501  0.28921219261E+02  0.10038468992E+02  0.92795459371E+00  0.30627910196E+02  0.00000000000E+00 0.  1.
</event>
<event>
 4    1  0.2253948E+005  0.2554081E+02  0.7546771E-02  0.1462843E+00
          2   -1    0    0  503    0  0.00000000000E+00  0.00000000000E+00  0.36637765591E+03  0.36637765591E+03  0.00000000000E+00 0.  1.
         21   -1    0    0  501  502 -0.00000000000E+00 -0.00000000000E+00 -0.12008259454E+02  0.12008259454E+02  0.00000000000E+00 0.  1.
          2    1    1    2  501    0  0.19604296873E+02 -0.16370837629E+02  0.35178916135E+03  0.35271510716E+03  0.00000000000E+00 0.  1.
         21    1    1    2  503  502 -0.19604296873E+02  0.16370837629E+02  0.25802351124E+01  0.25670808203E+02  0.00000000000E+00 0.  1.
</event>
<event>
 4    1  0.2253948E+005  0.2074076E+02  0.7546771E-02  0.1522999E+00
          2   -1    0    0  502    0  0.00000000000E+00  0.00000000000E+00  0.41081886969E+01  0.41081886969E+01  0.00000000000E+00 0. -1.
         21   -1    0    0  503  502 -0.00000000000E+00 -0.00000000000E+00 -0.83863114346E+03  0.83863114346E+03  0.00000000000E+00 0.  1.
          2    1    1    2  501    0  0.15014223117E+02  0.14309161600E+02 -0.23075007131E+02  0.31026359045E+02  0.00000000000E+00 0. -1.
         21    1    1    2  503  501 -0.15014223117E+02 -0.14309161600E+02 -0.81144794763E+03  0.81171297311E+03  0.00000000000E+00 0.  1.
</event>
<event>
 4    1  0.2253948E+005  0.2172432E+02  0.7546771E-02  0.1509170E+00
          2   -1    0    0  502    0  0.00000000000E+00  0.00000000000E+00  0.68741920545E+03  0.68741920545E+03  0.00000000000E+00 0. -1.
         21   -1    0    0  503  502 -0.00000000000E+00 -0.00000000000E+00 -0.10642738701E+01  0.10642738701E+01  0.00000000000E+00 0. -1.
          2    1    1    2  501    0  0.70674266545E+01 -0.20542584313E+02  0.54825835204E+03  0.54868858825E+03  0.00000000000E+00 0. -1.
         21    1    1    2  503  501 -0.70674266545E+01  0.20542584313E+02  0.13809657953E+03  0.13979489107E+03  0.00000000000E+00 0. -1.
</event>
<event>
 4    1  0.2253948E+005  0.2005627E+02  0.7546771E-02  0.1533177E+00
          2   -1    0    0  503    0  0.00000000000E+00  0.00000000000E+00  0.52949760691E+03  0.52949760691E+03  0.00000000000E+00 0.  1.
         21   -1    0    0  501  502 -0.00000000000E+00 -0.00000000000E+00 -0.85096306519E+00  0.85096306519E+00  0.00000000000E+00 0.  1.
          2    1    1    2  501    0  0.39144498873E+01 -0.19670561742E+02  0.35116893941E+03  0.35174120873E+03  0.00000000000E+00 0.  1.
         21    1    1    2  503  502 -0.39144498873E+01  0.19670561742E+02  0.17747770444E+03  0.17860736124E+03  0.00000000000E+00 0.  1.
</event>
<event>
 4    1  0.2253948E+005  0.2022044E+02  0.7546771E-02  0.1530692E+00
          2   -1    0    0  502    0  0.00000000000E+00  0.00000000000E+00  0.12691686931E+04  0.12691686931E+04  0.00000000000E+00 0. -1.
         21   -1    0    0  503  502 -0.00000000000E+00 -0.00000000000E+00 -0.13759024218E+01  0.13759024218E+01  0.00000000000E+00 0.  1.
          2    1    1    2  501    0  0.20183929382E+02 -0.12145218150E+01  0.11898452566E+04  0.11900170590E+04  0.00000000000E+00 0. -1.
         21    1    1    2  503  501 -0.20183929382E+02  0.12145218150E+01  0.77947534058E+02  0.80527536497E+02  0.00000000000E+00 0.  1.
</event>
<event>
 4    1  0.2253948E+005  0.2089253E+02  0.7546771E-02  0.1520805E+00
          2   -1    0    0  503    0  0.00000000000E+00  0.00000000000E+00  0.11032132625E+03  0.11032132625E+03  0.00000000000E+00 0.  1.
         21   -1    0    0  501  502 -0.00000000000E+00 -0.00000000000E+00 -0.14019085525E+02  0.14019085525E+02  0.00000000000E+00 0. -1.
          2    1    1    2  501    0 -0.92329915744E+01 -0.18741652308E+02  0.10082254166E+03  0.10296447238E+03  0.00000000000E+00 0.  1.
         21    1    1    2  503  502  0.92329915744E+01  0.18741652308E+02 -0.45203009361E+01  0.21375939399E+02  0.00000000000E+00 0. -1.
</event>
<event>
 4    1  0.2253948E+005  0.2309540E+02  0.7546771E-02  0.1491304E+00
          2   -1    0    0  502    0  0.00000000000E+00  0.00000000000E+00  0.25481411933E+03  0.25481411933E+03  0.00000000000E+00 0. -1.
         21   -1    0    0  503  502 -0.00000000000E+00 -0.00000000000E+00 -0.27114507227E+02  0.27114507227E+02  0.00000000000E+00 0.  1.
          2    1    1    2  501    0  0.22926348691E+02  0.27892998889E+01  0.24926350868E+03  0.25033116949E+03  0.00000000000E+00 0. -1.
         21    1    1    2  503  501 -0.22926348691E+02 -0.27892998889E+01 -0.21563896571E+02  0.31597457073E+02  0.00000000000E+00 0.  1.
</event>
<event>
 4    1  0.2253948E+005  0.4271150E+02  0.7546771E-02  0.1333289E+00
          2   -1    0    0  502    0  0.00000000000E+00  0.00000000000E+00  0.23803156801E+03  0.23803156801E+03  0.00000000000E+00 0.  1.
         21   -1    0    0  503  502 -0.00000000000E+00 -0.00000000000E+00 -0.18570670328E+02  0.18570670328E+02  0.00000000000E+00 0. -1.
          2    1    1    2  501    0 -0.15854021379E+02 -0.39660082140E+02  0.20805521008E+03  0.21239407372E+03  0.00000000000E+00 0.  1.
         21    1    1    2  503  501  0.15854021379E+02  0.39660082140E+02  0.11405687601E+02  0.44208164618E+02  0.00000000000E+00 0. -1.
</event>
<event>
 4    1  0.2253948E+005  0.2015135E+02  0.7546771E-02  0.1531734E+00
          2   -1    0    0  503    0  0.00000000000E+00  0.00000000000E+00  0.27402794220E+03  0.27402794220E+03  0.00000000000E+00 0. -1.
         21   -1    0    0  501  502 -0.00000000000E+00 -0.00000000000E+00 -0.39237416309E+01  0.39237416309E+01  0.00000000000E+00 0.  1.
          2    1    1    2  501    0  0.15339729970E+02 -0.13067890350E+02  0.24468716075E+03  0.24551554678E+03  0.00000000000E+00 0. -1.
         21    1    1    2  503  502 -0.15339729970E+02  0.13067890350E+02  0.25417039818E+02  0.32436137052E+02  0.00000000000E+00 0.  1.
</event>
<event>
 4    1  0.2253948E+005  0.2745046E+02  0.7546771E-02  0.1443135E+00
          2   -1    0    0  502    0  0.00000000000E+00  0.00000000000E+00  0.36794047124E+03  0.36794047124E+03  0.00000000000E+00 0.  1.
         21   -1    0    0  503  502 -0.00000000000E+00 -0.00000000000E+00 -0.16298798727E+02  0.16298798727E+02  0.00000000000E+00 0.  1.
          2    1    1    2  501    0 -0.11760265932E+02 -0.24803702830E+02  0.35546543349E+03  0.35652377471E+03  0.00000000000E+00 0.  1.
         21    1    1    2  503  501  0.11760265932E+02  0.24803702830E+02 -0.38237609832E+01  0.27715495249E+02  0.00000000000E+00 0.  1.
</event>
<event>
 4    1  0.2253948E+005  0.2553198E+02  0.7546771E-02  0.1462939E+00
          2   -1    0    0  503    0  0.00000000000E+00  0.00000000000E+00  0.15636280165E+04  0.15636280165E+04  0.00000000000E+00 0.  1.
         21   -1    0    0  501  502 -0.00000000000E+00 -0.00000000000E+00 -0.64076959679E+00  0.64076959679E+00  0.00000000000E+00 0.  1.
          2    1    1    2  501    0  0.59143329225E+01  0.24837529790E+02  0.12437942242E+04  0.12440562505E+04  0.00000000000E+00 0.  1.
         21    1    1    2  503  502 -0.59143329225E+01 -0.24837529790E+02  0.31919302277E+03  0.32021253568E+03  0.00000000000E+00 0.  1.
</event>
<event>
 4    1  0.2253948E+005  0.2559929E+02  0.7546771E-02  0.1462210E+00
          2   -1    0    0  502    0  0.00000000000E+00  0.00000000000E+00  0.11477944753E+04  0.11477944753E+04  0.00000000000E+00 0. -1.
         21   -1    0    0  503  502 -0.00000000000E+00 -0.00000000000E+00 -0.93549811132E+00  0.93549811132E+00  0.00000000000E+00 0. -1.
          2    1    1    2  501    0  0.24695134902E+02 -0.67434497104E+01  0.93197875010E+03  0.93233026039E+03  0.00000000000E+00 0. -1.
         21    1    1    2  503  501 -0.24695134902E+02  0.67434497104E+01  0.21488022708E+03  0.21639971302E+03  0.00000000000E+00 0. -1.
</event>
<event>
 4    1  0.2253948E+005  0.3437158E+02  0.7546771E-02  0.1385036E+00
          2   -1    0    0  502    0  0.00000000000E+00  0.00000000000E+00  0.67811208946E+02  0.67811208946E+02  0.00000000000E+00 0.  1.
         21   -1    0    0  503  502 -0.00000000000E+00 -0.00000000000E+00 -0.14086145384E+03  0.14086145384E+03  0.00000000000E+00 0. -1.
          2    1    1    2  501    0  0.26026176001E+02 -0.22450923408E+02  0.61146072910E+02  0.70144479693E+02  0.00000000000E+00 0.  1.
         21    1    1    2  503  501 -0.26026176001E+02  0.22450923408E+02 -0.13419631780E+03  0.13852818309E+03  0.00000000000E+00 0. -1.
</event>
<event>
 4    1  0.2253948E+005  0.2117862E+02  0.7546771E-02  0.1516730E+00
          2   -1    0    0  503    0  0.00000000000E+00  0.00000000000E+00  0.92972563353E+03  0.92972563353E+03  0.00000000000E+00 0.  1.
         21   -1    0    0  501  502 -0.00000000000E+00 -0.00000000000E+00 -0.99460503639E+02  0.99460503639E+02  0.00000000000E+00 0. -1.
          2    1    1    2  501    0 -0.17425990644E+02 -0.12036144108E+02  0.92847609008E+03  0.92871760173E+03  0.00000000000E+00 0.  1.
         21    1    1    2  503  502  0.17425990644E+02  0.12036144108E+02 -0.98210960181E+02  0.10046853545E+03  0.00000000000E+00 0. -1.
</event>
<event>
 4    1  0.2253948E+005  0.2051792E+02  0.7546771E-02  0.1526260E+00
          2   -1    0    0  502    0  0.00000000000E+00  0.00000000000E+00  0.73056455238E+01  0.73056455238E+01  0.00000000000E+00 0. -1.
         21   -1    0    0  503  502 -0.00000000000E+00 -0.00000000000E+00 -0.94819675231E+02  0.94819675231E+02  0.00000000000E+00 0.  1.
          2    1    1    2  501    0  0.15124935997E+02 -0.13864390199E+02 -0.11775661029E+02  0.23656948180E+02  0.00000000000E+00 0. -1.
         21    1    1    2  503  501 -0.15124935997E+02  0.13864390199E+02 -0.75738368678E+02  0.78468372574E+02  0.00000000000E+00 0.  1.
</event>
<event>
 4    1  0.2253948E+005  0.2153339E+02  0.7546771E-02  0.1511784E+00
          2   -1    0    0  503    0  0.00000000000E+00  0.00000000000E+00  0.11751783080E+04  0.11751783080E+04  0.00000000000E+00 0. -1.
         21   -1    0    0  501  502 -0.00000000000E+00 -0.00000000000E+00 -0.13555354673E+02  0.13555354673E+02  0.00000000000E+00 0. -1.
          2    1    1    2  501    0 -0.12018678858E+02 -0.17867242579E+02  0.11664640534E+04  0.11666627940E+04  0.00000000000E+00 0. -1.
         21    1    1    2  503  502  0.12018678858E+02  0.17867242579E+02 -0.48410999940E+01  0.22070868765E+02  0.00000000000E+00 0. -1.
</event>
<event>
 4    1  0.2253948E+005  0.2361718E+02  0.7546771E-02  0.1484890E+00
          2   -1    0    0  503    0  0.00000000000E+00  0.00000000000E+00  0.13400746606E+03  0.13400746606E+03  0.00000000000E+00 0. -1.
         21   -1    0    0  501  502 -0.00000000000E+00 -0.00000000000E+00 -0.83945569095E+01  0.83945569095E+01  0.00000000000E+00 0. -1.
          2    1    1    2  501    0 -0.38487526683E+01  0.23301468262E+02  0.11336287675E+03  0.11579686155E+03  0.00000000000E+00 0. -1.
         21    1    1    2  503  502  0.38487526683E+01 -0.23301468262E+02  0.12250032401E+02  0.26605161418E+02  0.00000000000E+00 0. -1.
</event>
<event>
 4    1  0.2253948E+005  0.2076377E+02  0.7546771E-02  0.1522665E+00
          2   -1    0    0  503    0  0.00000000000E+00  0.00000000000E+00  0.12805175847E+03  0.12805175847E+03  0.00000000000E+00 0.  1.
         21   -1    0    0  501  502 -0.00000000000E+00 -0.00000000000E+00 -0.12038824525E+03  0.12038824525E+03  0.00000000000E+00 0. -1.
          2    1    1    2  501    0  0.19949566825E+02  0.57575023377E+01  0.12630242328E+03  0.12799779754E+03  0.00000000000E+00 0.  1.
         21    1    1    2  503  502 -0.19949566825E+02 -0.57575023377E+01 -0.11863891005E+03  0.12044220618E+03  0.00000000000E+00 0. -1.
</event>
<event>
 4    1  0.2253948E+005  0.2751299E+02  0.7546771E-02  0.1442522E+00
          2   -1    0    0  503    0  0.00000000000E+00  0.00000000000E+00  0.78294383589E+03  0.78294383589E+03  0.00000000000E+00 0.  1.
         21   -1    0    0  501  502 -0.00000000000E+00 -0.00000000000E+00 -0.99418811147E+00  0.99418811147E+00  0.00000000000E+00 0.  1.
          2    1    1    2  501    0 -0.14962600144E+02  0.23088634673E+02  0.45601071479E+03  0.45683994622E+03  0.00000000000E+00 0.  1.
         21    1    1    2  503  502  0.14962600144E+02 -0.23088634673E+02  0.32593893299E+03  0.32709807779E+03  0.00000000000E+00 0.  1.
</event>
<event>
 4    1  0.2253948E+005  0.2361828E+02  0.7546771E-02  0.1484877E+00
          2   -1    0    0  503    0  0.00000000000E+00  0.00000000000E+00  0.17441363407E+03  0.17441363407E+03  0.00000000000E+00 0. -1.
         21   -1    0    0  501  502 -0.00000000000E+00 -0.00000000000E+00 -0.81732422297E+01  0.81732422297E+01  0.00000000000E+00 0. -1.
          2    1    1    2  501    0  0.22188033303E+02 -0.80940941598E+01  0.15434600412E+03  0.15614260203E+03  0.00000000000E+00 0. -1.
         21    1    1    2  503  502 -0.22188033303E+02  0.80940941598E+01  0.11894387718E+02  0.26444274264E+02  0.00000000000E+00 0. -1.
</event>
<event>
 4    1  0.2253948E+005  0.4030545E+02  0.7546771E-02  0.1346705E+00
          2   -1    0    0  502    0  0.00000000000E+00  0.00000000000E+00  0.15506269251E+04  0.15506269251E+04  0.00000000000E+00 0.  1.
         21   -1    0    0  503  502 -0.00000000000E+00 -0.00000000000E+00 -0.58262624618E+01  0.58262624618E+01  0.00000000000E+00 0.  1.
          2    1    1    2  501    0  0.10941343061E+02 -0.38791965982E+02  0.14771932014E+04  0.14777429695E+04  0.00000000000E+00 0.  1.
         21    1    1    2  503  501 -0.10941343061E+02  0.38791965982E+02  0.67607461185E+02  0.78710218019E+02  0.00000000000E+00 0.  1.
</event>
<event>
 4    1  0.2253948E+005  0.2147652E+02  0.7546771E-02  0.1512569E+00
          2   -1    0    0  503    0  0.00000000000E+00  0.00000000000E+00  0.13557126136E+04  0.13557126136E+04  0.00000000000E+00 0. -1.
         21   -1    0    0  501  502 -0.00000000000E+00 -0.00000000000E+00 -0.14944312216E+01  0.14944312216E+01  0.00000000000E+00 0.  1.
          2    1    1    2  501    0 -0.89502619715E+00 -0.21457862254E+02  0.12734858867E+04  0.12736669676E+04  0.00000000000E+00 0. -1.
         21    1    1    2  503  502  0.89502619715E+00  0.21457862254E+02  0.80732295751E+02  0.83540077218E+02  0.00000000000E+00 0.  1.
</event>
<event>
 4    1  0.2253948E+005  0.2259407E+02  0.7546771E-02  0.1497659E+00
          2   -1    0    0  502    0  0.00000000000E+00  0.00000000000E+00  0.14020793282E+04  0.14020793282E+04  0.00000000000E+00 0. -1.
         21   -1    0    0  503  502 -0.00000000000E+00 -0.00000000000E+00 -0.67136348895E+01  0.67136348895E+01  0.00000000000E+00 0. -1.
          2    1    1    2  501    0 -0.15444915277E+02  0.16490799233E+02  0.13827125491E+04  0.13828971347E+04  0.00000000000E+00 0. -1.
         21    1    1    2  503  501  0.15444915277E+02 -0.16490799233E+02  0.12653144225E+02  0.25895828351E+02  0.00000000000E+00 0. -1.
</event>
<event>
 4    1  0.2253948E+005  0.2547837E+02  0.7546771E-02  0.1463522E+00
          2   -1    0    0  503    0  0.00000000000E+00  0.00000000000E+00  0.33153613248E+03  0.33153613248E+03  0.00000000000E+00 0. -1.
         21   -1    0    0  501  502 -0.00000000000E+00 -0.00000000000E+00 -0.68813871503E+01  0.68813871503E+01  0.00000000000E+00 0. -1.
          2    1    1    2  501    0 -0.11824683796E+02 -0.22568213504E+02  0.30545282935E+03  0.30651358594E+03  0.00000000000E+00 0. -1.
         21    1    1    2  503  502  0.11824683796E+02  0.22568213504E+02  0.19201915979E+02  0.31903933690E+02  0.00000000000E+00 0. -1.
</event>
<event>
 4    1  0.2253948E+005  0.2053584E+02  0.7546771E-02  0.1525996E+00
          2   -1    0    0  502    0  0.00000000000E+00  0.00000000000E+00  0.12659034699E+04  0.12659034699E+04  0.00000000000E+00 0.  1.
         21   -1    0    0  503  502 -0.00000000000E+00 -0.00000000000E+00 -0.20008324774E+01  0.20008324774E+01  0.00000000000E+00 0.  1.
          2    1    1    2  501    0  0.15398625611E+02  0.13586864040E+02  0.12107257829E+04  0.12108999306E+04  0.00000000000E+00 0.  1.
         21    1    1    2  503  501 -0.15398625611E+02 -0.13586864040E+02  0.53176854545E+02  0.57004371801E+02  0.00000000000E+00 0.  1.
</event>
<event>
 4    1  0.2253948E+005  0.2127455E+02  0.7546771E-02  0.1515381E+00
          2   -1    0    0  503    0  0.00000000000E+00  0.00000000000E+00  0.59406872477E+03  0.59406872477E+03  0.00000000000E+00 0.  1.
         21   -1    0    0  501  502 -0.00000000000E+00 -0.00000000000E+00 -0.92000404278E+01  0.92000404278E+01  0.00000000000E+00 0.  1.
          2    1    1    2  501    0 -0.21269610528E+02  0.45839842230E+00  0.58130935567E+03  0.58169852454E+03  0.00000000000E+00 0.  1.
         21    1    1    2  503  502  0.21269610528E+02 -0.45839842230E+00  0.35593286628E+01  0.21570240649E+02  0.00000000000E+00 0.  1.
</event>
<event>
 4    1  0.2253948E+005  0.4791415E+02  0.7546771E-02  0.1307478E+00
          2   -1    0    0  503    0  0.00000000000E+00  0.00000000000E+00  0.11053184714E+04  0.11053184714E+04  0.00000000000E+00 0.  1.
         21   -1    0    0  501  502 -0.00000000000E+00 -0.00000000000E+00 -0.28115272523E+02  0.28115272523E+02  0.00000000000E+00 0.  1.
          2    1    1    2  501    0 -0.44846047101E+02  0.16870026139E+02  0.10839837655E+04  0.10850421971E+04  0.00000000000E+00 0.  1.
         21    1    1    2  503  502  0.44846047101E+02 -0.16870026139E+02 -0.67805665608E+01  0.48391546838E+02  0.00000000000E+00 0.  1.
</event>
<event>
 4    1  0.2253948E+005  0.3474866E+02  0.7546771E-02  0.1382339E+00
          2   -1    0    0  503    0  0.00000000000E+00  0.00000000000E+00  0.25840746056E+04  0.25840746056E+04  0.00000000000E+00 0.  1.
         21   -1    0    0  501  502 -0.00000000000E+00 -0.00000000000E+00 -0.48491678488E+00  0.48491678488E+00  0.00000000000E+00 0. -1.
          2    1    1    2  501    0 -0.10606664635E+02 -0.33090303071E+02  0.15382926750E+04  0.15386850956E+04  0.00000000000E+00 0.  1.
         21    1    1    2  503  502  0.10606664635E+02  0.33090303071E+02  0.10452970138E+04  0.10458744268E+04  0.00000000000E+00 0. -1.
</event>
<event>
 4    1  0.2253948E+005  0.2982959E+02  0.7546771E-02  0.1421083E+00
          2   -1    0    0  502    0  0.00000000000E+00  0.00000000000E+00  0.26429479614E+02  0.26429479614E+02  0.00000000000E+00 0.  1.
         21   -1    0    0  503  502 -0.00000000000E+00 -0.00000000000E+00 -0.40026090558E+03  0.40026090558E+03  0.00000000000E+00 0.  1.
          2    1    1    2  501    0 -0.23971177195E+02 -0.17753514226E+02  0.17259877603E+02  0.34463139416E+02  0.00000000000E+00 0.  1.
         21    1    1    2  503  501  0.23971177195E+02  0.17753514226E+02 -0.39109130357E+03  0.39222724578E+03  0.00000000000E+00 0.  1.
</event>
<event>
 4    1  0.2253948E+005  0.2405582E+02  0.7546771E-02  0.1479649E+00
          2   -1    0    0  503    0  0.00000000000E+00  0.00000000000E+00  0.10972521116E+02  0.10972521116E+02  0.00000000000E+00 0.  1.
         21   -1    0    0  501  502 -0.00000000000E+00 -0.00000000000E+00 -0.73119245835E+02  0.73119245835E+02  0.00000000000E+00 0.  1.
          2    1    1    2  501    0  0.21349555616E+02 -0.11085077721E+02 -0.88755725065E+01  0.25640948898E+02  0.00000000000E+00 0.  1.
         21    1    1    2  503  502 -0.21349555616E+02  0.11085077721E+02 -0.53271152212E+02  0.58450818053E+02  0.00000000000E+00 0.  1.
</event>
<event>
 4    1  0.2253948E+005  0.2306317E+02  0.7546771E-02  0.1491706E+00
          2   -1    0    0  502    0  0.00000000000E+00  0.00000000000E+00  0.23100289202E+03  0.23100289202E+03  0.00000000000E+00 0.  1.
         21   -1    0    0  503  502 -0.00000000000E+00 -0.00000000000E+00 -0.25253912209E+03  0.25253912209E+03  0.00000000000E+00 0. -1.
          2    1    1    2  501    0 -0.22484779642E+02  0.51327045802E+01  0.22989815316E+03  0.23105209542E+03  0.00000000000E+00 0.  1.
         21    1    1    2  503  501  0.22484779642E+02 -0.51327045802E+01 -0.25143438323E+03  0.25248991869E+03  0.00000000000E+00 0. -1.
</event>
<event>
 4    1  0.2253948E+005  0.2068412E+02  0.7546771E-02  0.1523823E+00
          2   -1    0    0  503    0  0.00000000000E+00  0.00000000000E+00  0.13601954157E+04  0.13601954157E+04  0.00000000000E+00 0. -1.
         21   -1    0    0  501  502 -0.00000000000E+00 -0.00000000000E+00 -0.12293652673E+04  0.12293652673E+04  0.00000000000E+00 0.  1.
          2    1    1    2  501    0 -0.20666987678E+02  0.84165673464E+00  0.13600297679E+04  0.13601870469E+04  0.00000000000E+00 0. -1.
         21    1    1    2  503  502  0.20666987678E+02 -0.84165673464E+00 -0.12291996195E+04  0.12293736362E+04  0.00000000000E+00 0.  1.
</event>
<event>
 4    1  0.2253948E+005  0.3018082E+02  0.7546771E-02  0.1418031E+00
          2   -1    0    0  503    0  0.00000000000E+00  0.00000000000E+00  0.24895265625E+03  0.24895265625E+03  0.00000000000E+00 0.  1.
         21   -1    0    0  501  502 -0.00000000000E+00 -0.00000000000E+00 -0.67916523272E+01  0.67916523272E+01  0.00000000000E+00 0.  1.
          2    1    1    2  501    0 -0.25646604420E+02  0.15910170875E+02  0.20792740927E+03  0.21010637635E+03  0.00000000000E+00 0.  1.
         21    1    1    2  503  502  0.25646604420E+02 -0.15910170875E+02  0.34233594655E+02  0.45637932234E+02  0.00000000000E+00 0.  1.
</event>
<event>
 4    1  0.2253948E+005  0.2099779E+02  0.7546771E-02  0.1519296E+00
          2   -1    0    0  502    0  0.00000000000E+00  0.00000000000E+00  0.28360210662E+03  0.28360210662E+03  0.00000000000E+00 0.  1.
         21   -1    0    0  503  502 -0.00000000000E+00 -0.00000000000E+00 -0.27904809754E+03  0.27904809754E+03  0.00000000000E+00 0. -1.
          2    1    1    2  501    0  0.14974434349E+02  0.14719840068E+02  0.28281733462E+03  0.28359575479E+03  0.00000000000E+00 0.  1.
         21    1    1    2  503  501 -0.14974434349E+02 -0.14719840068E+02 -0.27826332554E+03  0.27905444937E+03  0.00000000000E+00 0. -1.
</event>
<event>
 4    1  0.2253948E+005  0.2322316E+02  0.7546771E-02  0.1489715E+00
          2   -1    0    0  502    0  0.00000000000E+00  0.00000000000E+00  0.48328239039E+03  0.48328239039E+03  0.00000000000E+00 0. -1.
         21   -1    0    0  503  502 -0.00000000000E+00 -0.00000000000E+00 -0.21544370007E+02  0.21544370007E+02  0.00000000000E+00 0. -1.
          2    1    1    2  501    0  0.23996169091E+01  0.23098854082E+02  0.47665829455E+03  0.47722368443E+03  0.00000000000E+00 0. -1.
         21    1    1    2  503  501 -0.23996169091E+01 -0.23098854082E+02 -0.14920274170E+02  0.27603075961E+02  0.00000000000E+00 0. -1.
</event>
<event>
 4    1  0.2253948E+005  0.2588640E+02  0.7546771E-02  0.1459127E+00
          2   -1    0    0  503    0  0.00000000000E+00  0.00000000000E+00  0.14477609488E+04  0.14477609488E+04  0.00000000000E+00 0.  1.
         21   -1    0    0  501  502 -0.00000000000E+00 -0.00000000000E+00 -0.31705191485E+01  0.31705191485E+01  0.00000000000E+00 0. -1.
          2    1    1    2  501    0 -0.68837536573E+01 -0.24954346066E+02  0.13927183571E+04  0.13929589110E+04  0.00000000000E+00 0.  1.
         21    1    1    2  503  502  0.68837536573E+01  0.24954346066E+02  0.51872072583E+02  0.57972557008E+02  0.00000000000E+00 0. -1.
</event>
<event>
 4    1  0.2253948E+005  0.2166815E+02  0.7546771E-02  0.1509935E+00
          2   -1    0    0  503    0  0.00000000000E+00  0.00000000000E+00  0.39014120453E+02  0.39014120453E+02  0.00000000000E+00 0. -1.
         21   -1    0    0  501  502 -0.00000000000E+00 -0.00000000000E+00 -0.49442724141E+02  0.49442724141E+02  0.00000000000E+00 0.  1.
          2    1    1    2  501    0  0.12316379739E+02  0.17827380048E+02  0.33256815612E+02  0.39692876866E+02  0.00000000000E+00 0. -1.
         21    1    1    2  503  502 -0.12316379739E+02 -0.17827380048E+02 -0.43685419300E+02  0.48763967728E+02  0.00000000000E+00 0.  1.
</event>
<event>
 4    1  0.2253948E+005  0.2423347E+02  0.7546771E-02  0.1477564E+00
          2   -1    0    0  503    0  0.00000000000E+00  0.00000000000E+00  0.20986671211E+03  0.20986671211E+03  0.00000000000E+00 0.  1.
         21   -1    0    0  501  502 -0.00000000000E+00 -0.00000000000E+00 -0.26870973527E+02  0.26870973527E+02  0.00000000000E+00 0.  1.
          2    1    1    2  501    0  0.19506065638E+02  0.14379656928E+02  0.20353403740E+03  0.20497162123E+03  0.00000000000E+00 0.  1.
         21    1    1    2  503  502 -0.19506065638E+02 -0.14379656928E+02 -0.20538298812E+02  0.31766064410E+02  0.00000000000E+00 0.  1.
</event>
<event>
 4    1  0.2253948E+005  0.2021588E+02  0.7546771E-02  0.1530761E+00
          2   -1    0    0  503    0  0.00000000000E+00  0.00000000000E+00  0.39284160958E+02  0.39284160958E+02  0.00000000000E+00 0.  1.
         21   -1    0    0  501  502 -0.00000000000E+00 -0.00000000000E+00 -0.15109249860E+02  0.15109249860E+02  0.00000000000E+00 0. -1.
          2    1    1    2  501    0  0.54381117136E+01 -0.19470710436E+02  0.27265728383E+02  0.33942621704E+02  0.00000000000E+00 0.  1.
         21    1    1    2  503  502 -0.54381117136E+01  0.19470710436E+02 -0.30908172842E+01  0.20450789114E+02  0.00000000000E+00 0. -1.
</event>
<event>
 4    1  0.2253948E+005  0.6128527E+02  0.7546771E-02  0.1255527E+00
          2   -1    0    0  502    0  0.00000000000E+00  0.00000000000E+00  0.16696803826E+03  0.16696803826E+03  0.00000000000E+00 0. -1.
         21   -1    0    0  503  502 -0.00000000000E+00 -0.00000000000E+00 -0.74762724165E+02  0.74762724165E+02  0.00000000000E+00 0. -1.
          2    1    1    2  501    0  0.56862251619E+02  0.22859760790E+02  0.14716228564E+03  0.15941337032E+03  0.00000000000E+00 0. -1.
         21    1    1    2  503  501 -0.56862251619E+02 -0.22859760790E+02 -0.54956971540E+02  0.82317392108E+02  0.00000000000E+00 0. -1.
</event>
<event>
 4    1  0.2253948E+005  0.2559402E+02  0.7546771E-02  0.1462267E+00
          2   -1    0    0  502    0  0.00000000000E+00  0.00000000000E+00  0.17479100614E+04  0.17479100614E+04  0.00000000000E+00 0.  1.
         21   -1    0    0  503  502 -0.00000000000E+00 -0.00000000000E+00 -0.44243403232E+02  0.44243403232E+02  0.00000000000E+00 0. -1.
          2    1    1    2  501    0  0.22475503374E+02 -0.12243589441E+02  0.17441068792E+04  0.17442946597E+04  0.00000000000E+00 0.  1.
         21    1    1    2  503  501 -0.22475503374E+02  0.12243589441E+02 -0.40440221029E+02  0.47858804949E+02  0.00000000000E+00 0. -1.
</event>
<event>
 4    1  0.2253948E+005  0.2663172E+02  0.7546771E-02  0.1451343E+00
          2   -1    0    0  503    0  0.00000000000E+00  0.00000000000E+00  0.64556454723E+03  0.64556454723E+03  0.00000000000E+00 0.  1.
         21   -1    0    0  501  502 -0.00000000000E+00 -0.00000000000E+00 -0.17855852474E+01  0.17855852474E+01  0.00000000000E+00 0.  1.
          2    1    1    2  501    0 -0.15564063973E+02  0.21610377813E+02  0.52264954621E+03  0.52332761887E+03  0.00000000000E+00 0.  1.
         21    1    1    2  503  502  0.15564063973E+02 -0.21610377813E+02  0.12112941577E+03  0.12402251360E+03  0.00000000000E+00 0.  1.
</event>
<event>
 4    1  0.2253948E+005  0.2299487E+02  0.7546771E-02  0.1492563E+00
          2   -1    0    0  502    0  0.00000000000E+00  0.00000000000E+00  0.10330249194E+02  0.10330249194E+02  0.00000000000E+00 0.  1.
         21   -1    0    0  503  502 -0.00000000000E+00 -0.00000000000E+00 -0.10603489857E+03  0.10603489857E+03  0.00000000000E+00 0. -1.
          2    1    1    2  501    0  0.67472863802E+01  0.21982680382E+02 -0.60064662014E+01  0.23766399528E+02  0.00000000000E+00 0.  1.
         21    1    1    2  503  501 -0.67472863802E+01 -0.21982680382E+02 -0.89698183173E+02  0.92598748235E+02  0.00000000000E+00 0. -1.
</event>
<event>
 4    1  0.2253948E+005  0.7439096E+02  0.7546771E-02  0.1217504E+00
          2   -1    0    0  503    0  0.00000000000E+00  0.00000000000E+00  0.97315078031E+03  0.97315078031E+03  0.00000000000E+00 0. -1.
         21   -1    0    0  501  502 -0.00000000000E+00 -0.00000000000E+00 -0.99319525214E+01  0.99319525214E+01  0.00000000000E+00 0. -1.
          2    1    1    2  501    0  0.43438799052E+02  0.60391109459E+02  0.80297145803E+03  0.80641005561E+03  0.00000000000E+00 0. -1.
         21    1    1    2  503  502 -0.43438799052E+02 -0.60391109459E+02  0.16024736976E+03  0.17667267723E+03  0.00000000000E+00 0. -1.
</event>
<event>
 4    1  0.2253948E+005  0.4224953E+02  0.7546771E-02  0.1335785E+00
          2   -1    0    0  502    0  0.00000000000E+00  0.00000000000E+00  0.27135064246E+04  0.27135064246E+04  0.00000000000E+00 0.  1.
         21   -1    0    0  503  502 -0.00000000000E+00 -0.00000000000E+00 -0.47682677222E+01  0.47682677222E+01  0.00000000000E+00 0.  1.
          2    1    1    2  501    0 -0.42177548105E+02  0.24651656744E+01  0.26162754446E+04  0.26166165605E+04  0.00000000000E+00 0.  1.
         21    1    1    2  503  501  0.42177548105E+02 -0.24651656744E+01  0.92462712269E+02  0.10165813182E+03  0.00000000000E+00 0.  1.
</event>
<event>
 4    1  0.2253948E+005  0.2904913E+02  0.7546771E-02  0.1428043E+00
          2   -1    0    0  502    0  0.00000000000E+00  0.00000000000E+00  0.80958451302E+02  0.80958451302E+02  0.00000000000E+00 0. -1.
         21   -1    0    0  503  502 -0.00000000000E+00 -0.00000000000E+00 -0.13024298364E+02  0.13024298364E+02  0.00000000000E+00 0. -1.
          2    1    1    2  501    0  0.23356403242E+01  0.28955084188E+02  0.54966781664E+02  0.62170726251E+02  0.00000000000E+00 0. -1.
         21    1    1    2  503  501 -0.23356403242E+01 -0.28955084188E+02  0.12967371274E+02  0.31812023416E+02  0.00000000000E+00 0. -1.
</event>
<event>
 4    1  0.2253948E+005  0.5059430E+02  0.7546771E-02  0.1295616E+00
          2   -1    0    0  503    0  0.00000000000E+00  0.00000000000E+00  0.16313785626E+04  0.16313785626E+04  0.00000000000E+00 0.  1.
         21   -1    0    0  501  502 -0.00000000000E+00 -0.00000000000E+00 -0.15144077028E+03  0.15144077028E+03  0.00000000000E+00 0. -1.
          2    1    1    2  501    0  0.41193448650E+02  0.29374876394E+02  0.16267485479E+04  0.16275351368E+04  0.00000000000E+00 0.  1.
         21    1    1    2  503  502 -0.41193448650E+02 -0.29374876394E+02 -0.14681075560E+03  0.15528419602E+03  0.00000000000E+00 0. -1.
</event>
<event>
 4    1  0.2253948E+005  0.2577425E+02  0.7546771E-02  0.1460325E+00
          2   -1    0    0  502    0  0.00000000000E+00  0.00000000000E+00  0.14772940867E+03  0.14772940867E+03  0.00000000000E+00 0.  1.
         21   -1    0    0  503  502 -0.00000000000E+00 -0.00000000000E+00 -0.21041968371E+02  0.21041968371E+02  0.00000000000E+00 0. -1.
          2    1    1    2  501    0  0.25737974696E+02 -0.13668830107E+01  0.13817118386E+03  0.14055457218E+03  0.00000000000E+00 0.  1.
         21    1    1    2  503  501 -0.25737974696E+02  0.13668830107E+01 -0.11483743559E+02  0.28216804865E+02  0.00000000000E+00 0. -1.
</event>
<event>
 4    1  0.2253948E+005  0.2375347E+02  0.7546771E-02  0.1483247E+00
          2   -1    0    0  502    0  0.00000000000E+00  0.00000000000E+00  0.90064487787E+03  0.90064487787E+03  0.00000000000E+00 0. -1.
         21   -1    0    0  503  502 -0.00000000000E+00 -0.00000000000E+00 -0.11354794773E+03  0.11354794773E+03  0.00000000000E+00 0. -1.
          2    1    1    2  501    0 -0.47633218237E+01  0.23270968864E+02  0.89924405902E+03  0.89955772739E+03  0.00000000000E+00 0. -1.
         21    1    1    2  503  501  0.47633218237E+01 -0.23270968864E+02 -0.11214712888E+03  0.11463509821E+03  0.00000000000E+00 0. -1.
</event>
<event>
 4    1  0.2253948E+005  0.2421245E+02  0.7546771E-02  0.1477810E+00
          2   -1    0    0  502    0  0.00000000000E+00  0.00000000000E+00  0.17944658034E+02  0.17944658034E+02  0.00000000000E+00 0. -1.
         21   -1    0    0  503  502 -0.00000000000E+00 -0.00000000000E+00 -0.15964825965E+03  0.15964825965E+03  0.00000000000E+00 0.  1.
          2    1    1    2  501    0 -0.21865564781E+02  0.10399034725E+02  0.83397974035E+01  0.25608495995E+02  0.00000000000E+00 0. -1.
         21    1    1    2  503  501  0.21865564781E+02 -0.10399034725E+02 -0.15004339902E+03  0.15198442169E+03  0.00000000000E+00 0.  1.
</event>
<event>
 4    1  0.2253948E+005  0.3537273E+02  0.7546771E-02  0.1377962E+00
          2   -1    0    0  502    0  0.00000000000E+00  0.00000000000E+00  0.50609116758E+03  0.50609116758E+03  0.00000000000E+00 0. -1.
         21   -1    0    0  503  502 -0.00000000000E+00 -0.00000000000E+00 -0.18533690978E+02  0.18533690978E+02  0.00000000000E+00 0.  1.
          2    1    1    2  501    0  0.21457260245E+02 -0.28121450466E+02  0.48796933276E+03  0.48924973143E+03  0.00000000000E+00 0. -1.
         21    1    1    2  503  501 -0.21457260245E+02  0.28121450466E+02 -0.41185615815E+00  0.35375127124E+02  0.00000000000E+00 0.  1.
</event>
<event>
 4    1  0.2253948E+005  0.5637761E+02  0.7546771E-02  0.1272663E+00
          2   -1    0    0  503    0  0.00000000000E+00  0.00000000000E+00  0.25203592996E+03  0.25203592996E+03  0.00000000000E+00 0.  1.
         21   -1    0    0  501  502 -0.00000000000E+00 -0.00000000000E+00 -0.25991887374E+02  0.25991887374E+02  0.00000000000E+00 0. -1.
          2    1    1    2  501    0 -0.54298642802E+02 -0.15168776260E+02  0.21276474123E+03  0.22010740446E+03  0.00000000000E+00 0.  1.
         21    1    1    2  503  502  0.54298642802E+02  0.15168776260E+02  0.13279301349E+02  0.57920412876E+02  0.00000000000E+00 0. -1.
</event>
<event>
 4    1  0.2253948E+005  0.1222819E+03  0.7546771E-02  0.1129978E+00
          2   -1    0    0  502    0  0.00000000000E+00  0.00000000000E+00  0.12981519967E+04  0.12981519967E+04  0.00000000000E+00 0. -1.
         21   -1    0    0  503  502 -0.00000000000E+00 -0.00000000000E+00 -0.40724161513E+02  0.40724161513E+02  0.00000000000E+00 0.  1.
          2    1    1    2  501    0 -0.10528229992E+03 -0.62197351382E+02  0.11956279851E+04  0.12018648643E+04  0.00000000000E+00 0. -1.
         21    1    1    2  503  501  0.10528229992E+03  0.62197351382E+02  0.61799850070E+02  0.13701129393E+03  0.00000000000E+00 0.  1.
</event>
<event>
 4    1  0.2253948E+005  0.2425253E+02  0.7546771E-02  0.1477342E+00
          2   -1    0    0  503    0  0.00000000000E+00  0.00000000000E+00  0.48438548294E+02  0.48438548294E+02  0.00000000000E+00 0. -1.
         21   -1    0    0  501  502 -0.00000000000E+00 -0.00000000000E+00 -0.17361580625E+02  0.17361580625E+02  0.00000000000E+00 0. -1.
          2    1    1    2  501    0  0.99587439735E+01  0.22113540254E+02  0.33576210189E+02  0.41419163859E+02  0.00000000000E+00 0. -1.
         21    1    1    2  503  502 -0.99587439735E+01 -0.22113540254E+02 -0.24992425201E+01  0.24380965061E+02  0.00000000000E+00 0. -1.
</event>
<event>
 4    1  0.2253948E+005  0.2132957E+02  0.7546771E-02  0.1514611E+00
          2   -1    0    0  503    0  0.00000000000E+00  0.00000000000E+00  0.10091209009E+04  0.10091209009E+04  0.00000000000E+00 0.  1.
         21   -1    0    0  501  502 -0.00000000000E+00 -0.00000000000E+00 -0.85724791663E+01  0.85724791663E+01  0.00000000000E+00 0. -1.
          2    1    1    2  501    0 -0.19030435532E+02 -0.96329157246E+01  0.99555971838E+03  0.99578818199E+03  0.00000000000E+00 0.  1.
         21    1    1    2  503  502  0.19030435532E+02  0.96329157246E+01  0.49887033691E+01  0.21905198086E+02  0.00000000000E+00 0. -1.
</event>
<event>
 4    1  0.2253948E+005  0.4281556E+02  0.7546771E-02  0.1332732E+00
          2   -1    0    0  503    0  0.00000000000E+00  0.00000000000E+00  0.11282531850E+04  0.11282531850E+04  0.00000000000E+00 0.  1.
         21   -1    0    0  501  502 -0.00000000000E+00 -0.00000000000E+00 -0.20132521982E+03  0.20132521982E+03  0.00000000000E+00 0. -1.
          2    1    1    2  501    0 -0.28727941684E+02 -0.31747089379E+02  0.11255651717E+04  0.11263792115E+04  0.00000000000E+00 0.  1.
         21    1    1    2  503  502  0.28727941684E+02  0.31747089379E+02 -0.19863720657E+03  0.20319919329E+03  0.00000000000E+00 0. -1.
</event>
<event>
 4    1  0.2253948E+005  0.2897519E+02  0.7546771E-02  0.1428716E+00
          2   -1    0    0  503    0  0.00000000000E+00  0.00000000000E+00  0.15633511274E+04  0.15633511274E+04  0.00000000000E+00 0.  1.
         21   -1    0    0  501  502 -0.00000000000E+00 -0.00000000000E+00 -0.27813240211E+01  0.27813240211E+01  0.00000000000E+00 0.  1.
          2    1    1    2  501    0  0.26087424541E+02  0.12609836403E+02  0.14837019188E+04  0.14839848199E+04  0.00000000000E+00 0.  1.
         21    1    1    2  503  502 -0.26087424541E+02 -0.12609836403E+02  0.76867884588E+02  0.82147631580E+02  0.00000000000E+00 0.  1.
</event>
<event>
 4    1  0.2253948E+005  0.3162310E+02  0.7546771E-02  0.1405997E+00
          2   -1    0    0  502    0  0.00000000000E+00  0.00000000000E+00  0.14130646955E+04  0.14130646955E+04  0.00000000000E+00 0. -1.
         21   -1    0    0  503  502 -0.00000000000E+00 -0.00000000000E+00 -0.28963891613E+02  0.28963891613E+02  0.00000000000E+00 0.  1.
          2    1    1    2  501    0 -0.15164842265E+02  0.27749734510E+02  0.14042016864E+04  0.14045577226E+04  0.00000000000E+00 0. -1.
         21    1    1    2  503  501  0.15164842265E+02 -0.27749734510E+02 -0.20100882499E+02  0.37470864462E+02  0.00000000000E+00 0.  1.
</event>
<event>
 4    1  0.2253948E+005  0.2277630E+02  0.7546771E-02  0.1495326E+00
          2   -1    0    0  503    0  0.00000000000E+00  0.00000000000E+00  0.38094090417E+03  0.38094090417E+03  0.00000000000E+00 0. -1.
         21   -1    0    0  501  502 -0.00000000000E+00 -0.00000000000E+00 -0.18263301322E+01  0.18263301322E+01  0.00000000000E+00 0.  1.
          2    1    1    2  501    0 -0.21474196851E+02 -0.75906921845E+01  0.28607986542E+03  0.28698510264E+03  0.00000000000E+00 0. -1.
         21    1    1    2  503  502  0.21474196851E+02  0.75906921845E+01  0.93034708617E+02  0.95782131662E+02  0.00000000000E+00 0.  1.
</event>
<event>
 4    1  0.2253948E+005  0.2623230E+02  0.7546771E-02  0.1455476E+00
          2   -1    0    0  503    0  0.00000000000E+00  0.00000000000E+00  0.38706196984E+01  0.38706196984E+01  0.00000000000E+00 0. -1.
         21   -1    0    0  501  502 -0.00000000000E+00 -0.00000000000E+00 -0.17941461581E+03  0.17941461581E+03  0.00000000000E+00 0. -1.
          2    1    1    2  501    0  0.21843782837E+02 -0.14525245278E+02 -0.79034906598E+02  0.83274546291E+02  0.00000000000E+00 0. -1.
         21    1    1    2  503  502 -0.21843782837E+02  0.14525245278E+02 -0.96509089510E+02  0.10001068921E+03  0.00000000000E+00 0. -1.
</event>
<event>
 4    1  0.2253948E+005  0.2683025E+02  0.7546771E-02  0.1449321E+00
          2   -1    0    0  503    0  0.00000000000E+00  0.00000000000E+00  0.50602707618E+03  0.50602707618E+03  0.00000000000E+00 0. -1.
         21   -1    0    0  501  502 -0.00000000000E+00 -0.00000000000E+00 -0.16455216847E+01  0.16455216847E+01  0.00000000000E+00 0. -1.
          2    1    1    2  501    0  0.75828004419E+01 -0.25736423634E+02  0.34562386606E+03  0.34666369748E+03  0.00000000000E+00 0. -1.
         21    1    1    2  503  502 -0.75828004419E+01  0.25736423634E+02  0.15875768844E+03  0.16100890038E+03  0.00000000000E+00 0. -1.
</event>
<event>
 4    1  0.2253948E+005  0.3565302E+02  0.7546771E-02  0.1376030E+00
          2   -1    0    0  503    0  0.00000000000E+00  0.00000000000E+00  0.22171284448E+03  0.22171284448E+03  0.00000000000E+00 0.  1.
         21   -1    0    0  501  502 -0.00000000000E+00 -0.00000000000E+00 -0.14662433427E+02  0.14662433427E+02  0.00000000000E+00 0. -1.
          2    1    1    2  501    0 -0.13186126902E+02  0.33124969123E+02  0.19575572271E+03  0.19897597969E+03  0.00000000000E+00 0.  1.
         21    1    1    2  503  502  0.13186126902E+02 -0.33124969123E+02  0.11294688345E+02  0.37399298213E+02  0.00000000000E+00 0. -1.
</event>
<event>
 4    1  0.2253948E+005  0.2127474E+02  0.7546771E-02  0.1515378E+00
          2   -1    0    0  502    0  0.00000000000E+00  0.00000000000E+00  0.43859421715E+01  0.43859421715E+01  0.00000000000E+00 0. -1.
         21   -1    0    0  503  502 -0.00000000000E+00 -0.00000000000E+00 -0.39939318614E+03  0.39939318614E+03  0.00000000000E+00 0. -1.
          2    1    1    2  501    0 -0.20998377192E+02  0.34179885255E+01 -0.23642074553E+02  0.31805065311E+02  0.00000000000E+00 0. -1.
         21    1    1    2  503  501  0.20998377192E+02 -0.34179885255E+01 -0.37136516941E+03  0.37197406300E+03  0.00000000000E+00 0. -1.
</event>
<event>
 4    1  0.2253948E+005  0.2035057E+02  0.7546771E-02  0.1528742E+00
          2   -1    0    0  503    0  0.00000000000E+00  0.00000000000E+00  0.26736580534E+02  0.26736580534E+02  0.00000000000E+00 0.  1.
         21   -1    0    0  501  502 -0.00000000000E+00 -0.00000000000E+00 -0.80627998942E+02  0.80627998942E+02  0.00000000000E+00 0.  1.
          2    1    1    2  501    0  0.76027772338E+01  0.18877061048E+02  0.21305232442E+02  0.29462833959E+02  0.00000000000E+00 0.  1.
         21    1    1    2  503  502 -0.76027772338E+01 -0.18877061048E+02 -0.75196650850E+02  0.77901745517E+02  0.00000000000E+00 0.  1.
</event>
<event>
 4    1  0.2253948E+005  0.2307021E+02  0.7546771E-02  0.1491618E+00
          2   -1    0    0  502    0  0.00000000000E+00  0.00000000000E+00  0.15140578841E+04  0.15140578841E+04  0.00000000000E+00 0.  1.
         21   -1    0    0  503  502 -0.00000000000E+00 -0.00000000000E+00 -0.65840055695E+00  0.65840055695E+00  0.00000000000E+00 0.  1.
          2    1    1    2  501    0 -0.10393275443E+02  0.20596467716E+02  0.12737524313E+04  0.12739613381E+04  0.00000000000E+00 0.  1.
         21    1    1    2  503  501  0.10393275443E+02 -0.20596467716E+02  0.23964705222E+03  0.24075494656E+03  0.00000000000E+00 0.  1.
</event>
<event>
 4    1  0.2253948E+005  0.2543830E+02  0.7546771E-02  0.1463959E+00
          2   -1    0    0  502    0  0.00000000000E+00  0.00000000000E+00  0.16065649482E+03  0.16065649482E+03  0.00000000000E+00 0. -1.
         21   -1    0    0  503  502 -0.00000000000E+00 -0.00000000000E+00 -0.15396993278E+02  0.15396993278E+02  0.00000000000E+00 0. -1.
          2    1    1    2  501    0 -0.98201879784E+01 -0.23466382858E+02  0.14827117917E+03  0.15043752786E+03  0.00000000000E+00 0. -1.
         21    1    1    2  503  501  0.98201879784E+01  0.23466382858E+02 -0.30116776349E+01  0.25615960231E+02  0.00000000000E+00 0. -1.
</event>
<event>
 4    1  0.2253948E+005  0.3251585E+02  0.7546771E-02  0.1398922E+00
          2   -1    0    0  502    0  0.00000000000E+00  0.00000000000E+00  0.68351817469E+03  0.68351817469E+03  0.00000000000E+00 0. -1.
         21   -1    0    0  503  502 -0.00000000000E+00 -0.00000000000E+00 -0.79751394381E+01  0.79751394381E+01  0.00000000000E+00 0. -1.
          2    1    1    2  501    0 -0.11792207816E+02 -0.30302218767E+02  0.64818281606E+03  0.64899787647E+03  0.00000000000E+00 0. -1.
         21    1    1    2  503  501  0.11792207816E+02  0.30302218767E+02  0.27360219187E+02  0.42495437653E+02  0.00000000000E+00 0. -1.
</event>
<event>
 4    1  0.2253948E+005  0.5057200E+02  0.7546771E-02  0.1295711E+00
          2   -1    0    0  502    0  0.00000000000E+00  0.00000000000E+00  0.33047523635E+02  0.33047523635E+02  0.00000000000E+00 0.  1.
         21   -1    0    0  503  502 -0.00000000000E+00 -0.00000000000E+00 -0.95687249472E+03  0.95687249472E+03  0.00000000000E+00 0. -1.
          2    1    1    2  501    0  0.44409207124E+02  0.24193990435E+02  0.12610039072E+02  0.52120436836E+02  0.00000000000E+00 0.  1.
         21    1    1    2  503  501 -0.44409207124E+02 -0.24193990435E+02 -0.93643501016E+03  0.93779958152E+03  0.00000000000E+00 0. -1.
</event>
<event>
 4    1  0.2253948E+005  0.2158746E+02  0.7546771E-02  0.1511040E+00
          2   -1    0    0  503    0  0.00000000000E+00  0.00000000000E+00  0.46954241965E+03  0.46954241965E+03  0.00000000000E+00 0.  1.
         21   -1    0    0  501  502 -0.00000000000E+00 -0.00000000000E+00 -0.31865674061E+03  0.31865674061E+03  0.00000000000E+00 0.  1.
          2    1    1    2  501    0 -0.10217506432E+02  0.19016330734E+02  0.46892820590E+03  0.46942484016E+03  0.00000000000E+00 0.  1.
         21    1    1    2  503  502  0.10217506432E+02 -0.19016330734E+02 -0.31804252686E+03  0.31877432011E+03  0.00000000000E+00 0.  1.
</event>
<event>
 4    1  0.2253948E+005  0.2176217E+02  0.7546771E-02  0.1508655E+00
          2   -1    0    0  503    0  0.00000000000E+00  0.00000000000E+00  0.14710602182E+04  0.14710602182E+04  0.00000000000E+00 0. -1.
         21   -1    0    0  501  502 -0.00000000000E+00 -0.00000000000E+00 -0.24396738480E+02  0.24396738480E+02  0.00000000000E+00 0. -1.
          2    1    1    2  501    0  0.20919742587E+02  0.59963717878E+01  0.14661103226E+04  0.14662718268E+04  0.00000000000E+00 0. -1.
         21    1    1    2  503  502 -0.20919742587E+02 -0.59963717878E+01 -0.19446842902E+02  0.29185129833E+02  0.00000000000E+00 0. -1.
</event>
<event>
 4    1  0.2253948E+005  0.2264683E+02  0.7546771E-02  0.1496981E+00
          2   -1    0    0  503    0  0.00000000000E+00  0.00000000000E+00  0.17332970936E+04  0.17332970936E+04  0.00000000000E+00 0. -1.
         21   -1    0    0  501  502 -0.00000000000E+00 -0.00000000000E+00 -0.31214306326E+00  0.31214306326E+00  0.00000000000E+00 0. -1.
          2    1    1    2  501    0 -0.83278776855E+01  0.21060039304E+02  0.66874647543E+03  0.66912982836E+03  0.00000000000E+00 0. -1.
         21    1    1    2  503  502  0.83278776855E+01 -0.21060039304E+02  0.10642384751E+04  0.10644794083E+04  0.00000000000E+00 0. -1.
</event>
<event>
 4    1  0.2253948E+005  0.3758105E+02  0.7546771E-02  0.1363275E+00
          2   -1    0    0  502    0  0.00000000000E+00  0.00000000000E+00  0.34006375260E+03  0.34006375260E+03  0.00000000000E+00 0.  1.
         21   -1    0    0  503  502 -0.00000000000E+00 -0.00000000000E+00 -0.73558763324E+01  0.73558763324E+01  0.00000000000E+00 0.  1.
          2    1    1    2  501    0 -0.27658193661E+02 -0.25443263030E+02  0.28097571974E+03  0.28347784816E+03  0.00000000000E+00 0.  1.
         21    1    1    2  503  501  0.27658193661E+02  0.25443263030E+02  0.51732156526E+02  0.63941780778E+02  0.00000000000E+00 0.  1.
</event>
<event>
 4    1  0.2253948E+005  0.7008245E+02  0.7546771E-02  0.1228956E+00
          2   -1    0    0  502    0  0.00000000000E+00  0.00000000000E+00  0.37819480360E+04  0.37819480360E+04  0.00000000000E+00 0. -1.
         21   -1    0    0  503  502 -0.00000000000E+00 -0.00000000000E+00 -0.34075061630E+01  0.34075061630E+01  0.00000000000E+00 0. -1.
          2    1    1    2  501    0  0.68437132333E+02 -0.15096632604E+02  0.33782147264E+04  0.33789415927E+04  0.00000000000E+00 0. -1.
         21    1    1    2  503  501 -0.68437132333E+02  0.15096632604E+02  0.40032580340E+03  0.40641394940E+03  0.00000000000E+00 0. -1.
</event>
<event>
 4    1  0.2253948E+005  0.2169905E+02  0.7546771E-02  0.1509514E+00
          2   -1    0    0  502    0  0.00000000000E+00  0.00000000000E+00  0.67701006729E+03  0.67701006729E+03  0.00000000000E+00 0.  1.
         21   -1    0    0  503  502 -0.00000000000E+00 -0.00000000000E+00 -0.27255942454E+02  0.27255942454E+02  0.00000000000E+00 0.  1.
          2    1    1    2  501    0  0.18144228655E+02  0.11901072856E+02  0.67248839591E+03  0.67283838416E+03  0.00000000000E+00 0.  1.
         21    1    1    2  503  501 -0.18144228655E+02 -0.11901072856E+02 -0.22734271072E+02  0.31427625583E+02  0.00000000000E+00 0.  1.
</event>
<event>
 4    1  0.2253948E+005  0.3978154E+02  0.7546771E-02  0.1349771E+00
          2   -1    0    0  503    0  0.00000000000E+00  0.00000000000E+00  0.16035519498E+04  0.16035519498E+04  0.00000000000E+00 0.  1.
         21   -1    0    0  501  502 -0.00000000000E+00 -0.00000000000E+00 -0.26000106297E+01  0.26000106297E+01  0.00000000000E+00 0.  1.
          2    1    1    2  501    0 -0.27310406332E+02  0.28925978592E+02  0.14330320622E+04  0.14335841314E+04  0.00000000000E+00 0.  1.
         21    1    1    2  503  502  0.27310406332E+02 -0.28925978592E+02  0.16791987696E+03  0.17256782901E+03  0.00000000000E+00 0.  1.
</event>
<event>
 4    1  0.2253948E+005  0.2056430E+02  0.7546771E-02  0.1525577E+00
          2   -1    0    0  503    0  0.00000000000E+00  0.00000000000E+00  0.42640144241E+02  0.42640144241E+02  0.00000000000E+00 0. -1.
         21   -1    0    0  501  502 -0.00000000000E+00 -0.00000000000E+00 -0.15602138405E+02  0.15602138405E+02  0.00000000000E+00 0. -1.
          2    1    1    2  501    0 -0.13563078164E+02  0.15457470824E+02  0.31096684903E+02  0.37281286264E+02  0.00000000000E+00 0. -1.
         21    1    1    2  503  502  0.13563078164E+02 -0.15457470824E+02 -0.40586790675E+01  0.20960996382E+02  0.00000000000E+00 0. -1.
</event>
<event>
 4    1  0.2253948E+005  0.2449264E+02  0.7546771E-02  0.1474560E+00
          2   -1    0    0  503    0  0.00000000000E+00  0.00000000000E+00  0.12005062125E+01  0.12005062125E+01  0.00000000000E+00 0. -1.
         21   -1    0    0  501  502 -0.00000000000E+00 -0.00000000000E+00 -0.65591460087E+03  0.65591460087E+03  0.00000000000E+00 0. -1.
          2    1    1    2  501    0  0.21530081918E+02  0.11676695917E+02 -0.16701314868E+03  0.16879953047E+03  0.00000000000E+00 0. -1.
         21    1    1    2  503  502 -0.21530081918E+02 -0.11676695917E+02 -0.48770094597E+03  0.48831557661E+03  0.00000000000E+00 0. -1.
</event>
<event>
 4    1  0.2253948E+005  0.2063541E+02  0.7546771E-02  0.1524534E+00
          2   -1    0    0  502    0  0.00000000000E+00  0.00000000000E+00  0.58636742027E+02  0.58636742027E+02  0.00000000000E+00 0. -1.
         21   -1    0    0  503  502 -0.00000000000E+00 -0.00000000000E+00 -0.15666867435E+02  0.15666867435E+02  0.00000000000E+00 0. -1.
          2    1    1    2  501    0 -0.71591312084E+01  0.19353733770E+02  0.48696544855E+02  0.52888312994E+02  0.00000000000E+00 0. -1.
         21    1    1    2  503  501  0.71591312084E+01 -0.19353733770E+02 -0.57266702639E+01  0.21415296468E+02  0.00000000000E+00 0. -1.
</event>
<event>
 4    1  0.2253948E+005  0.8510306E+02  0.7546771E-02  0.1192471E+00
          2   -1    0    0  502    0  0.00000000000E+00  0.00000000000E+00  0.11745671379E+04  0.11745671379E+04  0.00000000000E+00 0. -1.
         21   -1    0    0  503  502 -0.00000000000E+00 -0.00000000000E+00 -0.69533967705E+01  0.69533967705E+01  0.00000000000E+00 0.  1.
          2    1    1    2  501    0  0.80713056273E+02  0.26980249040E+02  0.78258760496E+03  0.78720130254E+03  0.00000000000E+00 0. -1.
         21    1    1    2  503  501 -0.80713056273E+02 -0.26980249040E+02  0.38502613620E+03  0.39431923216E+03  0.00000000000E+00 0.  1.
</event>
<event>
 4    1  0.2253948E+005  0.2041420E+02  0.7546771E-02  0.1527795E+00
          2   -1    0    0  503    0  0.00000000000E+00  0.00000000000E+00  0.37846025516E+03  0.37846025516E+03  0.00000000000E+00 0. -1.
         21   -1    0    0  501  502 -0.00000000000E+00 -0.00000000000E+00 -0.15704627917E+01  0.15704627917E+01  0.00000000000E+00 0.  1.
          2    1    1    2  501    0  0.17747021180E+02 -0.10088744272E+02  0.29231929119E+03  0.29303123984E+03  0.00000000000E+00 0. -1.
         21    1    1    2  503  502 -0.17747021180E+02  0.10088744272E+02  0.84570501181E+02  0.86999478112E+02  0.00000000000E+00 0.  1.
</event>
<event>
 4    1  0.2253948E+005  0.2009550E+02  0.7546771E-02  0.1532581E+00
          2   -1    0    0  503    0  0.00000000000E+00  0.00000000000E+00  0.10103103944E+02  0.10103103944E+02  0.00000000000E+00 0.  1.
         21   -1    0    0  501  502 -0.00000000000E+00 -0.00000000000E+00 -0.58375028479E+02  0.58375028479E+02  0.00000000000E+00 0. -1.
          2    1    1    2  501    0  0.20036365277E+02  0.15405597935E+01 -0.49109317571E+01  0.20686868025E+02  0.00000000000E+00 0.  1.
         21    1    1    2  503  502 -0.20036365277E+02 -0.15405597935E+01 -0.43360992779E+02  0.47791264398E+02  0.00000000000E+00 0. -1.
</event>
<event>
 4    1  0.2253948E+005  0.2456956E+02  0.7546771E-02  0.1473677E+00
          2   -1    0    0  502    0  0.00000000000E+00  0.00000000000E+00  0.10282968269E+03  0.10282968269E+03  0.00000000000E+00 0. -1.
         21   -1    0    0  503  502 -0.00000000000E+00 -0.00000000000E+00 -0.59736003749E+01  0.59736003749E+01  0.00000000000E+00 0. -1.
          2    1    1    2  501    0 -0.70513440527E+01  0.23535965382E+02  0.55574550908E+02  0.60763425084E+02  0.00000000000E+00 0. -1.
         21    1    1    2  503  501  0.70513440527E+01 -0.23535965382E+02  0.41281531404E+02  0.48039857977E+02  0.00000000000E+00 0. -1.
</event>
<event>
 4    1  0.2253948E+005  0.3326391E+02  0.7546771E-02  0.1393197E+00
          2   -1    0    0  502    0  0.00000000000E+00  0.00000000000E+00  0.35032814480E+04  0.35032814480E+04  0.00000000000E+00 0.  1.
         21   -1    0    0  503  502 -0.00000000000E+00 -0.00000000000E+00 -0.34852596408E+00  0.34852596408E+00  0.00000000000E+00 0.  1.
          2    1    1    2  501    0  0.19005699417E+02 -0.27299656708E+02  0.22879168891E+04  0.22881586875E+04  0.00000000000E+00 0.  1.
         21    1    1    2  503  501 -0.19005699417E+02  0.27299656708E+02  0.12150160329E+04  0.12154712864E+04  0.00000000000E+00 0.  1.
</event>
<event>
 4    1  0.2253948E+005  0.2748387E+02  0.7546771E-02  0.1442807E+00
          2   -1    0    0  503    0  0.00000000000E+00  0.00000000000E+00  0.19670641925E+04  0.19670641925E+04  0.00000000000E+00 0.  1.
         21   -1    0    0  501  502 -0.00000000000E+00 -0.00000000000E+00 -0.11807914146E+01  0.11807914146E+01  0.00000000000E+00 0.  1.
          2    1    1    2  501    0  0.25185976153E+02 -0.11001350030E+02  0.17913549817E+04  0.17915658049E+04  0.00000000000E+00 0.  1.
         21    1    1    2  503  502 -0.25185976153E+02  0.11001350030E+02  0.17452841938E+03  0.17667917894E+03  0.00000000000E+00 0.  1.
</event>
<event>
 4    1  0.2253948E+005  0.3673614E+02  0.7546771E-02  0.1368752E+00
          2   -1    0    0  502    0  0.00000000000E+00  0.00000000000E+00  0.39354753337E+03  0.39354753337E+03  0.00000000000E+00 0. -1.
         21   -1    0    0  503  502 -0.00000000000E+00 -0.00000000000E+00 -0.29512566969E+02  0.29512566969E+02  0.00000000000E+00 0.  1.
          2    1    1    2  501    0 -0.22669596893E+02 -0.28907324011E+02  0.38087893236E+03  0.38264644925E+03  0.00000000000E+00 0. -1.
         21    1    1    2  503  501  0.22669596893E+02  0.28907324011E+02 -0.16843965965E+02  0.40413651088E+02  0.00000000000E+00 0.  1.
</event>
<event>
 4    1  0.2253948E+005  0.4594935E+02  0.7546771E-02  0.1316759E+00
          2   -1    0    0  502    0  0.00000000000E+00  0.00000000000E+00  0.66290628620E+03  0.66290628620E+03  0.00000000000E+00 0. -1.
         21   -1    0    0  503  502 -0.00000000000E+00 -0.00000000000E+00 -0.95638635084E+01  0.95638635084E+01  0.00000000000E+00 0.  1.
          2    1    1    2  501    0 -0.38834183521E+02 -0.24561132353E+02  0.60127003868E+03  0.60302321882E+03  0.00000000000E+00 0. -1.
         21    1    1    2  503  501  0.38834183521E+02  0.24561132353E+02  0.52072384019E+02  0.69446930887E+02  0.00000000000E+00 0.  1.
</event>
<event>
 4    1  0.2253948E+005  0.2521326E+02  0.7546771E-02  0.1466432E+00
          2   -1    0    0  502    0  0.00000000000E+00  0.00000000000E+00  0.77015855588E+03  0.77015855588E+03  0.00000000000E+00 0.  1.
         21   -1    0    0  503  502 -0.00000000000E+00 -0.00000000000E+00 -0.20011851234E+01  0.20011851234E+01  0.00000000000E+00 0.  1.
          2    1    1    2  501    0 -0.23974953602E+02  0.78045013731E+01  0.68001125534E+03  0.68047851989E+03  0.00000000000E+00 0.  1.
         21    1    1    2  503  501  0.23974953602E+02 -0.78045013731E+01  0.88146115421E+02  0.91681221118E+02  0.00000000000E+00 0.  1.
</event>
<event>
 4    1  0.2253948E+005  0.2514202E+02  0.7546771E-02  0.1467221E+00
          2   -1    0    0  502    0  0.00000000000E+00  0.00000000000E+00  0.51646965775E+02  0.51646965775E+02  0.00000000000E+00 0.  1.
         21   -1    0    0  503  502 -0.00000000000E+00 -0.00000000000E+00 -0.17018192040E+02  0.17018192040E+02  0.00000000000E+00 0.  1.
          2    1    1    2  501    0 -0.17708891427E+02 -0.17847024160E+02  0.35507823202E+02  0.43507776494E+02  0.00000000000E+00 0.  1.
         21    1    1    2  503  501  0.17708891427E+02  0.17847024160E+02 -0.87904946694E+00  0.25157381321E+02  0.00000000000E+00 0.  1.
</event>
<event>
 4    1  0.2253948E+005  0.2284557E+02  0.7546771E-02  0.1494446E+00
          2   -1    0    0  502    0  0.00000000000E+00  0.00000000000E+00  0.74719398437E+03  0.74719398437E+03  0.00000000000E+00 0.  1.
         21   -1    0    0  503  502 -0.00000000000E+00 -0.00000000000E+00 -0.17100169593E+02  0.17100169593E+02  0.00000000000E+00 0.  1.
          2    1    1    2  501    0 -0.22836748174E+02  0.63498690282E+00  0.73930764501E+03  0.73966053987E+03  0.00000000000E+00 0.  1.
         21    1    1    2  503  501  0.22836748174E+02 -0.63498690282E+00 -0.92138302333E+01  0.24633614089E+02  0.00000000000E+00 0.  1.
</event>
<event>
 4    1  0.2253948E+005  0.2517385E+02  0.7546771E-02  0.1466868E+00
          2   -1    0    0  503    0  0.00000000000E+00  0.00000000000E+00  0.26121123171E+03  0.26121123171E+03  0.00000000000E+00 0.  1.
         21   -1    0    0  501  502 -0.00000000000E+00 -0.00000000000E+00 -0.10969731910E+02  0.10969731910E+02  0.00000000000E+00 0.  1.
          2    1    1    2  501    0  0.24524881135E+02 -0.56791705072E+01  0.24522301110E+03  0.24651176026E+03  0.00000000000E+00 0.  1.
         21    1    1    2  503  502 -0.24524881135E+02  0.56791705072E+01  0.50184886973E+01  0.25669203360E+02  0.00000000000E+00 0.  1.
</event>
<event>
 4    1  0.2253948E+005  0.2358262E+02  0.7546771E-02  0.1485309E+00
          2   -1    0    0  503    0  0.00000000000E+00  0.00000000000E+00  0.59268380455E+02  0.59268380455E+02  0.00000000000E+00 0.  1.
         21   -1    0    0  501  502 -0.00000000000E+00 -0.00000000000E+00 -0.95041758504E+01  0.95041758504E+01  0.00000000000E+00 0.  1.
          2    1    1    2  501    0 -0.22622427360E+02 -0.66607658488E+01  0.28758109864E+02  0.37190978802E+02  0.00000000000E+00 0.  1.
         21    1    1    2  503  502  0.22622427360E+02  0.66607658488E+01  0.21006094741E+02  0.31581577503E+02  0.00000000000E+00 0.  1.
</event>
<event>
 4    1  0.2253948E+005  0.2625412E+02  0.7546771E-02  0.1455248E+00
          2   -1    0    0  503    0  0.00000000000E+00  0.00000000000E+00  0.87748427314E+03  0.87748427314E+03  0.00000000000E+00 0.  1.
         21   -1    0    0  501  502 -0.00000000000E+00 -0.00000000000E+00 -0.22312728392E+01  0.22312728392E+01  0.00000000000E+00 0.  1.
          2    1    1    2  501    0 -0.37533742935E+01  0.25984439530E+02  0.79169182099E+03  0.79212702159E+03  0.00000000000E+00 0.  1.
         21    1    1    2  503  502  0.37533742935E+01 -0.25984439530E+02  0.83561179315E+02  0.87588524390E+02  0.00000000000E+00 0.  1.
</event>
<event>
 4    1  0.2253948E+005  0.3488302E+02  0.7546771E-02  0.1381387E+00
          2   -1    0    0  503    0  0.00000000000E+00  0.00000000000E+00  0.14905148932E+04  0.14905148932E+04  0.00000000000E+00 0.  1.
         21   -1    0    0  501  502 -0.00000000000E+00 -0.00000000000E+00 -0.37900320748E+01  0.37900320748E+01  0.00000000000E+00 0.  1.
          2    1    1    2  501    0  0.27128651519E+02  0.21928548650E+02  0.14051718486E+04  0.14056047627E+04  0.00000000000E+00 0.  1.
         21    1    1    2  503  502 -0.27128651519E+02 -0.21928548650E+02  0.81553012517E+02  0.88700162513E+02  0.00000000000E+00 0.  1.
</event>
<event>
 4    1  0.2253948E+005  0.2843943E+02  0.7546771E-02  0.1433661E+00
          2   -1    0    0  503    0  0.00000000000E+00  0.00000000000E+00  0.12493184230E+03  0.12493184230E+03  0.00000000000E+00 0.  1.
         21   -1    0    0  501  502 -0.00000000000E+00 -0.00000000000E+00 -0.45609961699E+02  0.45609961699E+02  0.00000000000E+00 0. -1.
          2    1    1    2  501    0  0.70461890840E+01  0.27552721850E+02  0.11864861716E+03  0.12200940790E+03  0.00000000000E+00 0.  1.
         21    1    1    2  503  502 -0.70461890840E+01 -0.27552721850E+02 -0.39326736564E+02  0.48532396095E+02  0.00000000000E+00 0. -1.
</event>
<event>
 4    1  0.2253948E+005  0.2462685E+02  0.7546771E-02  0.1473021E+00
          2   -1    0    0  503    0  0.00000000000E+00  0.00000000000E+00  0.71687160098E+03  0.71687160098E+03  0.00000000000E+00 0. -1.
         21   -1    0    0  501  502 -0.00000000000E+00 -0.00000000000E+00 -0.97110123454E+00  0.97110123454E+00  0.00000000000E+00 0. -1.
          2    1    1    2  501    0  0.11353227505E+02  0.21853740597E+02  0.22913195367E+03  0.23045158699E+03  0.00000000000E+00 0. -1.
         21    1    1    2  503  502 -0.11353227505E+02 -0.21853740597E+02  0.48676854608E+03  0.48739111523E+03  0.00000000000E+00 0. -1.
</event>
<event>
 4    1  0.2253948E+005  0.5054044E+02  0.7546771E-02  0.1295846E+00
          2   -1    0    0  503    0  0.00000000000E+00  0.00000000000E+00  0.12067988015E+03  0.12067988015E+03  0.00000000000E+00 0. -1.
         21   -1    0    0  501  502 -0.00000000000E+00 -0.00000000000E+00 -0.39821029763E+02  0.39821029763E+02  0.00000000000E+00 0. -1.
          2    1    1    2  501    0 -0.50420688005E+02  0.34771149236E+01  0.95356535043E+02  0.10792221682E+03  0.00000000000E+00 0. -1.
         21    1    1    2  503  502  0.50420688005E+02 -0.34771149236E+01 -0.14497684658E+02  0.52578693094E+02  0.00000000000E+00 0. -1.
</event>
<event>
 4    1  0.2253948E+005  0.2324453E+02  0.7546771E-02  0.1489450E+00
          2   -1    0    0  502    0  0.00000000000E+00  0.00000000000E+00  0.10741402779E+03  0.10741402779E+03  0.00000000000E+00 0.  1.
         21   -1    0    0  503  502 -0.00000000000E+00 -0.00000000000E+00 -0.28322051211E+02  0.28322051211E+02  0.00000000000E+00 0.  1.
          2    1    1    2  501    0 -0.56833738643E+01  0.22539016909E+02  0.10109278837E+03  0.10373070849E+03  0.00000000000E+00 0.  1.
         21    1    1    2  503  501  0.56833738643E+01 -0.22539016909E+02 -0.22000811800E+02  0.32005370511E+02  0.00000000000E+00 0.  1.
</event>
<event>
 4    1  0.2253948E+005  0.3865020E+02  0.7546771E-02  0.1356582E+00
          2   -1    0    0  502    0  0.00000000000E+00  0.00000000000E+00  0.37513868573E+03  0.37513868573E+03  0.00000000000E+00 0. -1.
         21   -1    0    0  503  502 -0.00000000000E+00 -0.00000000000E+00 -0.28450460468E+02  0.28450460468E+02  0.00000000000E+00 0. -1.
          2    1    1    2  501    0  0.16729262047E+02 -0.34842066797E+02  0.36048440915E+03  0.36255047520E+03  0.00000000000E+00 0. -1.
         21    1    1    2  503  501 -0.16729262047E+02  0.34842066797E+02 -0.13796183889E+02  0.41038670997E+02  0.00000000000E+00 0. -1.
</event>
<event>
 4    1  0.2253948E+005  0.3430386E+02  0.7546771E-02  0.1385524E+00
          2   -1    0    0  503    0  0.00000000000E+00  0.00000000000E+00  0.12865419875E+04  0.12865419875E+04  0.00000000000E+00 0. -1.
         21   -1    0    0  501  502 -0.00000000000E+00 -0.00000000000E+00 -0.94277481753E+00  0.94277481753E+00  0.00000000000E+00 0. -1.
          2    1    1    2  501    0 -0.17275171127E+02  0.29636523708E+02  0.75395645861E+03  0.75473644179E+03  0.00000000000E+00 0. -1.
         21    1    1    2  503  502  0.17275171127E+02 -0.29636523708E+02  0.53164275403E+03  0.53274832049E+03  0.00000000000E+00 0. -1.
</event>
<event>
 4    1  0.2253948E+005  0.2325590E+02  0.7546771E-02  0.1489310E+00
          2   -1    0    0  503    0  0.00000000000E+00  0.00000000000E+00  0.46435175186E+02  0.46435175186E+02  0.00000000000E+00 0.  1.
         21   -1    0    0  501  502 -0.00000000000E+00 -0.00000000000E+00 -0.23310189727E+02  0.23310189727E+02  0.00000000000E+00 0.  1.
          2    1    1    2  501    0  0.23255857254E+02  0.44474986266E-01  0.36229619142E+02  0.43051389964E+02  0.00000000000E+00 0.  1.
         21    1    1    2  503  502 -0.23255857254E+02 -0.44474986266E-01 -0.13104633683E+02  0.26693974950E+02  0.00000000000E+00 0.  1.
</event>
<event>
 4    1  0.2253948E+005  0.2706621E+02  0.7546771E-02  0.1446944E+00
          2   -1    0    0  503    0  0.00000000000E+00  0.00000000000E+00  0.18021556478E+02  0.18021556478E+02  0.00000000000E+00 0.  1.
         21   -1    0    0  501  502 -0.00000000000E+00 -0.00000000000E+00 -0.44204666479E+02  0.44204666479E+02  0.00000000000E+00 0. -1.
          2    1    1    2  501    0  0.24630483446E+02  0.11221375249E+02 -0.42689618744E+01  0.27400803141E+02  0.00000000000E+00 0.  1.
         21    1    1    2  503  502 -0.24630483446E+02 -0.11221375249E+02 -0.21914148127E+02  0.34825419817E+02  0.00000000000E+00 0. -1.
</event>
<event>
 4    1  0.2253948E+005  0.3628492E+02  0.7546771E-02  0.1371748E+00
          2   -1    0    0  502    0  0.00000000000E+00  0.00000000000E+00  0.72365955694E+03  0.72365955694E+03  0.00000000000E+00 0.  1.
         21   -1    0    0  503  502 -0.00000000000E+00 -0.00000000000E+00 -0.72687061097E+01  0.72687061097E+01  0.00000000000E+00 0. -1.
          2    1    1    2  501    0  0.19194128015E+02  0.30792544621E+02  0.67463333397E+03  0.67560841517E+03  0.00000000000E+00 0.  1.
         21    1    1    2  503  501 -0.19194128015E+02 -0.30792544621E+02  0.41757516866E+02  0.55319847879E+02  0.00000000000E+00 0. -1.
</event>
<event>
 4    1  0.2333614E+005  0.2610249E+02  0.7546771E-02  0.1456838E+00
          2   -1    0    0  503    0  0.00000000000E+00  0.00000000000E+00  0.62643466077E+03  0.62643466077E+03  0.00000000000E+00 0. -1.
         21   -1    0    0  501  502 -0.00000000000E+00 -0.00000000000E+00 -0.25544736112E+03  0.25544736112E+03  0.00000000000E+00 0. -1.
          2    1    1    2  501    0  0.26073091096E+02  0.12384954766E+01  0.62549493708E+03  0.62603934082E+03  0.00000000000E+00 0. -1.
         21    1    1    2  503  502 -0.26073091096E+02 -0.12384954766E+01 -0.25450763742E+03  0.25584268107E+03  0.00000000000E+00 0. -1.
</event>
<event>
 4    1  0.2253948E+005  0.3709211E+02  0.7546771E-02  0.1366423E+00
          2   -1    0    0  503    0  0.00000000000E+00  0.00000000000E+00  0.15289141987E+04  0.15289141987E+04  0.00000000000E+00 0. -1.
         21   -1    0    0  501  502 -0.00000000000E+00 -0.00000000000E+00 -0.11248320227E+01  0.11248320227E+01  0.00000000000E+00 0. -1.
          2    1    1    2  501    0  0.13551386723E+02 -0.34528028861E+02  0.11060180622E+04  0.11066398595E+04  0.00000000000E+00 0. -1.
         21    1    1    2  503  502 -0.13551386723E+02  0.34528028861E+02  0.42177130455E+03  0.42339917123E+03  0.00000000000E+00 0. -1.
</event>
<event>
 4    1  0.2253948E+005  0.2639175E+02  0.7546771E-02  0.1453816E+00
          2   -1    0    0  503    0  0.00000000000E+00  0.00000000000E+00  0.10521840383E+01  0.10521840383E+01  0.00000000000E+00 0.  1.
         21   -1    0    0  501  502 -0.00000000000E+00 -0.00000000000E+00 -0.79911594049E+03  0.79911594049E+03  0.00000000000E+00 0.  1.
          2    1    1    2  501    0 -0.22097543462E+02  0.14429932423E+02 -0.23329367735E+03  0.23478173751E+03  0.00000000000E+00 0.  1.
         21    1    1    2  503  502  0.22097543462E+02 -0.14429932423E+02 -0.56477007910E+03  0.56538638702E+03  0.00000000000E+00 0.  1.
</event>
<event>
 4    1  0.2253948E+005  0.2972224E+02  0.7546771E-02  0.1422026E+00
          2   -1    0    0  502    0  0.00000000000E+00  0.00000000000E+00  0.25008129423E+03  0.25008129423E+03  0.00000000000E+00 0.  1.
         21   -1    0    0  503  502 -0.00000000000E+00 -0.00000000000E+00 -0.44762903437E+01  0.44762903437E+01  0.00000000000E+00 0.  1.
          2    1    1    2  501    0 -0.26780965680E+02 -0.12891515203E+02  0.18124590558E+03  0.18366678954E+03  0.00000000000E+00 0.  1.
         21    1    1    2  503  501  0.26780965680E+02  0.12891515203E+02  0.64359098299E+02  0.70890795036E+02  0.00000000000E+00 0.  1.
</event>
<event>
 4    1  0.2253948E+005  0.3969102E+02  0.7546771E-02  0.1350306E+00
          2   -1    0    0  502    0  0.00000000000E+00  0.00000000000E+00  0.16553002061E+04  0.16553002061E+04  0.00000000000E+00 0.  1.
         21   -1    0    0  503  502 -0.00000000000E+00 -0.00000000000E+00 -0.21479046411E+02  0.21479046411E+02  0.00000000000E+00 0. -1.
          2    1    1    2  501    0  0.34084435467E+02 -0.20337857442E+02  0.16365156279E+04  0.16369968777E+04  0.00000000000E+00 0.  1.
         21    1    1    2  503  501 -0.34084435467E+02  0.20337857442E+02 -0.26944682296E+01  0.39782374809E+02  0.00000000000E+00 0. -1.
</event>
<event>
 4    1  0.2253948E+005  0.4452672E+02  0.7546771E-02  0.1323823E+00
          2   -1    0    0  503    0  0.00000000000E+00  0.00000000000E+00  0.21769789714E+04  0.21769789714E+04  0.00000000000E+00 0. -1.
         21   -1    0    0  501  502 -0.00000000000E+00 -0.00000000000E+00 -0.10482362257E+01  0.10482362257E+01  0.00000000000E+00 0. -1.
          2    1    1    2  501    0 -0.32614147806E+02  0.30314130346E+02  0.14823979899E+04  0.14830665627E+04  0.00000000000E+00 0. -1.
         21    1    1    2  503  502  0.32614147806E+02 -0.30314130346E+02  0.69353274528E+03  0.69496064486E+03  0.00000000000E+00 0. -1.
</event>
<event>
 4    1  0.2253948E+005  0.4348868E+02  0.7546771E-02  0.1329172E+00
          2   -1    0    0  503    0  0.00000000000E+00  0.00000000000E+00  0.33926397110E+03  0.33926397110E+03  0.00000000000E+00 0.  1.
         21   -1    0    0  501  502 -0.00000000000E+00 -0.00000000000E+00 -0.76562168180E+01  0.76562168180E+01  0.00000000000E+00 0.  1.
          2    1    1    2  501    0 -0.14334689747E+02  0.41058280402E+02  0.25625029842E+03  0.25991437275E+03  0.00000000000E+00 0.  1.
         21    1    1    2  503  502  0.14334689747E+02 -0.41058280402E+02  0.75357455863E+02  0.87005815172E+02  0.00000000000E+00 0.  1.
</event>
<event>
 4    1  0.2253948E+005  0.2349937E+02  0.7546771E-02  0.1486321E+00
          2   -1    0    0  503    0  0.00000000000E+00  0.00000000000E+00  0.53606492256E+03  0.53606492256E+03  0.00000000000E+00 0.  1.
         21   -1    0    0  501  502 -0.00000000000E+00 -0.00000000000E+00 -0.10322389447E+01  0.10322389447E+01  0.00000000000E+00 0.  1.
          2    1    1    2  501    0  0.86682650820E+01  0.21842192241E+02  0.27963538613E+03  0.28062104226E+03  0.00000000000E+00 0.  1.
         21    1    1    2  503  502 -0.86682650820E+01 -0.21842192241E+02  0.25539729748E+03  0.25647611925E+03  0.00000000000E+00 0.  1.
</event>
<event>
 4    1  0.2253948E+005  0.2095607E+02  0.7546771E-02  0.1519893E+00
          2   -1    0    0  503    0  0.00000000000E+00  0.00000000000E+00  0.14945518626E+03  0.14945518626E+03  0.00000000000E+00 0.  1.
         21   -1    0    0  501  502 -0.00000000000E+00 -0.00000000000E+00 -0.38406095803E+01  0.38406095803E+01  0.00000000000E+00 0. -1.
          2    1    1    2  501    0  0.14041092729E+02 -0.15556499017E+02  0.10995716569E+03  0.11193629989E+03  0.00000000000E+00 0.  1.
         21    1    1    2  503  502 -0.14041092729E+02  0.15556499017E+02  0.35657410988E+02  0.41359495948E+02  0.00000000000E+00 0. -1.
</event>
<event>
 4    1  0.2253948E+005  0.3019803E+02  0.7546771E-02  0.1417883E+00
          2   -1    0    0  502    0  0.00000000000E+00  0.00000000000E+00  0.90273902720E+03  0.90273902720E+03  0.00000000000E+00 0. -1.
         21   -1    0    0  503  502 -0.00000000000E+00 -0.00000000000E+00 -0.39060848977E+02  0.39060848977E+02  0.00000000000E+00 0.  1.
          2    1    1    2  501    0 -0.30115084997E+02  0.22367262151E+01  0.89661005574E+03  0.89711845001E+03  0.00000000000E+00 0. -1.
         21    1    1    2  503  501  0.30115084997E+02 -0.22367262151E+01 -0.32931877513E+02  0.44681426175E+02  0.00000000000E+00 0.  1.
</event>
<event>
 4    1  0.2253948E+005  0.2030383E+02  0.7546771E-02  0.1529441E+00
          2   -1    0    0  503    0  0.00000000000E+00  0.00000000000E+00  0.15747140716E+04  0.15747140716E+04  0.00000000000E+00 0.  1.
         21   -1    0    0  501  502 -0.00000000000E+00 -0.00000000000E+00 -0.36034073281E+00  0.36034073281E+00  0.00000000000E+00 0.  1.
          2    1    1    2  501    0  0.10199820205E+02  0.17555892658E+02  0.11990301259E+04  0.11992020216E+04  0.00000000000E+00 0.  1.
         21    1    1    2  503  502 -0.10199820205E+02 -0.17555892658E+02  0.37532360496E+03  0.37587239076E+03  0.00000000000E+00 0.  1.
</event>
<event>
 4    1  0.2253948E+005  0.2541918E+02  0.7546771E-02  0.1464168E+00
          2   -1    0    0  502    0  0.00000000000E+00  0.00000000000E+00  0.30381751355E+03  0.30381751355E+03  0.00000000000E+00 0.  1.
         21   -1    0    0  503  502 -0.00000000000E+00 -0.00000000000E+00 -0.88418499452E+01  0.88418499452E+01  0.00000000000E+00 0.  1.
          2    1    1    2  501    0  0.24855988581E+02  0.53211477655E+01  0.28372546315E+03  0.28486184936E+03  0.00000000000E+00 0.  1.
         21    1    1    2  503  501 -0.24855988581E+02 -0.53211477655E+01  0.11250200458E+02  0.27797514137E+02  0.00000000000E+00 0.  1.
</event>
<event>
 4    1  0.2253948E+005  0.2923883E+02  0.7546771E-02  0.1426328E+00
          2   -1    0    0  503    0  0.00000000000E+00  0.00000000000E+00  0.28257505371E+03  0.28257505371E+03  0.00000000000E+00 0.  1.
         21   -1    0    0  501  502 -0.00000000000E+00 -0.00000000000E+00 -0.70104037652E+02  0.70104037652E+02  0.00000000000E+00 0.  1.
          2    1    1    2  501    0  0.17389690760E+02  0.23505489911E+02  0.27872801735E+03  0.28025741214E+03  0.00000000000E+00 0.  1.
         21    1    1    2  503  502 -0.17389690760E+02 -0.23505489911E+02 -0.66257001296E+02  0.72421679223E+02  0.00000000000E+00 0.  1.
</event>
<event>
 4    1  0.2253948E+005  0.3944519E+02  0.7546771E-02  0.1351768E+00
          2   -1    0    0  503    0  0.00000000000E+00  0.00000000000E+00  0.37990856553E+02  0.37990856553E+02  0.00000000000E+00 0. -1.
         21   -1    0    0  501  502 -0.00000000000E+00 -0.00000000000E+00 -0.11466174791E+03  0.11466174791E+03  0.00000000000E+00 0.  1.
          2    1    1    2  501    0  0.39444727489E+02  0.19106781251E+00  0.22859842841E+02  0.45590519281E+02  0.00000000000E+00 0. -1.
         21    1    1    2  503  502 -0.39444727489E+02 -0.19106781251E+00 -0.99530734203E+02  0.10706208519E+03  0.00000000000E+00 0.  1.
</event>
<event>
 4    1  0.2253948E+005  0.2321150E+02  0.7546771E-02  0.1489859E+00
          2   -1    0    0  503    0  0.00000000000E+00  0.00000000000E+00  0.42744491625E+02  0.42744491625E+02  0.00000000000E+00 0.  1.
         21   -1    0    0  501  502 -0.00000000000E+00 -0.00000000000E+00 -0.25135949117E+02  0.25135949117E+02  0.00000000000E+00 0.  1.
          2    1    1    2  501    0 -0.14430148626E+02 -0.18180879416E+02  0.32768718121E+02  0.40156723634E+02  0.00000000000E+00 0.  1.
         21    1    1    2  503  502  0.14430148626E+02  0.18180879416E+02 -0.15160175612E+02  0.27723717108E+02  0.00000000000E+00 0.  1.
</event>
<event>
 4    1  0.2253948E+005  0.3462940E+02  0.7546771E-02  0.1383187E+00
          2   -1    0    0  503    0  0.00000000000E+00  0.00000000000E+00  0.36788495191E+01  0.36788495191E+01  0.00000000000E+00 0. -1.
         21   -1    0    0  501  502 -0.00000000000E+00 -0.00000000000E+00 -0.42886783986E+03  0.42886783986E+03  0.00000000000E+00 0.  1.
          2    1    1    2  501    0 -0.13488836796E+02  0.31894306514E+02 -0.10665842632E+03  0.11213926792E+03  0.00000000000E+00 0. -1.
         21    1    1    2  503  502  0.13488836796E+02 -0.31894306514E+02 -0.31853056403E+03  0.32040742146E+03  0.00000000000E+00 0.  1.
</event>
<event>
 4    1  0.2253948E+005  0.2538058E+02  0.7546771E-02  0.1464591E+00
          2   -1    0    0  503    0  0.00000000000E+00  0.00000000000E+00  0.68241654625E+03  0.68241654625E+03  0.00000000000E+00 0.  1.
         21   -1    0    0  501  502 -0.00000000000E+00 -0.00000000000E+00 -0.10186334568E+01  0.10186334568E+01  0.00000000000E+00 0.  1.
          2    1    1    2  501    0 -0.24095659585E+02 -0.79732546884E+01  0.24817741362E+03  0.24947184658E+03  0.00000000000E+00 0.  1.
         21    1    1    2  503  502  0.24095659585E+02  0.79732546884E+01  0.43322049917E+03  0.43396333313E+03  0.00000000000E+00 0.  1.
</event>
<event>
 4    1  0.2253948E+005  0.2159804E+02  0.7546771E-02  0.1510895E+00
          2   -1    0    0  503    0  0.00000000000E+00  0.00000000000E+00  0.23942727804E+03  0.23942727804E+03  0.00000000000E+00 0. -1.
         21   -1    0    0  501  502 -0.00000000000E+00 -0.00000000000E+00 -0.23725890763E+01  0.23725890763E+01  0.00000000000E+00 0.  1.
          2    1    1    2  501    0 -0.20242004974E+02  0.75323541910E+01  0.16965406651E+03  0.17102332417E+03  0.00000000000E+00 0. -1.
         21    1    1    2  503  502  0.20242004974E+02 -0.75323541910E+01  0.67400622453E+02  0.70776542951E+02  0.00000000000E+00 0.  1.
</event>
<event>
 4    1  0.2253948E+005  0.2662348E+02  0.7546771E-02  0.1451427E+00
          2   -1    0    0  503    0  0.00000000000E+00  0.00000000000E+00  0.23004399769E+03  0.23004399769E+03  0.00000000000E+00 0.  1.
         21   -1    0    0  501  502 -0.00000000000E+00 -0.00000000000E+00 -0.86447615418E+02  0.86447615418E+02  0.00000000000E+00 0.  1.
          2    1    1    2  501    0  0.11430381914E+01 -0.26598931067E+02  0.22719828854E+03  0.22875286225E+03  0.00000000000E+00 0.  1.
         21    1    1    2  503  502 -0.11430381914E+01  0.26598931067E+02 -0.83601906271E+02  0.87738750859E+02  0.00000000000E+00 0.  1.
</event>
<event>
 4    1  0.2253948E+005  0.3400899E+02  0.7546771E-02  0.1387667E+00
          2   -1    0    0  503    0  0.00000000000E+00  0.00000000000E+00  0.82265244857E+03  0.82265244857E+03  0.00000000000E+00 0.  1.
         21   -1    0    0  501  502 -0.00000000000E+00 -0.00000000000E+00 -0.15639412894E+01  0.15639412894E+01  0.00000000000E+00 0. -1.
          2    1    1    2  501    0 -0.41683780155E+01 -0.33752573509E+02  0.54152635286E+03  0.54259322004E+03  0.00000000000E+00 0.  1.
         21    1    1    2  503  502  0.41683780155E+01  0.33752573509E+02  0.27956215442E+03  0.28162316982E+03  0.00000000000E+00 0. -1.
</event>
<event>
 4    1  0.2253948E+005  0.2263009E+02  0.7546771E-02  0.1497196E+00
          2   -1    0    0  503    0  0.00000000000E+00  0.00000000000E+00  0.18273091092E+03  0.18273091092E+03  0.00000000000E+00 0. -1.
         21   -1    0    0  501  502 -0.00000000000E+00 -0.00000000000E+00 -0.64811809245E+02  0.64811809245E+02  0.00000000000E+00 0.  1.
          2    1    1    2  501    0 -0.11972390225E+02 -0.19203714012E+02  0.18002527507E+03  0.18144205803E+03  0.00000000000E+00 0. -1.
         21    1    1    2  503  502  0.11972390225E+02  0.19203714012E+02 -0.62106173398E+02  0.66100662127E+02  0.00000000000E+00 0.  1.
</event>
<event>
 4    1  0.2253948E+005  0.3270889E+02  0.7546771E-02  0.1397428E+00
          2   -1    0    0  503    0  0.00000000000E+00  0.00000000000E+00  0.48815037615E+03  0.48815037615E+03  0.00000000000E+00 0. -1.
         21   -1    0    0  501  502 -0.00000000000E+00 -0.00000000000E+00 -0.21957475344E+01  0.21957475344E+01  0.00000000000E+00 0. -1.
          2    1    1    2  501    0 -0.31670897103E+02 -0.81746905892E+01  0.23242999187E+03  0.23472020026E+03  0.00000000000E+00 0. -1.
         21    1    1    2  503  502  0.31670897103E+02  0.81746905892E+01  0.25352463675E+03  0.25562592343E+03  0.00000000000E+00 0. -1.
</event>
<event>
 4    1  0.2253948E+005  0.3086827E+02  0.7546771E-02  0.1412198E+00
          2   -1    0    0  503    0  0.00000000000E+00  0.00000000000E+00  0.20795495564E+03  0.20795495564E+03  0.00000000000E+00 0.  1.
         21   -1    0    0  501  502 -0.00000000000E+00 -0.00000000000E+00 -0.11062903791E+03  0.11062903791E+03  0.00000000000E+00 0.  1.
          2    1    1    2  501    0  0.30022121947E+02  0.71779102739E+01  0.20462131679E+03  0.20693654459E+03  0.00000000000E+00 0.  1.
         21    1    1    2  503  502 -0.30022121947E+02 -0.71779102739E+01 -0.10729539905E+03  0.11164744896E+03  0.00000000000E+00 0.  1.
</event>
<event>
 4    1  0.2253948E+005  0.5390943E+02  0.7546771E-02  0.1282058E+00
          2   -1    0    0  503    0  0.00000000000E+00  0.00000000000E+00  0.10824661775E+04  0.10824661775E+04  0.00000000000E+00 0.  1.
         21   -1    0    0  501  502 -0.00000000000E+00 -0.00000000000E+00 -0.85183748894E+02  0.85183748894E+02  0.00000000000E+00 0. -1.
          2    1    1    2  501    0  0.40235644879E+02 -0.35879240582E+02  0.10731920234E+04  0.10745451811E+04  0.00000000000E+00 0.  1.
         21    1    1    2  503  502 -0.40235644879E+02  0.35879240582E+02 -0.75909594796E+02  0.93104745344E+02  0.00000000000E+00 0. -1.
</event>
<event>
 4    1  0.2253948E+005  0.2338804E+02  0.7546771E-02  0.1487682E+00
          2   -1    0    0  502    0  0.00000000000E+00  0.00000000000E+00  0.88886157370E+03  0.88886157370E+03  0.00000000000E+00 0. -1.
         21   -1    0    0  503  502 -0.00000000000E+00 -0.00000000000E+00 -0.24702781664E+01  0.24702781664E+01  0.00000000000E+00 0. -1.
          2    1    1    2  501    0  0.79874923463E+01 -0.21981821563E+02  0.82938014936E+03  0.82970984848E+03  0.00000000000E+00 0. -1.
         21    1    1    2  503  501 -0.79874923463E+01  0.21981821563E+02  0.57011146170E+02  0.61622003382E+02  0.00000000000E+00 0. -1.
</event>
<event>
 4    1  0.2253948E+005  0.3512625E+02  0.7546771E-02  0.1379678E+00
          2   -1    0    0  503    0  0.00000000000E+00  0.00000000000E+00  0.15764006129E+04  0.15764006129E+04  0.00000000000E+00 0.  1.
         21   -1    0    0  501  502 -0.00000000000E+00 -0.00000000000E+00 -0.14485845783E+01  0.14485845783E+01  0.00000000000E+00 0. -1.
          2    1    1    2  501    0 -0.34443674889E+02 -0.68910767526E+01  0.13223629981E+04  0.13228294495E+04  0.00000000000E+00 0.  1.
         21    1    1    2  503  502  0.34443674889E+02  0.68910767526E+01  0.25258903023E+03  0.25501974800E+03  0.00000000000E+00 0. -1.
</event>
<event>
 4    1  0.2253948E+005  0.2868177E+02  0.7546771E-02  0.1431408E+00
          2   -1    0    0  503    0  0.00000000000E+00  0.00000000000E+00  0.64716777290E+02  0.64716777290E+02  0.00000000000E+00 0.  1.
         21   -1    0    0  501  502 -0.00000000000E+00 -0.00000000000E+00 -0.31218629298E+02  0.31218629298E+02  0.00000000000E+00 0. -1.
          2    1    1    2  501    0 -0.28615794539E+02 -0.19442918038E+01  0.53681866475E+02  0.60863673533E+02  0.00000000000E+00 0.  1.
         21    1    1    2  503  502  0.28615794539E+02  0.19442918038E+01 -0.20183718483E+02  0.35071733055E+02  0.00000000000E+00 0. -1.
</event>
<event>
 4    1  0.2253948E+005  0.2111359E+02  0.7546771E-02  0.1517649E+00
          2   -1    0    0  502    0  0.00000000000E+00  0.00000000000E+00  0.62211062551E+02  0.62211062551E+02  0.00000000000E+00 0.  1.
         21   -1    0    0  503  502 -0.00000000000E+00 -0.00000000000E+00 -0.10626730844E+03  0.10626730844E+03  0.00000000000E+00 0.  1.
          2    1    1    2  501    0  0.12380934577E+02 -0.17102522686E+02  0.59321349385E+02  0.62966707998E+02  0.00000000000E+00 0.  1.
         21    1    1    2  503  501 -0.12380934577E+02  0.17102522686E+02 -0.10337759528E+03  0.10551166300E+03  0.00000000000E+00 0.  1.
</event>
<event>
 4    1  0.2253948E+005  0.5121596E+02  0.7546771E-02  0.1292985E+00
          2   -1    0    0  502    0  0.00000000000E+00  0.00000000000E+00  0.21622603133E+04  0.21622603133E+04  0.00000000000E+00 0. -1.
         21   -1    0    0  503  502 -0.00000000000E+00 -0.00000000000E+00 -0.69898603095E+01  0.69898603095E+01  0.00000000000E+00 0.  1.
          2    1    1    2  501    0 -0.25998176836E+02  0.44126740869E+02  0.20636579801E+04  0.20642934223E+04  0.00000000000E+00 0. -1.
         21    1    1    2  503  501  0.25998176836E+02 -0.44126740869E+02  0.91612472852E+02  0.10495675129E+03  0.00000000000E+00 0.  1.
</event>
<event>
 4    1  0.2253948E+005  0.2049920E+02  0.7546771E-02  0.1526537E+00
          2   -1    0    0  503    0  0.00000000000E+00  0.00000000000E+00  0.19482187219E+03  0.19482187219E+03  0.00000000000E+00 0. -1.
         21   -1    0    0  501  502 -0.00000000000E+00 -0.00000000000E+00 -0.41949291426E+02  0.41949291426E+02  0.00000000000E+00 0. -1.
          2    1    1    2  501    0 -0.88640681267E+01  0.18483654055E+02  0.19173816109E+03  0.19283085746E+03  0.00000000000E+00 0. -1.
         21    1    1    2  503  502  0.88640681267E+01 -0.18483654055E+02 -0.38865580325E+02  0.43940306155E+02  0.00000000000E+00 0. -1.
</event>
<event>
 4    1  0.2253948E+005  0.2284053E+02  0.7546771E-02  0.1494510E+00
          2   -1    0    0  502    0  0.00000000000E+00  0.00000000000E+00  0.47660976161E+02  0.47660976161E+02  0.00000000000E+00 0.  1.
         21   -1    0    0  503  502 -0.00000000000E+00 -0.00000000000E+00 -0.24573541660E+02  0.24573541660E+02  0.00000000000E+00 0. -1.
          2    1    1    2  501    0 -0.19124575516E+02  0.12487612655E+02  0.38439987974E+02  0.44713784607E+02  0.00000000000E+00 0.  1.
         21    1    1    2  503  501  0.19124575516E+02 -0.12487612655E+02 -0.15352553472E+02  0.27520733214E+02  0.00000000000E+00 0. -1.
</event>
<event>
 4    1  0.2253948E+005  0.2633528E+02  0.7546771E-02  0.1454402E+00
          2   -1    0    0  503    0  0.00000000000E+00  0.00000000000E+00  0.64970231759E+03  0.64970231759E+03  0.00000000000E+00 0. -1.
         21   -1    0    0  501  502 -0.00000000000E+00 -0.00000000000E+00 -0.46779967111E+01  0.46779967111E+01  0.00000000000E+00 0.  1.
          2    1    1    2  501    0 -0.52457493926E+01 -0.25807538902E+02  0.60995712301E+03  0.61052537938E+03  0.00000000000E+00 0. -1.
         21    1    1    2  503  502  0.52457493926E+01  0.25807538902E+02  0.35067197863E+02  0.43854934920E+02  0.00000000000E+00 0.  1.
</event>
<event>
 4    1  0.2253948E+005  0.2629447E+02  0.7546771E-02  0.1454827E+00
          2   -1    0    0  503    0  0.00000000000E+00  0.00000000000E+00  0.18729464876E+03  0.18729464876E+03  0.00000000000E+00 0.  1.
         21   -1    0    0  501  502 -0.00000000000E+00 -0.00000000000E+00 -0.67966862057E+02  0.67966862057E+02  0.00000000000E+00 0.  1.
          2    1    1    2  501    0 -0.26288744863E+02 -0.54867234378E+00  0.18378023855E+03  0.18565175794E+03  0.00000000000E+00 0.  1.
         21    1    1    2  503  502  0.26288744863E+02  0.54867234378E+00 -0.64452451838E+02  0.69609752878E+02  0.00000000000E+00 0.  1.
</event>
<event>
 4    1  0.2253948E+005  0.3187410E+02  0.7546771E-02  0.1403980E+00
          2   -1    0    0  503    0  0.00000000000E+00  0.00000000000E+00  0.21561239504E+04  0.21561239504E+04  0.00000000000E+00 0. -1.
         21   -1    0    0  501  502 -0.00000000000E+00 -0.00000000000E+00 -0.59152816199E+00  0.59152816199E+00  0.00000000000E+00 0. -1.
          2    1    1    2  501    0 -0.10950924043E+02 -0.29933854360E+02  0.15641340399E+04  0.15644587732E+04  0.00000000000E+00 0. -1.
         21    1    1    2  503  502  0.10950924043E+02  0.29933854360E+02  0.59139838237E+03  0.59225670536E+03  0.00000000000E+00 0. -1.
</event>
<event>
 4    1  0.2253948E+005  0.2712030E+02  0.7546771E-02  0.1446403E+00
          2   -1    0    0  502    0  0.00000000000E+00  0.00000000000E+00  0.42787490963E+03  0.42787490963E+03  0.00000000000E+00 0. -1.
         21   -1    0    0  503  502 -0.00000000000E+00 -0.00000000000E+00 -0.54043336806E+01  0.54043336806E+01  0.00000000000E+00 0. -1.
          2    1    1    2  501    0  0.48849292118E+01 -0.26676734258E+02  0.39013353469E+03  0.39107503829E+03  0.00000000000E+00 0. -1.
         21    1    1    2  503  501 -0.48849292118E+01  0.26676734258E+02  0.32337041263E+02  0.42204205024E+02  0.00000000000E+00 0. -1.
</event>
<event>
 4    1  0.2253948E+005  0.2066661E+02  0.7546771E-02  0.1524078E+00
          2   -1    0    0  502    0  0.00000000000E+00  0.00000000000E+00  0.61234645710E+03  0.61234645710E+03  0.00000000000E+00 0. -1.
         21   -1    0    0  503  502 -0.00000000000E+00 -0.00000000000E+00 -0.85504230949E+01  0.85504230949E+01  0.00000000000E+00 0.  1.
          2    1    1    2  501    0  0.30520757791E+01 -0.20440003587E+02  0.59941480407E+03  0.59977096983E+03  0.00000000000E+00 0. -1.
         21    1    1    2  503  501 -0.30520757791E+01  0.20440003587E+02  0.43812299411E+01  0.21125910370E+02  0.00000000000E+00 0.  1.
</event>
<event>
 4    1  0.2253948E+005  0.2860019E+02  0.7546771E-02  0.1432164E+00
          2   -1    0    0  503    0  0.00000000000E+00  0.00000000000E+00  0.17716829639E+04  0.17716829639E+04  0.00000000000E+00 0. -1.
         21   -1    0    0  501  502 -0.00000000000E+00 -0.00000000000E+00 -0.62276853806E+00  0.62276853806E+00  0.00000000000E+00 0.  1.
          2    1    1    2  501    0 -0.20340027915E+01  0.28527771322E+02  0.13362037602E+04  0.13365098053E+04  0.00000000000E+00 0. -1.
         21    1    1    2  503  502  0.20340027915E+01 -0.28527771322E+02  0.43485643517E+03  0.43579592715E+03  0.00000000000E+00 0.  1.
</event>
<event>
 4    1  0.2253948E+005  0.2121805E+02  0.7546771E-02  0.1516174E+00
          2   -1    0    0  503    0  0.00000000000E+00  0.00000000000E+00  0.12622546734E+03  0.12622546734E+03  0.00000000000E+00 0.  1.
         21   -1    0    0  501  502 -0.00000000000E+00 -0.00000000000E+00 -0.12729243096E+02  0.12729243096E+02  0.00000000000E+00 0. -1.
          2    1    1    2  501    0  0.71156802681E+01 -0.19989315224E+02  0.11569359344E+03  0.11762318306E+03  0.00000000000E+00 0.  1.
         21    1    1    2  503  502 -0.71156802681E+01  0.19989315224E+02 -0.21973692014E+01  0.21331527377E+02  0.00000000000E+00 0. -1.
</event>
<event>
 4    1  0.2253948E+005  0.4399431E+02  0.7546771E-02  0.1326545E+00
          2   -1    0    0  503    0  0.00000000000E+00  0.00000000000E+00  0.83318003524E+03  0.83318003524E+03  0.00000000000E+00 0.  1.
         21   -1    0    0  501  502 -0.00000000000E+00 -0.00000000000E+00 -0.71720496562E+02  0.71720496562E+02  0.00000000000E+00 0. -1.
          2    1    1    2  501    0 -0.23015931992E+02  0.37493550607E+02  0.82579228910E+03  0.82696336327E+03  0.00000000000E+00 0.  1.
         21    1    1    2  503  502  0.23015931992E+02 -0.37493550607E+02 -0.64332750417E+02  0.77937168532E+02  0.00000000000E+00 0. -1.
</event>
<event>
 4    1  0.2253948E+005  0.2287070E+02  0.7546771E-02  0.1494128E+00
          2   -1    0    0  503    0  0.00000000000E+00  0.00000000000E+00  0.10638653571E+03  0.10638653571E+03  0.00000000000E+00 0. -1.
         21   -1    0    0  501  502 -0.00000000000E+00 -0.00000000000E+00 -0.50492076242E+02  0.50492076242E+02  0.00000000000E+00 0. -1.
          2    1    1    2  501    0  0.22802885357E+02  0.17598944661E+01  0.10246971723E+03  0.10499100799E+03  0.00000000000E+00 0. -1.
         21    1    1    2  503  502 -0.22802885357E+02 -0.17598944661E+01 -0.46575257764E+02  0.51887603962E+02  0.00000000000E+00 0. -1.
</event>
<event>
 4    1  0.2253948E+005  0.2451589E+02  0.7546771E-02  0.1474293E+00
          2   -1    0    0  503    0  0.00000000000E+00  0.00000000000E+00  0.11858575246E+04  0.11858575246E+04  0.00000000000E+00 0. -1.
         21   -1    0    0  501  502 -0.00000000000E+00 -0.00000000000E+00 -0.12246475929E+02  0.12246475929E+02  0.00000000000E+00 0. -1.
          2    1    1    2  501    0 -0.70694935728E+01  0.23474478031E+02  0.11733304115E+04  0.11735865044E+04  0.00000000000E+00 0. -1.
         21    1    1    2  503  502  0.70694935728E+01 -0.23474478031E+02  0.28063719390E+00  0.24517496109E+02  0.00000000000E+00 0. -1.
</event>
<event>
 4    1  0.2253948E+005  0.2451093E+02  0.7546771E-02  0.1474350E+00
          2   -1    0    0  503    0  0.00000000000E+00  0.00000000000E+00  0.11607986808E+04  0.11607986808E+04  0.00000000000E+00 0. -1.
         21   -1    0    0  501  502 -0.00000000000E+00 -0.00000000000E+00 -0.58553205577E+00  0.58553205577E+00  0.00000000000E+00 0. -1.
          2    1    1    2  501    0 -0.21971426467E+02 -0.10864715999E+02  0.77795310551E+03  0.77833914203E+03  0.00000000000E+00 0. -1.
         21    1    1    2  503  502  0.21971426467E+02  0.10864715999E+02  0.38226004323E+03  0.38304507082E+03  0.00000000000E+00 0. -1.
</event>
<event>
 4    1  0.2253948E+005  0.2105094E+02  0.7546771E-02  0.1518539E+00
          2   -1    0    0  502    0  0.00000000000E+00  0.00000000000E+00  0.36884903245E+03  0.36884903245E+03  0.00000000000E+00 0.  1.
         21   -1    0    0  503  502 -0.00000000000E+00 -0.00000000000E+00 -0.95981593242E+01  0.95981593242E+01  0.00000000000E+00 0.  1.
          2    1    1    2  501    0 -0.27771992050E+01 -0.20866944831E+02  0.35661052457E+03  0.35723130946E+03  0.00000000000E+00 0.  1.
         21    1    1    2  503  501  0.27771992050E+01  0.20866944831E+02  0.26403485558E+01  0.21215882317E+02  0.00000000000E+00 0.  1.
</event>
<event>
 4    1  0.2253948E+005  0.2103788E+02  0.7546771E-02  0.1518725E+00
          2   -1    0    0  503    0  0.00000000000E+00  0.00000000000E+00  0.10446569383E+04  0.10446569383E+04  0.00000000000E+00 0.  1.
         21   -1    0    0  501  502 -0.00000000000E+00 -0.00000000000E+00 -0.88471168924E+00  0.88471168924E+00  0.00000000000E+00 0.  1.
          2    1    1    2  501    0 -0.19645629166E+02  0.75260665240E+01  0.89926654617E+03  0.89951259773E+03  0.00000000000E+00 0.  1.
         21    1    1    2  503  502  0.19645629166E+02 -0.75260665240E+01  0.14450568041E+03  0.14602905223E+03  0.00000000000E+00 0.  1.
</event>
<event>
 4    1  0.2253948E+005  0.2508367E+02  0.7546771E-02  0.1467870E+00
          2   -1    0    0  502    0  0.00000000000E+00  0.00000000000E+00  0.31149116754E+03  0.31149116754E+03  0.00000000000E+00 0. -1.
         21   -1    0    0  503  502 -0.00000000000E+00 -0.00000000000E+00 -0.18080297215E+03  0.18080297215E+03  0.00000000000E+00 0. -1.
          2    1    1    2  501    0 -0.22406738474E+02  0.11275131262E+02  0.31011232829E+03  0.31112513025E+03  0.00000000000E+00 0. -1.
         21    1    1    2  503  501  0.22406738474E+02 -0.11275131262E+02 -0.17942413290E+03  0.18116900944E+03  0.00000000000E+00 0. -1.
</event>
<event>
 4    1  0.2253948E+005  0.3944866E+02  0.7546771E-02  0.1351747E+00
          2   -1    0    0  503    0  0.00000000000E+00  0.00000000000E+00  0.61149535420E+03  0.61149535420E+03  0.00000000000E+00 0. -1.
         21   -1    0    0  501  502 -0.00000000000E+00 -0.00000000000E+00 -0.81155484946E+01  0.81155484946E+01  0.00000000000E+00 0.  1.
          2    1    1    2  501    0  0.35944108643E+02  0.16254779439E+02  0.55836447665E+03  0.55975627338E+03  0.00000000000E+00 0. -1.
         21    1    1    2  503  502 -0.35944108643E+02 -0.16254779439E+02  0.45015329056E+02  0.59854629318E+02  0.00000000000E+00 0.  1.
</event>
<event>
 4    1  0.2253948E+005  0.2022373E+02  0.7546771E-02  0.1530643E+00
          2   -1    0    0  503    0  0.00000000000E+00  0.00000000000E+00  0.21267144023E+03  0.21267144023E+03  0.00000000000E+00 0.  1.
         21   -1    0    0  501  502 -0.00000000000E+00 -0.00000000000E+00 -0.24033126108E+03  0.24033126108E+03  0.00000000000E+00 0.  1.
          2    1    1    2  501    0 -0.28660479155E+01 -0.20019619382E+02  0.21176337832E+03  0.21272688544E+03  0.00000000000E+00 0.  1.
         21    1    1    2  503  502  0.28660479155E+01  0.20019619382E+02 -0.23942319918E+03  0.24027581587E+03  0.00000000000E+00 0.  1.
</event>
<event>
 4    1  0.2253948E+005  0.2655864E+02  0.7546771E-02  0.1452093E+00
          2   -1    0    0  503    0  0.00000000000E+00  0.00000000000E+00  0.10695760769E+04  0.10695760769E+04  0.00000000000E+00 0. -1.
         21   -1    0    0  501  502 -0.00000000000E+00 -0.00000000000E+00 -0.74220854892E+00  0.74220854892E+00  0.00000000000E+00 0. -1.
          2    1    1    2  501    0  0.21748222890E+02 -0.15243892630E+02  0.71308789912E+03  0.71358231013E+03  0.00000000000E+00 0. -1.
         21    1    1    2  503  502 -0.21748222890E+02  0.15243892630E+02  0.35574596921E+03  0.35673597529E+03  0.00000000000E+00 0. -1.
</event>
<event>
 4    1  0.2253948E+005  0.3531146E+02  0.7546771E-02  0.1378387E+00
          2   -1    0    0  503    0  0.00000000000E+00  0.00000000000E+00  0.61296255119E+03  0.61296255119E+03  0.00000000000E+00 0.  1.
         21   -1    0    0  501  502 -0.00000000000E+00 -0.00000000000E+00 -0.27938977648E+01  0.27938977648E+01  0.00000000000E+00 0. -1.
          2    1    1    2  501    0  0.35943713577E+01 -0.35128051079E+02  0.46562644414E+03  0.46696347283E+03  0.00000000000E+00 0.  1.
         21    1    1    2  503  502 -0.35943713577E+01  0.35128051079E+02  0.14454220929E+03  0.14879297612E+03  0.00000000000E+00 0. -1.
</event>
<event>
 4    1  0.2253948E+005  0.2405113E+02  0.7546771E-02  0.1479705E+00
          2   -1    0    0  503    0  0.00000000000E+00  0.00000000000E+00  0.69911245628E+00  0.69911245628E+00  0.00000000000E+00 0. -1.
         21   -1    0    0  501  502 -0.00000000000E+00 -0.00000000000E+00 -0.87483746356E+03  0.87483746356E+03  0.00000000000E+00 0. -1.
          2    1    1    2  501    0 -0.62226255806E+00  0.24043082683E+02 -0.53899089825E+03  0.53952724253E+03  0.00000000000E+00 0. -1.
         21    1    1    2  503  502  0.62226255806E+00 -0.24043082683E+02 -0.33514745285E+03  0.33600933349E+03  0.00000000000E+00 0. -1.
</event>
<event>
 4    1  0.2253948E+005  0.2170824E+02  0.7546771E-02  0.1509389E+00
          2   -1    0    0  502    0  0.00000000000E+00  0.00000000000E+00  0.10113593535E+04  0.10113593535E+04  0.00000000000E+00 0. -1.
         21   -1    0    0  503  502 -0.00000000000E+00 -0.00000000000E+00 -0.48014118146E+00  0.48014118146E+00  0.00000000000E+00 0. -1.
          2    1    1    2  501    0  0.18420483684E+02 -0.11486235117E+02  0.59240208170E+03  0.59279969148E+03  0.00000000000E+00 0. -1.
         21    1    1    2  503  501 -0.18420483684E+02  0.11486235117E+02  0.41847713060E+03  0.41903980319E+03  0.00000000000E+00 0. -1.
</event>
<event>
 4    1  0.2253948E+005  0.2680319E+02  0.7546771E-02  0.1449595E+00
          2   -1    0    0  502    0  0.00000000000E+00  0.00000000000E+00  0.33414879537E+01  0.33414879537E+01  0.00000000000E+00 0.  1.
         21   -1    0    0  503  502 -0.00000000000E+00 -0.00000000000E+00 -0.67475522653E+03  0.67475522653E+03  0.00000000000E+00 0.  1.
          2    1    1    2  501    0 -0.26244639271E+02  0.54433150604E+01 -0.55838932983E+02  0.61938656799E+02  0.00000000000E+00 0.  1.
         21    1    1    2  503  501  0.26244639271E+02 -0.54433150604E+01 -0.61557480559E+03  0.61615805768E+03  0.00000000000E+00 0.  1.
</event>
<event>
 4    1  0.2253948E+005  0.2235101E+02  0.7546771E-02  0.1500812E+00
          2   -1    0    0  502    0  0.00000000000E+00  0.00000000000E+00  0.13360206270E+04  0.13360206270E+04  0.00000000000E+00 0. -1.
         21   -1    0    0  503  502 -0.00000000000E+00 -0.00000000000E+00 -0.21717122650E+01  0.21717122650E+01  0.00000000000E+00 0.  1.
          2    1    1    2  501    0  0.19428785389E+02  0.11049424083E+02  0.12756996077E+04  0.12758953941E+04  0.00000000000E+00 0. -1.
         21    1    1    2  503  501 -0.19428785389E+02 -0.11049424083E+02  0.58149307020E+02  0.62296945200E+02  0.00000000000E+00 0.  1.
</event>
<event>
 4    1  0.2253948E+005  0.2007124E+02  0.7546771E-02  0.1532949E+00
          2   -1    0    0  503    0  0.00000000000E+00  0.00000000000E+00  0.17740397217E+03  0.17740397217E+03  0.00000000000E+00 0. -1.
         21   -1    0    0  501  502 -0.00000000000E+00 -0.00000000000E+00 -0.43689691044E+01  0.43689691044E+01  0.00000000000E+00 0. -1.
          2    1    1    2  501    0  0.12901706533E+02 -0.15375332101E+02  0.14950096479E+03  0.15084227968E+03  0.00000000000E+00 0. -1.
         21    1    1    2  503  502 -0.12901706533E+02  0.15375332101E+02  0.23534038284E+02  0.30930661594E+02  0.00000000000E+00 0. -1.
</event>
<event>
 4    1  0.2253948E+005  0.2169518E+02  0.7546771E-02  0.1509567E+00
          2   -1    0    0  503    0  0.00000000000E+00  0.00000000000E+00  0.64194446386E+03  0.64194446386E+03  0.00000000000E+00 0. -1.
         21   -1    0    0  501  502 -0.00000000000E+00 -0.00000000000E+00 -0.10781202084E+01  0.10781202084E+01  0.00000000000E+00 0. -1.
          2    1    1    2  501    0 -0.13936500108E+02  0.16626925439E+02  0.50228391844E+03  0.50275224058E+03  0.00000000000E+00 0. -1.
         21    1    1    2  503  502  0.13936500108E+02 -0.16626925439E+02  0.13858242521E+03  0.14027034349E+03  0.00000000000E+00 0. -1.
</event>
<event>
 4    1  0.2253948E+005  0.3323165E+02  0.7546771E-02  0.1393440E+00
          2   -1    0    0  502    0  0.00000000000E+00  0.00000000000E+00  0.48389470394E+03  0.48389470394E+03  0.00000000000E+00 0. -1.
         21   -1    0    0  503  502 -0.00000000000E+00 -0.00000000000E+00 -0.35293113729E+03  0.35293113729E+03  0.00000000000E+00 0.  1.
          2    1    1    2  501    0  0.33188898023E+02 -0.16850857817E+01  0.48253969609E+03  0.48368264469E+03  0.00000000000E+00 0. -1.
         21    1    1    2  503  501 -0.33188898023E+02  0.16850857817E+01 -0.35157612945E+03  0.35314319654E+03  0.00000000000E+00 0.  1.
</event>
<event>
 4    1  0.2253948E+005  0.2862439E+02  0.7546771E-02  0.1431939E+00
          2   -1    0    0  503    0  0.00000000000E+00  0.00000000000E+00  0.33686304256E+04  0.33686304256E+04  0.00000000000E+00 0.  1.
         21   -1    0    0  501  502 -0.00000000000E+00 -0.00000000000E+00 -0.24601392802E+00  0.24601392802E+00  0.00000000000E+00 0.  1.
          2    1    1    2  501    0  0.26466375229E+02  0.10903516416E+02  0.15050415803E+04  0.15053137593E+04  0.00000000000E+00 0.  1.
         21    1    1    2  503  502 -0.26466375229E+02 -0.10903516416E+02  0.18633428314E+04  0.18635626802E+04  0.00000000000E+00 0.  1.
</event>
<event>
 4    1  0.2253948E+005  0.2391598E+02  0.7546771E-02  0.1481306E+00
          2   -1    0    0  502    0  0.00000000000E+00  0.00000000000E+00  0.67447488031E+02  0.67447488031E+02  0.00000000000E+00 0.  1.
         21   -1    0    0  503  502 -0.00000000000E+00 -0.00000000000E+00 -0.14964322585E+02  0.14964322585E+02  0.00000000000E+00 0.  1.
          2    1    1    2  501    0 -0.85030863438E+00 -0.23900862434E+02  0.53365569742E+02  0.58479554408E+02  0.00000000000E+00 0.  1.
         21    1    1    2  503  501  0.85030863438E+00  0.23900862434E+02 -0.88240429622E+00  0.23932256208E+02  0.00000000000E+00 0.  1.
</event>
<event>
 4    1  0.2253948E+005  0.2090163E+02  0.7546771E-02  0.1520674E+00
          2   -1    0    0  503    0  0.00000000000E+00  0.00000000000E+00  0.70931706129E+03  0.70931706129E+03  0.00000000000E+00 0. -1.
         21   -1    0    0  501  502 -0.00000000000E+00 -0.00000000000E+00 -0.15762093206E+01  0.15762093206E+01  0.00000000000E+00 0.  1.
          2    1    1    2  501    0  0.17497175481E+02  0.11433590469E+02  0.63131096632E+03  0.63165688023E+03  0.00000000000E+00 0. -1.
         21    1    1    2  503  502 -0.17497175481E+02 -0.11433590469E+02  0.76429885649E+02  0.79236390385E+02  0.00000000000E+00 0.  1.
</event>
<event>
 4    1  0.2253948E+005  0.2684794E+02  0.7546771E-02  0.1449142E+00
          2   -1    0    0  503    0  0.00000000000E+00  0.00000000000E+00  0.22671988255E+02  0.22671988255E+02  0.00000000000E+00 0.  1.
         21   -1    0    0  501  502 -0.00000000000E+00 -0.00000000000E+00 -0.31968557057E+02  0.31968557057E+02  0.00000000000E+00 0.  1.
          2    1    1    2  501    0  0.18868977793E+02 -0.19099042721E+02 -0.26240287157E+01  0.26975864815E+02  0.00000000000E+00 0.  1.
         21    1    1    2  503  502 -0.18868977793E+02  0.19099042721E+02 -0.66725400866E+01  0.27664680497E+02  0.00000000000E+00 0.  1.
</event>
<event>
 4    1  0.2253948E+005  0.2034569E+02  0.7546771E-02  0.1528815E+00
          2   -1    0    0  502    0  0.00000000000E+00  0.00000000000E+00  0.12974699770E+04  0.12974699770E+04  0.00000000000E+00 0. -1.
         21   -1    0    0  503  502 -0.00000000000E+00 -0.00000000000E+00 -0.21441167791E+02  0.21441167791E+02  0.00000000000E+00 0. -1.
          2    1    1    2  501    0 -0.17354673819E+02 -0.10618972091E+02  0.12925452806E+04  0.12927053994E+04  0.00000000000E+00 0. -1.
         21    1    1    2  503  501  0.17354673819E+02  0.10618972091E+02 -0.16516471297E+02  0.26205745472E+02  0.00000000000E+00 0. -1.
</event>
<event>
 4    1  0.2253948E+005  0.2256262E+02  0.7546771E-02  0.1498065E+00
          2   -1    0    0  503    0  0.00000000000E+00  0.00000000000E+00  0.66520885104E+03  0.66520885104E+03  0.00000000000E+00 0. -1.
         21   -1    0    0  501  502 -0.00000000000E+00 -0.00000000000E+00 -0.52811141731E+02  0.52811141731E+02  0.00000000000E+00 0.  1.
          2    1    1    2  501    0 -0.19946891992E+01  0.22474272538E+02  0.66259816959E+03  0.66298220644E+03  0.00000000000E+00 0. -1.
         21    1    1    2  503  502  0.19946891992E+01 -0.22474272538E+02 -0.50200460285E+02  0.55037786328E+02  0.00000000000E+00 0.  1.
</event>
<event>
 4    1  0.2253948E+005  0.4224103E+02  0.7546771E-02  0.1335831E+00
          2   -1    0    0  502    0  0.00000000000E+00  0.00000000000E+00  0.29325320675E+04  0.29325320675E+04  0.00000000000E+00 0.  1.
         21   -1    0    0  503  502 -0.00000000000E+00 -0.00000000000E+00 -0.87464973615E+01  0.87464973615E+01  0.00000000000E+00 0.  1.
          2    1    1    2  501    0  0.16667750477E+02 -0.38813541020E+02  0.28804574306E+04  0.28807671399E+04  0.00000000000E+00 0.  1.
         21    1    1    2  503  501 -0.16667750477E+02  0.38813541020E+02  0.43328139492E+02  0.60511424908E+02  0.00000000000E+00 0.  1.
</event>
<event>
 4    1  0.2253948E+005  0.2083597E+02  0.7546771E-02  0.1521620E+00
          2   -1    0    0  502    0  0.00000000000E+00  0.00000000000E+00  0.14942898673E+03  0.14942898673E+03  0.00000000000E+00 0. -1.
         21   -1    0    0  503  502 -0.00000000000E+00 -0.00000000000E+00 -0.24158595770E+03  0.24158595770E+03  0.00000000000E+00 0. -1.
          2    1    1    2  501    0  0.14144913328E+02  0.15298986980E+02  0.14824984547E+03  0.14970689449E+03  0.00000000000E+00 0. -1.
         21    1    1    2  503  501 -0.14144913328E+02 -0.15298986980E+02 -0.24040681644E+03  0.24130804994E+03  0.00000000000E+00 0. -1.
</event>
<event>
 4    1  0.2253948E+005  0.2234349E+02  0.7546771E-02  0.1500911E+00
          2   -1    0    0  503    0  0.00000000000E+00  0.00000000000E+00  0.10691055148E+03  0.10691055148E+03  0.00000000000E+00 0.  1.
         21   -1    0    0  501  502 -0.00000000000E+00 -0.00000000000E+00 -0.17361143300E+02  0.17361143300E+02  0.00000000000E+00 0. -1.
          2    1    1    2  501    0 -0.21645077040E+02 -0.55427548111E+01  0.97901052449E+02  0.10041836267E+03  0.00000000000E+00 0.  1.
         21    1    1    2  503  502  0.21645077040E+02  0.55427548111E+01 -0.83516442643E+01  0.23853332113E+02  0.00000000000E+00 0. -1.
</event>
<event>
 4    1  0.2253948E+005  0.2036018E+02  0.7546771E-02  0.1528599E+00
          2   -1    0    0  503    0  0.00000000000E+00  0.00000000000E+00  0.15026928654E+04  0.15026928654E+04  0.00000000000E+00 0. -1.
         21   -1    0    0  501  502 -0.00000000000E+00 -0.00000000000E+00 -0.74850474270E+01  0.74850474270E+01  0.00000000000E+00 0. -1.
          2    1    1    2  501    0  0.96244756430E+01 -0.17941752746E+02  0.14886477720E+04  0.14887869983E+04  0.00000000000E+00 0. -1.
         21    1    1    2  503  502 -0.96244756430E+01  0.17941752746E+02  0.65600459376E+01  0.21390914560E+02  0.00000000000E+00 0. -1.
</event>
<event>
 4    1  0.2253948E+005  0.4520226E+02  0.7546771E-02  0.1320431E+00
          2   -1    0    0  502    0  0.00000000000E+00  0.00000000000E+00  0.62159122611E+03  0.62159122611E+03  0.00000000000E+00 0.  1.
         21   -1    0    0  503  502 -0.00000000000E+00 -0.00000000000E+00 -0.85548483587E+02  0.85548483587E+02  0.00000000000E+00 0.  1.
          2    1    1    2  501    0 -0.44116353555E+02  0.98484405621E+01  0.61473189710E+03  0.61639155555E+03  0.00000000000E+00 0.  1.
         21    1    1    2  503  501  0.44116353555E+02 -0.98484405621E+01 -0.78689154582E+02  0.90748154148E+02  0.00000000000E+00 0.  1.
</event>
<event>
 4    1  0.2253948E+005  0.2308585E+02  0.7546771E-02  0.1491423E+00
          2   -1    0    0  502    0  0.00000000000E+00  0.00000000000E+00  0.21743876964E+02  0.21743876964E+02  0.00000000000E+00 0.  1.
         21   -1    0    0  503  502 -0.00000000000E+00 -0.00000000000E+00 -0.17745675744E+03  0.17745675744E+03  0.00000000000E+00 0. -1.
          2    1    1    2  501    0 -0.92121187911E+01 -0.21168213355E+02  0.14609901510E+02  0.27320424803E+02  0.00000000000E+00 0.  1.
         21    1    1    2  503  501  0.92121187911E+01  0.21168213355E+02 -0.17032278199E+03  0.17188020960E+03  0.00000000000E+00 0. -1.
</event>
<event>
 4    1  0.2253948E+005  0.3557161E+02  0.7546771E-02  0.1376589E+00
          2   -1    0    0  502    0  0.00000000000E+00  0.00000000000E+00  0.56614647019E+03  0.56614647019E+03  0.00000000000E+00 0. -1.
         21   -1    0    0  503  502 -0.00000000000E+00 -0.00000000000E+00 -0.89862358096E+01  0.89862358096E+01  0.00000000000E+00 0.  1.
          2    1    1    2  501    0 -0.35498538738E+02 -0.22787994476E+01  0.52783329249E+03  0.52903055095E+03  0.00000000000E+00 0. -1.
         21    1    1    2  503  501  0.35498538738E+02  0.22787994476E+01  0.29326941891E+02  0.46102155048E+02  0.00000000000E+00 0.  1.
</event>
<event>
 4    1  0.2253948E+005  0.2661557E+02  0.7546771E-02  0.1451508E+00
          2   -1    0    0  503    0  0.00000000000E+00  0.00000000000E+00  0.35969234301E+03  0.35969234301E+03  0.00000000000E+00 0.  1.
         21   -1    0    0  501  502 -0.00000000000E+00 -0.00000000000E+00 -0.14030423682E+02  0.14030423682E+02  0.00000000000E+00 0.  1.
          2    1    1    2  501    0  0.24471463374E+02 -0.10465943864E+02  0.34608195218E+03  0.34710388377E+03  0.00000000000E+00 0.  1.
         21    1    1    2  503  502 -0.24471463374E+02  0.10465943864E+02 -0.42003285274E+00  0.26618882926E+02  0.00000000000E+00 0.  1.
</event>
<event>
 4    1  0.2253948E+005  0.2449560E+02  0.7546771E-02  0.1474526E+00
          2   -1    0    0  503    0  0.00000000000E+00  0.00000000000E+00  0.89010936620E+03  0.89010936620E+03  0.00000000000E+00 0.  1.
         21   -1    0    0  501  502 -0.00000000000E+00 -0.00000000000E+00 -0.46939887142E+01  0.46939887142E+01  0.00000000000E+00 0. -1.
          2    1    1    2  501    0 -0.24472591411E+02  0.10614729430E+01  0.85673871850E+03  0.85708883218E+03  0.00000000000E+00 0.  1.
         21    1    1    2  503  502  0.24472591411E+02 -0.10614729430E+01  0.28676658986E+02  0.37714522744E+02  0.00000000000E+00 0. -1.
</event>
<event>
 4    1  0.2253948E+005  0.2978372E+02  0.7546771E-02  0.1421485E+00
          2   -1    0    0  502    0  0.00000000000E+00  0.00000000000E+00  0.10011216679E+02  0.10011216679E+02  0.00000000000E+00 0. -1.
         21   -1    0    0  503  502 -0.00000000000E+00 -0.00000000000E+00 -0.90615970227E+02  0.90615970227E+02  0.00000000000E+00 0. -1.
          2    1    1    2  501    0  0.79179047761E+01  0.28711962515E+02 -0.47792750838E+02  0.56313560003E+02  0.00000000000E+00 0. -1.
         21    1    1    2  503  501 -0.79179047761E+01 -0.28711962515E+02 -0.32812002710E+02  0.44313626903E+02  0.00000000000E+00 0. -1.
</event>
<event>
 4    1  0.2253948E+005  0.2044951E+02  0.7546771E-02  0.1527271E+00
          2   -1    0    0  502    0  0.00000000000E+00  0.00000000000E+00  0.15729990097E+03  0.15729990097E+03  0.00000000000E+00 0. -1.
         21   -1    0    0  503  502 -0.00000000000E+00 -0.00000000000E+00 -0.73524428456E+02  0.73524428456E+02  0.00000000000E+00 0. -1.
          2    1    1    2  501    0 -0.16591684137E+02  0.11954017279E+02  0.15519414764E+03  0.15653563803E+03  0.00000000000E+00 0. -1.
         21    1    1    2  503  501  0.16591684137E+02 -0.11954017279E+02 -0.71418675130E+02  0.74288691393E+02  0.00000000000E+00 0. -1.
</event>
<event>
 4    1  0.2253948E+005  0.2425689E+02  0.7546771E-02  0.1477291E+00
          2   -1    0    0  503    0  0.00000000000E+00  0.00000000000E+00  0.94885387489E+03  0.94885387489E+03  0.00000000000E+00 0.  1.
         21   -1    0    0  501  502 -0.00000000000E+00 -0.00000000000E+00 -0.22512915321E+02  0.22512915321E+02  0.00000000000E+00 0.  1.
          2    1    1    2  501    0 -0.36181021541E+01  0.23985537402E+02  0.94211814909E+03  0.94243037065E+03  0.00000000000E+00 0.  1.
         21    1    1    2  503  502  0.36181021541E+01 -0.23985537402E+02 -0.15777189526E+02  0.28936419561E+02  0.00000000000E+00 0.  1.
</event>
<event>
 4    1  0.2253948E+005  0.2411852E+02  0.7546771E-02  0.1478911E+00
          2   -1    0    0  503    0  0.00000000000E+00  0.00000000000E+00  0.23731099747E+01  0.23731099747E+01  0.00000000000E+00 0.  1.
         21   -1    0    0  501  502 -0.00000000000E+00 -0.00000000000E+00 -0.45266257568E+03  0.45266257568E+03  0.00000000000E+00 0.  1.
          2    1    1    2  501    0  0.23713849905E+02 -0.43996022667E+01 -0.71088625868E+02  0.75068607988E+02  0.00000000000E+00 0.  1.
         21    1    1    2  503  502 -0.23713849905E+02  0.43996022667E+01 -0.37920083984E+03  0.37996707767E+03  0.00000000000E+00 0.  1.
</event>
<event>
 4    1  0.2253948E+005  0.3458491E+02  0.7546771E-02  0.1383505E+00
          2   -1    0    0  502    0  0.00000000000E+00  0.00000000000E+00  0.44198124503E+03  0.44198124503E+03  0.00000000000E+00 0. -1.
         21   -1    0    0  503  502 -0.00000000000E+00 -0.00000000000E+00 -0.18379357398E+02  0.18379357398E+02  0.00000000000E+00 0. -1.
          2    1    1    2  501    0 -0.34573870733E+02 -0.87386894185E+00  0.42436038916E+03  0.42576737319E+03  0.00000000000E+00 0. -1.
         21    1    1    2  503  501  0.34573870733E+02  0.87386894185E+00 -0.75850153104E+00  0.34593229236E+02  0.00000000000E+00 0. -1.
</event>
<event>
 4    1  0.2253948E+005  0.3134987E+02  0.7546771E-02  0.1408218E+00
          2   -1    0    0  503    0  0.00000000000E+00  0.00000000000E+00  0.57465263026E+02  0.57465263026E+02  0.00000000000E+00 0.  1.
         21   -1    0    0  501  502 -0.00000000000E+00 -0.00000000000E+00 -0.47577229338E+02  0.47577229338E+02  0.00000000000E+00 0. -1.
          2    1    1    2  501    0 -0.31349046088E+02 -0.22778655042E+00  0.46978288579E+02  0.56478085796E+02  0.00000000000E+00 0.  1.
         21    1    1    2  503  502  0.31349046088E+02  0.22778655042E+00 -0.37090254892E+02  0.48564406568E+02  0.00000000000E+00 0. -1.
</event>
<event>
 4    1  0.2253948E+005  0.2386726E+02  0.7546771E-02  0.1481886E+00
          2   -1    0    0  503    0  0.00000000000E+00  0.00000000000E+00  0.14194640131E+03  0.14194640131E+03  0.00000000000E+00 0.  1.
         21   -1    0    0  501  502 -0.00000000000E+00 -0.00000000000E+00 -0.32976358663E+02  0.32976358663E+02  0.00000000000E+00 0.  1.
          2    1    1    2  501    0 -0.41859547214E+01  0.23497316543E+02  0.13645194489E+03  0.13852356971E+03  0.00000000000E+00 0.  1.
         21    1    1    2  503  502  0.41859547214E+01 -0.23497316543E+02 -0.27481902236E+02  0.36399190268E+02  0.00000000000E+00 0.  1.
</event>
<event>
 4    1  0.2253948E+005  0.2530345E+02  0.7546771E-02  0.1465437E+00
          2   -1    0    0  503    0  0.00000000000E+00  0.00000000000E+00  0.41194458094E+03  0.41194458094E+03  0.00000000000E+00 0.  1.
         21   -1    0    0  501  502 -0.00000000000E+00 -0.00000000000E+00 -0.69078261412E+01  0.69078261412E+01  0.00000000000E+00 0. -1.
          2    1    1    2  501    0 -0.24314507383E+02  0.70049405986E+01  0.38688502220E+03  0.38771160012E+03  0.00000000000E+00 0.  1.
         21    1    1    2  503  502  0.24314507383E+02 -0.70049405986E+01  0.18151732598E+02  0.31140806964E+02  0.00000000000E+00 0. -1.
</event>
<event>
 4    1  0.2253948E+005  0.2598143E+02  0.7546771E-02  0.1458117E+00
          2   -1    0    0  503    0  0.00000000000E+00  0.00000000000E+00  0.10197459191E+04  0.10197459191E+04  0.00000000000E+00 0.  1.
         21   -1    0    0  501  502 -0.00000000000E+00 -0.00000000000E+00 -0.13382072039E+01  0.13382072039E+01  0.00000000000E+00 0.  1.
          2    1    1    2  501    0  0.22760315996E+02 -0.12530071995E+02  0.87213265353E+03  0.87251957001E+03  0.00000000000E+00 0.  1.
         21    1    1    2  503  502 -0.22760315996E+02  0.12530071995E+02  0.14627505840E+03  0.14856455633E+03  0.00000000000E+00 0.  1.
</event>
<event>
 4    1  0.2253948E+005  0.2112297E+02  0.7546771E-02  0.1517516E+00
          2   -1    0    0  503    0  0.00000000000E+00  0.00000000000E+00  0.97211005079E+03  0.97211005079E+03  0.00000000000E+00 0. -1.
         21   -1    0    0  501  502 -0.00000000000E+00 -0.00000000000E+00 -0.29750702875E+01  0.29750702875E+01  0.00000000000E+00 0.  1.
          2    1    1    2  501    0  0.12105351207E+01 -0.21088258152E+02  0.93292757682E+03  0.93316667516E+03  0.00000000000E+00 0. -1.
         21    1    1    2  503  502 -0.12105351207E+01  0.21088258152E+02  0.36207403680E+02  0.41918445921E+02  0.00000000000E+00 0.  1.
</event>
<event>
 4    1  0.2253948E+005  0.2059174E+02  0.7546771E-02  0.1525174E+00
          2   -1    0    0  503    0  0.00000000000E+00  0.00000000000E+00  0.16140291694E+04  0.16140291694E+04  0.00000000000E+00 0.  1.
         21   -1    0    0  501  502 -0.00000000000E+00 -0.00000000000E+00 -0.27816140326E+00  0.27816140326E+00  0.00000000000E+00 0.  1.
          2    1    1    2  501    0 -0.18475401374E+02  0.90928180486E+01  0.99711797869E+03  0.99733057870E+03  0.00000000000E+00 0.  1.
         21    1    1    2  503  502  0.18475401374E+02 -0.90928180486E+01  0.61663302930E+03  0.61697675209E+03  0.00000000000E+00 0.  1.
</event>
<event>
 4    1  0.2253948E+005  0.2107229E+02  0.7546771E-02  0.1518235E+00
          2   -1    0    0  503    0  0.00000000000E+00  0.00000000000E+00  0.52025612814E+01  0.52025612814E+01  0.00000000000E+00 0.  1.
         21   -1    0    0  501  502 -0.00000000000E+00 -0.00000000000E+00 -0.87097719599E+02  0.87097719599E+02  0.00000000000E+00 0. -1.
          2    1    1    2  501    0  0.45979047733E+01 -0.20564544400E+02 -0.34411110405E+02  0.40350535734E+02  0.00000000000E+00 0.  1.
         21    1    1    2  503  502 -0.45979047733E+01  0.20564544400E+02 -0.47484047912E+02  0.51949745146E+02  0.00000000000E+00 0. -1.
</event>
<event>
 4    1  0.2253948E+005  0.5206185E+02  0.7546771E-02  0.1289472E+00
          2   -1    0    0  503    0  0.00000000000E+00  0.00000000000E+00  0.86846087861E+03  0.86846087861E+03  0.00000000000E+00 0. -1.
         21   -1    0    0  501  502 -0.00000000000E+00 -0.00000000000E+00 -0.68572568641E+01  0.68572568641E+01  0.00000000000E+00 0. -1.
          2    1    1    2  501    0 -0.49642993028E+02  0.15684692695E+02  0.75386025461E+03  0.75565582101E+03  0.00000000000E+00 0. -1.
         21    1    1    2  503  502  0.49642993028E+02 -0.15684692695E+02  0.10774336713E+03  0.11966231446E+03  0.00000000000E+00 0. -1.
</event>
<event>
 4    1  0.2253948E+005  0.2400980E+02  0.7546771E-02  0.1480193E+00
          2   -1    0    0  503    0  0.00000000000E+00  0.00000000000E+00  0.30201750665E+03  0.30201750665E+03  0.00000000000E+00 0. -1.
         21   -1    0    0  501  502 -0.00000000000E+00 -0.00000000000E+00 -0.10381777797E+02  0.10381777797E+02  0.00000000000E+00 0. -1.
          2    1    1    2  501    0  0.17824589586E+02  0.16085853505E+02  0.28692985891E+03  0.28793265638E+03  0.00000000000E+00 0. -1.
         21    1    1    2  503  502 -0.17824589586E+02 -0.16085853505E+02  0.47058699424E+01  0.24466628064E+02  0.00000000000E+00 0. -1.
</event>
<event>
 4    1  0.2253948E+005  0.2253762E+02  0.7546771E-02  0.1498387E+00
          2   -1    0    0  503    0  0.00000000000E+00  0.00000000000E+00  0.23381533433E+03  0.23381533433E+03  0.00000000000E+00 0.  1.
         21   -1    0    0  501  502 -0.00000000000E+00 -0.00000000000E+00 -0.60683072891E+02  0.60683072891E+02  0.00000000000E+00 0.  1.
          2    1    1    2  501    0  0.10323986419E+02  0.20033957359E+02  0.23115559869E+03  0.23225170602E+03  0.00000000000E+00 0.  1.
         21    1    1    2  503  502 -0.10323986419E+02 -0.20033957359E+02 -0.58023337259E+02  0.62246701195E+02  0.00000000000E+00 0.  1.
</event>
<event>
 4    1  0.2253948E+005  0.3068463E+02  0.7546771E-02  0.1413739E+00
          2   -1    0    0  502    0  0.00000000000E+00  0.00000000000E+00  0.48905305865E+01  0.48905305865E+01  0.00000000000E+00 0.  1.
         21   -1    0    0  503  502 -0.00000000000E+00 -0.00000000000E+00 -0.29749299305E+03  0.29749299305E+03  0.00000000000E+00 0. -1.
          2    1    1    2  501    0  0.86271047513E+01  0.29446889827E+02 -0.56492298745E+02  0.64287837686E+02  0.00000000000E+00 0.  1.
         21    1    1    2  503  501 -0.86271047513E+01 -0.29446889827E+02 -0.23611016372E+03  0.23809568595E+03  0.00000000000E+00 0. -1.
</event>
<event>
 4    1  0.2253948E+005  0.3416392E+02  0.7546771E-02  0.1386538E+00
          2   -1    0    0  502    0  0.00000000000E+00  0.00000000000E+00  0.10133265964E+03  0.10133265964E+03  0.00000000000E+00 0. -1.
         21   -1    0    0  503  502 -0.00000000000E+00 -0.00000000000E+00 -0.19440901927E+03  0.19440901927E+03  0.00000000000E+00 0. -1.
          2    1    1    2  501    0 -0.31955646808E+02  0.12083474445E+02  0.96885295220E+02  0.10273234227E+03  0.00000000000E+00 0. -1.
         21    1    1    2  503  501  0.31955646808E+02 -0.12083474445E+02 -0.18996165485E+03  0.19300933664E+03  0.00000000000E+00 0. -1.
</event>
<event>
 4    1  0.2253948E+005  0.2029043E+02  0.7546771E-02  0.1529641E+00
          2   -1    0    0  503    0  0.00000000000E+00  0.00000000000E+00  0.12715823460E+04  0.12715823460E+04  0.00000000000E+00 0.  1.
         21   -1    0    0  501  502 -0.00000000000E+00 -0.00000000000E+00 -0.87214283913E+01  0.87214283913E+01  0.00000000000E+00 0. -1.
          2    1    1    2  501    0 -0.77083904798E+01  0.18769186119E+02  0.12595875888E+04  0.12597510054E+04  0.00000000000E+00 0.  1.
         21    1    1    2  503  502  0.77083904798E+01 -0.18769186119E+02  0.32733287435E+01  0.20552768972E+02  0.00000000000E+00 0. -1.
</event>
<event>
 4    1  0.2253948E+005  0.2003245E+02  0.7546771E-02  0.1533540E+00
          2   -1    0    0  502    0  0.00000000000E+00  0.00000000000E+00  0.49388120676E+02  0.49388120676E+02  0.00000000000E+00 0.  1.
         21   -1    0    0  503  502 -0.00000000000E+00 -0.00000000000E+00 -0.81924367171E+01  0.81924367171E+01  0.00000000000E+00 0.  1.
          2    1    1    2  501    0 -0.76701106528E+01  0.18505904759E+02  0.23201826803E+02  0.30653284903E+02  0.00000000000E+00 0.  1.
         21    1    1    2  503  501  0.76701106528E+01 -0.18505904759E+02  0.17993857155E+02  0.26927272489E+02  0.00000000000E+00 0.  1.
</event>
<event>
 4    1  0.2253948E+005  0.2352892E+02  0.7546771E-02  0.1485961E+00
          2   -1    0    0  503    0  0.00000000000E+00  0.00000000000E+00  0.49760190719E+03  0.49760190719E+03  0.00000000000E+00 0. -1.
         21   -1    0    0  501  502 -0.00000000000E+00 -0.00000000000E+00 -0.23006081418E+01  0.23006081418E+01  0.00000000000E+00 0.  1.
          2    1    1    2  501    0  0.21904615262E+02  0.85905659348E+01  0.42726943227E+03  0.42791678834E+03  0.00000000000E+00 0. -1.
         21    1    1    2  503  502 -0.21904615262E+02 -0.85905659348E+01  0.68031866775E+02  0.71985726987E+02  0.00000000000E+00 0.  1.
</event>
<event>
 4    1  0.2253948E+005  0.4517393E+02  0.7546771E-02  0.1320572E+00
          2   -1    0    0  503    0  0.00000000000E+00  0.00000000000E+00  0.11538803803E+04  0.11538803803E+04  0.00000000000E+00 0. -1.
         21   -1    0    0  501  502 -0.00000000000E+00 -0.00000000000E+00 -0.18781590357E+01  0.18781590357E+01  0.00000000000E+00 0. -1.
          2    1    1    2  501    0 -0.29287489025E+01 -0.45078886424E+02  0.71561029335E+03  0.71703471012E+03  0.00000000000E+00 0. -1.
         21    1    1    2  503  502  0.29287489025E+01  0.45078886424E+02  0.43639192795E+03  0.43872382925E+03  0.00000000000E+00 0. -1.
</event>
<event>
 4    1  0.2253948E+005  0.3391510E+02  0.7546771E-02  0.1388355E+00
          2   -1    0    0  503    0  0.00000000000E+00  0.00000000000E+00  0.21302845838E+04  0.21302845838E+04  0.00000000000E+00 0. -1.
         21   -1    0    0  501  502 -0.00000000000E+00 -0.00000000000E+00 -0.63945344954E+00  0.63945344954E+00  0.00000000000E+00 0. -1.
          2    1    1    2  501    0 -0.21737545580E+02 -0.26032925828E+02  0.14851289023E+04  0.14855161024E+04  0.00000000000E+00 0. -1.
         21    1    1    2  503  502  0.21737545580E+02  0.26032925828E+02  0.64451622802E+03  0.64540793480E+03  0.00000000000E+00 0. -1.
</event>
<event>
 4    1  0.2253948E+005  0.4024292E+02  0.7546771E-02  0.1347068E+00
          2   -1    0    0  503    0  0.00000000000E+00  0.00000000000E+00  0.38798626148E+03  0.38798626148E+03  0.00000000000E+00 0. -1.
         21   -1    0    0  501  502 -0.00000000000E+00 -0.00000000000E+00 -0.14982464276E+02  0.14982464276E+02  0.00000000000E+00 0.  1.
          2    1    1    2  501    0 -0.29163022782E+02 -0.27731042629E+02  0.35763331727E+03  0.35989037532E+03  0.00000000000E+00 0. -1.
         21    1    1    2  503  502  0.29163022782E+02  0.27731042629E+02  0.15370479930E+02  0.43078350436E+02  0.00000000000E+00 0.  1.
</event>
<event>
 4    1  0.2253948E+005  0.2094661E+02  0.7546771E-02  0.1520028E+00
          2   -1    0    0  502    0  0.00000000000E+00  0.00000000000E+00  0.10067453397E+02  0.10067453397E+02  0.00000000000E+00 0. -1.
         21   -1    0    0  503  502 -0.00000000000E+00 -0.00000000000E+00 -0.46368935657E+02  0.46368935657E+02  0.00000000000E+00 0. -1.
          2    1    1    2  501    0  0.11724906231E+02  0.17357620648E+02 -0.11232846060E+02  0.23768408682E+02  0.00000000000E+00 0. -1.
         21    1    1    2  503  501 -0.11724906231E+02 -0.17357620648E+02 -0.25068636200E+02  0.32667980372E+02  0.00000000000E+00 0. -1.
</event>
<event>
 4    1  0.2253948E+005  0.2157049E+02  0.7546771E-02  0.1511273E+00
          2   -1    0    0  503    0  0.00000000000E+00  0.00000000000E+00  0.15767842067E+02  0.15767842067E+02  0.00000000000E+00 0.  1.
         21   -1    0    0  501  502 -0.00000000000E+00 -0.00000000000E+00 -0.60840015703E+03  0.60840015703E+03  0.00000000000E+00 0.  1.
          2    1    1    2  501    0  0.21489375194E+02 -0.18688852117E+01  0.81054501543E+01  0.23043096588E+02  0.00000000000E+00 0.  1.
         21    1    1    2  503  502 -0.21489375194E+02  0.18688852117E+01 -0.60073776512E+03  0.60112490251E+03  0.00000000000E+00 0.  1.
</event>
<event>
 4    1  0.2253948E+005  0.2039254E+02  0.7546771E-02  0.1528117E+00
          2   -1    0    0  503    0  0.00000000000E+00  0.00000000000E+00  0.14522744253E+03  0.14522744253E+03  0.00000000000E+00 0.  1.
         21   -1    0    0  501  502 -0.00000000000E+00 -0.00000000000E+00 -0.28925205814E+01  0.28925205814E+01  0.00000000000E+00 0.  1.
          2    1    1    2  501    0 -0.56448465673E+01  0.19595694411E+02  0.78588518205E+02  0.81191198574E+02  0.00000000000E+00 0.  1.
         21    1    1    2  503  502  0.56448465673E+01 -0.19595694411E+02  0.63746403740E+02  0.66928764534E+02  0.00000000000E+00 0.  1.
</event>
<event>
 4    1  0.2253948E+005  0.3305958E+02  0.7546771E-02  0.1394743E+00
          2   -1    0    0  502    0  0.00000000000E+00  0.00000000000E+00  0.23813274003E+04  0.23813274003E+04  0.00000000000E+00 0.  1.
         21   -1    0    0  503  502 -0.00000000000E+00 -0.00000000000E+00 -0.10613195848E+03  0.10613195848E+03  0.00000000000E+00 0. -1.
          2    1    1    2  501    0  0.35689624872E+01  0.32866366324E+02  0.23786352734E+04  0.23788650023E+04  0.00000000000E+00 0.  1.
         21    1    1    2  503  501 -0.35689624872E+01 -0.32866366324E+02 -0.10343983150E+03  0.10859435652E+03  0.00000000000E+00 0. -1.
</event>
<event>
 4    1  0.2253948E+005  0.2250708E+02  0.7546771E-02  0.1498782E+00
          2   -1    0    0  502    0  0.00000000000E+00  0.00000000000E+00  0.93117520763E+03  0.93117520763E+03  0.00000000000E+00 0. -1.
         21   -1    0    0  503  502 -0.00000000000E+00 -0.00000000000E+00 -0.26425023830E+01  0.26425023830E+01  0.00000000000E+00 0. -1.
          2    1    1    2  501    0 -0.30133642582E+01 -0.22304442579E+02  0.88034758449E+03  0.88063524688E+03  0.00000000000E+00 0. -1.
         21    1    1    2  503  501  0.30133642582E+01  0.22304442579E+02  0.48185120752E+02  0.53182463132E+02  0.00000000000E+00 0. -1.
</event>
<event>
 4    1  0.2253948E+005  0.2278367E+02  0.7546771E-02  0.1495233E+00
          2   -1    0    0  502    0  0.00000000000E+00  0.00000000000E+00  0.16024867660E+03  0.16024867660E+03  0.00000000000E+00 0. -1.
         21   -1    0    0  503  502 -0.00000000000E+00 -0.00000000000E+00 -0.12949170761E+02  0.12949170761E+02  0.00000000000E+00 0.  1.
          2    1    1    2  501    0  0.37687725010E+01  0.22469800084E+02  0.14863882119E+03  0.15037484739E+03  0.00000000000E+00 0. -1.
         21    1    1    2  503  501 -0.37687725010E+01 -0.22469800084E+02 -0.13393153556E+01  0.22822999969E+02  0.00000000000E+00 0.  1.
</event>
<event>
 4    1  0.2253948E+005  0.4821792E+02  0.7546771E-02  0.1306089E+00
          2   -1    0    0  503    0  0.00000000000E+00  0.00000000000E+00  0.62677446927E+02  0.62677446927E+02  0.00000000000E+00 0. -1.
         21   -1    0    0  501  502 -0.00000000000E+00 -0.00000000000E+00 -0.23078587059E+03  0.23078587059E+03  0.00000000000E+00 0. -1.
          2    1    1    2  501    0  0.45237762709E+02  0.16688705036E+02  0.50369140472E+02  0.69728174812E+02  0.00000000000E+00 0. -1.
         21    1    1    2  503  502 -0.45237762709E+02 -0.16688705036E+02 -0.21847756414E+03  0.22373514271E+03  0.00000000000E+00 0. -1.
</event>
<event>
 4    1  0.2253948E+005  0.3821982E+02  0.7546771E-02  0.1359246E+00
          2   -1    0    0  503    0  0.00000000000E+00  0.00000000000E+00  0.22190883744E+04  0.22190883744E+04  0.00000000000E+00 0. -1.
         21   -1    0    0  501  502 -0.00000000000E+00 -0.00000000000E+00 -0.10096246748E+01  0.10096246748E+01  0.00000000000E+00 0. -1.
          2    1    1    2  501    0 -0.35123046877E+02 -0.15070714067E+02  0.17638810065E+04  0.17642950320E+04  0.00000000000E+00 0. -1.
         21    1    1    2  503  502  0.35123046877E+02  0.15070714067E+02  0.45419774328E+03  0.45580296713E+03  0.00000000000E+00 0. -1.
</event>
<event>
 4    1  0.2253948E+005  0.2689955E+02  0.7546771E-02  0.1448620E+00
          2   -1    0    0  502    0  0.00000000000E+00  0.00000000000E+00  0.73000192032E+02  0.73000192032E+02  0.00000000000E+00 0.  1.
         21   -1    0    0  503  502 -0.00000000000E+00 -0.00000000000E+00 -0.17235493668E+02  0.17235493668E+02  0.00000000000E+00 0.  1.
          2    1    1    2  501    0  0.17967350550E+02  0.20018990848E+02  0.57292175516E+02  0.63292804139E+02  0.00000000000E+00 0.  1.
         21    1    1    2  503  501 -0.17967350550E+02 -0.20018990848E+02 -0.15274771528E+01  0.26942881561E+02  0.00000000000E+00 0.  1.
</event>
<event>
 4    1  0.2253948E+005  0.2205664E+02  0.7546771E-02  0.1504696E+00
          2   -1    0    0  502    0  0.00000000000E+00  0.00000000000E+00  0.34670534377E+02  0.34670534377E+02  0.00000000000E+00 0. -1.
         21   -1    0    0  503  502 -0.00000000000E+00 -0.00000000000E+00 -0.17544184370E+02  0.17544184370E+02  0.00000000000E+00 0.  1.
          2    1    1    2  501    0  0.56786308697E+01 -0.21313111204E+02  0.20244375304E+02  0.29938775680E+02  0.00000000000E+00 0. -1.
         21    1    1    2  503  501 -0.56786308697E+01  0.21313111204E+02 -0.31180252967E+01  0.22275943067E+02  0.00000000000E+00 0.  1.
</event>
<event>
 4    1  0.2253948E+005  0.3090074E+02  0.7546771E-02  0.1411927E+00
          2   -1    0    0  503    0  0.00000000000E+00  0.00000000000E+00  0.58742880326E+02  0.58742880326E+02  0.00000000000E+00 0. -1.
         21   -1    0    0  501  502 -0.00000000000E+00 -0.00000000000E+00 -0.20576588882E+02  0.20576588882E+02  0.00000000000E+00 0. -1.
          2    1    1    2  501    0 -0.17399314323E+02 -0.25536629284E+02  0.37258937771E+02  0.48405413105E+02  0.00000000000E+00 0. -1.
         21    1    1    2  503  502  0.17399314323E+02  0.25536629284E+02  0.90735367276E+00  0.30914056103E+02  0.00000000000E+00 0. -1.
</event>
<event>
 4    1  0.2253948E+005  0.2185002E+02  0.7546771E-02  0.1507466E+00
          2   -1    0    0  502    0  0.00000000000E+00  0.00000000000E+00  0.12721147357E+04  0.12721147357E+04  0.00000000000E+00 0. -1.
         21   -1    0    0  503  502 -0.00000000000E+00 -0.00000000000E+00 -0.83208320069E+00  0.83208320069E+00  0.00000000000E+00 0. -1.
          2    1    1    2  501    0 -0.13969009266E+02  0.16801495701E+02  0.11072180827E+04  0.11074336577E+04  0.00000000000E+00 0. -1.
         21    1    1    2  503  501  0.13969009266E+02 -0.16801495701E+02  0.16406456972E+03  0.16551316116E+03  0.00000000000E+00 0. -1.
</event>
<event>
 4    1  0.2253948E+005  0.2323136E+02  0.7546771E-02  0.1489613E+00
          2   -1    0    0  502    0  0.00000000000E+00  0.00000000000E+00  0.22286699188E+03  0.22286699188E+03  0.00000000000E+00 0.  1.
         21   -1    0    0  503  502 -0.00000000000E+00 -0.00000000000E+00 -0.15107868374E+02  0.15107868374E+02  0.00000000000E+00 0. -1.
          2    1    1    2  501    0 -0.18866719966E+02  0.13555181081E+02  0.21291466326E+03  0.21417831330E+03  0.00000000000E+00 0.  1.
         21    1    1    2  503  501  0.18866719966E+02 -0.13555181081E+02 -0.51555397614E+01  0.23796546948E+02  0.00000000000E+00 0. -1.
</event>
<event>
 4    1  0.2253948E+005  0.2505337E+02  0.7546771E-02  0.1468207E+00
          2   -1    0    0  503    0  0.00000000000E+00  0.00000000000E+00  0.95126226217E+03  0.95126226217E+03  0.00000000000E+00 0.  1.
         21   -1    0    0  501  502 -0.00000000000E+00 -0.00000000000E+00 -0.12654835934E+01  0.12654835934E+01  0.00000000000E+00 0.  1.
          2    1    1    2  501    0  0.24651405776E+02 -0.44698414444E+01  0.80448028984E+03  0.80487030510E+03  0.00000000000E+00 0.  1.
         21    1    1    2  503  502 -0.24651405776E+02  0.44698414444E+01  0.14551648874E+03  0.14765744066E+03  0.00000000000E+00 0.  1.
</event>
<event>
 4    1  0.2253948E+005  0.2725010E+02  0.7546771E-02  0.1445112E+00
          2   -1    0    0  502    0  0.00000000000E+00  0.00000000000E+00  0.15045203613E+02  0.15045203613E+02  0.00000000000E+00 0.  1.
         21   -1    0    0  503  502 -0.00000000000E+00 -0.00000000000E+00 -0.97773775866E+02  0.97773775866E+02  0.00000000000E+00 0. -1.
          2    1    1    2  501    0  0.26616374211E+02 -0.58426688542E+01 -0.16685130613E+01  0.27301137179E+02  0.00000000000E+00 0.  1.
         21    1    1    2  503  501 -0.26616374211E+02  0.58426688542E+01 -0.81060059191E+02  0.85517842299E+02  0.00000000000E+00 0. -1.
</event>
<event>
 4    1  0.2253948E+005  0.2414540E+02  0.7546771E-02  0.1478595E+00
          2   -1    0    0  502    0  0.00000000000E+00  0.00000000000E+00  0.79301494655E+03  0.79301494655E+03  0.00000000000E+00 0. -1.
         21   -1    0    0  503  502 -0.00000000000E+00 -0.00000000000E+00 -0.78603696589E+00  0.78603696589E+00  0.00000000000E+00 0. -1.
          2    1    1    2  501    0 -0.86738238070E+01 -0.22533644129E+02  0.29514719946E+03  0.29613319585E+03  0.00000000000E+00 0. -1.
         21    1    1    2  503  501  0.86738238070E+01  0.22533644129E+02  0.49708171012E+03  0.49766778766E+03  0.00000000000E+00 0. -1.
</event>
<event>
 4    1  0.2253948E+005  0.2390442E+02  0.7546771E-02  0.1481443E+00
          2   -1    0    0  502    0  0.00000000000E+00  0.00000000000E+00  0.11208593520E+04  0.11208593520E+04  0.00000000000E+00 0. -1.
         21   -1    0    0  503  502 -0.00000000000E+00 -0.00000000000E+00 -0.21054530023E+02  0.21054530023E+02  0.00000000000E+00 0.  1.
          2    1    1    2  501    0 -0.14611532326E+02 -0.18918892298E+02  0.11139045252E+04  0.11141609904E+04  0.00000000000E+00 0. -1.
         21    1    1    2  503  501  0.14611532326E+02  0.18918892298E+02 -0.14099703192E+02  0.27752891612E+02  0.00000000000E+00 0.  1.
</event>
<event>
 4    1  0.2253948E+005  0.3168261E+02  0.7546771E-02  0.1405517E+00
          2   -1    0    0  503    0  0.00000000000E+00  0.00000000000E+00  0.38482681716E+02  0.38482681716E+02  0.00000000000E+00 0. -1.
         21   -1    0    0  501  502 -0.00000000000E+00 -0.00000000000E+00 -0.15052208713E+03  0.15052208713E+03  0.00000000000E+00 0. -1.
          2    1    1    2  501    0 -0.27644752305E+02  0.15477573455E+02  0.29905204495E+02  0.43567291240E+02  0.00000000000E+00 0. -1.
         21    1    1    2  503  502  0.27644752305E+02 -0.15477573455E+02 -0.14194460991E+03  0.14543747760E+03  0.00000000000E+00 0. -1.
</event>
<event>
 4    1  0.2253948E+005  0.2354347E+02  0.7546771E-02  0.1485784E+00
          2   -1    0    0  503    0  0.00000000000E+00  0.00000000000E+00  0.42077918519E+03  0.42077918519E+03  0.00000000000E+00 0. -1.
         21   -1    0    0  501  502 -0.00000000000E+00 -0.00000000000E+00 -0.15405868376E+01  0.15405868376E+01  0.00000000000E+00 0. -1.
          2    1    1    2  501    0  0.20273837930E+02  0.11969406212E+02  0.29000771854E+03  0.29096180506E+03  0.00000000000E+00 0. -1.
         21    1    1    2  503  502 -0.20273837930E+02 -0.11969406212E+02  0.12923087982E+03  0.13135796697E+03  0.00000000000E+00 0. -1.
</event>
<event>
 4    1  0.2253948E+005  0.2936959E+02  0.7546771E-02  0.1425155E+00
          2   -1    0    0  502    0  0.00000000000E+00  0.00000000000E+00  0.15555942849E+04  0.15555942849E+04  0.00000000000E+00 0.  1.
         21   -1    0    0  503  502 -0.00000000000E+00 -0.00000000000E+00 -0.15958940191E+01  0.15958940191E+01  0.00000000000E+00 0. -1.
          2    1    1    2  501    0 -0.33173181589E+01  0.29181646459E+02  0.14059514882E+04  0.14062582125E+04  0.00000000000E+00 0.  1.
         21    1    1    2  503  501  0.33173181589E+01 -0.29181646459E+02  0.14804690271E+03  0.15093196643E+03  0.00000000000E+00 0. -1.
</event>
<event>
 4    1  0.2253948E+005  0.2196389E+02  0.7546771E-02  0.1505935E+00
          2   -1    0    0  502    0  0.00000000000E+00  0.00000000000E+00  0.56433028335E+02  0.56433028335E+02  0.00000000000E+00 0. -1.
         21   -1    0    0  503  502 -0.00000000000E+00 -0.00000000000E+00 -0.58728708090E+02  0.58728708090E+02  0.00000000000E+00 0. -1.
          2    1    1    2  501    0 -0.21764060852E+02  0.29560440481E+01  0.52077643356E+02  0.56519850307E+02  0.00000000000E+00 0. -1.
         21    1    1    2  503  501  0.21764060852E+02 -0.29560440481E+01 -0.54373323112E+02  0.58641886117E+02  0.00000000000E+00 0. -1.
</event>
<event>
 4    1  0.2253948E+005  0.3414409E+02  0.7546771E-02  0.1386682E+00
          2   -1    0    0  502    0  0.00000000000E+00  0.00000000000E+00  0.64009912420E+03  0.64009912420E+03  0.00000000000E+00 0. -1.
         21   -1    0    0  503  502 -0.00000000000E+00 -0.00000000000E+00 -0.14787794656E+02  0.14787794656E+02  0.00000000000E+00 0.  1.
          2    1    1    2  501    0  0.15041027708E+02 -0.30652668836E+02  0.61927232424E+03  0.62021289102E+03  0.00000000000E+00 0. -1.
         21    1    1    2  503  501 -0.15041027708E+02  0.30652668836E+02  0.60390053078E+01  0.34674027836E+02  0.00000000000E+00 0.  1.
</event>
<event>
 4    1  0.2253948E+005  0.2184239E+02  0.7546771E-02  0.1507569E+00
          2   -1    0    0  503    0  0.00000000000E+00  0.00000000000E+00  0.11475942211E+03  0.11475942211E+03  0.00000000000E+00 0. -1.
         21   -1    0    0  501  502 -0.00000000000E+00 -0.00000000000E+00 -0.12824426597E+02  0.12824426597E+02  0.00000000000E+00 0.  1.
          2    1    1    2  501    0 -0.21567002966E+02 -0.34574890525E+01  0.10341009422E+03  0.10569170939E+03  0.00000000000E+00 0. -1.
         21    1    1    2  503  502  0.21567002966E+02  0.34574890525E+01 -0.14750987097E+01  0.21892139313E+02  0.00000000000E+00 0.  1.
</event>
<event>
 4    1  0.2253948E+005  0.3525064E+02  0.7546771E-02  0.1378810E+00
          2   -1    0    0  502    0  0.00000000000E+00  0.00000000000E+00  0.69163387348E+03  0.69163387348E+03  0.00000000000E+00 0.  1.
         21   -1    0    0  503  502 -0.00000000000E+00 -0.00000000000E+00 -0.13818107040E+02  0.13818107040E+02  0.00000000000E+00 0. -1.
          2    1    1    2  501    0  0.21264257494E+02 -0.28114747189E+02  0.66790505633E+03  0.66883463721E+03  0.00000000000E+00 0.  1.
         21    1    1    2  503  501 -0.21264257494E+02  0.28114747189E+02  0.99107101056E+01  0.36617343310E+02  0.00000000000E+00 0. -1.
</event>
<event>
 4    1  0.2253948E+005  0.3559480E+02  0.7546771E-02  0.1376429E+00
          2   -1    0    0  502    0  0.00000000000E+00  0.00000000000E+00  0.14887909597E+04  0.14887909597E+04  0.00000000000E+00 0.  1.
         21   -1    0    0  503  502 -0.00000000000E+00 -0.00000000000E+00 -0.80849643712E+02  0.80849643712E+02  0.00000000000E+00 0.  1.
          2    1    1    2  501    0 -0.37806895775E+01 -0.35393444601E+02  0.14846495442E+04  0.14850761794E+04  0.00000000000E+00 0.  1.
         21    1    1    2  503  501  0.37806895775E+01  0.35393444601E+02 -0.76708228207E+02  0.84564424015E+02  0.00000000000E+00 0.  1.
</event>
<event>
 4    1  0.2253948E+005  0.4044899E+02  0.7546771E-02  0.1345875E+00
          2   -1    0    0  502    0  0.00000000000E+00  0.00000000000E+00  0.26106283861E+03  0.26106283861E+03  0.00000000000E+00 0. -1.
         21   -1    0    0  503  502 -0.00000000000E+00 -0.00000000000E+00 -0.27270256640E+02  0.27270256640E+02  0.00000000000E+00 0. -1.
          2    1    1    2  501    0  0.40243069310E+02 -0.40762690546E+01  0.24341700372E+03  0.24675485465E+03  0.00000000000E+00 0. -1.
         21    1    1    2  503  501 -0.40243069310E+02  0.40762690546E+01 -0.96244217489E+01  0.41578240594E+02  0.00000000000E+00 0. -1.
</event>
<event>
 4    1  0.2253948E+005  0.2817464E+02  0.7546771E-02  0.1436153E+00
          2   -1    0    0  502    0  0.00000000000E+00  0.00000000000E+00  0.20814556280E+04  0.20814556280E+04  0.00000000000E+00 0. -1.
         21   -1    0    0  503  502 -0.00000000000E+00 -0.00000000000E+00 -0.25878881461E+01  0.25878881461E+01  0.00000000000E+00 0. -1.
          2    1    1    2  501    0  0.10501943442E+02 -0.26144203404E+02  0.20016165400E+04  0.20018148224E+04  0.00000000000E+00 0. -1.
         21    1    1    2  503  501 -0.10501943442E+02  0.26144203404E+02  0.77251199848E+02  0.82228693688E+02  0.00000000000E+00 0. -1.
</event>
<event>
 4    1  0.2253948E+005  0.3071089E+02  0.7546771E-02  0.1413517E+00
          2   -1    0    0  503    0  0.00000000000E+00  0.00000000000E+00  0.30476998910E+03  0.30476998910E+03  0.00000000000E+00 0.  1.
         21   -1    0    0  501  502 -0.00000000000E+00 -0.00000000000E+00 -0.12996977249E+02  0.12996977249E+02  0.00000000000E+00 0. -1.
          2    1    1    2  501    0 -0.20908989635E+02  0.22493837508E+02  0.28457040944E+03  0.28622277425E+03  0.00000000000E+00 0.  1.
         21    1    1    2  503  502  0.20908989635E+02 -0.22493837508E+02  0.72026024110E+01  0.31544192094E+02  0.00000000000E+00 0. -1.
</event>
<event>
 4    1  0.2253948E+005  0.2613011E+02  0.7546771E-02  0.1456548E+00
          2   -1    0    0  502    0  0.00000000000E+00  0.00000000000E+00  0.59919350113E+03  0.59919350113E+03  0.00000000000E+00 0. -1.
         21   -1    0    0  503  502 -0.00000000000E+00 -0.00000000000E+00 -0.38674891067E+01  0.38674891067E+01  0.00000000000E+00 0.  1.
          2    1    1    2  501    0  0.55748655470E+01 -0.25528481060E+02  0.55090621670E+03  0.55152555885E+03  0.00000000000E+00 0. -1.
         21    1    1    2  503  501 -0.55748655470E+01  0.25528481060E+02  0.44419795319E+02  0.51535431378E+02  0.00000000000E+00 0.  1.
</event>
<event>
 4    1  0.2253948E+005  0.2001382E+02  0.7546771E-02  0.1533825E+00
          2   -1    0    0  503    0  0.00000000000E+00  0.00000000000E+00  0.12212936129E+03  0.12212936129E+03  0.00000000000E+00 0.  1.
         21   -1    0    0  501  502 -0.00000000000E+00 -0.00000000000E+00 -0.36167510409E+01  0.36167510409E+01  0.00000000000E+00 0. -1.
          2    1    1    2  501    0  0.13899786814E+02 -0.14399609035E+02  0.78448557408E+02  0.80961280704E+02  0.00000000000E+00 0.  1.
         21    1    1    2  503  502 -0.13899786814E+02  0.14399609035E+02  0.40064052845E+02  0.44784831631E+02  0.00000000000E+00 0. -1.
</event>
<event>
 4    1  0.2253948E+005  0.2156762E+02  0.7546771E-02  0.1511313E+00
          2   -1    0    0  502    0  0.00000000000E+00  0.00000000000E+00  0.73491817121E+03  0.73491817121E+03  0.00000000000E+00 0.  1.
         21   -1    0    0  503  502 -0.00000000000E+00 -0.00000000000E+00 -0.15374779520E+01  0.15374779520E+01  0.00000000000E+00 0.  1.
          2    1    1    2  501    0 -0.14724900563E+02 -0.15758791943E+02  0.64912926121E+03  0.64948745945E+03  0.00000000000E+00 0.  1.
         21    1    1    2  503  501  0.14724900563E+02  0.15758791943E+02  0.84251432041E+02  0.86968189708E+02  0.00000000000E+00 0.  1.
</event>
<event>
 4    1  0.2253948E+005  0.2772079E+02  0.7546771E-02  0.1440499E+00
          2   -1    0    0  503    0  0.00000000000E+00  0.00000000000E+00  0.24323977795E+03  0.24323977795E+03  0.00000000000E+00 0. -1.
         21   -1    0    0  501  502 -0.00000000000E+00 -0.00000000000E+00 -0.37917482157E+01  0.37917482157E+01  0.00000000000E+00 0.  1.
          2    1    1    2  501    0 -0.17152605566E+02 -0.21776831889E+02  0.17017278897E+03  0.17241583568E+03  0.00000000000E+00 0. -1.
         21    1    1    2  503  502  0.17152605566E+02  0.21776831889E+02  0.69275240764E+02  0.74615690493E+02  0.00000000000E+00 0.  1.
</event>
<event>
 4    1  0.2253948E+005  0.2250332E+02  0.7546771E-02  0.1498831E+00
          2   -1    0    0  502    0  0.00000000000E+00  0.00000000000E+00  0.57305514353E+03  0.57305514353E+03  0.00000000000E+00 0.  1.
         21   -1    0    0  503  502 -0.00000000000E+00 -0.00000000000E+00 -0.26468403618E+01  0.26468403618E+01  0.00000000000E+00 0.  1.
          2    1    1    2  501    0  0.12323374295E+02 -0.18829069787E+02  0.52014001708E+03  0.52062658095E+03  0.00000000000E+00 0.  1.
         21    1    1    2  503  501 -0.12323374295E+02  0.18829069787E+02  0.50268286092E+02  0.55075402946E+02  0.00000000000E+00 0.  1.
</event>
<event>
 4    1  0.2253948E+005  0.2185059E+02  0.7546771E-02  0.1507459E+00
          2   -1    0    0  503    0  0.00000000000E+00  0.00000000000E+00  0.91257635739E+03  0.91257635739E+03  0.00000000000E+00 0.  1.
         21   -1    0    0  501  502 -0.00000000000E+00 -0.00000000000E+00 -0.27265171993E+03  0.27265171993E+03  0.00000000000E+00 0.  1.
          2    1    1    2  501    0 -0.18151235570E+02 -0.12164738751E+02  0.91200750543E+03  0.91226922462E+03  0.00000000000E+00 0.  1.
         21    1    1    2  503  502  0.18151235570E+02  0.12164738751E+02 -0.27208286797E+03  0.27295885270E+03  0.00000000000E+00 0.  1.
</event>
<event>
 4    1  0.2253948E+005  0.2277919E+02  0.7546771E-02  0.1495290E+00
          2   -1    0    0  503    0  0.00000000000E+00  0.00000000000E+00  0.22037942897E+03  0.22037942897E+03  0.00000000000E+00 0. -1.
         21   -1    0    0  501  502 -0.00000000000E+00 -0.00000000000E+00 -0.28742138381E+01  0.28742138381E+01  0.00000000000E+00 0.  1.
          2    1    1    2  501    0  0.21207370833E+02 -0.83149835681E+01  0.15621784766E+03  0.15786990675E+03  0.00000000000E+00 0. -1.
         21    1    1    2  503  502 -0.21207370833E+02  0.83149835681E+01  0.61287367466E+02  0.65383736054E+02  0.00000000000E+00 0.  1.
</event>
<event>
 4    1  0.2253948E+005  0.2357132E+02  0.7546771E-02  0.1485446E+00
          2   -1    0    0  503    0  0.00000000000E+00  0.00000000000E+00  0.71152596706E+03  0.71152596706E+03  0.00000000000E+00 0. -1.
         21   -1    0    0  501  502 -0.00000000000E+00 -0.00000000000E+00 -0.79576475953E+00  0.79576475953E+00  0.00000000000E+00 0. -1.
          2    1    1    2  501    0  0.14627695909E+02  0.18483438865E+02  0.40409745035E+03  0.40478433317E+03  0.00000000000E+00 0. -1.
         21    1    1    2  503  502 -0.14627695909E+02 -0.18483438865E+02  0.30663275195E+03  0.30753739865E+03  0.00000000000E+00 0. -1.
</event>
<event>
 4    1  0.2253948E+005  0.2749035E+02  0.7546771E-02  0.1442744E+00
          2   -1    0    0  503    0  0.00000000000E+00  0.00000000000E+00  0.35180132586E+03  0.35180132586E+03  0.00000000000E+00 0. -1.
         21   -1    0    0  501  502 -0.00000000000E+00 -0.00000000000E+00 -0.26173849170E+01  0.26173849170E+01  0.00000000000E+00 0.  1.
          2    1    1    2  501    0 -0.26477792326E+02 -0.73922963364E+01  0.24962479232E+03  0.25113394130E+03  0.00000000000E+00 0. -1.
         21    1    1    2  503  502  0.26477792326E+02  0.73922963364E+01  0.99559148622E+02  0.10328476948E+03  0.00000000000E+00 0.  1.
</event>
<event>
 4    1  0.2253948E+005  0.2278554E+02  0.7546771E-02  0.1495209E+00
          2   -1    0    0  502    0  0.00000000000E+00  0.00000000000E+00  0.12136052636E+03  0.12136052636E+03  0.00000000000E+00 0.  1.
         21   -1    0    0  503  502 -0.00000000000E+00 -0.00000000000E+00 -0.73766022621E+01  0.73766022621E+01  0.00000000000E+00 0.  1.
          2    1    1    2  501    0  0.19080072443E+02 -0.12455186872E+02  0.98710421203E+02  0.10130611086E+03  0.00000000000E+00 0.  1.
         21    1    1    2  503  501 -0.19080072443E+02  0.12455186872E+02  0.15273502891E+02  0.27431017754E+02  0.00000000000E+00 0.  1.
</event>
<event>
 4    1  0.2253948E+005  0.2543620E+02  0.7546771E-02  0.1463982E+00
          2   -1    0    0  503    0  0.00000000000E+00  0.00000000000E+00  0.46952936342E+03  0.46952936342E+03  0.00000000000E+00 0. -1.
         21   -1    0    0  501  502 -0.00000000000E+00 -0.00000000000E+00 -0.18562754523E+01  0.18562754523E+01  0.00000000000E+00 0. -1.
          2    1    1    2  501    0 -0.23174806741E+02  0.10484696205E+02  0.35347609253E+03  0.35439010780E+03  0.00000000000E+00 0. -1.
         21    1    1    2  503  502  0.23174806741E+02 -0.10484696205E+02  0.11419699544E+03  0.11699553107E+03  0.00000000000E+00 0. -1.
</event>
<event>
 4    1  0.2253948E+005  0.4093718E+02  0.7546771E-02  0.1343080E+00
          2   -1    0    0  502    0  0.00000000000E+00  0.00000000000E+00  0.50390043865E+03  0.50390043865E+03  0.00000000000E+00 0. -1.
         21   -1    0    0  503  502 -0.00000000000E+00 -0.00000000000E+00 -0.37275644249E+02  0.37275644249E+02  0.00000000000E+00 0.  1.
          2    1    1    2  501    0 -0.26111995587E+02 -0.31528023279E+02  0.49154743087E+03  0.49324915546E+03  0.00000000000E+00 0. -1.
         21    1    1    2  503  501  0.26111995587E+02  0.31528023279E+02 -0.24922636469E+02  0.47926927441E+02  0.00000000000E+00 0.  1.
</event>
<event>
 4    1  0.2253948E+005  0.3899487E+02  0.7546771E-02  0.1354479E+00
          2   -1    0    0  503    0  0.00000000000E+00  0.00000000000E+00  0.24006388786E+04  0.24006388786E+04  0.00000000000E+00 0. -1.
         21   -1    0    0  501  502 -0.00000000000E+00 -0.00000000000E+00 -0.12464164632E+01  0.12464164632E+01  0.00000000000E+00 0. -1.
          2    1    1    2  501    0 -0.38694565170E+02  0.48302055313E+01  0.20419083692E+04  0.20422806831E+04  0.00000000000E+00 0. -1.
         21    1    1    2  503  502  0.38694565170E+02 -0.48302055313E+01  0.35748409294E+03  0.35960461199E+03  0.00000000000E+00 0. -1.
</event>
<event>
 4    1  0.2253948E+005  0.2820831E+02  0.7546771E-02  0.1435834E+00
          2   -1    0    0  502    0  0.00000000000E+00  0.00000000000E+00  0.13501176736E+03  0.13501176736E+03  0.00000000000E+00 0.  1.
         21   -1    0    0  503  502 -0.00000000000E+00 -0.00000000000E+00 -0.64397514848E+02  0.64397514848E+02  0.00000000000E+00 0.  1.
          2    1    1    2  501    0 -0.27155812062E+02 -0.76335334113E+01  0.13033985191E+03  0.13335736184E+03  0.00000000000E+00 0.  1.
         21    1    1    2  503  501  0.27155812062E+02  0.76335334113E+01 -0.59725599397E+02  0.66051920369E+02  0.00000000000E+00 0.  1.
</event>
<event>
 4    1  0.2253948E+005  0.2056573E+02  0.7546771E-02  0.1525556E+00
          2   -1    0    0  503    0  0.00000000000E+00  0.00000000000E+00  0.16028765850E+03  0.16028765850E+03  0.00000000000E+00 0. -1.
         21   -1    0    0  501  502 -0.00000000000E+00 -0.00000000000E+00 -0.17105050758E+02  0.17105050758E+02  0.00000000000E+00 0. -1.
          2    1    1    2  501    0 -0.14472939851E+02 -0.14611068915E+02  0.15315994813E+03  0.15453452376E+03  0.00000000000E+00 0. -1.
         21    1    1    2  503  502  0.14472939851E+02  0.14611068915E+02 -0.99773403925E+01  0.22858185494E+02  0.00000000000E+00 0. -1.
</event>
<event>
 4    1  0.2253948E+005  0.2080859E+02  0.7546771E-02  0.1522015E+00
          2   -1    0    0  502    0  0.00000000000E+00  0.00000000000E+00  0.10743607423E+04  0.10743607423E+04  0.00000000000E+00 0.  1.
         21   -1    0    0  503  502 -0.00000000000E+00 -0.00000000000E+00 -0.32531285349E+01  0.32531285349E+01  0.00000000000E+00 0.  1.
          2    1    1    2  501    0  0.13039171407E+02  0.16216584731E+02  0.10398813009E+04  0.10400894757E+04  0.00000000000E+00 0.  1.
         21    1    1    2  503  501 -0.13039171407E+02 -0.16216584731E+02  0.31226312883E+02  0.37524395099E+02  0.00000000000E+00 0.  1.
</event>
<event>
 4    1  0.2253948E+005  0.2144491E+02  0.7546771E-02  0.1513007E+00
          2   -1    0    0  503    0  0.00000000000E+00  0.00000000000E+00  0.35146029860E+02  0.35146029860E+02  0.00000000000E+00 0.  1.
         21   -1    0    0  501  502 -0.00000000000E+00 -0.00000000000E+00 -0.21631736404E+02  0.21631736404E+02  0.00000000000E+00 0. -1.
          2    1    1    2  501    0 -0.14295138745E+02 -0.15985405356E+02  0.24601628714E+02  0.32636242301E+02  0.00000000000E+00 0.  1.
         21    1    1    2  503  502  0.14295138745E+02  0.15985405356E+02 -0.11087335259E+02  0.24141523963E+02  0.00000000000E+00 0. -1.
</event>
<event>
 4    1  0.2253948E+005  0.2021378E+02  0.7546771E-02  0.1530792E+00
          2   -1    0    0  503    0  0.00000000000E+00  0.00000000000E+00  0.14692076167E+04  0.14692076167E+04  0.00000000000E+00 0. -1.
         21   -1    0    0  501  502 -0.00000000000E+00 -0.00000000000E+00 -0.10439229219E+03  0.10439229219E+03  0.00000000000E+00 0.  1.
          2    1    1    2  501    0  0.19924021884E+02  0.34103231927E+01  0.14681588778E+04  0.14682980240E+04  0.00000000000E+00 0. -1.
         21    1    1    2  503  502 -0.19924021884E+02 -0.34103231927E+01 -0.10334355328E+03  0.10530188487E+03  0.00000000000E+00 0.  1.
</event>
<event>
 4    1  0.2253948E+005  0.2045498E+02  0.7546771E-02  0.1527190E+00
          2   -1    0    0  503    0  0.00000000000E+00  0.00000000000E+00  0.30710604206E+03  0.30710604206E+03  0.00000000000E+00 0. -1.
         21   -1    0    0  501  502 -0.00000000000E+00 -0.00000000000E+00 -0.92564422043E+01  0.92564422043E+01  0.00000000000E+00 0.  1.
          2    1    1    2  501    0  0.10234026480E+02 -0.17710754180E+02  0.29500192841E+03  0.29571023634E+03  0.00000000000E+00 0. -1.
         21    1    1    2  503  502 -0.10234026480E+02  0.17710754180E+02  0.28476714466E+01  0.20652247923E+02  0.00000000000E+00 0.  1.
</event>
<event>
 4    1  0.2253948E+005  0.2301633E+02  0.7546771E-02  0.1492293E+00
          2   -1    0    0  503    0  0.00000000000E+00  0.00000000000E+00  0.17584320354E+03  0.17584320354E+03  0.00000000000E+00 0.  1.
         21   -1    0    0  501  502 -0.00000000000E+00 -0.00000000000E+00 -0.30221783920E+01  0.30221783920E+01  0.00000000000E+00 0.  1.
          2    1    1    2  501    0  0.12523123295E+01 -0.22982234989E+02  0.91436076635E+02  0.94288427295E+02  0.00000000000E+00 0.  1.
         21    1    1    2  503  502 -0.12523123295E+01  0.22982234989E+02  0.81384948514E+02  0.84576954639E+02  0.00000000000E+00 0.  1.
</event>
<event>
 4    1  0.2253948E+005  0.3571709E+02  0.7546771E-02  0.1375591E+00
          2   -1    0    0  503    0  0.00000000000E+00  0.00000000000E+00  0.26406884289E+03  0.26406884289E+03  0.00000000000E+00 0. -1.
         21   -1    0    0  501  502 -0.00000000000E+00 -0.00000000000E+00 -0.49032038286E+01  0.49032038286E+01  0.00000000000E+00 0. -1.
          2    1    1    2  501    0  0.19262696047E+02  0.30077555223E+02  0.11326044817E+03  0.11875874666E+03  0.00000000000E+00 0. -1.
         21    1    1    2  503  502 -0.19262696047E+02 -0.30077555223E+02  0.14590519089E+03  0.15021330006E+03  0.00000000000E+00 0. -1.
</event>
<event>
 4    1  0.2253948E+005  0.2693034E+02  0.7546771E-02  0.1448309E+00
          2   -1    0    0  502    0  0.00000000000E+00  0.00000000000E+00  0.84722533942E+03  0.84722533942E+03  0.00000000000E+00 0.  1.
         21   -1    0    0  503  502 -0.00000000000E+00 -0.00000000000E+00 -0.14097074891E+02  0.14097074891E+02  0.00000000000E+00 0.  1.
          2    1    1    2  501    0  0.25531747139E+02  0.85658128186E+01  0.83394497855E+03  0.83437969205E+03  0.00000000000E+00 0.  1.
         21    1    1    2  503  501 -0.25531747139E+02 -0.85658128186E+01 -0.81671401590E+00  0.26942722264E+02  0.00000000000E+00 0.  1.
</event>
<event>
 4    1  0.2253948E+005  0.2135704E+02  0.7546771E-02  0.1514228E+00
          2   -1    0    0  503    0  0.00000000000E+00  0.00000000000E+00  0.14345933028E+02  0.14345933028E+02  0.00000000000E+00 0. -1.
         21   -1    0    0  501  502 -0.00000000000E+00 -0.00000000000E+00 -0.68673689631E+02  0.68673689631E+02  0.00000000000E+00 0. -1.
          2    1    1    2  501    0 -0.21006265055E+02 -0.38548549904E+01  0.32551765103E+01  0.21603686090E+02  0.00000000000E+00 0. -1.
         21    1    1    2  503  502  0.21006265055E+02  0.38548549904E+01 -0.57582933114E+02  0.61415936568E+02  0.00000000000E+00 0. -1.
</event>
<event>
 4    1  0.2253948E+005  0.2037086E+02  0.7546771E-02  0.1528440E+00
          2   -1    0    0  502    0  0.00000000000E+00  0.00000000000E+00  0.22933423701E+03  0.22933423701E+03  0.00000000000E+00 0.  1.
         21   -1    0    0  503  502 -0.00000000000E+00 -0.00000000000E+00 -0.19672331882E+01  0.19672331882E+01  0.00000000000E+00 0.  1.
          2    1    1    2  501    0 -0.21044239115E+01  0.20261865974E+02  0.14643513580E+03  0.14784525968E+03  0.00000000000E+00 0.  1.
         21    1    1    2  503  501  0.21044239115E+01 -0.20261865974E+02  0.80931868021E+02  0.83456210519E+02  0.00000000000E+00 0.  1.
</event>
<event>
 4    1  0.2253948E+005  0.2213243E+02  0.7546771E-02  0.1503689E+00
          2   -1    0    0  502    0  0.00000000000E+00  0.00000000000E+00  0.18155338921E+02  0.18155338921E+02  0.00000000000E+00 0. -1.
         21   -1    0    0  503  502 -0.00000000000E+00 -0.00000000000E+00 -0.33362697713E+03  0.33362697713E+03  0.00000000000E+00 0. -1.
          2    1    1    2  501    0  0.13695987728E+02  0.17385756343E+02  0.10893172518E+02  0.24667910552E+02  0.00000000000E+00 0. -1.
         21    1    1    2  503  501 -0.13695987728E+02 -0.17385756343E+02 -0.32636481073E+03  0.32711440550E+03  0.00000000000E+00 0. -1.
</event>
<event>
 4    1  0.2253948E+005  0.2694537E+02  0.7546771E-02  0.1448158E+00
          2   -1    0    0  503    0  0.00000000000E+00  0.00000000000E+00  0.25883459683E+03  0.25883459683E+03  0.00000000000E+00 0. -1.
         21   -1    0    0  501  502 -0.00000000000E+00 -0.00000000000E+00 -0.20794775899E+02  0.20794775899E+02  0.00000000000E+00 0.  1.
          2    1    1    2  501    0 -0.26786182594E+02 -0.29246015805E+01  0.24906307501E+03  0.25051640307E+03  0.00000000000E+00 0. -1.
         21    1    1    2  503  502  0.26786182594E+02  0.29246015805E+01 -0.11023254076E+02  0.29112969666E+02  0.00000000000E+00 0.  1.
</event>
<event>
 4    1  0.2253948E+005  0.2071214E+02  0.7546771E-02  0.1523415E+00
          2   -1    0    0  503    0  0.00000000000E+00  0.00000000000E+00  0.72135519731E+02  0.72135519731E+02  0.00000000000E+00 0. -1.
         21   -1    0    0  501  502 -0.00000000000E+00 -0.00000000000E+00 -0.61043586999E+02  0.61043586999E+02  0.00000000000E+00 0.  1.
          2    1    1    2  501    0 -0.16858886515E+02 -0.12032075517E+02  0.68808745425E+02  0.71858446565E+02  0.00000000000E+00 0. -1.
         21    1    1    2  503  502  0.16858886515E+02  0.12032075517E+02 -0.57716812692E+02  0.61320660165E+02  0.00000000000E+00 0.  1.
</event>
<event>
 4    1  0.2253948E+005  0.2356596E+02  0.7546771E-02  0.1485511E+00
          2   -1    0    0  502    0  0.00000000000E+00  0.00000000000E+00  0.15416574270E+04  0.15416574270E+04  0.00000000000E+00 0.  1.
         21   -1    0    0  503  502 -0.00000000000E+00 -0.00000000000E+00 -0.15174694981E+01  0.15174694981E+01  0.00000000000E+00 0. -1.
          2    1    1    2  501    0  0.19691919172E+02 -0.12945381754E+02  0.14438783268E+04  0.14440706275E+04  0.00000000000E+00 0.  1.
         21    1    1    2  503  501 -0.19691919172E+02  0.12945381754E+02  0.96261630713E+02  0.99104269015E+02  0.00000000000E+00 0. -1.
</event>
<event>
 4    1  0.2253948E+005  0.2235922E+02  0.7546771E-02  0.1500705E+00
          2   -1    0    0  502    0  0.00000000000E+00  0.00000000000E+00  0.21225730749E+01  0.21225730749E+01  0.00000000000E+00 0.  1.
         21   -1    0    0  503  502 -0.00000000000E+00 -0.00000000000E+00 -0.51410600391E+03  0.51410600391E+03  0.00000000000E+00 0. -1.
          2    1    1    2  501    0  0.17573625242E+02 -0.13823983967E+02 -0.65990818551E+02  0.69675842083E+02  0.00000000000E+00 0.  1.
         21    1    1    2  503  501 -0.17573625242E+02  0.13823983967E+02 -0.44599261229E+03  0.44655273490E+03  0.00000000000E+00 0. -1.
</event>
<event>
 4    1  0.2253948E+005  0.2181419E+02  0.7546771E-02  0.1507950E+00
          2   -1    0    0  502    0  0.00000000000E+00  0.00000000000E+00  0.30850602687E+03  0.30850602687E+03  0.00000000000E+00 0. -1.
         21   -1    0    0  503  502 -0.00000000000E+00 -0.00000000000E+00 -0.55299318085E+01  0.55299318085E+01  0.00000000000E+00 0.  1.
          2    1    1    2  501    0  0.15800277261E+02  0.15040288854E+02  0.28482120383E+03  0.28565534688E+03  0.00000000000E+00 0. -1.
         21    1    1    2  503  501 -0.15800277261E+02 -0.15040288854E+02  0.18154891229E+02  0.28380611795E+02  0.00000000000E+00 0.  1.
</event>
<event>
 4    1  0.2253948E+005  0.3320515E+02  0.7546771E-02  0.1393640E+00
          2   -1    0    0  502    0  0.00000000000E+00  0.00000000000E+00  0.96751437549E+02  0.96751437549E+02  0.00000000000E+00 0.  1.
         21   -1    0    0  503  502 -0.00000000000E+00 -0.00000000000E+00 -0.44003030227E+02  0.44003030227E+02  0.00000000000E+00 0. -1.
          2    1    1    2  501    0  0.32926634612E+02 -0.42917118693E+01  0.86956584922E+02  0.93080769867E+02  0.00000000000E+00 0.  1.
         21    1    1    2  503  501 -0.32926634612E+02  0.42917118693E+01 -0.34208177600E+02  0.47673697910E+02  0.00000000000E+00 0. -1.
</event>
<event>
 4    1  0.2253948E+005  0.2135888E+02  0.7546771E-02  0.1514202E+00
          2   -1    0    0  502    0  0.00000000000E+00  0.00000000000E+00  0.31619431119E+02  0.31619431119E+02  0.00000000000E+00 0. -1.
         21   -1    0    0  503  502 -0.00000000000E+00 -0.00000000000E+00 -0.50638618362E+03  0.50638618362E+03  0.00000000000E+00 0. -1.
          2    1    1    2  501    0  0.21303667220E+02  0.15348390750E+01  0.27759539377E+02  0.35025619116E+02  0.00000000000E+00 0. -1.
         21    1    1    2  503  501 -0.21303667220E+02 -0.15348390750E+01 -0.50252629187E+03  0.50297999562E+03  0.00000000000E+00 0. -1.
</event>
<event>
 4    1  0.2253948E+005  0.2286258E+02  0.7546771E-02  0.1494231E+00
          2   -1    0    0  502    0  0.00000000000E+00  0.00000000000E+00  0.43924733432E+02  0.43924733432E+02  0.00000000000E+00 0. -1.
         21   -1    0    0  503  502 -0.00000000000E+00 -0.00000000000E+00 -0.97703640603E+02  0.97703640603E+02  0.00000000000E+00 0.  1.
          2    1    1    2  501    0  0.12324998996E+02  0.19255957498E+02  0.39472345492E+02  0.45615387295E+02  0.00000000000E+00 0. -1.
         21    1    1    2  503  501 -0.12324998996E+02 -0.19255957498E+02 -0.93251252663E+02  0.96012986740E+02  0.00000000000E+00 0.  1.
</event>
<event>
 4    1  0.2253948E+005  0.2529854E+02  0.7546771E-02  0.1465491E+00
          2   -1    0    0  502    0  0.00000000000E+00  0.00000000000E+00  0.33208206389E+03  0.33208206389E+03  0.00000000000E+00 0. -1.
         21   -1    0    0  503  502 -0.00000000000E+00 -0.00000000000E+00 -0.19391064865E+01  0.19391064865E+01  0.00000000000E+00 0.  1.
          2    1    1    2  501    0 -0.24302109234E+02 -0.70302043191E+01  0.17811234870E+03  0.17990004181E+03  0.00000000000E+00 0. -1.
         21    1    1    2  503  501  0.24302109234E+02  0.70302043191E+01  0.15203060871E+03  0.15412112857E+03  0.00000000000E+00 0.  1.
</event>
<event>
 4    1  0.2253948E+005  0.2046187E+02  0.7546771E-02  0.1527088E+00
          2   -1    0    0  502    0  0.00000000000E+00  0.00000000000E+00  0.58295617568E+03  0.58295617568E+03  0.00000000000E+00 0.  1.
         21   -1    0    0  503  502 -0.00000000000E+00 -0.00000000000E+00 -0.11099842943E+03  0.11099842943E+03  0.00000000000E+00 0. -1.
          2    1    1    2  501    0  0.20024719089E+02 -0.42069646715E+01  0.58183179597E+03  0.58219148630E+03  0.00000000000E+00 0.  1.
         21    1    1    2  503  501 -0.20024719089E+02  0.42069646715E+01 -0.10987404971E+03  0.11176311881E+03  0.00000000000E+00 0. -1.
</event>
<event>
 4    1  0.2253948E+005  0.2725438E+02  0.7546771E-02  0.1445069E+00
          2   -1    0    0  503    0  0.00000000000E+00  0.00000000000E+00  0.54349521602E+03  0.54349521602E+03  0.00000000000E+00 0. -1.
         21   -1    0    0  501  502 -0.00000000000E+00 -0.00000000000E+00 -0.88025955120E+01  0.88025955120E+01  0.00000000000E+00 0. -1.
          2    1    1    2  501    0  0.14549924074E+02 -0.23045623217E+02  0.52115370056E+03  0.52186586461E+03  0.00000000000E+00 0. -1.
         21    1    1    2  503  502 -0.14549924074E+02  0.23045623217E+02  0.13538919949E+02  0.30431946921E+02  0.00000000000E+00 0. -1.
</event>
<event>
 4    1  0.2253948E+005  0.2106689E+02  0.7546771E-02  0.1518312E+00
          2   -1    0    0  503    0  0.00000000000E+00  0.00000000000E+00  0.12710210713E+04  0.12710210713E+04  0.00000000000E+00 0.  1.
         21   -1    0    0  501  502 -0.00000000000E+00 -0.00000000000E+00 -0.14125342410E+01  0.14125342410E+01  0.00000000000E+00 0.  1.
          2    1    1    2  501    0 -0.11278814162E+02 -0.17793316182E+02  0.11868116046E+04  0.11869985672E+04  0.00000000000E+00 0.  1.
         21    1    1    2  503  502  0.11278814162E+02  0.17793316182E+02  0.82796932448E+02  0.85435038319E+02  0.00000000000E+00 0.  1.
</event>
<event>
 4    1  0.2253948E+005  0.3234259E+02  0.7546771E-02  0.1400274E+00
          2   -1    0    0  502    0  0.00000000000E+00  0.00000000000E+00  0.22021790046E+04  0.22021790046E+04  0.00000000000E+00 0.  1.
         21   -1    0    0  503  502 -0.00000000000E+00 -0.00000000000E+00 -0.10877833203E+01  0.10877833203E+01  0.00000000000E+00 0.  1.
          2    1    1    2  501    0 -0.26204711344E+02  0.18956697287E+02  0.19273790574E+04  0.19276504025E+04  0.00000000000E+00 0.  1.
         21    1    1    2  503  501  0.26204711344E+02 -0.18956697287E+02  0.27371216387E+03  0.27561638543E+03  0.00000000000E+00 0.  1.
</event>
<event>
 4    1  0.2253948E+005  0.3019783E+02  0.7546771E-02  0.1417885E+00
          2   -1    0    0  503    0  0.00000000000E+00  0.00000000000E+00  0.24287466893E+02  0.24287466893E+02  0.00000000000E+00 0.  1.
         21   -1    0    0  501  502 -0.00000000000E+00 -0.00000000000E+00 -0.23277361164E+03  0.23277361164E+03  0.00000000000E+00 0. -1.
          2    1    1    2  501    0  0.11076683667E+02  0.28092992852E+02  0.13465889956E+02  0.33064170347E+02  0.00000000000E+00 0.  1.
         21    1    1    2  503  502 -0.11076683667E+02 -0.28092992852E+02 -0.22195203470E+03  0.22399690819E+03  0.00000000000E+00 0. -1.
</event>
<event>
 4    1  0.2253948E+005  0.2163734E+02  0.7546771E-02  0.1510357E+00
          2   -1    0    0  502    0  0.00000000000E+00  0.00000000000E+00  0.23547250754E+03  0.23547250754E+03  0.00000000000E+00 0.  1.
         21   -1    0    0  503  502 -0.00000000000E+00 -0.00000000000E+00 -0.28448283211E+01  0.28448283211E+01  0.00000000000E+00 0.  1.
          2    1    1    2  501    0  0.20925075873E+02 -0.55059732891E+01  0.18169988923E+03  0.18298367219E+03  0.00000000000E+00 0.  1.
         21    1    1    2  503  501 -0.20925075873E+02  0.55059732891E+01  0.50927789998E+02  0.55333663679E+02  0.00000000000E+00 0.  1.
</event>
<event>
 4    1  0.2253948E+005  0.7119721E+02  0.7546771E-02  0.1225905E+00
          2   -1    0    0  503    0  0.00000000000E+00  0.00000000000E+00  0.12898548027E+04  0.12898548027E+04  0.00000000000E+00 0. -1.
         21   -1    0    0  501  502 -0.00000000000E+00 -0.00000000000E+00 -0.41244357019E+01  0.41244357019E+01  0.00000000000E+00 0. -1.
          2    1    1    2  501    0  0.11299555324E+01  0.71188241726E+02  0.78336579189E+03  0.78659456295E+03  0.00000000000E+00 0. -1.
         21    1    1    2  503  502 -0.11299555324E+01 -0.71188241726E+02  0.50236457512E+03  0.50738467546E+03  0.00000000000E+00 0. -1.
</event>
<event>
 4    1  0.2253948E+005  0.2237288E+02  0.7546771E-02  0.1500527E+00
          2   -1    0    0  503    0  0.00000000000E+00  0.00000000000E+00  0.14939702933E+04  0.14939702933E+04  0.00000000000E+00 0.  1.
         21   -1    0    0  501  502 -0.00000000000E+00 -0.00000000000E+00 -0.78106263342E+01  0.78106263342E+01  0.00000000000E+00 0.  1.
          2    1    1    2  501    0 -0.87299845597E+01  0.20599344588E+02  0.14776887129E+04  0.14778580709E+04  0.00000000000E+00 0.  1.
         21    1    1    2  503  502  0.87299845597E+01 -0.20599344588E+02  0.84709541071E+01  0.23922848730E+02  0.00000000000E+00 0.  1.
</event>
<event>
 4    1  0.2253948E+005  0.2084793E+02  0.7546771E-02  0.1521447E+00
          2   -1    0    0  503    0  0.00000000000E+00  0.00000000000E+00  0.11179625732E+04  0.11179625732E+04  0.00000000000E+00 0.  1.
         21   -1    0    0  501  502 -0.00000000000E+00 -0.00000000000E+00 -0.65303762617E+00  0.65303762617E+00  0.00000000000E+00 0.  1.
          2    1    1    2  501    0  0.18872067613E+02  0.88589706717E+01  0.91444937280E+03  0.91468699112E+03  0.00000000000E+00 0.  1.
         21    1    1    2  503  502 -0.18872067613E+02 -0.88589706717E+01  0.20286016274E+03  0.20392861968E+03  0.00000000000E+00 0.  1.
</event>
<event>
 4    1  0.2253948E+005  0.2090206E+02  0.7546771E-02  0.1520668E+00
          2   -1    0    0  502    0  0.00000000000E+00  0.00000000000E+00  0.66880999573E+03  0.66880999573E+03  0.00000000000E+00 0. -1.
         21   -1    0    0  503  502 -0.00000000000E+00 -0.00000000000E+00 -0.16330621276E+01  0.16330621276E+01  0.00000000000E+00 0.  1.
          2    1    1    2  501    0  0.19988260970E+02 -0.61127390086E+01  0.59324740176E+03  0.59361551180E+03  0.00000000000E+00 0. -1.
         21    1    1    2  503  501 -0.19988260970E+02  0.61127390086E+01  0.73929531845E+02  0.76827546060E+02  0.00000000000E+00 0.  1.
</event>
<event>
 4    1  0.2253948E+005  0.2408444E+02  0.7546771E-02  0.1479312E+00
          2   -1    0    0  503    0  0.00000000000E+00  0.00000000000E+00  0.51687493992E+01  0.51687493992E+01  0.00000000000E+00 0. -1.
         21   -1    0    0  501  502 -0.00000000000E+00 -0.00000000000E+00 -0.50138014128E+03  0.50138014128E+03  0.00000000000E+00 0.  1.
          2    1    1    2  501    0  0.14383386575E+02 -0.19317822975E+02 -0.24969770678E+02  0.34692211541E+02  0.00000000000E+00 0. -1.
         21    1    1    2  503  502 -0.14383386575E+02  0.19317822975E+02 -0.47124162120E+03  0.47185667914E+03  0.00000000000E+00 0.  1.
</event>
<event>
 4    1  0.2253948E+005  0.2018714E+02  0.7546771E-02  0.1531194E+00
          2   -1    0    0  503    0  0.00000000000E+00  0.00000000000E+00  0.14144142344E+04  0.14144142344E+04  0.00000000000E+00 0.  1.
         21   -1    0    0  501  502 -0.00000000000E+00 -0.00000000000E+00 -0.62574597121E+00  0.62574597121E+00  0.00000000000E+00 0. -1.
          2    1    1    2  501    0  0.67700739345E+01 -0.19018058365E+02  0.12266004140E+04  0.12267665206E+04  0.00000000000E+00 0.  1.
         21    1    1    2  503  502 -0.67700739345E+01  0.19018058365E+02  0.18718807440E+03  0.18827345974E+03  0.00000000000E+00 0. -1.
</event>
<event>
 4    1  0.2253948E+005  0.4965071E+02  0.7546771E-02  0.1299694E+00
          2   -1    0    0  502    0  0.00000000000E+00  0.00000000000E+00  0.10679717971E+03  0.10679717971E+03  0.00000000000E+00 0.  1.
         21   -1    0    0  503  502 -0.00000000000E+00 -0.00000000000E+00 -0.79799891736E+02  0.79799891736E+02  0.00000000000E+00 0.  1.
          2    1    1    2  501    0 -0.34970194639E+02 -0.35245973045E+02  0.92154327413E+02  0.10467861859E+03  0.00000000000E+00 0.  1.
         21    1    1    2  503  501  0.34970194639E+02  0.35245973045E+02 -0.65157039442E+02  0.81918452853E+02  0.00000000000E+00 0.  1.
</event>
<event>
 4    1  0.2253948E+005  0.2125529E+02  0.7546771E-02  0.1515651E+00
          2   -1    0    0  503    0  0.00000000000E+00  0.00000000000E+00  0.31913650180E+03  0.31913650180E+03  0.00000000000E+00 0.  1.
         21   -1    0    0  501  502 -0.00000000000E+00 -0.00000000000E+00 -0.14349588564E+01  0.14349588564E+01  0.00000000000E+00 0.  1.
          2    1    1    2  501    0 -0.14367931099E+02  0.15663654156E+02  0.17744104825E+03  0.17870957755E+03  0.00000000000E+00 0.  1.
         21    1    1    2  503  502  0.14367931099E+02 -0.15663654156E+02  0.14026049469E+03  0.14186188310E+03  0.00000000000E+00 0.  1.
</event>
<event>
 4    1  0.2253948E+005  0.4329890E+02  0.7546771E-02  0.1330168E+00
          2   -1    0    0  503    0  0.00000000000E+00  0.00000000000E+00  0.11134690714E+03  0.11134690714E+03  0.00000000000E+00 0. -1.
         21   -1    0    0  501  502 -0.00000000000E+00 -0.00000000000E+00 -0.43241381745E+02  0.43241381745E+02  0.00000000000E+00 0. -1.
          2    1    1    2  501    0 -0.17591549152E+02  0.39564276722E+02  0.94451987375E+02  0.10390366939E+03  0.00000000000E+00 0. -1.
         21    1    1    2  503  502  0.17591549152E+02 -0.39564276722E+02 -0.26346461982E+02  0.50684619492E+02  0.00000000000E+00 0. -1.
</event>
<event>
 4    1  0.2253948E+005  0.2219969E+02  0.7546771E-02  0.1502800E+00
          2   -1    0    0  502    0  0.00000000000E+00  0.00000000000E+00  0.75171180273E+03  0.75171180273E+03  0.00000000000E+00 0.  1.
         21   -1    0    0  503  502 -0.00000000000E+00 -0.00000000000E+00 -0.57892830882E+02  0.57892830882E+02  0.00000000000E+00 0. -1.
          2    1    1    2  501    0  0.14267443102E+02  0.17007828245E+02  0.74941319227E+03  0.74974192820E+03  0.00000000000E+00 0.  1.
         21    1    1    2  503  501 -0.14267443102E+02 -0.17007828245E+02 -0.55594220424E+02  0.59862705408E+02  0.00000000000E+00 0. -1.
</event>
<event>
 4    1  0.2253948E+005  0.2275786E+02  0.7546771E-02  0.1495561E+00
          2   -1    0    0  502    0  0.00000000000E+00  0.00000000000E+00  0.59715246002E+03  0.59715246002E+03  0.00000000000E+00 0.  1.
         21   -1    0    0  503  502 -0.00000000000E+00 -0.00000000000E+00 -0.35126629987E+01  0.35126629987E+01  0.00000000000E+00 0. -1.
          2    1    1    2  501    0  0.19638810056E+02 -0.11499457254E+02  0.55745051611E+03  0.55791486652E+03  0.00000000000E+00 0.  1.
         21    1    1    2  503  501 -0.19638810056E+02  0.11499457254E+02  0.36189280917E+02  0.42750256500E+02  0.00000000000E+00 0. -1.
</event>
<event>
 4    1  0.2253948E+005  0.2211793E+02  0.7546771E-02  0.1503882E+00
          2   -1    0    0  503    0  0.00000000000E+00  0.00000000000E+00  0.18058699311E+01  0.18058699311E+01  0.00000000000E+00 0.  1.
         21   -1    0    0  501  502 -0.00000000000E+00 -0.00000000000E+00 -0.44838447217E+03  0.44838447217E+03  0.00000000000E+00 0.  1.
          2    1    1    2  501    0 -0.68411939059E+01 -0.21033332518E+02 -0.81668866089E+02  0.84610913593E+02  0.00000000000E+00 0.  1.
         21    1    1    2  503  502  0.68411939059E+01  0.21033332518E+02 -0.36490973615E+03  0.36557942851E+03  0.00000000000E+00 0.  1.
</event>
<event>
 4    1  0.2253948E+005  0.2911131E+02  0.7546771E-02  0.1427479E+00
          2   -1    0    0  503    0  0.00000000000E+00  0.00000000000E+00  0.24502946937E+03  0.24502946937E+03  0.00000000000E+00 0.  1.
         21   -1    0    0  501  502 -0.00000000000E+00 -0.00000000000E+00 -0.14586504877E+02  0.14586504877E+02  0.00000000000E+00 0. -1.
          2    1    1    2  501    0  0.23899031499E+02 -0.16622415187E+02  0.22860025268E+03  0.23044640141E+03  0.00000000000E+00 0.  1.
         21    1    1    2  503  502 -0.23899031499E+02  0.16622415187E+02  0.18427118136E+01  0.29169572847E+02  0.00000000000E+00 0. -1.
</event>
<event>
 4    1  0.2253948E+005  0.2262573E+02  0.7546771E-02  0.1497252E+00
          2   -1    0    0  503    0  0.00000000000E+00  0.00000000000E+00  0.56584661934E+03  0.56584661934E+03  0.00000000000E+00 0. -1.
         21   -1    0    0  501  502 -0.00000000000E+00 -0.00000000000E+00 -0.11135298025E+01  0.11135298025E+01  0.00000000000E+00 0. -1.
          2    1    1    2  501    0  0.22277894138E+02  0.39520848253E+01  0.40512855348E+03  0.40575986542E+03  0.00000000000E+00 0. -1.
         21    1    1    2  503  502 -0.22277894138E+02 -0.39520848253E+01  0.15960453605E+03  0.16120028372E+03  0.00000000000E+00 0. -1.
</event>
<event>
 4    1  0.2253948E+005  0.2637504E+02  0.7546771E-02  0.1453989E+00
          2   -1    0    0  502    0  0.00000000000E+00  0.00000000000E+00  0.12103389172E+03  0.12103389172E+03  0.00000000000E+00 0. -1.
         21   -1    0    0  503  502 -0.00000000000E+00 -0.00000000000E+00 -0.18545574631E+02  0.18545574631E+02  0.00000000000E+00 0. -1.
          2    1    1    2  501    0  0.14932047769E+02  0.21741129786E+02  0.10921954367E+03  0.11235902943E+03  0.00000000000E+00 0. -1.
         21    1    1    2  503  501 -0.14932047769E+02 -0.21741129786E+02 -0.67312265799E+01  0.27220436922E+02  0.00000000000E+00 0. -1.
</event>
<event>
 4    1  0.2253948E+005  0.4991573E+02  0.7546771E-02  0.1298538E+00
          2   -1    0    0  503    0  0.00000000000E+00  0.00000000000E+00  0.62092451318E+02  0.62092451318E+02  0.00000000000E+00 0. -1.
         21   -1    0    0  501  502 -0.00000000000E+00 -0.00000000000E+00 -0.43425828211E+02  0.43425828211E+02  0.00000000000E+00 0. -1.
          2    1    1    2  501    0 -0.44255375755E+02  0.23087703172E+02  0.23874743751E+02  0.55331579682E+02  0.00000000000E+00 0. -1.
         21    1    1    2  503  502  0.44255375755E+02 -0.23087703172E+02 -0.52081206441E+01  0.50186699847E+02  0.00000000000E+00 0. -1.
</event>
<event>
 4    1  0.2253948E+005  0.2544889E+02  0.7546771E-02  0.1463844E+00
          2   -1    0    0  503    0  0.00000000000E+00  0.00000000000E+00  0.10629165670E+03  0.10629165670E+03  0.00000000000E+00 0.  1.
         21   -1    0    0  501  502 -0.00000000000E+00 -0.00000000000E+00 -0.71978758900E+01  0.71978758900E+01  0.00000000000E+00 0. -1.
          2    1    1    2  501    0 -0.26550610071E+01  0.25310013484E+02  0.71777937489E+02  0.76155882515E+02  0.00000000000E+00 0.  1.
         21    1    1    2  503  502  0.26550610071E+01 -0.25310013484E+02  0.27315843319E+02  0.37333650072E+02  0.00000000000E+00 0. -1.
</event>
<event>
 4    1  0.2253948E+005  0.2994113E+02  0.7546771E-02  0.1420109E+00
          2   -1    0    0  502    0  0.00000000000E+00  0.00000000000E+00  0.81231186474E+03  0.81231186474E+03  0.00000000000E+00 0. -1.
         21   -1    0    0  503  502 -0.00000000000E+00 -0.00000000000E+00 -0.11204921767E+02  0.11204921767E+02  0.00000000000E+00 0.  1.
          2    1    1    2  501    0 -0.20315004636E+02 -0.21994810260E+02  0.79150872241E+03  0.79207482522E+03  0.00000000000E+00 0. -1.
         21    1    1    2  503  501  0.20315004636E+02  0.21994810260E+02  0.95982205623E+01  0.31441961289E+02  0.00000000000E+00 0.  1.
</event>
<event>
 4    1  0.2253948E+005  0.2665271E+02  0.7546771E-02  0.1451128E+00
          2   -1    0    0  502    0  0.00000000000E+00  0.00000000000E+00  0.71682965064E+01  0.71682965064E+01  0.00000000000E+00 0. -1.
         21   -1    0    0  503  502 -0.00000000000E+00 -0.00000000000E+00 -0.16379169937E+04  0.16379169937E+04  0.00000000000E+00 0.  1.
          2    1    1    2  501    0  0.24233955189E+02 -0.11094240644E+02 -0.18102938422E+02  0.32219297620E+02  0.00000000000E+00 0. -1.
         21    1    1    2  503  501 -0.24233955189E+02  0.11094240644E+02 -0.16126457588E+04  0.16128659926E+04  0.00000000000E+00 0.  1.
</event>
<event>
 4    1  0.2253948E+005  0.3051643E+02  0.7546771E-02  0.1415161E+00
          2   -1    0    0  503    0  0.00000000000E+00  0.00000000000E+00  0.43401435834E+03  0.43401435834E+03  0.00000000000E+00 0.  1.
         21   -1    0    0  501  502 -0.00000000000E+00 -0.00000000000E+00 -0.64283495360E+02  0.64283495360E+02  0.00000000000E+00 0. -1.
          2    1    1    2  501    0  0.29907814396E+02  0.60642355054E+01  0.42982098982E+03  0.43090293061E+03  0.00000000000E+00 0.  1.
         21    1    1    2  503  502 -0.29907814396E+02 -0.60642355054E+01 -0.60090126844E+02  0.67394923091E+02  0.00000000000E+00 0. -1.
</event>
<event>
 4    1  0.2253948E+005  0.2036827E+02  0.7546771E-02  0.1528478E+00
          2   -1    0    0  502    0  0.00000000000E+00  0.00000000000E+00  0.34300272266E+02  0.34300272266E+02  0.00000000000E+00 0. -1.
         21   -1    0    0  503  502 -0.00000000000E+00 -0.00000000000E+00 -0.85075224003E+02  0.85075224003E+02  0.00000000000E+00 0.  1.
          2    1    1    2  501    0  0.20241995767E+02 -0.22645504568E+01  0.29894788616E+02  0.36174092495E+02  0.00000000000E+00 0. -1.
         21    1    1    2  503  501 -0.20241995767E+02  0.22645504568E+01 -0.80669740353E+02  0.83201403775E+02  0.00000000000E+00 0.  1.
</event>
<event>
 4    1  0.2253948E+005  0.2996549E+02  0.7546771E-02  0.1419897E+00
          2   -1    0    0  503    0  0.00000000000E+00  0.00000000000E+00  0.29924388038E+02  0.29924388038E+02  0.00000000000E+00 0.  1.
         21   -1    0    0  501  502 -0.00000000000E+00 -0.00000000000E+00 -0.22325865849E+03  0.22325865849E+03  0.00000000000E+00 0.  1.
          2    1    1    2  501    0 -0.27096725648E+02  0.12794458030E+02  0.21110404014E+02  0.36654874911E+02  0.00000000000E+00 0.  1.
         21    1    1    2  503  502  0.27096725648E+02 -0.12794458030E+02 -0.21444467446E+03  0.21652817161E+03  0.00000000000E+00 0.  1.
</event>
<event>
 4    1  0.2253948E+005  0.2961593E+02  0.7546771E-02  0.1422964E+00
          2   -1    0    0  503    0  0.00000000000E+00  0.00000000000E+00  0.21250364573E+04  0.21250364573E+04  0.00000000000E+00 0.  1.
         21   -1    0    0  501  502 -0.00000000000E+00 -0.00000000000E+00 -0.15183390274E+01  0.15183390274E+01  0.00000000000E+00 0.  1.
          2    1    1    2  501    0  0.53276249076E+01  0.29132798372E+02  0.19690771109E+04  0.19692998178E+04  0.00000000000E+00 0.  1.
         21    1    1    2  503  502 -0.53276249076E+01 -0.29132798372E+02  0.15444100731E+03  0.15725497851E+03  0.00000000000E+00 0.  1.
</event>
<event>
 4    1  0.2253948E+005  0.3577184E+02  0.7546771E-02  0.1375217E+00
          2   -1    0    0  503    0  0.00000000000E+00  0.00000000000E+00  0.11662724542E+04  0.11662724542E+04  0.00000000000E+00 0.  1.
         21   -1    0    0  501  502 -0.00000000000E+00 -0.00000000000E+00 -0.18958619361E+01  0.18958619361E+01  0.00000000000E+00 0.  1.
          2    1    1    2  501    0  0.33842958342E+02 -0.11587859547E+02  0.96129010433E+03  0.96195545063E+03  0.00000000000E+00 0.  1.
         21    1    1    2  503  502 -0.33842958342E+02  0.11587859547E+02  0.20308648797E+03  0.20621286554E+03  0.00000000000E+00 0.  1.
</event>
<event>
 4    1  0.2253948E+005  0.2065879E+02  0.7546771E-02  0.1524193E+00
          2   -1    0    0  503    0  0.00000000000E+00  0.00000000000E+00  0.74347531092E+02  0.74347531092E+02  0.00000000000E+00 0. -1.
         21   -1    0    0  501  502 -0.00000000000E+00 -0.00000000000E+00 -0.63314870676E+01  0.63314870676E+01  0.00000000000E+00 0. -1.
          2    1    1    2  501    0  0.20641377827E+02 -0.84796678254E+00  0.46333357169E+02  0.50730321435E+02  0.00000000000E+00 0. -1.
         21    1    1    2  503  502 -0.20641377827E+02  0.84796678254E+00  0.21682686855E+02  0.29948696725E+02  0.00000000000E+00 0. -1.
</event>
<event>
 4    1  0.2253948E+005  0.2247559E+02  0.7546771E-02  0.1499190E+00
          2   -1    0    0  503    0  0.00000000000E+00  0.00000000000E+00  0.12117168544E+04  0.12117168544E+04  0.00000000000E+00 0. -1.
         21   -1    0    0  501  502 -0.00000000000E+00 -0.00000000000E+00 -0.45253215628E+00  0.45253215628E+00  0.00000000000E+00 0. -1.
          2    1    1    2  501    0 -0.19089132610E+02  0.11864107405E+02  0.77572798506E+03  0.77605351544E+03  0.00000000000E+00 0. -1.
         21    1    1    2  503  502  0.19089132610E+02 -0.11864107405E+02  0.43553633720E+03  0.43611587113E+03  0.00000000000E+00 0. -1.
</event>
<event>
 4    1  0.2253948E+005  0.2084132E+02  0.7546771E-02  0.1521542E+00
          2   -1    0    0  503    0  0.00000000000E+00  0.00000000000E+00  0.21031815667E+03  0.21031815667E+03  0.00000000000E+00 0. -1.
         21   -1    0    0  501  502 -0.00000000000E+00 -0.00000000000E+00 -0.12792640607E+02  0.12792640607E+02  0.00000000000E+00 0. -1.
          2    1    1    2  501    0  0.15685327473E+02  0.13723383178E+02  0.20091724040E+03  0.20199529260E+03  0.00000000000E+00 0. -1.
         21    1    1    2  503  502 -0.15685327473E+02 -0.13723383178E+02 -0.33917243340E+01  0.21115504676E+02  0.00000000000E+00 0. -1.
</event>
<event>
 4    1  0.2253948E+005  0.2452314E+02  0.7546771E-02  0.1474209E+00
          2   -1    0    0  503    0  0.00000000000E+00  0.00000000000E+00  0.29008621434E+03  0.29008621434E+03  0.00000000000E+00 0.  1.
         21   -1    0    0  501  502 -0.00000000000E+00 -0.00000000000E+00 -0.10311912347E+02  0.10311912347E+02  0.00000000000E+00 0.  1.
          2    1    1    2  501    0  0.83136749014E+01  0.23070913918E+02  0.27414179904E+03  0.27523646242E+03  0.00000000000E+00 0.  1.
         21    1    1    2  503  502 -0.83136749014E+01 -0.23070913918E+02  0.56325029469E+01  0.25161664270E+02  0.00000000000E+00 0.  1.
</event>
<event>
 4    1  0.2253948E+005  0.2597298E+02  0.7546771E-02  0.1458207E+00
          2   -1    0    0  503    0  0.00000000000E+00  0.00000000000E+00  0.25716961355E+03  0.25716961355E+03  0.00000000000E+00 0.  1.
         21   -1    0    0  501  502 -0.00000000000E+00 -0.00000000000E+00 -0.25047331915E+03  0.25047331915E+03  0.00000000000E+00 0. -1.
          2    1    1    2  501    0 -0.11000487495E+02  0.23528384022E+02  0.25583700596E+03  0.25715203518E+03  0.00000000000E+00 0.  1.
         21    1    1    2  503  502  0.11000487495E+02 -0.23528384022E+02 -0.24914071156E+03  0.25049089751E+03  0.00000000000E+00 0. -1.
</event>
<event>
 4    1  0.2253948E+005  0.2579229E+02  0.7546771E-02  0.1460132E+00
          2   -1    0    0  502    0  0.00000000000E+00  0.00000000000E+00  0.37639406854E+03  0.37639406854E+03  0.00000000000E+00 0. -1.
         21   -1    0    0  503  502 -0.00000000000E+00 -0.00000000000E+00 -0.30449870436E+01  0.30449870436E+01  0.00000000000E+00 0. -1.
          2    1    1    2  501    0  0.72629726758E+01  0.24748564611E+02  0.30956355177E+03  0.31063617756E+03  0.00000000000E+00 0. -1.
         21    1    1    2  503  501 -0.72629726758E+01 -0.24748564611E+02  0.63785529727E+02  0.68802878028E+02  0.00000000000E+00 0. -1.
</event>
<event>
 4    1  0.2253948E+005  0.3553838E+02  0.7546771E-02  0.1376817E+00
          2   -1    0    0  502    0  0.00000000000E+00  0.00000000000E+00  0.35381479691E+02  0.35381479691E+02  0.00000000000E+00 0. -1.
         21   -1    0    0  503  502 -0.00000000000E+00 -0.00000000000E+00 -0.93982429566E+02  0.93982429566E+02  0.00000000000E+00 0.  1.
          2    1    1    2  501    0  0.35459057260E+02 -0.23731076170E+01  0.21637728599E+02  0.41607303210E+02  0.00000000000E+00 0. -1.
         21    1    1    2  503  501 -0.35459057260E+02  0.23731076170E+01 -0.80238678475E+02  0.87756606047E+02  0.00000000000E+00 0.  1.
</event>
<event>
 4    1  0.2253948E+005  0.2766657E+02  0.7546771E-02  0.1441025E+00
          2   -1    0    0  502    0  0.00000000000E+00  0.00000000000E+00  0.53039980643E+02  0.53039980643E+02  0.00000000000E+00 0. -1.
         21   -1    0    0  503  502 -0.00000000000E+00 -0.00000000000E+00 -0.23917120817E+02  0.23917120817E+02  0.00000000000E+00 0. -1.
          2    1    1    2  501    0  0.90331642594E+01 -0.26150359725E+02  0.38794040669E+02  0.47648892556E+02  0.00000000000E+00 0. -1.
         21    1    1    2  503  501 -0.90331642594E+01  0.26150359725E+02 -0.96711808435E+01  0.29308208905E+02  0.00000000000E+00 0. -1.
</event>
<event>
 4    1  0.2253948E+005  0.2310349E+02  0.7546771E-02  0.1491203E+00
          2   -1    0    0  503    0  0.00000000000E+00  0.00000000000E+00  0.17567854413E+04  0.17567854413E+04  0.00000000000E+00 0. -1.
         21   -1    0    0  501  502 -0.00000000000E+00 -0.00000000000E+00 -0.10344582435E+01  0.10344582435E+01  0.00000000000E+00 0. -1.
          2    1    1    2  501    0 -0.19872697613E+02 -0.11783336983E+02  0.16165190914E+04  0.16166841819E+04  0.00000000000E+00 0. -1.
         21    1    1    2  503  502  0.19872697613E+02  0.11783336983E+02  0.13923189166E+03  0.14113571765E+03  0.00000000000E+00 0. -1.
</event>
<event>
 4    1  0.2253948E+005  0.3413770E+02  0.7546771E-02  0.1386729E+00
          2   -1    0    0  502    0  0.00000000000E+00  0.00000000000E+00  0.40398848309E+03  0.40398848309E+03  0.00000000000E+00 0.  1.
         21   -1    0    0  503  502 -0.00000000000E+00 -0.00000000000E+00 -0.33078138469E+01  0.33078138469E+01  0.00000000000E+00 0.  1.
          2    1    1    2  501    0  0.12732169276E+02  0.31674507216E+02  0.27317571801E+03  0.27530048211E+03  0.00000000000E+00 0.  1.
         21    1    1    2  503  501 -0.12732169276E+02 -0.31674507216E+02  0.12750495124E+03  0.13199581483E+03  0.00000000000E+00 0.  1.
</event>
<event>
 4    1  0.2253948E+005  0.2850016E+02  0.7546771E-02  0.1433094E+00
          2   -1    0    0  502    0  0.00000000000E+00  0.00000000000E+00  0.18150062119E+04  0.18150062119E+04  0.00000000000E+00 0. -1.
         21   -1    0    0  503  502 -0.00000000000E+00 -0.00000000000E+00 -0.42232721924E+01  0.42232721924E+01  0.00000000000E+00 0. -1.
          2    1    1    2  501    0  0.22835634922E+02  0.17052653091E+02  0.17654627664E+04  0.17656927929E+04  0.00000000000E+00 0. -1.
         21    1    1    2  503  501 -0.22835634922E+02 -0.17052653091E+02  0.45320173298E+02  0.53536691226E+02  0.00000000000E+00 0. -1.
</event>
<event>
 4    1  0.2253948E+005  0.2265617E+02  0.7546771E-02  0.1496861E+00
          2   -1    0    0  503    0  0.00000000000E+00  0.00000000000E+00  0.14396773889E+04  0.14396773889E+04  0.00000000000E+00 0.  1.
         21   -1    0    0  501  502 -0.00000000000E+00 -0.00000000000E+00 -0.64004496057E+01  0.64004496057E+01  0.00000000000E+00 0. -1.
          2    1    1    2  501    0  0.13688033534E+02 -0.18053805769E+02  0.14192502450E+04  0.14194310692E+04  0.00000000000E+00 0.  1.
         21    1    1    2  503  502 -0.13688033534E+02  0.18053805769E+02  0.14026694337E+02  0.26646769388E+02  0.00000000000E+00 0. -1.
</event>
<event>
 4    1  0.2253948E+005  0.3558841E+02  0.7546771E-02  0.1376473E+00
          2   -1    0    0  503    0  0.00000000000E+00  0.00000000000E+00  0.26003423055E+03  0.26003423055E+03  0.00000000000E+00 0. -1.
         21   -1    0    0  501  502 -0.00000000000E+00 -0.00000000000E+00 -0.68883790237E+02  0.68883790237E+02  0.00000000000E+00 0.  1.
          2    1    1    2  501    0  0.35512018263E+02 -0.23305533977E+01  0.25411335028E+03  0.25659331579E+03  0.00000000000E+00 0. -1.
         21    1    1    2  503  502 -0.35512018263E+02  0.23305533977E+01 -0.62962909969E+02  0.72324704991E+02  0.00000000000E+00 0.  1.
</event>
<event>
 4    1  0.2253948E+005  0.2397303E+02  0.7546771E-02  0.1480628E+00
          2   -1    0    0  502    0  0.00000000000E+00  0.00000000000E+00  0.10760314919E+04  0.10760314919E+04  0.00000000000E+00 0.  1.
         21   -1    0    0  503  502 -0.00000000000E+00 -0.00000000000E+00 -0.10923856643E+01  0.10923856643E+01  0.00000000000E+00 0.  1.
          2    1    1    2  501    0  0.14501513430E+02  0.19089579450E+02  0.92248379781E+03  0.92279524444E+03  0.00000000000E+00 0.  1.
         21    1    1    2  503  501 -0.14501513430E+02 -0.19089579450E+02  0.15245530839E+03  0.15432863309E+03  0.00000000000E+00 0.  1.
</event>
<event>
 4    1  0.2253948E+005  0.3502963E+02  0.7546771E-02  0.1380355E+00
          2   -1    0    0  503    0  0.00000000000E+00  0.00000000000E+00  0.20532553265E+01  0.20532553265E+01  0.00000000000E+00 0. -1.
         21   -1    0    0  501  502 -0.00000000000E+00 -0.00000000000E+00 -0.81261766860E+03  0.81261766860E+03  0.00000000000E+00 0.  1.
          2    1    1    2  501    0 -0.24642766908E+02  0.24895965080E+02 -0.19576401351E+03  0.19887338692E+03  0.00000000000E+00 0. -1.
         21    1    1    2  503  502  0.24642766908E+02 -0.24895965080E+02 -0.61480039976E+03  0.61579753701E+03  0.00000000000E+00 0.  1.
</event>
<event>
 4    1  0.2253948E+005  0.3372229E+02  0.7546771E-02  0.1389775E+00
          2   -1    0    0  502    0  0.00000000000E+00  0.00000000000E+00  0.13179502528E+04  0.13179502528E+04  0.00000000000E+00 0. -1.
         21   -1    0    0  503  502 -0.00000000000E+00 -0.00000000000E+00 -0.13672957821E+01  0.13672957821E+01  0.00000000000E+00 0. -1.
          2    1    1    2  501    0 -0.75578893867E+01 -0.32864435301E+02  0.10589695199E+04  0.10595063175E+04  0.00000000000E+00 0. -1.
         21    1    1    2  503  501  0.75578893867E+01  0.32864435301E+02  0.25761343719E+03  0.25981123113E+03  0.00000000000E+00 0. -1.
</event>
<event>
 4    1  0.2253948E+005  0.2137488E+02  0.7546771E-02  0.1513979E+00
          2   -1    0    0  502    0  0.00000000000E+00  0.00000000000E+00  0.28510152317E+01  0.28510152317E+01  0.00000000000E+00 0. -1.
         21   -1    0    0  503  502 -0.00000000000E+00 -0.00000000000E+00 -0.83155907905E+03  0.83155907905E+03  0.00000000000E+00 0.  1.
          2    1    1    2  501    0 -0.71634558550E+01  0.20138782119E+02 -0.39499234649E+02  0.44911860158E+02  0.00000000000E+00 0. -1.
         21    1    1    2  503  501  0.71634558550E+01 -0.20138782119E+02 -0.78920882917E+03  0.78949823412E+03  0.00000000000E+00 0.  1.
</event>
<event>
 4    1  0.2253948E+005  0.2436585E+02  0.7546771E-02  0.1476024E+00
          2   -1    0    0  502    0  0.00000000000E+00  0.00000000000E+00  0.15730903517E+04  0.15730903517E+04  0.00000000000E+00 0.  1.
         21   -1    0    0  503  502 -0.00000000000E+00 -0.00000000000E+00 -0.12425577427E+02  0.12425577427E+02  0.00000000000E+00 0.  1.
          2    1    1    2  501    0 -0.23454483283E+02 -0.66016731677E+01  0.15609581499E+04  0.15611483084E+04  0.00000000000E+00 0.  1.
         21    1    1    2  503  501  0.23454483283E+02  0.66016731677E+01 -0.29337560997E+00  0.24367620810E+02  0.00000000000E+00 0.  1.
</event>
<event>
 4    1  0.2253948E+005  0.2543200E+02  0.7546771E-02  0.1464028E+00
          2   -1    0    0  502    0  0.00000000000E+00  0.00000000000E+00  0.92973684628E+03  0.92973684628E+03  0.00000000000E+00 0. -1.
         21   -1    0    0  503  502 -0.00000000000E+00 -0.00000000000E+00 -0.45544253451E+02  0.45544253451E+02  0.00000000000E+00 0. -1.
          2    1    1    2  501    0  0.13812638879E+02 -0.21354103158E+02  0.92599827843E+03  0.92634745013E+03  0.00000000000E+00 0. -1.
         21    1    1    2  503  501 -0.13812638879E+02  0.21354103158E+02 -0.41805685600E+02  0.48933649598E+02  0.00000000000E+00 0. -1.
</event>
<event>
 4    1  0.2253948E+005  0.2467979E+02  0.7546771E-02  0.1472418E+00
          2   -1    0    0  503    0  0.00000000000E+00  0.00000000000E+00  0.50351426343E+03  0.50351426343E+03  0.00000000000E+00 0. -1.
         21   -1    0    0  501  502 -0.00000000000E+00 -0.00000000000E+00 -0.21520869353E+01  0.21520869353E+01  0.00000000000E+00 0. -1.
          2    1    1    2  501    0 -0.19756989358E+02  0.14790316856E+02  0.41799149208E+03  0.41871945208E+03  0.00000000000E+00 0. -1.
         21    1    1    2  503  502  0.19756989358E+02 -0.14790316856E+02  0.83370684418E+02  0.86946898286E+02  0.00000000000E+00 0. -1.
</event>
<event>
 4    1  0.2253948E+005  0.3323378E+02  0.7546771E-02  0.1393424E+00
          2   -1    0    0  503    0  0.00000000000E+00  0.00000000000E+00  0.12066564486E+03  0.12066564486E+03  0.00000000000E+00 0.  1.
         21   -1    0    0  501  502 -0.00000000000E+00 -0.00000000000E+00 -0.15064052005E+02  0.15064052005E+02  0.00000000000E+00 0.  1.
          2    1    1    2  501    0  0.53384678199E+01 -0.32802208004E+02  0.95311353700E+02  0.10093927993E+03  0.00000000000E+00 0.  1.
         21    1    1    2  503  502 -0.53384678199E+01  0.32802208004E+02  0.10290239153E+02  0.34790416934E+02  0.00000000000E+00 0.  1.
</event>
<event>
 4    1  0.2253948E+005  0.2202085E+02  0.7546771E-02  0.1505173E+00
          2   -1    0    0  503    0  0.00000000000E+00  0.00000000000E+00  0.18576378206E+04  0.18576378206E+04  0.00000000000E+00 0.  1.
         21   -1    0    0  501  502 -0.00000000000E+00 -0.00000000000E+00 -0.41956144961E+00  0.41956144961E+00  0.00000000000E+00 0. -1.
          2    1    1    2  501    0 -0.15176014233E+02 -0.15956394486E+02  0.14996605815E+04  0.14998222487E+04  0.00000000000E+00 0.  1.
         21    1    1    2  503  502  0.15176014233E+02  0.15956394486E+02  0.35755767762E+03  0.35823513334E+03  0.00000000000E+00 0. -1.
</event>
<event>
 4    1  0.2253948E+005  0.2030962E+02  0.7546771E-02  0.1529354E+00
          2   -1    0    0  503    0  0.00000000000E+00  0.00000000000E+00  0.65647625469E+01  0.65647625469E+01  0.00000000000E+00 0.  1.
         21   -1    0    0  501  502 -0.00000000000E+00 -0.00000000000E+00 -0.62923288483E+02  0.62923288483E+02  0.00000000000E+00 0.  1.
          2    1    1    2  501    0  0.20285185844E+02 -0.99595893775E+00 -0.29498723614E+02  0.35814178670E+02  0.00000000000E+00 0.  1.
         21    1    1    2  503  502 -0.20285185844E+02  0.99595893775E+00 -0.26859802323E+02  0.33673872361E+02  0.00000000000E+00 0.  1.
</event>
<event>
 4    1  0.2253948E+005  0.3598870E+02  0.7546771E-02  0.1373743E+00
          2   -1    0    0  502    0  0.00000000000E+00  0.00000000000E+00  0.17284718518E+04  0.17284718518E+04  0.00000000000E+00 0.  1.
         21   -1    0    0  503  502 -0.00000000000E+00 -0.00000000000E+00 -0.85579502431E+00  0.85579502431E+00  0.00000000000E+00 0.  1.
          2    1    1    2  501    0 -0.16314425169E+01 -0.35951697899E+02  0.11687921631E+04  0.11693461022E+04  0.00000000000E+00 0.  1.
         21    1    1    2  503  501  0.16314425169E+01  0.35951697899E+02  0.55882389367E+03  0.55998154463E+03  0.00000000000E+00 0.  1.
</event>
<event>
 4    1  0.2253948E+005  0.2224753E+02  0.7546771E-02  0.1502169E+00
          2   -1    0    0  502    0  0.00000000000E+00  0.00000000000E+00  0.28404009413E+03  0.28404009413E+03  0.00000000000E+00 0.  1.
         21   -1    0    0  503  502 -0.00000000000E+00 -0.00000000000E+00 -0.17684875096E+01  0.17684875096E+01  0.00000000000E+00 0.  1.
          2    1    1    2  501    0 -0.90398158502E+01  0.20328168296E+02  0.15844387793E+03  0.15999817234E+03  0.00000000000E+00 0.  1.
         21    1    1    2  503  501  0.90398158502E+01 -0.20328168296E+02  0.12382772868E+03  0.12581040930E+03  0.00000000000E+00 0.  1.
</event>
<event>
 4    1  0.2253948E+005  0.3347178E+02  0.7546771E-02  0.1391637E+00
          2   -1    0    0  503    0  0.00000000000E+00  0.00000000000E+00  0.18222804057E+04  0.18222804057E+04  0.00000000000E+00 0. -1.
         21   -1    0    0  501  502 -0.00000000000E+00 -0.00000000000E+00 -0.16853873863E+01  0.16853873863E+01  0.00000000000E+00 0.  1.
          2    1    1    2  501    0 -0.33160854969E+02 -0.45516570291E+01  0.16371486033E+04  0.16374907355E+04  0.00000000000E+00 0. -1.
         21    1    1    2  503  502  0.33160854969E+02  0.45516570291E+01  0.18344641506E+03  0.18647505753E+03  0.00000000000E+00 0.  1.
</event>
<event>
 4    1  0.2253948E+005  0.2008352E+02  0.7546771E-02  0.1532763E+00
          2   -1    0    0  503    0  0.00000000000E+00  0.00000000000E+00  0.40894432479E+03  0.40894432479E+03  0.00000000000E+00 0.  1.
         21   -1    0    0  501  502 -0.00000000000E+00 -0.00000000000E+00 -0.26875233790E+01  0.26875233790E+01  0.00000000000E+00 0.  1.
          2    1    1    2  501    0  0.30826983420E+01  0.19845526757E+02  0.36687850756E+03  0.36742779872E+03  0.00000000000E+00 0.  1.
         21    1    1    2  503  502 -0.30826983420E+01 -0.19845526757E+02  0.39378293857E+02  0.44204049457E+02  0.00000000000E+00 0.  1.
</event>
<event>
 4    1  0.2253948E+005  0.3283776E+02  0.7546771E-02  0.1396437E+00
          2   -1    0    0  502    0  0.00000000000E+00  0.00000000000E+00  0.26410232255E+04  0.26410232255E+04  0.00000000000E+00 0.  1.
         21   -1    0    0  503  502 -0.00000000000E+00 -0.00000000000E+00 -0.60525272964E+00  0.60525272964E+00  0.00000000000E+00 0. -1.
          2    1    1    2  501    0  0.21874394546E+02  0.24491413288E+02  0.20736670623E+04  0.20739270488E+04  0.00000000000E+00 0.  1.
         21    1    1    2  503  501 -0.21874394546E+02 -0.24491413288E+02  0.56675091050E+03  0.56770142946E+03  0.00000000000E+00 0. -1.
</event>
<event>
 4    1  0.2253948E+005  0.2385142E+02  0.7546771E-02  0.1482075E+00
          2   -1    0    0  503    0  0.00000000000E+00  0.00000000000E+00  0.37301536195E+03  0.37301536195E+03  0.00000000000E+00 0. -1.
         21   -1    0    0  501  502 -0.00000000000E+00 -0.00000000000E+00 -0.24948984756E+02  0.24948984756E+02  0.00000000000E+00 0. -1.
          2    1    1    2  501    0  0.20201897481E+02 -0.12679651737E+02  0.36683765074E+03  0.36761223080E+03  0.00000000000E+00 0. -1.
         21    1    1    2  503  502 -0.20201897481E+02  0.12679651737E+02 -0.18771273544E+02  0.30352115914E+02  0.00000000000E+00 0. -1.
</event>
<event>
 4    1  0.2253948E+005  0.2565104E+02  0.7546771E-02  0.1461650E+00
          2   -1    0    0  502    0  0.00000000000E+00  0.00000000000E+00  0.87157922637E+02  0.87157922637E+02  0.00000000000E+00 0. -1.
         21   -1    0    0  503  502 -0.00000000000E+00 -0.00000000000E+00 -0.84052926116E+02  0.84052926116E+02  0.00000000000E+00 0. -1.
          2    1    1    2  501    0  0.24168907407E+02  0.85929933267E+01  0.83223157532E+02  0.87086563655E+02  0.00000000000E+00 0. -1.
         21    1    1    2  503  501 -0.24168907407E+02 -0.85929933267E+01 -0.80118161011E+02  0.84124285099E+02  0.00000000000E+00 0. -1.
</event>
<event>
 4    1  0.2253948E+005  0.6343731E+02  0.7546771E-02  0.1248581E+00
          2   -1    0    0  503    0  0.00000000000E+00  0.00000000000E+00  0.13557621824E+04  0.13557621824E+04  0.00000000000E+00 0.  1.
         21   -1    0    0  501  502 -0.00000000000E+00 -0.00000000000E+00 -0.38346397379E+01  0.38346397379E+01  0.00000000000E+00 0. -1.
          2    1    1    2  501    0  0.51063175390E+02  0.37640994659E+02  0.99908465951E+03  0.10010966233E+04  0.00000000000E+00 0.  1.
         21    1    1    2  503  502 -0.51063175390E+02 -0.37640994659E+02  0.35284288318E+03  0.35850019884E+03  0.00000000000E+00 0. -1.
</event>
<event>
 4    1  0.2253948E+005  0.3854229E+02  0.7546771E-02  0.1357246E+00
          2   -1    0    0  503    0  0.00000000000E+00  0.00000000000E+00  0.14332063900E+04  0.14332063900E+04  0.00000000000E+00 0. -1.
         21   -1    0    0  501  502 -0.00000000000E+00 -0.00000000000E+00 -0.21983468604E+01  0.21983468604E+01  0.00000000000E+00 0. -1.
          2    1    1    2  501    0  0.38461427900E+02  0.24953637346E+01  0.12372655315E+04  0.12378657050E+04  0.00000000000E+00 0. -1.
         21    1    1    2  503  502 -0.38461427900E+02 -0.24953637346E+01  0.19374251166E+03  0.19753903184E+03  0.00000000000E+00 0. -1.
</event>
<event>
 4    1  0.2253948E+005  0.3899468E+02  0.7546771E-02  0.1354480E+00
          2   -1    0    0  503    0  0.00000000000E+00  0.00000000000E+00  0.85746570456E+03  0.85746570456E+03  0.00000000000E+00 0. -1.
         21   -1    0    0  501  502 -0.00000000000E+00 -0.00000000000E+00 -0.54019261406E+02  0.54019261406E+02  0.00000000000E+00 0.  1.
          2    1    1    2  501    0 -0.27369603802E+00  0.38993722531E+02  0.84992270876E+03  0.85081678179E+03  0.00000000000E+00 0. -1.
         21    1    1    2  503  502  0.27369603802E+00 -0.38993722531E+02 -0.46476265608E+02  0.60668184176E+02  0.00000000000E+00 0.  1.
</event>
<event>
 4    1  0.2253948E+005  0.2145403E+02  0.7546771E-02  0.1512880E+00
          2   -1    0    0  503    0  0.00000000000E+00  0.00000000000E+00  0.12952954005E+01  0.12952954005E+01  0.00000000000E+00 0. -1.
         21   -1    0    0  501  502 -0.00000000000E+00 -0.00000000000E+00 -0.36343030572E+03  0.36343030572E+03  0.00000000000E+00 0.  1.
          2    1    1    2  501    0 -0.21450426658E+02 -0.39329506433E+00 -0.15386555662E+03  0.15535406335E+03  0.00000000000E+00 0. -1.
         21    1    1    2  503  502  0.21450426658E+02  0.39329506433E+00 -0.20826945369E+03  0.20937153776E+03  0.00000000000E+00 0.  1.
</event>
<event>
 4    1  0.2253948E+005  0.4086348E+02  0.7546771E-02  0.1343499E+00
          2   -1    0    0  503    0  0.00000000000E+00  0.00000000000E+00  0.45491616559E+03  0.45491616559E+03  0.00000000000E+00 0.  1.
         21   -1    0    0  501  502 -0.00000000000E+00 -0.00000000000E+00 -0.41061075744E+01  0.41061075744E+01  0.00000000000E+00 0. -1.
          2    1    1    2  501    0  0.38591529276E+02  0.13435688208E+02  0.30014915415E+03  0.30291803939E+03  0.00000000000E+00 0.  1.
         21    1    1    2  503  502 -0.38591529276E+02 -0.13435688208E+02  0.15066090387E+03  0.15610423378E+03  0.00000000000E+00 0. -1.
</event>
<event>
 4    1  0.2253948E+005  0.3904133E+02  0.7546771E-02  0.1354197E+00
          2   -1    0    0  503    0  0.00000000000E+00  0.00000000000E+00  0.92700562145E+03  0.92700562145E+03  0.00000000000E+00 0. -1.
         21   -1    0    0  501  502 -0.00000000000E+00 -0.00000000000E+00 -0.33832634415E+01  0.33832634415E+01  0.00000000000E+00 0. -1.
          2    1    1    2  501    0 -0.36851283358E+02  0.12892189909E+02  0.79532860474E+03  0.79628626459E+03  0.00000000000E+00 0. -1.
         21    1    1    2  503  502  0.36851283358E+02 -0.12892189909E+02  0.12829375326E+03  0.13410262030E+03  0.00000000000E+00 0. -1.
</event>
<event>
 4    1  0.2253948E+005  0.5279027E+02  0.7546771E-02  0.1286508E+00
          2   -1    0    0  502    0  0.00000000000E+00  0.00000000000E+00  0.35573424189E+02  0.35573424189E+02  0.00000000000E+00 0.  1.
         21   -1    0    0  503  502 -0.00000000000E+00 -0.00000000000E+00 -0.95005991579E+02  0.95005991579E+02  0.00000000000E+00 0.  1.
          2    1    1    2  501    0 -0.21935509557E+02  0.48017148276E+02 -0.23706443005E+01  0.52843477010E+02  0.00000000000E+00 0.  1.
         21    1    1    2  503  501  0.21935509557E+02 -0.48017148276E+02 -0.57061923090E+02  0.77735938759E+02  0.00000000000E+00 0.  1.
</event>
<event>
 4    1  0.2253948E+005  0.2129038E+02  0.7546771E-02  0.1515159E+00
          2   -1    0    0  502    0  0.00000000000E+00  0.00000000000E+00  0.17224625473E+04  0.17224625473E+04  0.00000000000E+00 0. -1.
         21   -1    0    0  503  502 -0.00000000000E+00 -0.00000000000E+00 -0.43761136386E+00  0.43761136386E+00  0.00000000000E+00 0.  1.
          2    1    1    2  501    0 -0.20093494205E+02  0.70378695441E+01  0.14049202392E+04  0.14050815487E+04  0.00000000000E+00 0. -1.
         21    1    1    2  503  501  0.20093494205E+02 -0.70378695441E+01  0.31710469678E+03  0.31781860996E+03  0.00000000000E+00 0.  1.
</event>
<event>
 4    1  0.2253948E+005  0.2067600E+02  0.7546771E-02  0.1523941E+00
          2   -1    0    0  503    0  0.00000000000E+00  0.00000000000E+00  0.63786431255E+03  0.63786431255E+03  0.00000000000E+00 0. -1.
         21   -1    0    0  501  502 -0.00000000000E+00 -0.00000000000E+00 -0.10178649390E+01  0.10178649390E+01  0.00000000000E+00 0.  1.
          2    1    1    2  501    0 -0.20592521950E+02  0.18560590884E+01  0.50511530605E+03  0.50553829660E+03  0.00000000000E+00 0. -1.
         21    1    1    2  503  502  0.20592521950E+02 -0.18560590884E+01  0.13173114156E+03  0.13334388089E+03  0.00000000000E+00 0.  1.
</event>
<event>
 4    1  0.2253948E+005  0.2176444E+02  0.7546771E-02  0.1508625E+00
          2   -1    0    0  502    0  0.00000000000E+00  0.00000000000E+00  0.62430223044E+03  0.62430223044E+03  0.00000000000E+00 0.  1.
         21   -1    0    0  503  502 -0.00000000000E+00 -0.00000000000E+00 -0.71082947469E+01  0.71082947469E+01  0.00000000000E+00 0. -1.
          2    1    1    2  501    0 -0.39967229743E+01  0.21394322412E+02  0.60697738650E+03  0.60736746583E+03  0.00000000000E+00 0.  1.
         21    1    1    2  503  501  0.39967229743E+01 -0.21394322412E+02  0.10216549199E+02  0.24043059363E+02  0.00000000000E+00 0. -1.
</event>
<event>
 4    1  0.2253948E+005  0.2572723E+02  0.7546771E-02  0.1460830E+00
          2   -1    0    0  502    0  0.00000000000E+00  0.00000000000E+00  0.52495717563E+02  0.52495717563E+02  0.00000000000E+00 0.  1.
         21   -1    0    0  503  502 -0.00000000000E+00 -0.00000000000E+00 -0.53893217567E+02  0.53893217567E+02  0.00000000000E+00 0.  1.
          2    1    1    2  501    0 -0.20325322353E+02 -0.15772499838E+02  0.45859242565E+02  0.52582892736E+02  0.00000000000E+00 0.  1.
         21    1    1    2  503  501  0.20325322353E+02  0.15772499838E+02 -0.47256742569E+02  0.53806042394E+02  0.00000000000E+00 0.  1.
</event>
<event>
 4    1  0.2253948E+005  0.2261956E+02  0.7546771E-02  0.1497331E+00
          2   -1    0    0  503    0  0.00000000000E+00  0.00000000000E+00  0.20585270863E+03  0.20585270863E+03  0.00000000000E+00 0. -1.
         21   -1    0    0  501  502 -0.00000000000E+00 -0.00000000000E+00 -0.93147939088E+02  0.93147939088E+02  0.00000000000E+00 0.  1.
          2    1    1    2  501    0  0.60117491490E+01  0.21806037879E+02  0.20384464689E+03  0.20509579343E+03  0.00000000000E+00 0. -1.
         21    1    1    2  503  502 -0.60117491490E+01 -0.21806037879E+02 -0.91139877350E+02  0.93904854289E+02  0.00000000000E+00 0.  1.
</event>
<event>
 4    1  0.2253948E+005  0.2039510E+02  0.7546771E-02  0.1528079E+00
          2   -1    0    0  502    0  0.00000000000E+00  0.00000000000E+00  0.72903383572E+02  0.72903383572E+02  0.00000000000E+00 0.  1.
         21   -1    0    0  503  502 -0.00000000000E+00 -0.00000000000E+00 -0.14894995220E+02  0.14894995220E+02  0.00000000000E+00 0. -1.
          2    1    1    2  501    0 -0.18355107797E+02  0.88910071465E+01  0.63485125657E+02  0.66680740623E+02  0.00000000000E+00 0.  1.
         21    1    1    2  503  501  0.18355107797E+02 -0.88910071465E+01 -0.54767373048E+01  0.21117638169E+02  0.00000000000E+00 0. -1.
</event>
<event>
 4    1  0.2253948E+005  0.2508026E+02  0.7546771E-02  0.1467907E+00
          2   -1    0    0  503    0  0.00000000000E+00  0.00000000000E+00  0.10577265923E+04  0.10577265923E+04  0.00000000000E+00 0.  1.
         21   -1    0    0  501  502 -0.00000000000E+00 -0.00000000000E+00 -0.13474818572E+02  0.13474818572E+02  0.00000000000E+00 0.  1.
          2    1    1    2  501    0  0.19257790862E+02 -0.16067267361E+02  0.10457742782E+04  0.10460749784E+04  0.00000000000E+00 0.  1.
         21    1    1    2  503  502 -0.19257790862E+02  0.16067267361E+02 -0.15225044194E+01  0.25126432477E+02  0.00000000000E+00 0.  1.
</event>
<event>
 4    1  0.2253948E+005  0.2553423E+02  0.7546771E-02  0.1462915E+00
          2   -1    0    0  503    0  0.00000000000E+00  0.00000000000E+00  0.23511538464E+03  0.23511538464E+03  0.00000000000E+00 0.  1.
         21   -1    0    0  501  502 -0.00000000000E+00 -0.00000000000E+00 -0.30881305010E+01  0.30881305010E+01  0.00000000000E+00 0.  1.
          2    1    1    2  501    0  0.19824578274E+02  0.16092949901E+02  0.15405455865E+03  0.15615634467E+03  0.00000000000E+00 0.  1.
         21    1    1    2  503  502 -0.19824578274E+02 -0.16092949901E+02  0.77972695491E+02  0.82047170472E+02  0.00000000000E+00 0.  1.
</event>
<event>
 4    1  0.2253948E+005  0.2850508E+02  0.7546771E-02  0.1433048E+00
          2   -1    0    0  502    0  0.00000000000E+00  0.00000000000E+00  0.75467353466E+03  0.75467353466E+03  0.00000000000E+00 0. -1.
         21   -1    0    0  503  502 -0.00000000000E+00 -0.00000000000E+00 -0.11905392392E+01  0.11905392392E+01  0.00000000000E+00 0. -1.
          2    1    1    2  501    0 -0.26980889567E+02  0.91962547197E+01  0.49361930397E+03  0.49444166163E+03  0.00000000000E+00 0. -1.
         21    1    1    2  503  501  0.26980889567E+02 -0.91962547197E+01  0.25986369145E+03  0.26142241227E+03  0.00000000000E+00 0. -1.
</event>
<event>
 4    1  0.2253948E+005  0.2703268E+02  0.7546771E-02  0.1447280E+00
          2   -1    0    0  503    0  0.00000000000E+00  0.00000000000E+00  0.73375759458E+03  0.73375759458E+03  0.00000000000E+00 0.  1.
         21   -1    0    0  501  502 -0.00000000000E+00 -0.00000000000E+00 -0.11132097985E+01  0.11132097985E+01  0.00000000000E+00 0.  1.
          2    1    1    2  501    0  0.89084030008E+01 -0.25522656803E+02  0.48558858666E+03  0.48634045807E+03  0.00000000000E+00 0.  1.
         21    1    1    2  503  502 -0.89084030008E+01  0.25522656803E+02  0.24705579811E+03  0.24853034631E+03  0.00000000000E+00 0.  1.
</event>
<event>
 4    1  0.2253948E+005  0.2943991E+02  0.7546771E-02  0.1424527E+00
          2   -1    0    0  502    0  0.00000000000E+00  0.00000000000E+00  0.16775980989E+04  0.16775980989E+04  0.00000000000E+00 0.  1.
         21   -1    0    0  503  502 -0.00000000000E+00 -0.00000000000E+00 -0.45566256705E+02  0.45566256705E+02  0.00000000000E+00 0. -1.
          2    1    1    2  501    0 -0.14379047528E+02 -0.25689520335E+02  0.16726998059E+04  0.16729588605E+04  0.00000000000E+00 0.  1.
         21    1    1    2  503  501  0.14379047528E+02  0.25689520335E+02 -0.40667963695E+02  0.50205495057E+02  0.00000000000E+00 0. -1.
</event>
<event>
 4    1  0.2253948E+005  0.2682702E+02  0.7546771E-02  0.1449354E+00
          2   -1    0    0  502    0  0.00000000000E+00  0.00000000000E+00  0.14207632359E+04  0.14207632359E+04  0.00000000000E+00 0. -1.
         21   -1    0    0  503  502 -0.00000000000E+00 -0.00000000000E+00 -0.19710135183E+02  0.19710135183E+02  0.00000000000E+00 0.  1.
          2    1    1    2  501    0  0.25916445966E+02 -0.69301356948E+01  0.14114479456E+04  0.14117028697E+04  0.00000000000E+00 0. -1.
         21    1    1    2  503  501 -0.25916445966E+02  0.69301356948E+01 -0.10394844910E+02  0.28770501437E+02  0.00000000000E+00 0.  1.
</event>
<event>
 4    1  0.2253948E+005  0.2432333E+02  0.7546771E-02  0.1476518E+00
          2   -1    0    0  502    0  0.00000000000E+00  0.00000000000E+00  0.93588381305E+03  0.93588381305E+03  0.00000000000E+00 0. -1.
         21   -1    0    0  503  502 -0.00000000000E+00 -0.00000000000E+00 -0.35608581993E+01  0.35608581993E+01  0.00000000000E+00 0.  1.
          2    1    1    2  501    0  0.67632218051E+01 -0.23364138551E+02  0.89215354536E+03  0.89248505457E+03  0.00000000000E+00 0. -1.
         21    1    1    2  503  501 -0.67632218051E+01  0.23364138551E+02  0.40169409487E+02  0.46959616672E+02  0.00000000000E+00 0.  1.
</event>
<event>
 4    1  0.2253948E+005  0.2430584E+02  0.7546771E-02  0.1476721E+00
          2   -1    0    0  503    0  0.00000000000E+00  0.00000000000E+00  0.18121384079E+03  0.18121384079E+03  0.00000000000E+00 0.  1.
         21   -1    0    0  501  502 -0.00000000000E+00 -0.00000000000E+00 -0.63658509804E+01  0.63658509804E+01  0.00000000000E+00 0.  1.
          2    1    1    2  501    0  0.12551265910E+02  0.20814407280E+02  0.15293457575E+03  0.15485399022E+03  0.00000000000E+00 0.  1.
         21    1    1    2  503  502 -0.12551265910E+02 -0.20814407280E+02  0.21913414057E+02  0.32725701550E+02  0.00000000000E+00 0.  1.
</event>
<event>
 4    1  0.2253948E+005  0.2939395E+02  0.7546771E-02  0.1424937E+00
          2   -1    0    0  503    0  0.00000000000E+00  0.00000000000E+00  0.71152620005E+03  0.71152620005E+03  0.00000000000E+00 0. -1.
         21   -1    0    0  501  502 -0.00000000000E+00 -0.00000000000E+00 -0.26664207091E+01  0.26664207091E+01  0.00000000000E+00 0.  1.
          2    1    1    2  501    0 -0.29354268894E+02 -0.15268566994E+01  0.61795547030E+03  0.61865415837E+03  0.00000000000E+00 0. -1.
         21    1    1    2  503  502  0.29354268894E+02  0.15268566994E+01  0.90904309041E+02  0.95538462390E+02  0.00000000000E+00 0.  1.
</event>
<event>
 4    1  0.2253948E+005  0.2441243E+02  0.7546771E-02  0.1475485E+00
          2   -1    0    0  503    0  0.00000000000E+00  0.00000000000E+00  0.13687494812E+04  0.13687494812E+04  0.00000000000E+00 0.  1.
         21   -1    0    0  501  502 -0.00000000000E+00 -0.00000000000E+00 -0.43826660633E+00  0.43826660633E+00  0.00000000000E+00 0.  1.
          2    1    1    2  501    0 -0.21807549825E+02 -0.10972580349E+02  0.62888239418E+03  0.62935604585E+03  0.00000000000E+00 0.  1.
         21    1    1    2  503  502  0.21807549825E+02  0.10972580349E+02  0.73942882043E+03  0.73983170197E+03  0.00000000000E+00 0.  1.
</event>
<event>
 4    1  0.2253948E+005  0.4276963E+02  0.7546771E-02  0.1332978E+00
          2   -1    0    0  502    0  0.00000000000E+00  0.00000000000E+00  0.28058957895E+03  0.28058957895E+03  0.00000000000E+00 0. -1.
         21   -1    0    0  503  502 -0.00000000000E+00 -0.00000000000E+00 -0.68638319278E+02  0.68638319278E+02  0.00000000000E+00 0. -1.
          2    1    1    2  501    0  0.42461996696E+02 -0.51205441272E+01  0.27209030093E+03  0.27543124913E+03  0.00000000000E+00 0. -1.
         21    1    1    2  503  501 -0.42461996696E+02  0.51205441272E+01 -0.60139041256E+02  0.73796649103E+02  0.00000000000E+00 0. -1.
</event>
<event>
 4    1  0.2253948E+005  0.2178257E+02  0.7546771E-02  0.1508379E+00
          2   -1    0    0  502    0  0.00000000000E+00  0.00000000000E+00  0.17640879647E+02  0.17640879647E+02  0.00000000000E+00 0.  1.
         21   -1    0    0  503  502 -0.00000000000E+00 -0.00000000000E+00 -0.27326113809E+02  0.27326113809E+02  0.00000000000E+00 0.  1.
          2    1    1    2  501    0  0.14345400071E+02 -0.16391762810E+02 -0.20239537782E+01  0.21876397787E+02  0.00000000000E+00 0.  1.
         21    1    1    2  503  501 -0.14345400071E+02  0.16391762810E+02 -0.76612803837E+01  0.23090595669E+02  0.00000000000E+00 0.  1.
</event>
<event>
 4    1  0.2253948E+005  0.2366188E+02  0.7546771E-02  0.1484350E+00
          2   -1    0    0  503    0  0.00000000000E+00  0.00000000000E+00  0.91888142489E+03  0.91888142489E+03  0.00000000000E+00 0. -1.
         21   -1    0    0  501  502 -0.00000000000E+00 -0.00000000000E+00 -0.76769869673E+00  0.76769869673E+00  0.00000000000E+00 0. -1.
          2    1    1    2  501    0  0.85123913355E+01 -0.22077679609E+02  0.66791779536E+03  0.66833679093E+03  0.00000000000E+00 0. -1.
         21    1    1    2  503  502 -0.85123913355E+01  0.22077679609E+02  0.25019593083E+03  0.25131233266E+03  0.00000000000E+00 0. -1.
</event>
<event>
 4    1  0.2253948E+005  0.3076962E+02  0.7546771E-02  0.1413024E+00
          2   -1    0    0  502    0  0.00000000000E+00  0.00000000000E+00  0.50549863308E+01  0.50549863308E+01  0.00000000000E+00 0.  1.
         21   -1    0    0  503  502 -0.00000000000E+00 -0.00000000000E+00 -0.66579541930E+03  0.66579541930E+03  0.00000000000E+00 0. -1.
          2    1    1    2  501    0 -0.20972240989E+02  0.22515213223E+02 -0.46011329800E+02  0.55351713510E+02  0.00000000000E+00 0.  1.
         21    1    1    2  503  501  0.20972240989E+02 -0.22515213223E+02 -0.61472910317E+03  0.61549869213E+03  0.00000000000E+00 0. -1.
</event>
<event>
 4    1  0.2253948E+005  0.2512990E+02  0.7546771E-02  0.1467355E+00
          2   -1    0    0  502    0  0.00000000000E+00  0.00000000000E+00  0.10286358191E+02  0.10286358191E+02  0.00000000000E+00 0. -1.
         21   -1    0    0  503  502 -0.00000000000E+00 -0.00000000000E+00 -0.77904591943E+02  0.77904591943E+02  0.00000000000E+00 0. -1.
          2    1    1    2  501    0 -0.13637776976E+02 -0.21107408985E+02 -0.13508682716E+02  0.28530618354E+02  0.00000000000E+00 0. -1.
         21    1    1    2  503  501  0.13637776976E+02  0.21107408985E+02 -0.54109551035E+02  0.59660331781E+02  0.00000000000E+00 0. -1.
</event>
<event>
 4    1  0.2253948E+005  0.2104799E+02  0.7546771E-02  0.1518581E+00
          2   -1    0    0  502    0  0.00000000000E+00  0.00000000000E+00  0.11721431344E+04  0.11721431344E+04  0.00000000000E+00 0.  1.
         21   -1    0    0  503  502 -0.00000000000E+00 -0.00000000000E+00 -0.11346458164E+02  0.11346458164E+02  0.00000000000E+00 0. -1.
          2    1    1    2  501    0 -0.14697837694E+02  0.15066242029E+02  0.11622040218E+04  0.11623946001E+04  0.00000000000E+00 0.  1.
         21    1    1    2  503  501  0.14697837694E+02 -0.15066242029E+02 -0.14073456356E+01  0.21094992379E+02  0.00000000000E+00 0. -1.
</event>
<event>
 4    1  0.2253948E+005  0.2717579E+02  0.7546771E-02  0.1445850E+00
          2   -1    0    0  502    0  0.00000000000E+00  0.00000000000E+00  0.17301631790E+04  0.17301631790E+04  0.00000000000E+00 0.  1.
         21   -1    0    0  503  502 -0.00000000000E+00 -0.00000000000E+00 -0.22255826212E+01  0.22255826212E+01  0.00000000000E+00 0.  1.
          2    1    1    2  501    0  0.19710757376E+02 -0.18708539255E+02  0.16426802839E+04  0.16429050607E+04  0.00000000000E+00 0.  1.
         21    1    1    2  503  501 -0.19710757376E+02  0.18708539255E+02  0.85257312480E+02  0.89483700911E+02  0.00000000000E+00 0.  1.
</event>
<event>
 4    1  0.2253948E+005  0.4362726E+02  0.7546771E-02  0.1328448E+00
          2   -1    0    0  502    0  0.00000000000E+00  0.00000000000E+00  0.46507874884E+03  0.46507874884E+03  0.00000000000E+00 0. -1.
         21   -1    0    0  503  502 -0.00000000000E+00 -0.00000000000E+00 -0.87857361502E+01  0.87857361502E+01  0.00000000000E+00 0. -1.
          2    1    1    2  501    0 -0.32729369872E+02 -0.28846598541E+02  0.40131583762E+03  0.40368024404E+03  0.00000000000E+00 0. -1.
         21    1    1    2  503  501  0.32729369872E+02  0.28846598541E+02  0.54977175064E+02  0.70184240949E+02  0.00000000000E+00 0. -1.
</event>
<event>
 4    1  0.2253948E+005  0.2364245E+02  0.7546771E-02  0.1484585E+00
          2   -1    0    0  502    0  0.00000000000E+00  0.00000000000E+00  0.36360212013E+03  0.36360212013E+03  0.00000000000E+00 0. -1.
         21   -1    0    0  503  502 -0.00000000000E+00 -0.00000000000E+00 -0.22846242242E+02  0.22846242242E+02  0.00000000000E+00 0.  1.
          2    1    1    2  501    0 -0.22374832050E+02  0.76375517956E+01  0.35698799337E+03  0.35777002770E+03  0.00000000000E+00 0. -1.
         21    1    1    2  503  501  0.22374832050E+02 -0.76375517956E+01 -0.16232115483E+02  0.28678334675E+02  0.00000000000E+00 0.  1.
</event>
<event>
 4    1  0.2253948E+005  0.2165904E+02  0.7546771E-02  0.1510060E+00
          2   -1    0    0  503    0  0.00000000000E+00  0.00000000000E+00  0.18267440994E+02  0.18267440994E+02  0.00000000000E+00 0. -1.
         21   -1    0    0  501  502 -0.00000000000E+00 -0.00000000000E+00 -0.25738016427E+02  0.25738016427E+02  0.00000000000E+00 0. -1.
          2    1    1    2  501    0  0.60189881785E+01 -0.20805907986E+02 -0.47768915755E+01  0.22179556328E+02  0.00000000000E+00 0. -1.
         21    1    1    2  503  502 -0.60189881785E+01  0.20805907986E+02 -0.26936838572E+01  0.21825901093E+02  0.00000000000E+00 0. -1.
</event>
<event>
 4    1  0.2253948E+005  0.3644700E+02  0.7546771E-02  0.1370666E+00
          2   -1    0    0  502    0  0.00000000000E+00  0.00000000000E+00  0.71017750217E+02  0.71017750217E+02  0.00000000000E+00 0. -1.
         21   -1    0    0  503  502 -0.00000000000E+00 -0.00000000000E+00 -0.22023641672E+02  0.22023641672E+02  0.00000000000E+00 0. -1.
          2    1    1    2  501    0  0.35984275229E+02 -0.57892931142E+01  0.42555676722E+02  0.56030077635E+02  0.00000000000E+00 0. -1.
         21    1    1    2  503  501 -0.35984275229E+02  0.57892931142E+01  0.64384318227E+01  0.37011314254E+02  0.00000000000E+00 0. -1.
</event>
<event>
 4    1  0.2253948E+005  0.2807028E+02  0.7546771E-02  0.1437143E+00
          2   -1    0    0  503    0  0.00000000000E+00  0.00000000000E+00  0.34325410830E+03  0.34325410830E+03  0.00000000000E+00 0.  1.
         21   -1    0    0  501  502 -0.00000000000E+00 -0.00000000000E+00 -0.24088922768E+01  0.24088922768E+01  0.00000000000E+00 0.  1.
          2    1    1    2  501    0 -0.22024678524E+02  0.17402711376E+02  0.20791992963E+03  0.20980619143E+03  0.00000000000E+00 0.  1.
         21    1    1    2  503  502  0.22024678524E+02 -0.17402711376E+02  0.13292528639E+03  0.13585680914E+03  0.00000000000E+00 0.  1.
</event>
<event>
 4    1  0.2253948E+005  0.2032925E+02  0.7546771E-02  0.1529061E+00
          2   -1    0    0  503    0  0.00000000000E+00  0.00000000000E+00  0.83056849896E+03  0.83056849896E+03  0.00000000000E+00 0. -1.
         21   -1    0    0  501  502 -0.00000000000E+00 -0.00000000000E+00 -0.52550383894E+00  0.52550383894E+00  0.00000000000E+00 0. -1.
          2    1    1    2  501    0 -0.87911407912E+01 -0.18330143951E+02  0.31923997142E+03  0.31988660130E+03  0.00000000000E+00 0. -1.
         21    1    1    2  503  502  0.87911407912E+01  0.18330143951E+02  0.51080302369E+03  0.51120740150E+03  0.00000000000E+00 0. -1.
</event>
<event>
 4    1  0.2253948E+005  0.2084814E+02  0.7546771E-02  0.1521444E+00
          2   -1    0    0  503    0  0.00000000000E+00  0.00000000000E+00  0.15275669768E+03  0.15275669768E+03  0.00000000000E+00 0.  1.
         21   -1    0    0  501  502 -0.00000000000E+00 -0.00000000000E+00 -0.53373874804E+02  0.53373874804E+02  0.00000000000E+00 0.  1.
          2    1    1    2  501    0 -0.92047220072E+01  0.18706090731E+02  0.14997189052E+03  0.15141404388E+03  0.00000000000E+00 0.  1.
         21    1    1    2  503  502  0.92047220072E+01 -0.18706090731E+02 -0.50589067643E+02  0.54716528606E+02  0.00000000000E+00 0.  1.
</event>
<event>
 4    1  0.2253948E+005  0.4776165E+02  0.7546771E-02  0.1308180E+00
          2   -1    0    0  503    0  0.00000000000E+00  0.00000000000E+00  0.22979205945E+04  0.22979205945E+04  0.00000000000E+00 0.  1.
         21   -1    0    0  501  502 -0.00000000000E+00 -0.00000000000E+00 -0.16076094176E+01  0.16076094176E+01  0.00000000000E+00 0.  1.
          2    1    1    2  501    0  0.12892569118E+02  0.45988660688E+02  0.18592382162E+04  0.18598515854E+04  0.00000000000E+00 0.  1.
         21    1    1    2  503  502 -0.12892569118E+02 -0.45988660688E+02  0.43707476885E+03  0.43967661846E+03  0.00000000000E+00 0.  1.
</event>
<event>
 4    1  0.2253948E+005  0.3915494E+02  0.7546771E-02  0.1353510E+00
          2   -1    0    0  503    0  0.00000000000E+00  0.00000000000E+00  0.22999484980E+04  0.22999484980E+04  0.00000000000E+00 0.  1.
         21   -1    0    0  501  502 -0.00000000000E+00 -0.00000000000E+00 -0.67788735537E+00  0.67788735537E+00  0.00000000000E+00 0.  1.
          2    1    1    2  501    0  0.36588396490E+02 -0.13942689857E+02  0.10010975201E+04  0.10018629418E+04  0.00000000000E+00 0.  1.
         21    1    1    2  503  502 -0.36588396490E+02  0.13942689857E+02  0.12981730905E+04  0.12987634435E+04  0.00000000000E+00 0.  1.
</event>
<event>
 4    1  0.2253948E+005  0.2637014E+02  0.7546771E-02  0.1454040E+00
          2   -1    0    0  503    0  0.00000000000E+00  0.00000000000E+00  0.40367443989E+03  0.40367443989E+03  0.00000000000E+00 0. -1.
         21   -1    0    0  501  502 -0.00000000000E+00 -0.00000000000E+00 -0.46925203285E+01  0.46925203285E+01  0.00000000000E+00 0. -1.
          2    1    1    2  501    0  0.25177640900E+02 -0.78403315032E+01  0.36192881161E+03  0.36288820464E+03  0.00000000000E+00 0. -1.
         21    1    1    2  503  502 -0.25177640900E+02  0.78403315032E+01  0.37053107952E+02  0.45478755571E+02  0.00000000000E+00 0. -1.
</event>
<event>
 4    1  0.2253948E+005  0.3201045E+02  0.7546771E-02  0.1402894E+00
          2   -1    0    0  503    0  0.00000000000E+00  0.00000000000E+00  0.62977035935E+02  0.62977035935E+02  0.00000000000E+00 0.  1.
         21   -1    0    0  501  502 -0.00000000000E+00 -0.00000000000E+00 -0.30268454947E+03  0.30268454947E+03  0.00000000000E+00 0.  1.
          2    1    1    2  501    0 -0.29217030384E+02 -0.13077997314E+02  0.57995216510E+02  0.66242841245E+02  0.00000000000E+00 0.  1.
         21    1    1    2  503  502  0.29217030384E+02  0.13077997314E+02 -0.29770273005E+03  0.29941874416E+03  0.00000000000E+00 0.  1.
</event>
<event>
 4    1  0.2253948E+005  0.2263553E+02  0.7546771E-02  0.1497126E+00
          2   -1    0    0  503    0  0.00000000000E+00  0.00000000000E+00  0.23881256975E+04  0.23881256975E+04  0.00000000000E+00 0. -1.
         21   -1    0    0  501  502 -0.00000000000E+00 -0.00000000000E+00 -0.21464869141E+00  0.21464869141E+00  0.00000000000E+00 0.  1.
          2    1    1    2  501    0 -0.21290320650E+02  0.76869676098E+01  0.12198394490E+04  0.12200494451E+04  0.00000000000E+00 0. -1.
         21    1    1    2  503  502  0.21290320650E+02 -0.76869676098E+01  0.11680715998E+04  0.11682909010E+04  0.00000000000E+00 0.  1.
</event>
<event>
 4    1  0.2253948E+005  0.4945062E+02  0.7546771E-02  0.1300572E+00
          2   -1    0    0  503    0  0.00000000000E+00  0.00000000000E+00  0.12962362015E+04  0.12962362015E+04  0.00000000000E+00 0. -1.
         21   -1    0    0  501  502 -0.00000000000E+00 -0.00000000000E+00 -0.19036872798E+01  0.19036872798E+01  0.00000000000E+00 0. -1.
          2    1    1    2  501    0  0.44846328408E+02 -0.20836755430E+02  0.58551226310E+03  0.58759677823E+03  0.00000000000E+00 0. -1.
         21    1    1    2  503  502 -0.44846328408E+02  0.20836755430E+02  0.70882025115E+03  0.71054311057E+03  0.00000000000E+00 0. -1.
</event>
<event>
 4    1  0.2253948E+005  0.1100466E+03  0.7546771E-02  0.1147452E+00
          2   -1    0    0  503    0  0.00000000000E+00  0.00000000000E+00  0.13799478911E+04  0.13799478911E+04  0.00000000000E+00 0.  1.
         21   -1    0    0  501  502 -0.00000000000E+00 -0.00000000000E+00 -0.23100181838E+02  0.23100181838E+02  0.00000000000E+00 0.  1.
          2    1    1    2  501    0  0.38255128548E+01  0.10998005864E+03  0.12308467760E+04  0.12357564622E+04  0.00000000000E+00 0.  1.
         21    1    1    2  503  502 -0.38255128548E+01 -0.10998005864E+03  0.12600093328E+03  0.16729161077E+03  0.00000000000E+00 0.  1.
</event>
<event>
 4    1  0.2253948E+005  0.2134446E+02  0.7546771E-02  0.1514403E+00
          2   -1    0    0  503    0  0.00000000000E+00  0.00000000000E+00  0.59137076552E+02  0.59137076552E+02  0.00000000000E+00 0. -1.
         21   -1    0    0  501  502 -0.00000000000E+00 -0.00000000000E+00 -0.33255589524E+02  0.33255589524E+02  0.00000000000E+00 0. -1.
          2    1    1    2  501    0 -0.20655144586E+02 -0.53806236276E+01  0.53434213226E+02  0.57539562491E+02  0.00000000000E+00 0. -1.
         21    1    1    2  503  502  0.20655144586E+02  0.53806236276E+01 -0.27552726198E+02  0.34853103584E+02  0.00000000000E+00 0. -1.
</event>
<event>
 4    1  0.2253948E+005  0.2855060E+02  0.7546771E-02  0.1432624E+00
          2   -1    0    0  502    0  0.00000000000E+00  0.00000000000E+00  0.20052770923E+04  0.20052770923E+04  0.00000000000E+00 0.  1.
         21   -1    0    0  503  502 -0.00000000000E+00 -0.00000000000E+00 -0.40716373387E+00  0.40716373387E+00  0.00000000000E+00 0.  1.
          2    1    1    2  501    0 -0.14833117346E+02  0.24394987015E+02  0.96181801229E+03  0.96224166690E+03  0.00000000000E+00 0.  1.
         21    1    1    2  503  501  0.14833117346E+02 -0.24394987015E+02  0.10430519162E+04  0.10434425891E+04  0.00000000000E+00 0.  1.
</event>
<event>
 4    1  0.2253948E+005  0.2001169E+02  0.7546771E-02  0.1533857E+00
          2   -1    0    0  503    0  0.00000000000E+00  0.00000000000E+00  0.33700362281E+02  0.33700362281E+02  0.00000000000E+00 0. -1.
         21   -1    0    0  501  502 -0.00000000000E+00 -0.00000000000E+00 -0.16821732674E+03  0.16821732674E+03  0.00000000000E+00 0.  1.
          2    1    1    2  501    0  0.20011384031E+02 -0.10979013109E+00  0.30069098586E+02  0.36119499366E+02  0.00000000000E+00 0. -1.
         21    1    1    2  503  502 -0.20011384031E+02  0.10979013109E+00 -0.16458606304E+03  0.16579818965E+03  0.00000000000E+00 0.  1.
</event>
<event>
 4    1  0.2253948E+005  0.2198167E+02  0.7546771E-02  0.1505697E+00
          2   -1    0    0  503    0  0.00000000000E+00  0.00000000000E+00  0.48325043227E+03  0.48325043227E+03  0.00000000000E+00 0. -1.
         21   -1    0    0  501  502 -0.00000000000E+00 -0.00000000000E+00 -0.18346696144E+01  0.18346696144E+01  0.00000000000E+00 0.  1.
          2    1    1    2  501    0  0.10472690414E+02 -0.19326575079E+02  0.40431297551E+03  0.40491008374E+03  0.00000000000E+00 0. -1.
         21    1    1    2  503  502 -0.10472690414E+02  0.19326575079E+02  0.77102787148E+02  0.80175018146E+02  0.00000000000E+00 0.  1.
</event>
<event>
 4    1  0.2253948E+005  0.2161636E+02  0.7546771E-02  0.1510644E+00
          2   -1    0    0  503    0  0.00000000000E+00  0.00000000000E+00  0.28542900708E+03  0.28542900708E+03  0.00000000000E+00 0.  1.
         21   -1    0    0  501  502 -0.00000000000E+00 -0.00000000000E+00 -0.31557151602E+02  0.31557151602E+02  0.00000000000E+00 0.  1.
          2    1    1    2  501    0  0.19001970169E+02  0.10304964428E+02  0.28126324072E+03  0.28209267581E+03  0.00000000000E+00 0.  1.
         21    1    1    2  503  502 -0.19001970169E+02 -0.10304964428E+02 -0.27391385240E+02  0.34893482880E+02  0.00000000000E+00 0.  1.
</event>
<event>
 4    1  0.2253948E+005  0.2156869E+02  0.7546771E-02  0.1511298E+00
          2   -1    0    0  502    0  0.00000000000E+00  0.00000000000E+00  0.14895789402E+04  0.14895789402E+04  0.00000000000E+00 0. -1.
         21   -1    0    0  503  502 -0.00000000000E+00 -0.00000000000E+00 -0.11082138877E+02  0.11082138877E+02  0.00000000000E+00 0. -1.
          2    1    1    2  501    0 -0.15202452283E+02  0.15300125316E+02  0.14789307537E+04  0.14790880240E+04  0.00000000000E+00 0. -1.
         21    1    1    2  503  501  0.15202452283E+02 -0.15300125316E+02 -0.43395242700E+00  0.21573055064E+02  0.00000000000E+00 0. -1.
</event>
<event>
 4    1  0.2253948E+005  0.3551582E+02  0.7546771E-02  0.1376973E+00
          2   -1    0    0  502    0  0.00000000000E+00  0.00000000000E+00  0.65015423998E+03  0.65015423998E+03  0.00000000000E+00 0. -1.
         21   -1    0    0  503  502 -0.00000000000E+00 -0.00000000000E+00 -0.58521881198E+01  0.58521881198E+01  0.00000000000E+00 0. -1.
          2    1    1    2  501    0 -0.31035468942E+02 -0.17267696835E+02  0.59032860639E+03  0.59139600710E+03  0.00000000000E+00 0. -1.
         21    1    1    2  503  501  0.31035468942E+02  0.17267696835E+02  0.53973445471E+02  0.64610421005E+02  0.00000000000E+00 0. -1.
</event>
<event>
 4    1  0.2253948E+005  0.3276150E+02  0.7546771E-02  0.1397023E+00
          2   -1    0    0  503    0  0.00000000000E+00  0.00000000000E+00  0.20983522731E+04  0.20983522731E+04  0.00000000000E+00 0. -1.
         21   -1    0    0  501  502 -0.00000000000E+00 -0.00000000000E+00 -0.25266165883E+01  0.25266165883E+01  0.00000000000E+00 0. -1.
          2    1    1    2  501    0  0.32718720721E+02 -0.16736033701E+01  0.19860168660E+04  0.19862870658E+04  0.00000000000E+00 0. -1.
         21    1    1    2  503  502 -0.32718720721E+02  0.16736033701E+01  0.10980879052E+03  0.11459182392E+03  0.00000000000E+00 0. -1.
</event>
<event>
 4    1  0.2253948E+005  0.3354435E+02  0.7546771E-02  0.1391096E+00
          2   -1    0    0  503    0  0.00000000000E+00  0.00000000000E+00  0.88862234119E+03  0.88862234119E+03  0.00000000000E+00 0. -1.
         21   -1    0    0  501  502 -0.00000000000E+00 -0.00000000000E+00 -0.21659417267E+01  0.21659417267E+01  0.00000000000E+00 0.  1.
          2    1    1    2  501    0  0.84151148415E+01  0.32471672401E+02  0.73028408239E+03  0.73105407780E+03  0.00000000000E+00 0. -1.
         21    1    1    2  503  502 -0.84151148415E+01 -0.32471672401E+02  0.15617231707E+03  0.15973420512E+03  0.00000000000E+00 0.  1.
</event>
<event>
 4    1  0.2253948E+005  0.2515592E+02  0.7546771E-02  0.1467067E+00
          2   -1    0    0  502    0  0.00000000000E+00  0.00000000000E+00  0.84858048530E+03  0.84858048530E+03  0.00000000000E+00 0. -1.
         21   -1    0    0  503  502 -0.00000000000E+00 -0.00000000000E+00 -0.28499047825E+01  0.28499047825E+01  0.00000000000E+00 0.  1.
          2    1    1    2  501    0 -0.38362416283E+01 -0.24861685548E+02  0.78866544190E+03  0.78906653674E+03  0.00000000000E+00 0. -1.
         21    1    1    2  503  501  0.38362416283E+01  0.24861685548E+02  0.57065138622E+02  0.62363853345E+02  0.00000000000E+00 0.  1.
</event>
<event>
 4    1  0.2253948E+005  0.2152305E+02  0.7546771E-02  0.1511926E+00
          2   -1    0    0  502    0  0.00000000000E+00  0.00000000000E+00  0.12834085106E+02  0.12834085106E+02  0.00000000000E+00 0. -1.
         21   -1    0    0  503  502 -0.00000000000E+00 -0.00000000000E+00 -0.12871777887E+03  0.12871777887E+03  0.00000000000E+00 0.  1.
          2    1    1    2  501    0  0.54089070914E+01  0.20832316287E+02  0.20961337485E+01  0.21624880451E+02  0.00000000000E+00 0. -1.
         21    1    1    2  503  501 -0.54089070914E+01 -0.20832316287E+02 -0.11797982751E+03  0.11992698353E+03  0.00000000000E+00 0.  1.
</event>
<event>
 4    1  0.2253948E+005  0.2078906E+02  0.7546771E-02  0.1522298E+00
          2   -1    0    0  503    0  0.00000000000E+00  0.00000000000E+00  0.60742074539E+02  0.60742074539E+02  0.00000000000E+00 0.  1.
         21   -1    0    0  501  502 -0.00000000000E+00 -0.00000000000E+00 -0.29935653987E+03  0.29935653987E+03  0.00000000000E+00 0.  1.
          2    1    1    2  501    0  0.19483359394E+02  0.72514686057E+01  0.58589507192E+02  0.62168444111E+02  0.00000000000E+00 0.  1.
         21    1    1    2  503  502 -0.19483359394E+02 -0.72514686057E+01 -0.29720397252E+03  0.29793017030E+03  0.00000000000E+00 0.  1.
</event>
<event>
 4    1  0.2253948E+005  0.4860468E+02  0.7546771E-02  0.1304338E+00
          2   -1    0    0  503    0  0.00000000000E+00  0.00000000000E+00  0.13616020885E+02  0.13616020885E+02  0.00000000000E+00 0.  1.
         21   -1    0    0  501  502 -0.00000000000E+00 -0.00000000000E+00 -0.25202749977E+03  0.25202749977E+03  0.00000000000E+00 0. -1.
          2    1    1    2  501    0 -0.14470449633E+02  0.46400655181E+02 -0.45066346641E+02  0.66282654695E+02  0.00000000000E+00 0.  1.
         21    1    1    2  503  502  0.14470449633E+02 -0.46400655181E+02 -0.19334513224E+03  0.19936086596E+03  0.00000000000E+00 0. -1.
</event>
<event>
 4    1  0.2253948E+005  0.7418911E+02  0.7546771E-02  0.1218021E+00
          2   -1    0    0  502    0  0.00000000000E+00  0.00000000000E+00  0.55723877598E+03  0.55723877598E+03  0.00000000000E+00 0.  1.
         21   -1    0    0  503  502 -0.00000000000E+00 -0.00000000000E+00 -0.32507071954E+02  0.32507071954E+02  0.00000000000E+00 0. -1.
          2    1    1    2  501    0 -0.25903682929E+02 -0.69519951128E+02  0.50839461863E+03  0.51377924505E+03  0.00000000000E+00 0.  1.
         21    1    1    2  503  501  0.25903682929E+02  0.69519951128E+02  0.16337085397E+02  0.75966602882E+02  0.00000000000E+00 0. -1.
</event>
<event>
 4    1  0.2253948E+005  0.2693912E+02  0.7546771E-02  0.1448221E+00
          2   -1    0    0  503    0  0.00000000000E+00  0.00000000000E+00  0.50310434839E+03  0.50310434839E+03  0.00000000000E+00 0. -1.
         21   -1    0    0  501  502 -0.00000000000E+00 -0.00000000000E+00 -0.33928756001E+02  0.33928756001E+02  0.00000000000E+00 0. -1.
          2    1    1    2  501    0 -0.81661695243E+01 -0.25671573492E+02  0.49733438396E+03  0.49806345527E+03  0.00000000000E+00 0. -1.
         21    1    1    2  503  502  0.81661695243E+01  0.25671573492E+02 -0.28158791566E+02  0.38969649122E+02  0.00000000000E+00 0. -1.
</event>
<event>
 4    1  0.2253948E+005  0.2757047E+02  0.7546771E-02  0.1441960E+00
          2   -1    0    0  503    0  0.00000000000E+00  0.00000000000E+00  0.28035261188E+03  0.28035261188E+03  0.00000000000E+00 0. -1.
         21   -1    0    0  501  502 -0.00000000000E+00 -0.00000000000E+00 -0.67650518295E+01  0.67650518295E+01  0.00000000000E+00 0. -1.
          2    1    1    2  501    0 -0.21080019925E+02 -0.17769738424E+02  0.24792110637E+03  0.24944940535E+03  0.00000000000E+00 0. -1.
         21    1    1    2  503  502  0.21080019925E+02  0.17769738424E+02  0.25666453683E+02  0.37668258367E+02  0.00000000000E+00 0. -1.
</event>
<event>
 4    1  0.2253948E+005  0.2811302E+02  0.7546771E-02  0.1436737E+00
          2   -1    0    0  503    0  0.00000000000E+00  0.00000000000E+00  0.44650602897E+03  0.44650602897E+03  0.00000000000E+00 0.  1.
         21   -1    0    0  501  502 -0.00000000000E+00 -0.00000000000E+00 -0.17760943068E+01  0.17760943068E+01  0.00000000000E+00 0.  1.
          2    1    1    2  501    0  0.27140650320E+02 -0.73298768642E+01  0.23543087971E+03  0.23710343969E+03  0.00000000000E+00 0.  1.
         21    1    1    2  503  502 -0.27140650320E+02  0.73298768642E+01  0.20929905495E+03  0.21117868358E+03  0.00000000000E+00 0.  1.
</event>
<event>
 4    1  0.2253948E+005  0.9375393E+02  0.7546771E-02  0.1175095E+00
          2   -1    0    0  502    0  0.00000000000E+00  0.00000000000E+00  0.67874499153E+03  0.67874499153E+03  0.00000000000E+00 0.  1.
         21   -1    0    0  503  502 -0.00000000000E+00 -0.00000000000E+00 -0.19605795643E+02  0.19605795643E+02  0.00000000000E+00 0.  1.
          2    1    1    2  501    0 -0.31078743316E+02  0.88452879910E+02  0.53301545777E+03  0.54119800302E+03  0.00000000000E+00 0.  1.
         21    1    1    2  503  501  0.31078743316E+02 -0.88452879910E+02  0.12612373812E+03  0.15715278415E+03  0.00000000000E+00 0.  1.
</event>
<event>
 4    1  0.2253948E+005  0.2514062E+02  0.7546771E-02  0.1467236E+00
          2   -1    0    0  502    0  0.00000000000E+00  0.00000000000E+00  0.75084994839E+02  0.75084994839E+02  0.00000000000E+00 0.  1.
         21   -1    0    0  503  502 -0.00000000000E+00 -0.00000000000E+00 -0.47023920655E+02  0.47023920655E+02  0.00000000000E+00 0.  1.
          2    1    1    2  501    0  0.24771497268E+02  0.42922804310E+01  0.69351027499E+02  0.73767308229E+02  0.00000000000E+00 0.  1.
         21    1    1    2  503  501 -0.24771497268E+02 -0.42922804310E+01 -0.41289953315E+02  0.48341607265E+02  0.00000000000E+00 0.  1.
</event>
<event>
 4    1  0.2253948E+005  0.3239423E+02  0.7546771E-02  0.1399870E+00
          2   -1    0    0  502    0  0.00000000000E+00  0.00000000000E+00  0.10105296474E+04  0.10105296474E+04  0.00000000000E+00 0. -1.
         21   -1    0    0  503  502 -0.00000000000E+00 -0.00000000000E+00 -0.15979133216E+02  0.15979133216E+02  0.00000000000E+00 0. -1.
          2    1    1    2  501    0  0.23733642604E+02 -0.22047684106E+02  0.99357182197E+03  0.99409976943E+03  0.00000000000E+00 0. -1.
         21    1    1    2  503  501 -0.23733642604E+02  0.22047684106E+02  0.97869218282E+00  0.32409011156E+02  0.00000000000E+00 0. -1.
</event>
<event>
 4    1  0.2253948E+005  0.3018004E+02  0.7546771E-02  0.1418038E+00
          2   -1    0    0  503    0  0.00000000000E+00  0.00000000000E+00  0.86923753951E+02  0.86923753951E+02  0.00000000000E+00 0.  1.
         21   -1    0    0  501  502 -0.00000000000E+00 -0.00000000000E+00 -0.11954251582E+02  0.11954251582E+02  0.00000000000E+00 0.  1.
          2    1    1    2  501    0 -0.29005223724E+01 -0.30040332728E+02  0.54855088589E+02  0.62609227471E+02  0.00000000000E+00 0.  1.
         21    1    1    2  503  502  0.29005223724E+01  0.30040332728E+02  0.20114413780E+02  0.36268778062E+02  0.00000000000E+00 0.  1.
</event>
<event>
 4    1  0.2253948E+005  0.4457305E+02  0.7546771E-02  0.1323588E+00
          2   -1    0    0  502    0  0.00000000000E+00  0.00000000000E+00  0.64487892561E+03  0.64487892561E+03  0.00000000000E+00 0.  1.
         21   -1    0    0  503  502 -0.00000000000E+00 -0.00000000000E+00 -0.86178883324E+01  0.86178883324E+01  0.00000000000E+00 0. -1.
          2    1    1    2  501    0 -0.72041027302E+01 -0.43987015834E+02  0.58004103855E+03  0.58175111780E+03  0.00000000000E+00 0.  1.
         21    1    1    2  503  501  0.72041027302E+01  0.43987015834E+02  0.56219998727E+02  0.71745696143E+02  0.00000000000E+00 0. -1.
</event>
<event>
 4    1  0.2253948E+005  0.3886239E+02  0.7546771E-02  0.1355284E+00
          2   -1    0    0  503    0  0.00000000000E+00  0.00000000000E+00  0.26791465129E+03  0.26791465129E+03  0.00000000000E+00 0. -1.
         21   -1    0    0  501  502 -0.00000000000E+00 -0.00000000000E+00 -0.11574324208E+02  0.11574324208E+02  0.00000000000E+00 0.  1.
          2    1    1    2  501    0  0.88655194768E+01 -0.37837649962E+02  0.22825663531E+03  0.23154130680E+03  0.00000000000E+00 0. -1.
         21    1    1    2  503  502 -0.88655194768E+01  0.37837649962E+02  0.28083691772E+02  0.47947668701E+02  0.00000000000E+00 0.  1.
</event>
<event>
 4    1  0.2253948E+005  0.2403554E+02  0.7546771E-02  0.1479889E+00
          2   -1    0    0  503    0  0.00000000000E+00  0.00000000000E+00  0.84601437372E+03  0.84601437372E+03  0.00000000000E+00 0. -1.
         21   -1    0    0  501  502 -0.00000000000E+00 -0.00000000000E+00 -0.97943599199E+02  0.97943599199E+02  0.00000000000E+00 0.  1.
          2    1    1    2  501    0  0.21944944810E+02  0.98044226172E+01  0.84436618976E+03  0.84470821573E+03  0.00000000000E+00 0. -1.
         21    1    1    2  503  502 -0.21944944810E+02 -0.98044226172E+01 -0.96295415242E+02  0.99249757190E+02  0.00000000000E+00 0.  1.
</event>
<event>
 4    1  0.2253948E+005  0.3464451E+02  0.7546771E-02  0.1383080E+00
          2   -1    0    0  502    0  0.00000000000E+00  0.00000000000E+00  0.16841975396E+04  0.16841975396E+04  0.00000000000E+00 0.  1.
         21   -1    0    0  503  502 -0.00000000000E+00 -0.00000000000E+00 -0.10319937143E+03  0.10319937143E+03  0.00000000000E+00 0.  1.
          2    1    1    2  501    0  0.33493824472E+02  0.88546992736E+01  0.16811064510E+04  0.16814633928E+04  0.00000000000E+00 0.  1.
         21    1    1    2  503  501 -0.33493824472E+02 -0.88546992736E+01 -0.10010828283E+03  0.10593351815E+03  0.00000000000E+00 0.  1.
</event>
<event>
 4    1  0.2253948E+005  0.2252350E+02  0.7546771E-02  0.1498570E+00
          2   -1    0    0  503    0  0.00000000000E+00  0.00000000000E+00  0.52979093659E+03  0.52979093659E+03  0.00000000000E+00 0. -1.
         21   -1    0    0  501  502 -0.00000000000E+00 -0.00000000000E+00 -0.32575074816E+01  0.32575074816E+01  0.00000000000E+00 0. -1.
          2    1    1    2  501    0  0.15150687349E+02 -0.16666274983E+02  0.48721754461E+03  0.48773788434E+03  0.00000000000E+00 0. -1.
         21    1    1    2  503  502 -0.15150687349E+02  0.16666274983E+02  0.39315884503E+02  0.45310559732E+02  0.00000000000E+00 0. -1.
</event>
<event>
 4    1  0.2253948E+005  0.2577575E+02  0.7546771E-02  0.1460309E+00
          2   -1    0    0  503    0  0.00000000000E+00  0.00000000000E+00  0.19857666020E+03  0.19857666020E+03  0.00000000000E+00 0. -1.
         21   -1    0    0  501  502 -0.00000000000E+00 -0.00000000000E+00 -0.13522794349E+03  0.13522794349E+03  0.00000000000E+00 0.  1.
          2    1    1    2  501    0  0.19906266757E+02  0.16374674787E+02  0.19649901226E+03  0.19818236866E+03  0.00000000000E+00 0. -1.
         21    1    1    2  503  502 -0.19906266757E+02 -0.16374674787E+02 -0.13315029555E+03  0.13562223503E+03  0.00000000000E+00 0.  1.
</event>
<event>
 4    1  0.2253948E+005  0.4082023E+02  0.7546771E-02  0.1343745E+00
          2   -1    0    0  502    0  0.00000000000E+00  0.00000000000E+00  0.14150388527E+04  0.14150388527E+04  0.00000000000E+00 0. -1.
         21   -1    0    0  503  502 -0.00000000000E+00 -0.00000000000E+00 -0.19390377636E+02  0.19390377636E+02  0.00000000000E+00 0.  1.
          2    1    1    2  501    0  0.88611679870E+01  0.39846843305E+02  0.13929199074E+04  0.13935179079E+04  0.00000000000E+00 0. -1.
         21    1    1    2  503  501 -0.88611679870E+01 -0.39846843305E+02  0.27285676357E+01  0.40911322403E+02  0.00000000000E+00 0.  1.
</event>
<event>
 4    1  0.2253948E+005  0.2297587E+02  0.7546771E-02  0.1492801E+00
          2   -1    0    0  503    0  0.00000000000E+00  0.00000000000E+00  0.32433239290E+02  0.32433239290E+02  0.00000000000E+00 0. -1.
         21   -1    0    0  501  502 -0.00000000000E+00 -0.00000000000E+00 -0.31796073107E+02  0.31796073107E+02  0.00000000000E+00 0. -1.
          2    1    1    2  501    0  0.13509311007E+02  0.18584648364E+02  0.22755350890E+02  0.32337232918E+02  0.00000000000E+00 0. -1.
         21    1    1    2  503  502 -0.13509311007E+02 -0.18584648364E+02 -0.22118184707E+02  0.31892079478E+02  0.00000000000E+00 0. -1.
</event>
<event>
 4    1  0.2253948E+005  0.2876791E+02  0.7546771E-02  0.1430614E+00
          2   -1    0    0  503    0  0.00000000000E+00  0.00000000000E+00  0.69982803945E+02  0.69982803945E+02  0.00000000000E+00 0.  1.
         21   -1    0    0  501  502 -0.00000000000E+00 -0.00000000000E+00 -0.22554193624E+02  0.22554193624E+02  0.00000000000E+00 0.  1.
          2    1    1    2  501    0 -0.28043632466E+02 -0.64146382376E+01  0.55625415996E+02  0.62624115246E+02  0.00000000000E+00 0.  1.
         21    1    1    2  503  502  0.28043632466E+02  0.64146382376E+01 -0.81968056748E+01  0.29912882323E+02  0.00000000000E+00 0.  1.
</event>
<event>
 4    1  0.2253948E+005  0.2264619E+02  0.7546771E-02  0.1496989E+00
          2   -1    0    0  502    0  0.00000000000E+00  0.00000000000E+00  0.66494696087E+02  0.66494696087E+02  0.00000000000E+00 0. -1.
         21   -1    0    0  503  502 -0.00000000000E+00 -0.00000000000E+00 -0.94285872940E+01  0.94285872940E+01  0.00000000000E+00 0. -1.
          2    1    1    2  501    0  0.21866500567E+02  0.58911783307E+01  0.44727769376E+02  0.50134052125E+02  0.00000000000E+00 0. -1.
         21    1    1    2  503  501 -0.21866500567E+02 -0.58911783307E+01  0.12338339417E+02  0.25789231255E+02  0.00000000000E+00 0. -1.
</event>
<event>
 4    1  0.2253948E+005  0.2768233E+02  0.7546771E-02  0.1440872E+00
          2   -1    0    0  502    0  0.00000000000E+00  0.00000000000E+00  0.16917358008E+03  0.16917358008E+03  0.00000000000E+00 0.  1.
         21   -1    0    0  503  502 -0.00000000000E+00 -0.00000000000E+00 -0.82244443587E+01  0.82244443587E+01  0.00000000000E+00 0.  1.
          2    1    1    2  501    0  0.33891331431E+01 -0.27474085887E+02  0.13992507922E+03  0.14263708989E+03  0.00000000000E+00 0.  1.
         21    1    1    2  503  501 -0.33891331431E+01  0.27474085887E+02  0.21024056506E+02  0.34760934549E+02  0.00000000000E+00 0.  1.
</event>
<event>
 4    1  0.2253948E+005  0.3997907E+02  0.7546771E-02  0.1348608E+00
          2   -1    0    0  502    0  0.00000000000E+00  0.00000000000E+00  0.68456319118E+03  0.68456319118E+03  0.00000000000E+00 0.  1.
         21   -1    0    0  503  502 -0.00000000000E+00 -0.00000000000E+00 -0.95322692687E+01  0.95322692687E+01  0.00000000000E+00 0.  1.
          2    1    1    2  501    0 -0.23283000895E+02 -0.32499665568E+02  0.63908023035E+03  0.64032949894E+03  0.00000000000E+00 0.  1.
         21    1    1    2  503  501  0.23283000895E+02  0.32499665568E+02  0.35950691558E+02  0.53765961502E+02  0.00000000000E+00 0.  1.
</event>
<event>
 4    1  0.2253948E+005  0.3002443E+02  0.7546771E-02  0.1419384E+00
          2   -1    0    0  502    0  0.00000000000E+00  0.00000000000E+00  0.21250121174E+04  0.21250121174E+04  0.00000000000E+00 0. -1.
         21   -1    0    0  503  502 -0.00000000000E+00 -0.00000000000E+00 -0.25469783151E+01  0.25469783151E+01  0.00000000000E+00 0. -1.
          2    1    1    2  501    0 -0.25668475550E+02 -0.15575492352E+02  0.20323898691E+04  0.20326116321E+04  0.00000000000E+00 0. -1.
         21    1    1    2  503  501  0.25668475550E+02  0.15575492352E+02  0.90075269947E+02  0.94947463658E+02  0.00000000000E+00 0. -1.
</event>
<event>
 4    1  0.2253948E+005  0.3036906E+02  0.7546771E-02  0.1416416E+00
          2   -1    0    0  503    0  0.00000000000E+00  0.00000000000E+00  0.76100815457E+03  0.76100815457E+03  0.00000000000E+00 0.  1.
         21   -1    0    0  501  502 -0.00000000000E+00 -0.00000000000E+00 -0.59404236155E+01  0.59404236155E+01  0.00000000000E+00 0. -1.
          2    1    1    2  501    0  0.95862624634E+01  0.28816376136E+02  0.71966253508E+03  0.72030302259E+03  0.00000000000E+00 0.  1.
         21    1    1    2  503  502 -0.95862624634E+01 -0.28816376136E+02  0.35405195882E+02  0.46645555599E+02  0.00000000000E+00 0. -1.
</event>
<event>
 4    1  0.2253948E+005  0.2335615E+02  0.7546771E-02  0.1488074E+00
          2   -1    0    0  503    0  0.00000000000E+00  0.00000000000E+00  0.11215680000E+02  0.11215680000E+02  0.00000000000E+00 0.  1.
         21   -1    0    0  501  502 -0.00000000000E+00 -0.00000000000E+00 -0.26670788231E+03  0.26670788231E+03  0.00000000000E+00 0. -1.
          2    1    1    2  501    0  0.53405906651E+01 -0.22737361349E+02 -0.20924308413E+01  0.23449686066E+02  0.00000000000E+00 0.  1.
         21    1    1    2  503  502 -0.53405906651E+01  0.22737361349E+02 -0.25339977146E+03  0.25447387624E+03  0.00000000000E+00 0. -1.
</event>
<event>
 4    1  0.2253948E+005  0.2495259E+02  0.7546771E-02  0.1469334E+00
          2   -1    0    0  503    0  0.00000000000E+00  0.00000000000E+00  0.23115607578E+03  0.23115607578E+03  0.00000000000E+00 0.  1.
         21   -1    0    0  501  502 -0.00000000000E+00 -0.00000000000E+00 -0.36208366288E+02  0.36208366288E+02  0.00000000000E+00 0. -1.
          2    1    1    2  501    0 -0.10152526531E+02 -0.22793815100E+02  0.22608765506E+03  0.22746045716E+03  0.00000000000E+00 0.  1.
         21    1    1    2  503  502  0.10152526531E+02  0.22793815100E+02 -0.31139945566E+02  0.39903984908E+02  0.00000000000E+00 0. -1.
</event>
<event>
 4    1  0.2253948E+005  0.3826513E+02  0.7546771E-02  0.1358963E+00
          2   -1    0    0  503    0  0.00000000000E+00  0.00000000000E+00  0.24225427477E+03  0.24225427477E+03  0.00000000000E+00 0. -1.
         21   -1    0    0  501  502 -0.00000000000E+00 -0.00000000000E+00 -0.15973541116E+02  0.15973541116E+02  0.00000000000E+00 0.  1.
          2    1    1    2  501    0 -0.46333560895E+01  0.37983582368E+02  0.21493708862E+03  0.21831667958E+03  0.00000000000E+00 0. -1.
         21    1    1    2  503  502  0.46333560895E+01 -0.37983582368E+02  0.11343645027E+02  0.39911136299E+02  0.00000000000E+00 0.  1.
</event>
<event>
 4    1  0.2253948E+005  0.6756310E+02  0.7546771E-02  0.1236096E+00
          2   -1    0    0  503    0  0.00000000000E+00  0.00000000000E+00  0.11600225700E+04  0.11600225700E+04  0.00000000000E+00 0.  1.
         21   -1    0    0  501  502 -0.00000000000E+00 -0.00000000000E+00 -0.76702975019E+01  0.76702975019E+01  0.00000000000E+00 0. -1.
          2    1    1    2  501    0  0.52076452833E+02 -0.43044350335E+02  0.98360416733E+03  0.98592186862E+03  0.00000000000E+00 0.  1.
         21    1    1    2  503  502 -0.52076452833E+02  0.43044350335E+02  0.16874810513E+03  0.18177099884E+03  0.00000000000E+00 0. -1.
</event>
<event>
 4    1  0.2253948E+005  0.2129862E+02  0.7546771E-02  0.1515044E+00
          2   -1    0    0  503    0  0.00000000000E+00  0.00000000000E+00  0.46170321810E+03  0.46170321810E+03  0.00000000000E+00 0.  1.
         21   -1    0    0  501  502 -0.00000000000E+00 -0.00000000000E+00 -0.15533114227E+01  0.15533114227E+01  0.00000000000E+00 0.  1.
          2    1    1    2  501    0 -0.20832383854E+02 -0.44320278991E+01  0.37048632702E+03  0.37109803233E+03  0.00000000000E+00 0.  1.
         21    1    1    2  503  502  0.20832383854E+02  0.44320278991E+01  0.89663579651E+02  0.92158497189E+02  0.00000000000E+00 0.  1.
</event>
<event>
 4    1  0.2253948E+005  0.2077274E+02  0.7546771E-02  0.1522534E+00
          2   -1    0    0  503    0  0.00000000000E+00  0.00000000000E+00  0.17709480891E+03  0.17709480891E+03  0.00000000000E+00 0. -1.
         21   -1    0    0  501  502 -0.00000000000E+00 -0.00000000000E+00 -0.39504494874E+01  0.39504494874E+01  0.00000000000E+00 0.  1.
          2    1    1    2  501    0 -0.19356983893E+02  0.75374972013E+01  0.14260949167E+03  0.14411444690E+03  0.00000000000E+00 0. -1.
         21    1    1    2  503  502  0.19356983893E+02 -0.75374972013E+01  0.30534867749E+02  0.36930811499E+02  0.00000000000E+00 0.  1.
</event>
<event>
 4    1  0.2253948E+005  0.2339858E+02  0.7546771E-02  0.1487553E+00
          2   -1    0    0  502    0  0.00000000000E+00  0.00000000000E+00  0.71185445824E+01  0.71185445824E+01  0.00000000000E+00 0.  1.
         21   -1    0    0  503  502 -0.00000000000E+00 -0.00000000000E+00 -0.77628229840E+02  0.77628229840E+02  0.00000000000E+00 0.  1.
          2    1    1    2  501    0 -0.14086408220E+02 -0.18683322668E+02 -0.31181485503E+02  0.38984336350E+02  0.00000000000E+00 0.  1.
         21    1    1    2  503  501  0.14086408220E+02  0.18683322668E+02 -0.39328199754E+02  0.45762438072E+02  0.00000000000E+00 0.  1.
</event>
<event>
 4    1  0.2253948E+005  0.2866074E+02  0.7546771E-02  0.1431603E+00
          2   -1    0    0  503    0  0.00000000000E+00  0.00000000000E+00  0.99204653707E+01  0.99204653707E+01  0.00000000000E+00 0. -1.
         21   -1    0    0  501  502 -0.00000000000E+00 -0.00000000000E+00 -0.99173757105E+02  0.99173757105E+02  0.00000000000E+00 0. -1.
          2    1    1    2  501    0  0.28132102136E+02  0.54793330765E+01 -0.22464295281E+02  0.36415420141E+02  0.00000000000E+00 0. -1.
         21    1    1    2  503  502 -0.28132102136E+02 -0.54793330765E+01 -0.66788996453E+02  0.72678802335E+02  0.00000000000E+00 0. -1.
</event>
<event>
 4    1  0.2253948E+005  0.3209774E+02  0.7546771E-02  0.1402202E+00
          2   -1    0    0  503    0  0.00000000000E+00  0.00000000000E+00  0.20469168828E+01  0.20469168828E+01  0.00000000000E+00 0. -1.
         21   -1    0    0  501  502 -0.00000000000E+00 -0.00000000000E+00 -0.68018206220E+03  0.68018206220E+03  0.00000000000E+00 0. -1.
          2    1    1    2  501    0 -0.21461927057E+02 -0.23867349749E+02 -0.16512790769E+03  0.16821857981E+03  0.00000000000E+00 0. -1.
         21    1    1    2  503  502  0.21461927057E+02  0.23867349749E+02 -0.51300723763E+03  0.51401039927E+03  0.00000000000E+00 0. -1.
</event>
<event>
 4    1  0.2253948E+005  0.2601494E+02  0.7546771E-02  0.1457762E+00
          2   -1    0    0  503    0  0.00000000000E+00  0.00000000000E+00  0.17837554696E+04  0.17837554696E+04  0.00000000000E+00 0. -1.
         21   -1    0    0  501  502 -0.00000000000E+00 -0.00000000000E+00 -0.43785522972E+02  0.43785522972E+02  0.00000000000E+00 0. -1.
          2    1    1    2  501    0  0.60827821035E+01  0.25293814802E+02  0.17797878415E+04  0.17799779600E+04  0.00000000000E+00 0. -1.
         21    1    1    2  503  502 -0.60827821035E+01 -0.25293814802E+02 -0.39817894934E+02  0.47563032518E+02  0.00000000000E+00 0. -1.
</event>
<event>
 4    1  0.2253948E+005  0.2289308E+02  0.7546771E-02  0.1493845E+00
          2   -1    0    0  502    0  0.00000000000E+00  0.00000000000E+00  0.89928669392E+03  0.89928669392E+03  0.00000000000E+00 0.  1.
         21   -1    0    0  503  502 -0.00000000000E+00 -0.00000000000E+00 -0.13135729287E+02  0.13135729287E+02  0.00000000000E+00 0. -1.
          2    1    1    2  501    0  0.61987318717E+01 -0.22037894351E+02  0.88905161411E+03  0.88934631366E+03  0.00000000000E+00 0.  1.
         21    1    1    2  503  501 -0.61987318717E+01  0.22037894351E+02 -0.29006494826E+01  0.23076109544E+02  0.00000000000E+00 0. -1.
</event>
<event>
 4    1  0.2253948E+005  0.3924395E+02  0.7546771E-02  0.1352974E+00
          2   -1    0    0  502    0  0.00000000000E+00  0.00000000000E+00  0.11757739132E+02  0.11757739132E+02  0.00000000000E+00 0.  1.
         21   -1    0    0  503  502 -0.00000000000E+00 -0.00000000000E+00 -0.36321164591E+03  0.36321164591E+03  0.00000000000E+00 0.  1.
          2    1    1    2  501    0  0.32570306688E+01  0.39108560304E+02 -0.25813042146E+02  0.46972341677E+02  0.00000000000E+00 0.  1.
         21    1    1    2  503  501 -0.32570306688E+01 -0.39108560304E+02 -0.32564086464E+03  0.32799704337E+03  0.00000000000E+00 0.  1.
</event>
<event>
 4    1  0.2253948E+005  0.2108744E+02  0.7546771E-02  0.1518020E+00
          2   -1    0    0  503    0  0.00000000000E+00  0.00000000000E+00  0.15905071647E+03  0.15905071647E+03  0.00000000000E+00 0.  1.
         21   -1    0    0  501  502 -0.00000000000E+00 -0.00000000000E+00 -0.88304238364E+02  0.88304238364E+02  0.00000000000E+00 0. -1.
          2    1    1    2  501    0 -0.20766041654E+02 -0.36676640014E+01  0.15707706517E+03  0.15848622857E+03  0.00000000000E+00 0.  1.
         21    1    1    2  503  502  0.20766041654E+02  0.36676640014E+01 -0.86330587062E+02  0.88868726263E+02  0.00000000000E+00 0. -1.
</event>
<event>
 4    1  0.2253948E+005  0.2031377E+02  0.7546771E-02  0.1529292E+00
          2   -1    0    0  503    0  0.00000000000E+00  0.00000000000E+00  0.84674964069E+02  0.84674964069E+02  0.00000000000E+00 0. -1.
         21   -1    0    0  501  502 -0.00000000000E+00 -0.00000000000E+00 -0.17614214328E+02  0.17614214328E+02  0.00000000000E+00 0. -1.
          2    1    1    2  501    0 -0.20111586336E+02 -0.28588989213E+01  0.77028226697E+02  0.79661765710E+02  0.00000000000E+00 0. -1.
         21    1    1    2  503  502  0.20111586336E+02  0.28588989213E+01 -0.99674769566E+01  0.22627412687E+02  0.00000000000E+00 0. -1.
</event>
<event>
 4    1  0.2253948E+005  0.2336824E+02  0.7546771E-02  0.1487925E+00
          2   -1    0    0  502    0  0.00000000000E+00  0.00000000000E+00  0.77900223975E+03  0.77900223975E+03  0.00000000000E+00 0. -1.
         21   -1    0    0  503  502 -0.00000000000E+00 -0.00000000000E+00 -0.19217038165E+01  0.19217038165E+01  0.00000000000E+00 0. -1.
          2    1    1    2  501    0  0.16479886746E+02  0.16567676278E+02  0.69974202430E+03  0.70013211263E+03  0.00000000000E+00 0. -1.
         21    1    1    2  503  501 -0.16479886746E+02 -0.16567676278E+02  0.77338511636E+02  0.80791830939E+02  0.00000000000E+00 0. -1.
</event>
<event>
 4    1  0.2253948E+005  0.3126126E+02  0.7546771E-02  0.1408944E+00
          2   -1    0    0  503    0  0.00000000000E+00  0.00000000000E+00  0.48267288931E+03  0.48267288931E+03  0.00000000000E+00 0. -1.
         21   -1    0    0  501  502 -0.00000000000E+00 -0.00000000000E+00 -0.28765992532E+03  0.28765992532E+03  0.00000000000E+00 0. -1.
          2    1    1    2  501    0  0.16013776985E+02  0.26848193611E+02  0.48131499680E+03  0.48232913316E+03  0.00000000000E+00 0. -1.
         21    1    1    2  503  502 -0.16013776985E+02 -0.26848193611E+02 -0.28630203281E+03  0.28800368148E+03  0.00000000000E+00 0. -1.
</event>
<event>
 4    1  0.2253948E+005  0.2424742E+02  0.7546771E-02  0.1477401E+00
          2   -1    0    0  503    0  0.00000000000E+00  0.00000000000E+00  0.28414101444E+01  0.28414101444E+01  0.00000000000E+00 0.  1.
         21   -1    0    0  501  502 -0.00000000000E+00 -0.00000000000E+00 -0.23419759806E+03  0.23419759806E+03  0.00000000000E+00 0.  1.
          2    1    1    2  501    0 -0.22355649443E+02 -0.93894813443E+01 -0.75227794268E+02  0.79038967936E+02  0.00000000000E+00 0.  1.
         21    1    1    2  503  502  0.22355649443E+02  0.93894813443E+01 -0.15612839365E+03  0.15800004027E+03  0.00000000000E+00 0.  1.
</event>
<event>
 4    1  0.2253948E+005  0.3034712E+02  0.7546771E-02  0.1416603E+00
          2   -1    0    0  503    0  0.00000000000E+00  0.00000000000E+00  0.11105267268E+04  0.11105267268E+04  0.00000000000E+00 0.  1.
         21   -1    0    0  501  502 -0.00000000000E+00 -0.00000000000E+00 -0.12014051858E+01  0.12014051858E+01  0.00000000000E+00 0. -1.
          2    1    1    2  501    0  0.27897897912E+02 -0.11943817655E+02  0.86402196858E+03  0.86455474649E+03  0.00000000000E+00 0.  1.
         21    1    1    2  503  502 -0.27897897912E+02  0.11943817655E+02  0.24530335304E+03  0.24717338550E+03  0.00000000000E+00 0. -1.
</event>
<event>
 4    1  0.2253948E+005  0.2192642E+02  0.7546771E-02  0.1506438E+00
          2   -1    0    0  503    0  0.00000000000E+00  0.00000000000E+00  0.42318118055E+03  0.42318118055E+03  0.00000000000E+00 0.  1.
         21   -1    0    0  501  502 -0.00000000000E+00 -0.00000000000E+00 -0.60697571083E+01  0.60697571083E+01  0.00000000000E+00 0.  1.
          2    1    1    2  501    0 -0.21926001215E+02  0.13604485271E+00  0.40205569176E+03  0.40265313523E+03  0.00000000000E+00 0.  1.
         21    1    1    2  503  502  0.21926001215E+02 -0.13604485271E+00  0.15055731689E+02  0.26597802431E+02  0.00000000000E+00 0.  1.
</event>
<event>
 4    1  0.2253948E+005  0.2005098E+02  0.7546771E-02  0.1533258E+00
          2   -1    0    0  503    0  0.00000000000E+00  0.00000000000E+00  0.18816988201E+01  0.18816988201E+01  0.00000000000E+00 0. -1.
         21   -1    0    0  501  502 -0.00000000000E+00 -0.00000000000E+00 -0.30965187014E+03  0.30965187014E+03  0.00000000000E+00 0. -1.
          2    1    1    2  501    0 -0.27805825654E+01  0.19857245060E+02 -0.24061273405E+03  0.24144674280E+03  0.00000000000E+00 0. -1.
         21    1    1    2  503  502  0.27805825654E+01 -0.19857245060E+02 -0.67157437267E+02  0.70086826159E+02  0.00000000000E+00 0. -1.
</event>
<event>
 4    1  0.2253948E+005  0.3069872E+02  0.7546771E-02  0.1413620E+00
          2   -1    0    0  503    0  0.00000000000E+00  0.00000000000E+00  0.49109877917E+01  0.49109877917E+01  0.00000000000E+00 0.  1.
         21   -1    0    0  501  502 -0.00000000000E+00 -0.00000000000E+00 -0.20774929529E+03  0.20774929529E+03  0.00000000000E+00 0. -1.
          2    1    1    2  501    0  0.26110243940E+02  0.16145164690E+02 -0.72048597837E+02  0.78316100718E+02  0.00000000000E+00 0.  1.
         21    1    1    2  503  502 -0.26110243940E+02 -0.16145164690E+02 -0.13078970966E+03  0.13434418236E+03  0.00000000000E+00 0. -1.
</event>
<event>
 4    1  0.2253948E+005  0.2001888E+02  0.7546771E-02  0.1533747E+00
          2   -1    0    0  502    0  0.00000000000E+00  0.00000000000E+00  0.11884047551E+04  0.11884047551E+04  0.00000000000E+00 0. -1.
         21   -1    0    0  503  502 -0.00000000000E+00 -0.00000000000E+00 -0.21350096899E+01  0.21350096899E+01  0.00000000000E+00 0.  1.
          2    1    1    2  501    0 -0.14512806936E+02  0.13788904722E+02  0.11393745769E+04  0.11395504297E+04  0.00000000000E+00 0. -1.
         21    1    1    2  503  501  0.14512806936E+02 -0.13788904722E+02  0.46895168565E+02  0.50989335094E+02  0.00000000000E+00 0.  1.
</event>
<event>
 4    1  0.2253948E+005  0.8567688E+02  0.7546771E-02  0.1191248E+00
          2   -1    0    0  502    0  0.00000000000E+00  0.00000000000E+00  0.23772069206E+04  0.23772069206E+04  0.00000000000E+00 0.  1.
         21   -1    0    0  503  502 -0.00000000000E+00 -0.00000000000E+00 -0.46454791371E+01  0.46454791371E+01  0.00000000000E+00 0.  1.
          2    1    1    2  501    0  0.66768177674E+02  0.53689268657E+02  0.18758812614E+04  0.18778367965E+04  0.00000000000E+00 0.  1.
         21    1    1    2  503  501 -0.66768177674E+02 -0.53689268657E+02  0.49668018002E+03  0.50401560328E+03  0.00000000000E+00 0.  1.
</event>
<event>
 4    1  0.2253948E+005  0.3970116E+02  0.7546771E-02  0.1350246E+00
          2   -1    0    0  503    0  0.00000000000E+00  0.00000000000E+00  0.16206822299E+04  0.16206822299E+04  0.00000000000E+00 0. -1.
         21   -1    0    0  501  502 -0.00000000000E+00 -0.00000000000E+00 -0.10257087614E+01  0.10257087614E+01  0.00000000000E+00 0. -1.
          2    1    1    2  501    0 -0.92038454305E+01 -0.38619567837E+02  0.99443607424E+03  0.99522825902E+03  0.00000000000E+00 0. -1.
         21    1    1    2  503  502  0.92038454305E+01  0.38619567837E+02  0.62522044688E+03  0.62647967963E+03  0.00000000000E+00 0. -1.
</event>
<event>
 4    1  0.2253948E+005  0.2698972E+02  0.7546771E-02  0.1447711E+00
          2   -1    0    0  503    0  0.00000000000E+00  0.00000000000E+00  0.48243641013E+03  0.48243641013E+03  0.00000000000E+00 0. -1.
         21   -1    0    0  501  502 -0.00000000000E+00 -0.00000000000E+00 -0.91161531578E+02  0.91161531578E+02  0.00000000000E+00 0.  1.
          2    1    1    2  501    0 -0.14251282486E+02 -0.22920427563E+02  0.48005133368E+03  0.48080945084E+03  0.00000000000E+00 0. -1.
         21    1    1    2  503  502  0.14251282486E+02  0.22920427563E+02 -0.88776455127E+02  0.92788490865E+02  0.00000000000E+00 0.  1.
</event>
<event>
 4    1  0.2253948E+005  0.2596455E+02  0.7546771E-02  0.1458296E+00
          2   -1    0    0  503    0  0.00000000000E+00  0.00000000000E+00  0.39755296780E+01  0.39755296780E+01  0.00000000000E+00 0.  1.
         21   -1    0    0  501  502 -0.00000000000E+00 -0.00000000000E+00 -0.95262860414E+03  0.95262860414E+03  0.00000000000E+00 0.  1.
          2    1    1    2  501    0  0.18446586098E+02 -0.18272413007E+02 -0.40680187538E+02  0.48260079505E+02  0.00000000000E+00 0.  1.
         21    1    1    2  503  502 -0.18446586098E+02  0.18272413007E+02 -0.90797288692E+03  0.90834405431E+03  0.00000000000E+00 0.  1.
</event>
<event>
 4    1  0.2253948E+005  0.2967604E+02  0.7546771E-02  0.1422433E+00
          2   -1    0    0  503    0  0.00000000000E+00  0.00000000000E+00  0.18064273390E+04  0.18064273390E+04  0.00000000000E+00 0.  1.
         21   -1    0    0  501  502 -0.00000000000E+00 -0.00000000000E+00 -0.30635547548E+02  0.30635547548E+02  0.00000000000E+00 0.  1.
          2    1    1    2  501    0  0.10552997875E+01  0.29657265868E+02  0.17990895057E+04  0.17993342426E+04  0.00000000000E+00 0.  1.
         21    1    1    2  503  502 -0.10552997875E+01 -0.29657265868E+02 -0.23297714318E+02  0.37728643878E+02  0.00000000000E+00 0.  1.
</event>
<event>
 4    1  0.2253948E+005  0.2932847E+02  0.7546771E-02  0.1425523E+00
          2   -1    0    0  502    0  0.00000000000E+00  0.00000000000E+00  0.32949099069E+02  0.32949099069E+02  0.00000000000E+00 0.  1.
         21   -1    0    0  503  502 -0.00000000000E+00 -0.00000000000E+00 -0.58103038934E+02  0.58103038934E+02  0.00000000000E+00 0.  1.
          2    1    1    2  501    0  0.20419397315E+02  0.21052487437E+02  0.21207547288E+02  0.36192804202E+02  0.00000000000E+00 0.  1.
         21    1    1    2  503  501 -0.20419397315E+02 -0.21052487437E+02 -0.46361487153E+02  0.54859333801E+02  0.00000000000E+00 0.  1.
</event>
<event>
 4    1  0.2253948E+005  0.2233914E+02  0.7546771E-02  0.1500968E+00
          2   -1    0    0  502    0  0.00000000000E+00  0.00000000000E+00  0.45932842281E+03  0.45932842281E+03  0.00000000000E+00 0. -1.
         21   -1    0    0  503  502 -0.00000000000E+00 -0.00000000000E+00 -0.82558819122E+02  0.82558819122E+02  0.00000000000E+00 0.  1.
          2    1    1    2  501    0 -0.16177045876E+02  0.15405857184E+02  0.45753974958E+03  0.45808477348E+03  0.00000000000E+00 0. -1.
         21    1    1    2  503  501  0.16177045876E+02 -0.15405857184E+02 -0.80770145899E+02  0.83802468444E+02  0.00000000000E+00 0.  1.
</event>
<event>
 4    1  0.2253948E+005  0.2514747E+02  0.7546771E-02  0.1467160E+00
          2   -1    0    0  502    0  0.00000000000E+00  0.00000000000E+00  0.30281555417E+03  0.30281555417E+03  0.00000000000E+00 0.  1.
         21   -1    0    0  503  502 -0.00000000000E+00 -0.00000000000E+00 -0.30126676861E+01  0.30126676861E+01  0.00000000000E+00 0.  1.
          2    1    1    2  501    0  0.21621401010E+02 -0.12841747365E+02  0.23459967847E+03  0.23594364708E+03  0.00000000000E+00 0.  1.
         21    1    1    2  503  501 -0.21621401010E+02  0.12841747365E+02  0.65203208017E+02  0.69884574784E+02  0.00000000000E+00 0.  1.
</event>
<event>
 4    1  0.2253948E+005  0.2106148E+02  0.7546771E-02  0.1518389E+00
          2   -1    0    0  503    0  0.00000000000E+00  0.00000000000E+00  0.89934535573E+03  0.89934535573E+03  0.00000000000E+00 0. -1.
         21   -1    0    0  501  502 -0.00000000000E+00 -0.00000000000E+00 -0.17426714371E+01  0.17426714371E+01  0.00000000000E+00 0. -1.
          2    1    1    2  501    0  0.19745754711E+02 -0.73274204846E+01  0.83029477802E+03  0.83056186063E+03  0.00000000000E+00 0. -1.
         21    1    1    2  503  502 -0.19745754711E+02  0.73274204846E+01  0.67307906273E+02  0.70526166540E+02  0.00000000000E+00 0. -1.
</event>
<event>
 4    1  0.2253948E+005  0.2360072E+02  0.7546771E-02  0.1485090E+00
          2   -1    0    0  503    0  0.00000000000E+00  0.00000000000E+00  0.10364837010E+04  0.10364837010E+04  0.00000000000E+00 0. -1.
         21   -1    0    0  501  502 -0.00000000000E+00 -0.00000000000E+00 -0.62066052707E+00  0.62066052707E+00  0.00000000000E+00 0. -1.
          2    1    1    2  501    0  0.10878808855E+02  0.20943860016E+02  0.70787161404E+03  0.70826493328E+03  0.00000000000E+00 0. -1.
         21    1    1    2  503  502 -0.10878808855E+02 -0.20943860016E+02  0.32799142639E+03  0.32883942820E+03  0.00000000000E+00 0. -1.
</event>
<event>
 4    1  0.2253948E+005  0.2025390E+02  0.7546771E-02  0.1530189E+00
          2   -1    0    0  503    0  0.00000000000E+00  0.00000000000E+00  0.36657944030E+03  0.36657944030E+03  0.00000000000E+00 0. -1.
         21   -1    0    0  501  502 -0.00000000000E+00 -0.00000000000E+00 -0.34229746078E+01  0.34229746078E+01  0.00000000000E+00 0.  1.
          2    1    1    2  501    0  0.18373308969E+02 -0.85230356809E+01  0.33335555367E+03  0.33397027679E+03  0.00000000000E+00 0. -1.
         21    1    1    2  503  502 -0.18373308969E+02  0.85230356809E+01  0.29800912025E+02  0.36032138116E+02  0.00000000000E+00 0.  1.
</event>
<event>
 4    1  0.2253948E+005  0.2871861E+02  0.7546771E-02  0.1431068E+00
          2   -1    0    0  503    0  0.00000000000E+00  0.00000000000E+00  0.24034289092E+01  0.24034289092E+01  0.00000000000E+00 0.  1.
         21   -1    0    0  501  502 -0.00000000000E+00 -0.00000000000E+00 -0.86025117975E+03  0.86025117975E+03  0.00000000000E+00 0.  1.
          2    1    1    2  501    0  0.25809943250E+02  0.12593868129E+02 -0.94514670304E+02  0.98781484032E+02  0.00000000000E+00 0.  1.
         21    1    1    2  503  502 -0.25809943250E+02 -0.12593868129E+02 -0.76333308054E+03  0.76387312463E+03  0.00000000000E+00 0.  1.
</event>
<event>
 4    1  0.2253948E+005  0.2339896E+02  0.7546771E-02  0.1487548E+00
          2   -1    0    0  502    0  0.00000000000E+00  0.00000000000E+00  0.98124381365E+03  0.98124381365E+03  0.00000000000E+00 0.  1.
         21   -1    0    0  503  502 -0.00000000000E+00 -0.00000000000E+00 -0.25227956556E+02  0.25227956556E+02  0.00000000000E+00 0.  1.
          2    1    1    2  501    0 -0.23214163706E+02  0.29349326514E+01  0.97564756296E+03  0.97592811126E+03  0.00000000000E+00 0.  1.
         21    1    1    2  503  501  0.23214163706E+02 -0.29349326514E+01 -0.19631705873E+02  0.30543658945E+02  0.00000000000E+00 0.  1.
</event>
<event>
 4    1  0.2253948E+005  0.3790474E+02  0.7546771E-02  0.1361221E+00
          2   -1    0    0  502    0  0.00000000000E+00  0.00000000000E+00  0.47172918442E+03  0.47172918442E+03  0.00000000000E+00 0.  1.
         21   -1    0    0  503  502 -0.00000000000E+00 -0.00000000000E+00 -0.50431852596E+01  0.50431852596E+01  0.00000000000E+00 0. -1.
          2    1    1    2  501    0 -0.29890669326E+02 -0.23309172089E+02  0.38336842736E+03  0.38523774570E+03  0.00000000000E+00 0.  1.
         21    1    1    2  503  501  0.29890669326E+02  0.23309172089E+02  0.83317571804E+02  0.91534623982E+02  0.00000000000E+00 0. -1.
</event>
<event>
 4    1  0.2253948E+005  0.3762172E+02  0.7546771E-02  0.1363016E+00
          2   -1    0    0  503    0  0.00000000000E+00  0.00000000000E+00  0.80113239343E+02  0.80113239343E+02  0.00000000000E+00 0. -1.
         21   -1    0    0  501  502 -0.00000000000E+00 -0.00000000000E+00 -0.25725312237E+02  0.25725312237E+02  0.00000000000E+00 0. -1.
          2    1    1    2  501    0  0.35765957470E+02 -0.11670057156E+02  0.56811190486E+02  0.68138867853E+02  0.00000000000E+00 0. -1.
         21    1    1    2  503  502 -0.35765957470E+02  0.11670057156E+02 -0.24232633803E+01  0.37699683728E+02  0.00000000000E+00 0. -1.
</event>
<event>
 4    1  0.2253948E+005  0.2299263E+02  0.7546771E-02  0.1492591E+00
          2   -1    0    0  503    0  0.00000000000E+00  0.00000000000E+00  0.12586007680E+04  0.12586007680E+04  0.00000000000E+00 0.  1.
         21   -1    0    0  501  502 -0.00000000000E+00 -0.00000000000E+00 -0.39392827137E+01  0.39392827137E+01  0.00000000000E+00 0.  1.
          2    1    1    2  501    0 -0.22983363547E+02  0.65264661396E+00  0.12239967377E+04  0.12242126755E+04  0.00000000000E+00 0.  1.
         21    1    1    2  503  502  0.22983363547E+02 -0.65264661396E+00  0.30664747657E+02  0.38327375287E+02  0.00000000000E+00 0.  1.
</event>
<event>
 4    1  0.2253948E+005  0.5005743E+02  0.7546771E-02  0.1297924E+00
          2   -1    0    0  502    0  0.00000000000E+00  0.00000000000E+00  0.35551452643E+03  0.35551452643E+03  0.00000000000E+00 0. -1.
         21   -1    0    0  503  502 -0.00000000000E+00 -0.00000000000E+00 -0.17304727765E+03  0.17304727765E+03  0.00000000000E+00 0.  1.
          2    1    1    2  501    0 -0.33569116068E+02 -0.37133019361E+02  0.35007648953E+03  0.35363723673E+03  0.00000000000E+00 0. -1.
         21    1    1    2  503  501  0.33569116068E+02  0.37133019361E+02 -0.16760924075E+03  0.17492456736E+03  0.00000000000E+00 0.  1.
</event>
<event>
 4    1  0.2253948E+005  0.2076277E+02  0.7546771E-02  0.1522679E+00
          2   -1    0    0  503    0  0.00000000000E+00  0.00000000000E+00  0.20706847083E+02  0.20706847083E+02  0.00000000000E+00 0. -1.
         21   -1    0    0  501  502 -0.00000000000E+00 -0.00000000000E+00 -0.34130578832E+02  0.34130578832E+02  0.00000000000E+00 0.  1.
          2    1    1    2  501    0 -0.58237353133E+01 -0.19929293797E+02  0.10411634492E+02  0.23227026866E+02  0.00000000000E+00 0. -1.
         21    1    1    2  503  502  0.58237353133E+01  0.19929293797E+02 -0.23835366241E+02  0.31610399050E+02  0.00000000000E+00 0.  1.
</event>
<event>
 4    1  0.2253948E+005  0.2716914E+02  0.7546771E-02  0.1445916E+00
          2   -1    0    0  502    0  0.00000000000E+00  0.00000000000E+00  0.22722451414E+03  0.22722451414E+03  0.00000000000E+00 0.  1.
         21   -1    0    0  503  502 -0.00000000000E+00 -0.00000000000E+00 -0.33127125759E+01  0.33127125759E+01  0.00000000000E+00 0.  1.
          2    1    1    2  501    0  0.11506780102E+01 -0.27144764580E+02  0.12799129581E+03  0.13084316607E+03  0.00000000000E+00 0.  1.
         21    1    1    2  503  501 -0.11506780102E+01  0.27144764580E+02  0.95920505752E+02  0.99694060644E+02  0.00000000000E+00 0.  1.
</event>
<event>
 4    1  0.2253948E+005  0.2013995E+02  0.7546771E-02  0.1531907E+00
          2   -1    0    0  503    0  0.00000000000E+00  0.00000000000E+00  0.72721534766E+01  0.72721534766E+01  0.00000000000E+00 0. -1.
         21   -1    0    0  501  502 -0.00000000000E+00 -0.00000000000E+00 -0.83188877663E+02  0.83188877663E+02  0.00000000000E+00 0. -1.
          2    1    1    2  501    0  0.14334253185E+02 -0.14147328652E+02 -0.11994482538E+02  0.23441103508E+02  0.00000000000E+00 0. -1.
         21    1    1    2  503  502 -0.14334253185E+02  0.14147328652E+02 -0.63922241648E+02  0.67019927631E+02  0.00000000000E+00 0. -1.
</event>
<event>
 4    1  0.2253948E+005  0.3256436E+02  0.7546771E-02  0.1398546E+00
          2   -1    0    0  503    0  0.00000000000E+00  0.00000000000E+00  0.69597982260E+03  0.69597982260E+03  0.00000000000E+00 0.  1.
         21   -1    0    0  501  502 -0.00000000000E+00 -0.00000000000E+00 -0.19220543853E+01  0.19220543853E+01  0.00000000000E+00 0.  1.
          2    1    1    2  501    0 -0.27737042453E+02  0.17061486545E+02  0.50589715745E+03  0.50694415054E+03  0.00000000000E+00 0.  1.
         21    1    1    2  503  502  0.27737042453E+02 -0.17061486545E+02  0.18816061076E+03  0.19095772644E+03  0.00000000000E+00 0.  1.
</event>
<event>
 4    1  0.2253948E+005  0.2384845E+02  0.7546771E-02  0.1482110E+00
          2   -1    0    0  502    0  0.00000000000E+00  0.00000000000E+00  0.86890619160E+03  0.86890619160E+03  0.00000000000E+00 0.  1.
         21   -1    0    0  503  502 -0.00000000000E+00 -0.00000000000E+00 -0.35003208740E+01  0.35003208740E+01  0.00000000000E+00 0.  1.
          2    1    1    2  501    0 -0.23763618706E+02 -0.20096907928E+01  0.82601242287E+03  0.82635662469E+03  0.00000000000E+00 0.  1.
         21    1    1    2  503  501  0.23763618706E+02  0.20096907928E+01  0.39393447856E+02  0.46049887785E+02  0.00000000000E+00 0.  1.
</event>
<event>
 4    1  0.2253948E+005  0.5923745E+02  0.7546771E-02  0.1262446E+00
          2   -1    0    0  503    0  0.00000000000E+00  0.00000000000E+00  0.25313993517E+03  0.25313993517E+03  0.00000000000E+00 0.  1.
         21   -1    0    0  501  502 -0.00000000000E+00 -0.00000000000E+00 -0.13229137501E+03  0.13229137501E+03  0.00000000000E+00 0. -1.
          2    1    1    2  501    0 -0.55175700918E+02 -0.21557317632E+02  0.24276370718E+03  0.24988656114E+03  0.00000000000E+00 0.  1.
         21    1    1    2  503  502  0.55175700918E+02  0.21557317632E+02 -0.12191514703E+03  0.13554474903E+03  0.00000000000E+00 0. -1.
</event>
<event>
 4    1  0.2253948E+005  0.2002923E+02  0.7546771E-02  0.1533589E+00
          2   -1    0    0  502    0  0.00000000000E+00  0.00000000000E+00  0.11703602639E+03  0.11703602639E+03  0.00000000000E+00 0.  1.
         21   -1    0    0  503  502 -0.00000000000E+00 -0.00000000000E+00 -0.28933097960E+02  0.28933097960E+02  0.00000000000E+00 0. -1.
          2    1    1    2  501    0  0.17337330644E+02  0.10029317303E+02  0.11257648324E+03  0.11434436942E+03  0.00000000000E+00 0.  1.
         21    1    1    2  503  501 -0.17337330644E+02 -0.10029317303E+02 -0.24473554809E+02  0.31624754930E+02  0.00000000000E+00 0. -1.
</event>
<event>
 4    1  0.2253948E+005  0.2348571E+02  0.7546771E-02  0.1486488E+00
          2   -1    0    0  502    0  0.00000000000E+00  0.00000000000E+00  0.34198793653E+02  0.34198793653E+02  0.00000000000E+00 0.  1.
         21   -1    0    0  503  502 -0.00000000000E+00 -0.00000000000E+00 -0.51703525210E+03  0.51703525210E+03  0.00000000000E+00 0.  1.
          2    1    1    2  501    0 -0.23458387293E+02 -0.11324412203E+01  0.29865885094E+02  0.37994071248E+02  0.00000000000E+00 0.  1.
         21    1    1    2  503  501  0.23458387293E+02  0.11324412203E+01 -0.51270234354E+03  0.51323997450E+03  0.00000000000E+00 0.  1.
</event>
<event>
 4    1  0.2253948E+005  0.4312596E+02  0.7546771E-02  0.1331081E+00
          2   -1    0    0  503    0  0.00000000000E+00  0.00000000000E+00  0.99952581441E+03  0.99952581441E+03  0.00000000000E+00 0. -1.
         21   -1    0    0  501  502 -0.00000000000E+00 -0.00000000000E+00 -0.12981000759E+02  0.12981000759E+02  0.00000000000E+00 0. -1.
          2    1    1    2  501    0  0.34747075428E+02 -0.25543859843E+02  0.96183924131E+03  0.96280557443E+03  0.00000000000E+00 0. -1.
         21    1    1    2  503  502 -0.34747075428E+02  0.25543859843E+02  0.24705572342E+02  0.49701240741E+02  0.00000000000E+00 0. -1.
</event>
<event>
 4    1  0.2253948E+005  0.2070908E+02  0.7546771E-02  0.1523459E+00
          2   -1    0    0  502    0  0.00000000000E+00  0.00000000000E+00  0.21984879897E+03  0.21984879897E+03  0.00000000000E+00 0.  1.
         21   -1    0    0  503  502 -0.00000000000E+00 -0.00000000000E+00 -0.20451824594E+01  0.20451824594E+01  0.00000000000E+00 0. -1.
          2    1    1    2  501    0 -0.12580201465E+02  0.16450061285E+02  0.13274435282E+03  0.13435002490E+03  0.00000000000E+00 0.  1.
         21    1    1    2  503  501  0.12580201465E+02 -0.16450061285E+02  0.85059263692E+02  0.87543956531E+02  0.00000000000E+00 0. -1.
</event>
<event>
 4    1  0.2253948E+005  0.2801194E+02  0.7546771E-02  0.1437700E+00
          2   -1    0    0  503    0  0.00000000000E+00  0.00000000000E+00  0.17160254772E+03  0.17160254772E+03  0.00000000000E+00 0. -1.
         21   -1    0    0  501  502 -0.00000000000E+00 -0.00000000000E+00 -0.50863647493E+01  0.50863647493E+01  0.00000000000E+00 0.  1.
          2    1    1    2  501    0  0.18388439162E+02 -0.21131346630E+02  0.11133575183E+03  0.11480556668E+03  0.00000000000E+00 0. -1.
         21    1    1    2  503  502 -0.18388439162E+02  0.21131346630E+02  0.55180431143E+02  0.61883345792E+02  0.00000000000E+00 0.  1.
</event>
<event>
 4    1  0.2253948E+005  0.2129197E+02  0.7546771E-02  0.1515137E+00
          2   -1    0    0  503    0  0.00000000000E+00  0.00000000000E+00  0.10125160923E+03  0.10125160923E+03  0.00000000000E+00 0. -1.
         21   -1    0    0  501  502 -0.00000000000E+00 -0.00000000000E+00 -0.22153399256E+02  0.22153399256E+02  0.00000000000E+00 0. -1.
          2    1    1    2  501    0  0.72365157151E+01  0.20024507030E+02  0.94664648533E+02  0.97029602304E+02  0.00000000000E+00 0. -1.
         21    1    1    2  503  502 -0.72365157151E+01 -0.20024507030E+02 -0.15566438563E+02  0.26375406177E+02  0.00000000000E+00 0. -1.
</event>
<event>
 4    1  0.2253948E+005  0.4517117E+02  0.7546771E-02  0.1320586E+00
          2   -1    0    0  502    0  0.00000000000E+00  0.00000000000E+00  0.18172413591E+03  0.18172413591E+03  0.00000000000E+00 0.  1.
         21   -1    0    0  503  502 -0.00000000000E+00 -0.00000000000E+00 -0.68830832463E+02  0.68830832463E+02  0.00000000000E+00 0. -1.
          2    1    1    2  501    0 -0.43809455049E+02  0.11007558850E+02  0.17105141882E+03  0.17691529776E+03  0.00000000000E+00 0.  1.
         21    1    1    2  503  501  0.43809455049E+02 -0.11007558850E+02 -0.58158115372E+02  0.73639670607E+02  0.00000000000E+00 0. -1.
</event>
<event>
 4    1  0.2253948E+005  0.2480421E+02  0.7546771E-02  0.1471006E+00
          2   -1    0    0  503    0  0.00000000000E+00  0.00000000000E+00  0.13602357550E+03  0.13602357550E+03  0.00000000000E+00 0. -1.
         21   -1    0    0  501  502 -0.00000000000E+00 -0.00000000000E+00 -0.46473351481E+01  0.46473351481E+01  0.00000000000E+00 0. -1.
          2    1    1    2  501    0  0.12877872401E+02 -0.21199279309E+02  0.77187758578E+02  0.81075268209E+02  0.00000000000E+00 0. -1.
         21    1    1    2  503  502 -0.12877872401E+02  0.21199279309E+02  0.54188481777E+02  0.59595642442E+02  0.00000000000E+00 0. -1.
</event>
<event>
 4    1  0.2253948E+005  0.2563153E+02  0.7546771E-02  0.1461861E+00
          2   -1    0    0  502    0  0.00000000000E+00  0.00000000000E+00  0.10725085492E+04  0.10725085492E+04  0.00000000000E+00 0. -1.
         21   -1    0    0  503  502 -0.00000000000E+00 -0.00000000000E+00 -0.10038499235E+01  0.10038499235E+01  0.00000000000E+00 0. -1.
          2    1    1    2  501    0 -0.21477510314E+02  0.13988998104E+02  0.87086604095E+03  0.87124315596E+03  0.00000000000E+00 0. -1.
         21    1    1    2  503  501  0.21477510314E+02 -0.13988998104E+02  0.20063865835E+03  0.20226924320E+03  0.00000000000E+00 0. -1.
</event>
<event>
 4    1  0.2253948E+005  0.3957055E+02  0.7546771E-02  0.1351021E+00
          2   -1    0    0  502    0  0.00000000000E+00  0.00000000000E+00  0.96279758584E+03  0.96279758584E+03  0.00000000000E+00 0.  1.
         21   -1    0    0  503  502 -0.00000000000E+00 -0.00000000000E+00 -0.56351045762E+01  0.56351045762E+01  0.00000000000E+00 0.  1.
          2    1    1    2  501    0 -0.46800740695E+01 -0.39292816916E+02  0.88698916767E+03  0.88787139390E+03  0.00000000000E+00 0.  1.
         21    1    1    2  503  501  0.46800740695E+01  0.39292816916E+02  0.70173313594E+02  0.80561296510E+02  0.00000000000E+00 0.  1.
</event>
<event>
 4    1  0.2253948E+005  0.2568748E+02  0.7546771E-02  0.1461257E+00
          2   -1    0    0  503    0  0.00000000000E+00  0.00000000000E+00  0.17200676835E+04  0.17200676835E+04  0.00000000000E+00 0. -1.
         21   -1    0    0  501  502 -0.00000000000E+00 -0.00000000000E+00 -0.11270156611E+01  0.11270156611E+01  0.00000000000E+00 0.  1.
          2    1    1    2  501    0 -0.73335774751E+01 -0.24618394816E+02  0.15584201548E+04  0.15586318442E+04  0.00000000000E+00 0. -1.
         21    1    1    2  503  502  0.73335774751E+01  0.24618394816E+02  0.16052051300E+03  0.16256285497E+03  0.00000000000E+00 0.  1.
</event>
<event>
 4    1  0.2253948E+005  0.3361076E+02  0.7546771E-02  0.1390602E+00
          2   -1    0    0  502    0  0.00000000000E+00  0.00000000000E+00  0.72865564317E+02  0.72865564317E+02  0.00000000000E+00 0. -1.
         21   -1    0    0  503  502 -0.00000000000E+00 -0.00000000000E+00 -0.33445922802E+03  0.33445922802E+03  0.00000000000E+00 0. -1.
          2    1    1    2  501    0 -0.20304667566E+02  0.26784387189E+02  0.68089231546E+02  0.75933038755E+02  0.00000000000E+00 0. -1.
         21    1    1    2  503  501  0.20304667566E+02 -0.26784387189E+02 -0.32968289525E+03  0.33139175358E+03  0.00000000000E+00 0. -1.
</event>
<event>
 4    1  0.2253948E+005  0.2170621E+02  0.7546771E-02  0.1509416E+00
          2   -1    0    0  502    0  0.00000000000E+00  0.00000000000E+00  0.25170029576E+03  0.25170029576E+03  0.00000000000E+00 0.  1.
         21   -1    0    0  503  502 -0.00000000000E+00 -0.00000000000E+00 -0.10504396536E+02  0.10504396536E+02  0.00000000000E+00 0.  1.
          2    1    1    2  501    0 -0.37533884747E+01  0.21379229333E+02  0.23944624509E+03  0.24042808417E+03  0.00000000000E+00 0.  1.
         21    1    1    2  503  501  0.37533884747E+01 -0.21379229333E+02  0.17496541396E+01  0.21776608128E+02  0.00000000000E+00 0.  1.
</event>
<event>
 4    1  0.2253948E+005  0.2440030E+02  0.7546771E-02  0.1475625E+00
          2   -1    0    0  503    0  0.00000000000E+00  0.00000000000E+00  0.16355654859E+03  0.16355654859E+03  0.00000000000E+00 0.  1.
         21   -1    0    0  501  502 -0.00000000000E+00 -0.00000000000E+00 -0.88824611995E+02  0.88824611995E+02  0.00000000000E+00 0. -1.
          2    1    1    2  501    0  0.15498069632E+02  0.18846342090E+02  0.16094375189E+03  0.16278288008E+03  0.00000000000E+00 0.  1.
         21    1    1    2  503  502 -0.15498069632E+02 -0.18846342090E+02 -0.86211815300E+02  0.89598280507E+02  0.00000000000E+00 0. -1.
</event>
<event>
 4    1  0.2253948E+005  0.2909505E+02  0.7546771E-02  0.1427627E+00
          2   -1    0    0  502    0  0.00000000000E+00  0.00000000000E+00  0.74376353045E+03  0.74376353045E+03  0.00000000000E+00 0. -1.
         21   -1    0    0  503  502 -0.00000000000E+00 -0.00000000000E+00 -0.29713680859E+01  0.29713680859E+01  0.00000000000E+00 0.  1.
          2    1    1    2  501    0  0.23306654366E+02  0.17416140696E+02  0.66366367550E+03  0.66430113373E+03  0.00000000000E+00 0. -1.
         21    1    1    2  503  501 -0.23306654366E+02 -0.17416140696E+02  0.77128486871E+02  0.82433764815E+02  0.00000000000E+00 0.  1.
</event>
<event>
 4    1  0.2253948E+005  0.3362018E+02  0.7546771E-02  0.1390532E+00
          2   -1    0    0  503    0  0.00000000000E+00  0.00000000000E+00  0.34538083260E+01  0.34538083260E+01  0.00000000000E+00 0. -1.
         21   -1    0    0  501  502 -0.00000000000E+00 -0.00000000000E+00 -0.46423547352E+03  0.46423547352E+03  0.00000000000E+00 0. -1.
          2    1    1    2  501    0  0.33025080656E+02 -0.62976820833E+01 -0.10337176910E+03  0.10870160716E+03  0.00000000000E+00 0. -1.
         21    1    1    2  503  502 -0.33025080656E+02  0.62976820833E+01 -0.35740989609E+03  0.35898767468E+03  0.00000000000E+00 0. -1.
</event>
<event>
 4    1  0.2253948E+005  0.2067741E+02  0.7546771E-02  0.1523921E+00
          2   -1    0    0  503    0  0.00000000000E+00  0.00000000000E+00  0.30336461662E+03  0.30336461662E+03  0.00000000000E+00 0. -1.
         21   -1    0    0  501  502 -0.00000000000E+00 -0.00000000000E+00 -0.16272245102E+01  0.16272245102E+01  0.00000000000E+00 0. -1.
          2    1    1    2  501    0  0.42713048008E+01  0.20231440526E+02  0.20666563870E+03  0.20769747579E+03  0.00000000000E+00 0. -1.
         21    1    1    2  503  502 -0.42713048008E+01 -0.20231440526E+02  0.95071753412E+02  0.97294365342E+02  0.00000000000E+00 0. -1.
</event>
<event>
 4    1  0.2253948E+005  0.2530644E+02  0.7546771E-02  0.1465404E+00
          2   -1    0    0  502    0  0.00000000000E+00  0.00000000000E+00  0.51966208711E+03  0.51966208711E+03  0.00000000000E+00 0. -1.
         21   -1    0    0  503  502 -0.00000000000E+00 -0.00000000000E+00 -0.61316845023E+01  0.61316845023E+01  0.00000000000E+00 0.  1.
          2    1    1    2  501    0  0.20181251447E+02  0.15268698551E+02  0.49176267439E+03  0.49241338729E+03  0.00000000000E+00 0. -1.
         21    1    1    2  503  501 -0.20181251447E+02 -0.15268698551E+02  0.21767728221E+02  0.33380384319E+02  0.00000000000E+00 0.  1.
</event>
<event>
 4    1  0.2253948E+005  0.2282738E+02  0.7546771E-02  0.1494677E+00
          2   -1    0    0  503    0  0.00000000000E+00  0.00000000000E+00  0.37999045472E+02  0.37999045472E+02  0.00000000000E+00 0.  1.
         21   -1    0    0  501  502 -0.00000000000E+00 -0.00000000000E+00 -0.20292574072E+02  0.20292574072E+02  0.00000000000E+00 0.  1.
          2    1    1    2  501    0 -0.10925875924E+02  0.20042814930E+02  0.25449076149E+02  0.34186907902E+02  0.00000000000E+00 0.  1.
         21    1    1    2  503  502  0.10925875924E+02 -0.20042814930E+02 -0.77426047495E+01  0.24104711642E+02  0.00000000000E+00 0.  1.
</event>
<event>
 4    1  0.2253948E+005  0.2039030E+02  0.7546771E-02  0.1528151E+00
          2   -1    0    0  503    0  0.00000000000E+00  0.00000000000E+00  0.11150314130E+04  0.11150314130E+04  0.00000000000E+00 0. -1.
         21   -1    0    0  501  502 -0.00000000000E+00 -0.00000000000E+00 -0.62918798152E+00  0.62918798152E+00  0.00000000000E+00 0. -1.
          2    1    1    2  501    0 -0.53265515829E+01 -0.19682280191E+02  0.91324169034E+03  0.91346929302E+03  0.00000000000E+00 0. -1.
         21    1    1    2  503  502  0.53265515829E+01  0.19682280191E+02  0.20116053466E+03  0.20219130795E+03  0.00000000000E+00 0. -1.
</event>
<event>
 4    1  0.2253948E+005  0.2476313E+02  0.7546771E-02  0.1471471E+00
          2   -1    0    0  503    0  0.00000000000E+00  0.00000000000E+00  0.19659606981E+04  0.19659606981E+04  0.00000000000E+00 0.  1.
         21   -1    0    0  501  502 -0.00000000000E+00 -0.00000000000E+00 -0.94986322781E+00  0.94986322781E+00  0.00000000000E+00 0.  1.
          2    1    1    2  501    0  0.16780798067E+02  0.18210367966E+02  0.17884715400E+04  0.17886429666E+04  0.00000000000E+00 0.  1.
         21    1    1    2  503  502 -0.16780798067E+02 -0.18210367966E+02  0.17653929484E+03  0.17826759466E+03  0.00000000000E+00 0.  1.
</event>
<event>
 4    1  0.2253948E+005  0.3123403E+02  0.7546771E-02  0.1409167E+00
          2   -1    0    0  502    0  0.00000000000E+00  0.00000000000E+00  0.26971136337E+03  0.26971136337E+03  0.00000000000E+00 0.  1.
         21   -1    0    0  503  502 -0.00000000000E+00 -0.00000000000E+00 -0.53431051501E+01  0.53431051501E+01  0.00000000000E+00 0.  1.
          2    1    1    2  501    0 -0.29891615088E+02  0.90584638280E+01  0.21034994798E+03  0.21265621325E+03  0.00000000000E+00 0.  1.
         21    1    1    2  503  501  0.29891615088E+02 -0.90584638280E+01  0.54018310248E+02  0.62398255276E+02  0.00000000000E+00 0.  1.
</event>
<event>
 4    1  0.2253948E+005  0.2535174E+02  0.7546771E-02  0.1464907E+00
          2   -1    0    0  502    0  0.00000000000E+00  0.00000000000E+00  0.21111752174E+02  0.21111752174E+02  0.00000000000E+00 0. -1.
         21   -1    0    0  503  502 -0.00000000000E+00 -0.00000000000E+00 -0.26148185442E+03  0.26148185442E+03  0.00000000000E+00 0.  1.
          2    1    1    2  501    0 -0.13898601694E+02  0.21202342888E+02  0.12631998632E+02  0.28324509924E+02  0.00000000000E+00 0. -1.
         21    1    1    2  503  501  0.13898601694E+02 -0.21202342888E+02 -0.25300210088E+03  0.25426909667E+03  0.00000000000E+00 0.  1.
</event>
<event>
 4    1  0.2253948E+005  0.2735549E+02  0.7546771E-02  0.1444069E+00
          2   -1    0    0  503    0  0.00000000000E+00  0.00000000000E+00  0.26909996658E+03  0.26909996658E+03  0.00000000000E+00 0. -1.
         21   -1    0    0  501  502 -0.00000000000E+00 -0.00000000000E+00 -0.84706145555E+01  0.84706145555E+01  0.00000000000E+00 0. -1.
          2    1    1    2  501    0 -0.26337266823E+02  0.73939866514E+01  0.24406003641E+03  0.24558832227E+03  0.00000000000E+00 0. -1.
         21    1    1    2  503  502  0.26337266823E+02 -0.73939866514E+01  0.16569315615E+02  0.31982258867E+02  0.00000000000E+00 0. -1.
</event>
<event>
 4    1  0.2253948E+005  0.2926736E+02  0.7546771E-02  0.1426072E+00
          2   -1    0    0  503    0  0.00000000000E+00  0.00000000000E+00  0.19862195011E+03  0.19862195011E+03  0.00000000000E+00 0.  1.
         21   -1    0    0  501  502 -0.00000000000E+00 -0.00000000000E+00 -0.43200476680E+01  0.43200476680E+01  0.00000000000E+00 0.  1.
          2    1    1    2  501    0 -0.28452259451E+02 -0.68591015159E+01  0.10136223054E+03  0.10550298631E+03  0.00000000000E+00 0.  1.
         21    1    1    2  503  502  0.28452259451E+02  0.68591015159E+01  0.92939671903E+02  0.97439011464E+02  0.00000000000E+00 0.  1.
</event>
<event>
 4    1  0.2253948E+005  0.2950029E+02  0.7546771E-02  0.1423989E+00
          2   -1    0    0  502    0  0.00000000000E+00  0.00000000000E+00  0.53970964924E+03  0.53970964924E+03  0.00000000000E+00 0. -1.
         21   -1    0    0  503  502 -0.00000000000E+00 -0.00000000000E+00 -0.45103219174E+01  0.45103219174E+01  0.00000000000E+00 0. -1.
          2    1    1    2  501    0 -0.29463048001E+02 -0.14818514710E+01  0.48571118177E+03  0.48660622599E+03  0.00000000000E+00 0. -1.
         21    1    1    2  503  501  0.29463048001E+02  0.14818514710E+01  0.49488145552E+02  0.57613745161E+02  0.00000000000E+00 0. -1.
</event>
<event>
 4    1  0.2253948E+005  0.4814268E+02  0.7546771E-02  0.1306432E+00
          2   -1    0    0  503    0  0.00000000000E+00  0.00000000000E+00  0.55810166078E+03  0.55810166078E+03  0.00000000000E+00 0. -1.
         21   -1    0    0  501  502 -0.00000000000E+00 -0.00000000000E+00 -0.48278342110E+01  0.48278342110E+01  0.00000000000E+00 0.  1.
          2    1    1    2  501    0  0.46366631329E+02  0.12955832431E+02  0.38187947394E+03  0.38490213134E+03  0.00000000000E+00 0. -1.
         21    1    1    2  503  502 -0.46366631329E+02 -0.12955832431E+02  0.17139435263E+03  0.17802736365E+03  0.00000000000E+00 0.  1.
</event>
<event>
 4    1  0.2253948E+005  0.2020750E+02  0.7546771E-02  0.1530887E+00
          2   -1    0    0  503    0  0.00000000000E+00  0.00000000000E+00  0.70196964654E+01  0.70196964654E+01  0.00000000000E+00 0.  1.
         21   -1    0    0  501  502 -0.00000000000E+00 -0.00000000000E+00 -0.14831198462E+03  0.14831198462E+03  0.00000000000E+00 0. -1.
          2    1    1    2  501    0  0.10586061717E+02 -0.17212736812E+02 -0.10097700036E+02  0.22589965853E+02  0.00000000000E+00 0.  1.
         21    1    1    2  503  502 -0.10586061717E+02  0.17212736812E+02 -0.13119458812E+03  0.13274171524E+03  0.00000000000E+00 0. -1.
</event>
<event>
 4    1  0.2253948E+005  0.2033627E+02  0.7546771E-02  0.1528956E+00
          2   -1    0    0  502    0  0.00000000000E+00  0.00000000000E+00  0.12728085836E+02  0.12728085836E+02  0.00000000000E+00 0. -1.
         21   -1    0    0  503  502 -0.00000000000E+00 -0.00000000000E+00 -0.36476449615E+02  0.36476449615E+02  0.00000000000E+00 0.  1.
          2    1    1    2  501    0 -0.84837932024E+01  0.18482132836E+02 -0.20005109871E+02  0.28526626197E+02  0.00000000000E+00 0. -1.
         21    1    1    2  503  501  0.84837932024E+01 -0.18482132836E+02 -0.37432539076E+01  0.20677909254E+02  0.00000000000E+00 0.  1.
</event>
<event>
 4    1  0.2253948E+005  0.3519978E+02  0.7546771E-02  0.1379164E+00
          2   -1    0    0  503    0  0.00000000000E+00  0.00000000000E+00  0.23194276947E+03  0.23194276947E+03  0.00000000000E+00 0. -1.
         21   -1    0    0  501  502 -0.00000000000E+00 -0.00000000000E+00 -0.66994904594E+02  0.66994904594E+02  0.00000000000E+00 0. -1.
          2    1    1    2  501    0 -0.61330878204E+01 -0.34661362037E+02  0.22585993086E+03  0.22858638007E+03  0.00000000000E+00 0. -1.
         21    1    1    2  503  502  0.61330878204E+01  0.34661362037E+02 -0.60912065984E+02  0.70351293996E+02  0.00000000000E+00 0. -1.
</event>
<event>
 4    1  0.2253948E+005  0.5973013E+02  0.7546771E-02  0.1260752E+00
          2   -1    0    0  502    0  0.00000000000E+00  0.00000000000E+00  0.31279223216E+04  0.31279223216E+04  0.00000000000E+00 0. -1.
         21   -1    0    0  503  502 -0.00000000000E+00 -0.00000000000E+00 -0.24378398750E+02  0.24378398750E+02  0.00000000000E+00 0. -1.
          2    1    1    2  501    0 -0.34973865297E+02 -0.48420215018E+02  0.30906089239E+04  0.30911860521E+04  0.00000000000E+00 0. -1.
         21    1    1    2  503  501  0.34973865297E+02  0.48420215018E+02  0.12934998993E+02  0.61114668249E+02  0.00000000000E+00 0. -1.
</event>
<event>
 4    1  0.2253948E+005  0.2130885E+02  0.7546771E-02  0.1514901E+00
          2   -1    0    0  503    0  0.00000000000E+00  0.00000000000E+00  0.14728544699E+04  0.14728544699E+04  0.00000000000E+00 0. -1.
         21   -1    0    0  501  502 -0.00000000000E+00 -0.00000000000E+00 -0.99425495389E+01  0.99425495389E+01  0.00000000000E+00 0. -1.
          2    1    1    2  501    0 -0.13626912034E+02  0.16382130116E+02  0.14612696211E+04  0.14614249801E+04  0.00000000000E+00 0. -1.
         21    1    1    2  503  502  0.13626912034E+02 -0.16382130116E+02  0.16422992660E+01  0.21372039341E+02  0.00000000000E+00 0. -1.
</event>
<event>
 4    1  0.2253948E+005  0.2159233E+02  0.7546771E-02  0.1510973E+00
          2   -1    0    0  503    0  0.00000000000E+00  0.00000000000E+00  0.41983678441E+03  0.41983678441E+03  0.00000000000E+00 0. -1.
         21   -1    0    0  501  502 -0.00000000000E+00 -0.00000000000E+00 -0.10907224313E+02  0.10907224313E+02  0.00000000000E+00 0.  1.
          2    1    1    2  501    0 -0.21560596476E+02  0.11702571130E+01  0.40857867356E+03  0.40914882538E+03  0.00000000000E+00 0. -1.
         21    1    1    2  503  502  0.21560596476E+02 -0.11702571130E+01  0.35088653435E+00  0.21595183339E+02  0.00000000000E+00 0.  1.
</event>
<event>
 4    1  0.2253948E+005  0.3325752E+02  0.7546771E-02  0.1393245E+00
          2   -1    0    0  502    0  0.00000000000E+00  0.00000000000E+00  0.32060066694E+03  0.32060066694E+03  0.00000000000E+00 0.  1.
         21   -1    0    0  503  502 -0.00000000000E+00 -0.00000000000E+00 -0.95582817792E+01  0.95582817792E+01  0.00000000000E+00 0.  1.
          2    1    1    2  501    0 -0.32856157311E+02 -0.51512653956E+01  0.28748771397E+03  0.28940499010E+03  0.00000000000E+00 0.  1.
         21    1    1    2  503  501  0.32856157311E+02  0.51512653956E+01  0.23554671186E+02  0.40753958619E+02  0.00000000000E+00 0.  1.
</event>
<event>
 4    1  0.2253948E+005  0.4135049E+02  0.7546771E-02  0.1340749E+00
          2   -1    0    0  503    0  0.00000000000E+00  0.00000000000E+00  0.15395155248E+04  0.15395155248E+04  0.00000000000E+00 0.  1.
         21   -1    0    0  501  502 -0.00000000000E+00 -0.00000000000E+00 -0.94990283064E+01  0.94990283064E+01  0.00000000000E+00 0.  1.
          2    1    1    2  501    0 -0.33151841692E+02 -0.24714747065E+02  0.14928297953E+04  0.14934023775E+04  0.00000000000E+00 0.  1.
         21    1    1    2  503  502  0.33151841692E+02  0.24714747065E+02  0.37186701137E+02  0.55612175569E+02  0.00000000000E+00 0.  1.
</event>
<event>
 4    1  0.2253948E+005  0.3563298E+02  0.7546771E-02  0.1376167E+00
          2   -1    0    0  502    0  0.00000000000E+00  0.00000000000E+00  0.11914254897E+04  0.11914254897E+04  0.00000000000E+00 0.  1.
         21   -1    0    0  503  502 -0.00000000000E+00 -0.00000000000E+00 -0.43456849371E+01  0.43456849371E+01  0.00000000000E+00 0.  1.
          2    1    1    2  501    0  0.29378649655E+02 -0.20164425794E+02  0.11129668811E+04  0.11135371514E+04  0.00000000000E+00 0.  1.
         21    1    1    2  503  501 -0.29378649655E+02  0.20164425794E+02  0.74112923616E+02  0.82234023190E+02  0.00000000000E+00 0.  1.
</event>
<event>
 4    1  0.2253948E+005  0.2089010E+02  0.7546771E-02  0.1520840E+00
          2   -1    0    0  503    0  0.00000000000E+00  0.00000000000E+00  0.13699466911E+01  0.13699466911E+01  0.00000000000E+00 0. -1.
         21   -1    0    0  501  502 -0.00000000000E+00 -0.00000000000E+00 -0.16082919384E+04  0.16082919384E+04  0.00000000000E+00 0. -1.
          2    1    1    2  501    0 -0.18050357436E+01 -0.20811968052E+02 -0.82729208979E+02  0.85325952597E+02  0.00000000000E+00 0. -1.
         21    1    1    2  503  502  0.18050357436E+01  0.20811968052E+02 -0.15241927827E+04  0.15243359325E+04  0.00000000000E+00 0. -1.
</event>
<event>
 4    1  0.2253948E+005  0.2104176E+02  0.7546771E-02  0.1518669E+00
          2   -1    0    0  502    0  0.00000000000E+00  0.00000000000E+00  0.11621921301E+03  0.11621921301E+03  0.00000000000E+00 0.  1.
         21   -1    0    0  503  502 -0.00000000000E+00 -0.00000000000E+00 -0.26275909573E+02  0.26275909573E+02  0.00000000000E+00 0.  1.
          2    1    1    2  501    0  0.13902180691E+02  0.15795092597E+02  0.11085208138E+03  0.11283146513E+03  0.00000000000E+00 0.  1.
         21    1    1    2  503  501 -0.13902180691E+02 -0.15795092597E+02 -0.20908777943E+02  0.29663657448E+02  0.00000000000E+00 0.  1.
</event>
<event>
 4    1  0.2253948E+005  0.5101952E+02  0.7546771E-02  0.1293812E+00
          2   -1    0    0  503    0  0.00000000000E+00  0.00000000000E+00  0.17951804093E+04  0.17951804093E+04  0.00000000000E+00 0.  1.
         21   -1    0    0  501  502 -0.00000000000E+00 -0.00000000000E+00 -0.15623723959E+01  0.15623723959E+01  0.00000000000E+00 0.  1.
          2    1    1    2  501    0 -0.50533147573E+02 -0.70279955325E+01  0.65586572574E+03  0.65784712656E+03  0.00000000000E+00 0.  1.
         21    1    1    2  503  502  0.50533147573E+02  0.70279955325E+01  0.11377523112E+04  0.11388956551E+04  0.00000000000E+00 0.  1.
</event>
<event>
 4    1  0.2253948E+005  0.2032671E+02  0.7546771E-02  0.1529098E+00
          2   -1    0    0  503    0  0.00000000000E+00  0.00000000000E+00  0.60995963747E+02  0.60995963747E+02  0.00000000000E+00 0. -1.
         21   -1    0    0  501  502 -0.00000000000E+00 -0.00000000000E+00 -0.10519901690E+02  0.10519901690E+02  0.00000000000E+00 0.  1.
          2    1    1    2  501    0  0.12268529987E+02 -0.16206742768E+02  0.46576119289E+02  0.50818404414E+02  0.00000000000E+00 0. -1.
         21    1    1    2  503  502 -0.12268529987E+02  0.16206742768E+02  0.38999427690E+01  0.20697461023E+02  0.00000000000E+00 0.  1.
</event>
<event>
 4    1  0.2253948E+005  0.2422141E+02  0.7546771E-02  0.1477705E+00
          2   -1    0    0  502    0  0.00000000000E+00  0.00000000000E+00  0.35026912248E+03  0.35026912248E+03  0.00000000000E+00 0. -1.
         21   -1    0    0  503  502 -0.00000000000E+00 -0.00000000000E+00 -0.15105661544E+02  0.15105661544E+02  0.00000000000E+00 0.  1.
          2    1    1    2  501    0  0.78772627508E+01 -0.22904702324E+02  0.33984334648E+03  0.34070541058E+03  0.00000000000E+00 0. -1.
         21    1    1    2  503  501 -0.78772627508E+01  0.22904702324E+02 -0.46798855437E+01  0.24669373436E+02  0.00000000000E+00 0.  1.
</event>
<event>
 4    1  0.2253948E+005  0.2561851E+02  0.7546771E-02  0.1462002E+00
          2   -1    0    0  503    0  0.00000000000E+00  0.00000000000E+00  0.40521203590E+01  0.40521203590E+01  0.00000000000E+00 0.  1.
         21   -1    0    0  501  502 -0.00000000000E+00 -0.00000000000E+00 -0.17634424448E+03  0.17634424448E+03  0.00000000000E+00 0.  1.
          2    1    1    2  501    0 -0.11676555907E+02  0.22802763823E+02 -0.60391058545E+02  0.65600213018E+02  0.00000000000E+00 0.  1.
         21    1    1    2  503  502  0.11676555907E+02 -0.22802763823E+02 -0.11190106558E+03  0.11479615182E+03  0.00000000000E+00 0.  1.
</event>
<event>
 4    1  0.2253948E+005  0.2158108E+02  0.7546771E-02  0.1511128E+00
          2   -1    0    0  502    0  0.00000000000E+00  0.00000000000E+00  0.43141552047E+03  0.43141552047E+03  0.00000000000E+00 0.  1.
         21   -1    0    0  503  502 -0.00000000000E+00 -0.00000000000E+00 -0.19836059792E+02  0.19836059792E+02  0.00000000000E+00 0.  1.
          2    1    1    2  501    0 -0.81225010058E+01  0.19994200414E+02  0.42518983132E+03  0.42573716743E+03  0.00000000000E+00 0.  1.
         21    1    1    2  503  501  0.81225010058E+01 -0.19994200414E+02 -0.13610370648E+02  0.25514412828E+02  0.00000000000E+00 0.  1.
</event>
<event>
 4    1  0.2253948E+005  0.2154572E+02  0.7546771E-02  0.1511614E+00
          2   -1    0    0  503    0  0.00000000000E+00  0.00000000000E+00  0.28699418603E+01  0.28699418603E+01  0.00000000000E+00 0.  1.
         21   -1    0    0  501  502 -0.00000000000E+00 -0.00000000000E+00 -0.38746462424E+03  0.38746462424E+03  0.00000000000E+00 0.  1.
          2    1    1    2  501    0 -0.19483114540E+02 -0.91992610578E+01 -0.43337520620E+02  0.48397921956E+02  0.00000000000E+00 0.  1.
         21    1    1    2  503  502  0.19483114540E+02  0.91992610578E+01 -0.34125716176E+03  0.34193664414E+03  0.00000000000E+00 0.  1.
</event>
<event>
 4    1  0.2253948E+005  0.2474968E+02  0.7546771E-02  0.1471623E+00
          2   -1    0    0  503    0  0.00000000000E+00  0.00000000000E+00  0.15791010340E+04  0.15791010340E+04  0.00000000000E+00 0.  1.
         21   -1    0    0  501  502 -0.00000000000E+00 -0.00000000000E+00 -0.12596366008E+01  0.12596366008E+01  0.00000000000E+00 0. -1.
          2    1    1    2  501    0  0.20369626264E+02  0.14057907405E+02  0.14462668867E+04  0.14464786394E+04  0.00000000000E+00 0.  1.
         21    1    1    2  503  502 -0.20369626264E+02 -0.14057907405E+02  0.13157451065E+03  0.13388203123E+03  0.00000000000E+00 0. -1.
</event>
<event>
 4    1  0.2253948E+005  0.2487452E+02  0.7546771E-02  0.1470212E+00
          2   -1    0    0  503    0  0.00000000000E+00  0.00000000000E+00  0.11820608794E+04  0.11820608794E+04  0.00000000000E+00 0.  1.
         21   -1    0    0  501  502 -0.00000000000E+00 -0.00000000000E+00 -0.47352041024E+03  0.47352041024E+03  0.00000000000E+00 0. -1.
          2    1    1    2  501    0  0.24808415043E+02 -0.18122952728E+01  0.11816032209E+04  0.11818650149E+04  0.00000000000E+00 0.  1.
         21    1    1    2  503  502 -0.24808415043E+02  0.18122952728E+01 -0.47306275172E+03  0.47371627472E+03  0.00000000000E+00 0. -1.
</event>
<event>
 4    1  0.2253948E+005  0.2169883E+02  0.7546771E-02  0.1509517E+00
          2   -1    0    0  503    0  0.00000000000E+00  0.00000000000E+00  0.49719280499E+03  0.49719280499E+03  0.00000000000E+00 0. -1.
         21   -1    0    0  501  502 -0.00000000000E+00 -0.00000000000E+00 -0.37843676031E+01  0.37843676031E+01  0.00000000000E+00 0. -1.
          2    1    1    2  501    0 -0.21072259144E+02  0.51767808436E+01  0.46359917810E+03  0.46410670874E+03  0.00000000000E+00 0. -1.
         21    1    1    2  503  502  0.21072259144E+02 -0.51767808436E+01  0.29809259290E+02  0.36870463853E+02  0.00000000000E+00 0. -1.
</event>
<event>
 4    1  0.2253948E+005  0.2033009E+02  0.7546771E-02  0.1529048E+00
          2   -1    0    0  503    0  0.00000000000E+00  0.00000000000E+00  0.11081671440E+04  0.11081671440E+04  0.00000000000E+00 0. -1.
         21   -1    0    0  501  502 -0.00000000000E+00 -0.00000000000E+00 -0.10415351886E+02  0.10415351886E+02  0.00000000000E+00 0. -1.
          2    1    1    2  501    0  0.63999623031E+01 -0.19296446870E+02  0.10980618612E+04  0.10982500459E+04  0.00000000000E+00 0. -1.
         21    1    1    2  503  502 -0.63999623031E+01  0.19296446870E+02 -0.31006905690E+00  0.20332449978E+02  0.00000000000E+00 0. -1.
</event>
<event>
 4    1  0.2253948E+005  0.4001556E+02  0.7546771E-02  0.1348395E+00
          2   -1    0    0  503    0  0.00000000000E+00  0.00000000000E+00  0.23884792766E+03  0.23884792766E+03  0.00000000000E+00 0.  1.
         21   -1    0    0  501  502 -0.00000000000E+00 -0.00000000000E+00 -0.12141455414E+03  0.12141455414E+03  0.00000000000E+00 0.  1.
          2    1    1    2  501    0 -0.30659662492E+02 -0.25714388947E+02  0.23380424659E+03  0.23720385837E+03  0.00000000000E+00 0.  1.
         21    1    1    2  503  502  0.30659662492E+02  0.25714388947E+02 -0.11637087307E+03  0.12305862344E+03  0.00000000000E+00 0.  1.
</event>
<event>
 4    1  0.2253948E+005  0.2025854E+02  0.7546771E-02  0.1530120E+00
          2   -1    0    0  503    0  0.00000000000E+00  0.00000000000E+00  0.43744737203E+02  0.43744737203E+02  0.00000000000E+00 0.  1.
         21   -1    0    0  501  502 -0.00000000000E+00 -0.00000000000E+00 -0.16364109384E+02  0.16364109384E+02  0.00000000000E+00 0.  1.
          2    1    1    2  501    0  0.15848693465E+02 -0.12618531980E+02  0.33322057396E+02  0.38997024796E+02  0.00000000000E+00 0.  1.
         21    1    1    2  503  502 -0.15848693465E+02  0.12618531980E+02 -0.59414295777E+01  0.21111821790E+02  0.00000000000E+00 0.  1.
</event>
<event>
 4    1  0.2253948E+005  0.2239201E+02  0.7546771E-02  0.1500277E+00
          2   -1    0    0  503    0  0.00000000000E+00  0.00000000000E+00  0.17537783929E+03  0.17537783929E+03  0.00000000000E+00 0. -1.
         21   -1    0    0  501  502 -0.00000000000E+00 -0.00000000000E+00 -0.30496035141E+01  0.30496035141E+01  0.00000000000E+00 0. -1.
          2    1    1    2  501    0  0.10344142264E+02 -0.19859529309E+02  0.10846876147E+03  0.11075592263E+03  0.00000000000E+00 0. -1.
         21    1    1    2  503  502 -0.10344142264E+02  0.19859529309E+02  0.63859474303E+02  0.67671520168E+02  0.00000000000E+00 0. -1.
</event>
<event>
 4    1  0.2253948E+005  0.3174358E+02  0.7546771E-02  0.1405026E+00
          2   -1    0    0  503    0  0.00000000000E+00  0.00000000000E+00  0.24254274077E+02  0.24254274077E+02  0.00000000000E+00 0.  1.
         21   -1    0    0  501  502 -0.00000000000E+00 -0.00000000000E+00 -0.51832047696E+03  0.51832047696E+03  0.00000000000E+00 0.  1.
          2    1    1    2  501    0  0.13740625845E+02 -0.28615560117E+02  0.13154827378E+02  0.34361381852E+02  0.00000000000E+00 0.  1.
         21    1    1    2  503  502 -0.13740625845E+02  0.28615560117E+02 -0.50722103026E+03  0.50821336918E+03  0.00000000000E+00 0.  1.
</event>
<event>
 4    1  0.2253948E+005  0.2911232E+02  0.7546771E-02  0.1427470E+00
          2   -1    0    0  502    0  0.00000000000E+00  0.00000000000E+00  0.31589186958E+03  0.31589186958E+03  0.00000000000E+00 0.  1.
         21   -1    0    0  503  502 -0.00000000000E+00 -0.00000000000E+00 -0.23940967579E+02  0.23940967579E+02  0.00000000000E+00 0. -1.
          2    1    1    2  501    0  0.15338087654E+02 -0.24744099441E+02  0.30608812328E+03  0.30746945638E+03  0.00000000000E+00 0.  1.
         21    1    1    2  503  501 -0.15338087654E+02  0.24744099441E+02 -0.14137221282E+02  0.32363380781E+02  0.00000000000E+00 0. -1.
</event>
<event>
 4    1  0.2253948E+005  0.2206614E+02  0.7546771E-02  0.1504570E+00
          2   -1    0    0  502    0  0.00000000000E+00  0.00000000000E+00  0.83982491334E+03  0.83982491334E+03  0.00000000000E+00 0. -1.
         21   -1    0    0  503  502 -0.00000000000E+00 -0.00000000000E+00 -0.95891622656E+00  0.95891622656E+00  0.00000000000E+00 0. -1.
          2    1    1    2  501    0 -0.17465205126E+02 -0.13486336412E+02  0.68377185082E+03  0.68412780870E+03  0.00000000000E+00 0. -1.
         21    1    1    2  503  501  0.17465205126E+02  0.13486336412E+02  0.15509414629E+03  0.15665602087E+03  0.00000000000E+00 0. -1.
</event>
<event>
 4    1  0.2253948E+005  0.2089684E+02  0.7546771E-02  0.1520743E+00
          2   -1    0    0  503    0  0.00000000000E+00  0.00000000000E+00  0.79408356512E+02  0.79408356512E+02  0.00000000000E+00 0.  1.
         21   -1    0    0  501  502 -0.00000000000E+00 -0.00000000000E+00 -0.13950850388E+03  0.13950850388E+03  0.00000000000E+00 0. -1.
          2    1    1    2  501    0  0.19494870989E+02  0.75251538661E+01  0.77229352567E+02  0.80006567440E+02  0.00000000000E+00 0.  1.
         21    1    1    2  503  502 -0.19494870989E+02 -0.75251538661E+01 -0.13732949993E+03  0.13891029295E+03  0.00000000000E+00 0. -1.
</event>
<event>
 4    1  0.2253948E+005  0.2143569E+02  0.7546771E-02  0.1513134E+00
          2   -1    0    0  503    0  0.00000000000E+00  0.00000000000E+00  0.26351841322E+03  0.26351841322E+03  0.00000000000E+00 0.  1.
         21   -1    0    0  501  502 -0.00000000000E+00 -0.00000000000E+00 -0.50095291307E+01  0.50095291307E+01  0.00000000000E+00 0. -1.
          2    1    1    2  501    0 -0.21233196530E+02  0.29394120783E+01  0.23766207287E+03  0.23862679996E+03  0.00000000000E+00 0.  1.
         21    1    1    2  503  502  0.21233196530E+02 -0.29394120783E+01  0.20846811219E+02  0.29901142390E+02  0.00000000000E+00 0. -1.
</event>
<event>
 4    1  0.2253948E+005  0.2987673E+02  0.7546771E-02  0.1420671E+00
          2   -1    0    0  503    0  0.00000000000E+00  0.00000000000E+00  0.41245713144E+01  0.41245713144E+01  0.00000000000E+00 0. -1.
         21   -1    0    0  501  502 -0.00000000000E+00 -0.00000000000E+00 -0.75105686561E+03  0.75105686561E+03  0.00000000000E+00 0.  1.
          2    1    1    2  501    0  0.28631905180E+02  0.85342152527E+01 -0.54887686690E+02  0.62492215310E+02  0.00000000000E+00 0. -1.
         21    1    1    2  503  502 -0.28631905180E+02 -0.85342152527E+01 -0.69204460761E+03  0.69268922162E+03  0.00000000000E+00 0.  1.
</event>
<event>
 4    1  0.2253948E+005  0.6128314E+02  0.7546771E-02  0.1255534E+00
          2   -1    0    0  502    0  0.00000000000E+00  0.00000000000E+00  0.10800650664E+04  0.10800650664E+04  0.00000000000E+00 0.  1.
         21   -1    0    0  503  502 -0.00000000000E+00 -0.00000000000E+00 -0.22037953913E+02  0.22037953913E+02  0.00000000000E+00 0.  1.
          2    1    1    2  501    0  0.32070460601E+02  0.52221727885E+02  0.10347265820E+04  0.10365397835E+04  0.00000000000E+00 0.  1.
         21    1    1    2  503  501 -0.32070460601E+02 -0.52221727885E+02  0.23300530578E+02  0.65563236891E+02  0.00000000000E+00 0.  1.
</event>
<event>
 4    1  0.2253948E+005  0.4538986E+02  0.7546771E-02  0.1319501E+00
          2   -1    0    0  503    0  0.00000000000E+00  0.00000000000E+00  0.17307529296E+03  0.17307529296E+03  0.00000000000E+00 0. -1.
         21   -1    0    0  501  502 -0.00000000000E+00 -0.00000000000E+00 -0.37222496541E+02  0.37222496541E+02  0.00000000000E+00 0. -1.
          2    1    1    2  501    0 -0.23060063678E+02  0.39095683919E+02  0.15464721505E+03  0.16117071744E+03  0.00000000000E+00 0. -1.
         21    1    1    2  503  502  0.23060063678E+02 -0.39095683919E+02 -0.18794418628E+02  0.49127072063E+02  0.00000000000E+00 0. -1.
</event>
<event>
 4    1  0.2253948E+005  0.5030727E+02  0.7546771E-02  0.1296846E+00
          2   -1    0    0  503    0  0.00000000000E+00  0.00000000000E+00  0.57442913066E+03  0.57442913066E+03  0.00000000000E+00 0. -1.
         21   -1    0    0  501  502 -0.00000000000E+00 -0.00000000000E+00 -0.50396543155E+01  0.50396543155E+01  0.00000000000E+00 0. -1.
          2    1    1    2  501    0  0.62418528081E+01 -0.49918543405E+02  0.38744745319E+03  0.39069982171E+03  0.00000000000E+00 0. -1.
         21    1    1    2  503  502 -0.62418528081E+01  0.49918543405E+02  0.18194202316E+03  0.18876896326E+03  0.00000000000E+00 0. -1.
</event>
<event>
 4    1  0.2253948E+005  0.2775785E+02  0.7546771E-02  0.1440140E+00
          2   -1    0    0  503    0  0.00000000000E+00  0.00000000000E+00  0.12688764615E+02  0.12688764615E+02  0.00000000000E+00 0.  1.
         21   -1    0    0  501  502 -0.00000000000E+00 -0.00000000000E+00 -0.14089489111E+03  0.14089489111E+03  0.00000000000E+00 0.  1.
          2    1    1    2  501    0 -0.13779718543E+02  0.24096003506E+02 -0.61763568639E+01  0.28436691301E+02  0.00000000000E+00 0.  1.
         21    1    1    2  503  502  0.13779718543E+02 -0.24096003506E+02 -0.12202976963E+03  0.12514696442E+03  0.00000000000E+00 0.  1.
</event>
<event>
 4    1  0.2253948E+005  0.2953046E+02  0.7546771E-02  0.1423721E+00
          2   -1    0    0  503    0  0.00000000000E+00  0.00000000000E+00  0.14705168139E+04  0.14705168139E+04  0.00000000000E+00 0. -1.
         21   -1    0    0  501  502 -0.00000000000E+00 -0.00000000000E+00 -0.13677948548E+01  0.13677948548E+01  0.00000000000E+00 0.  1.
          2    1    1    2  501    0  0.39796145191E+01 -0.29261078060E+02  0.12884608260E+04  0.12887991885E+04  0.00000000000E+00 0. -1.
         21    1    1    2  503  502 -0.39796145191E+01  0.29261078060E+02  0.18068819302E+03  0.18308542028E+03  0.00000000000E+00 0.  1.
</event>
<event>
 4    1  0.2253948E+005  0.5087912E+02  0.7546771E-02  0.1294405E+00
          2   -1    0    0  502    0  0.00000000000E+00  0.00000000000E+00  0.27405409764E+03  0.27405409764E+03  0.00000000000E+00 0. -1.
         21   -1    0    0  503  502 -0.00000000000E+00 -0.00000000000E+00 -0.34262072242E+02  0.34262072242E+02  0.00000000000E+00 0.  1.
          2    1    1    2  501    0  0.19498406118E+02  0.46994648333E+02  0.25109394174E+03  0.25619690160E+03  0.00000000000E+00 0. -1.
         21    1    1    2  503  501 -0.19498406118E+02 -0.46994648333E+02 -0.11301916340E+02  0.52119268280E+02  0.00000000000E+00 0.  1.
</event>
<event>
 4    1  0.2253948E+005  0.2059239E+02  0.7546771E-02  0.1525165E+00
          2   -1    0    0  502    0  0.00000000000E+00  0.00000000000E+00  0.33469351238E+03  0.33469351238E+03  0.00000000000E+00 0. -1.
         21   -1    0    0  503  502 -0.00000000000E+00 -0.00000000000E+00 -0.17098151229E+02  0.17098151229E+02  0.00000000000E+00 0.  1.
          2    1    1    2  501    0 -0.19333020228E+02 -0.70908920949E+01  0.32805117359E+03  0.32869684957E+03  0.00000000000E+00 0. -1.
         21    1    1    2  503  501  0.19333020228E+02  0.70908920949E+01 -0.10455812439E+02  0.23094814041E+02  0.00000000000E+00 0.  1.
</event>
<event>
 4    1  0.2253948E+005  0.2614534E+02  0.7546771E-02  0.1456387E+00
          2   -1    0    0  502    0  0.00000000000E+00  0.00000000000E+00  0.26797571293E+02  0.26797571293E+02  0.00000000000E+00 0. -1.
         21   -1    0    0  503  502 -0.00000000000E+00 -0.00000000000E+00 -0.16577234535E+03  0.16577234535E+03  0.00000000000E+00 0.  1.
          2    1    1    2  501    0  0.17450411739E+02  0.19469514208E+02  0.19080141297E+02  0.32367122907E+02  0.00000000000E+00 0. -1.
         21    1    1    2  503  501 -0.17450411739E+02 -0.19469514208E+02 -0.15805491535E+03  0.16020279374E+03  0.00000000000E+00 0.  1.
</event>
<event>
 4    1  0.2253948E+005  0.2084197E+02  0.7546771E-02  0.1521533E+00
          2   -1    0    0  503    0  0.00000000000E+00  0.00000000000E+00  0.15900472063E+04  0.15900472063E+04  0.00000000000E+00 0.  1.
         21   -1    0    0  501  502 -0.00000000000E+00 -0.00000000000E+00 -0.14577432391E+01  0.14577432391E+01  0.00000000000E+00 0. -1.
          2    1    1    2  501    0  0.17413522616E+02 -0.11452380960E+02  0.15116172244E+04  0.15117609007E+04  0.00000000000E+00 0.  1.
         21    1    1    2  503  502 -0.17413522616E+02  0.11452380960E+02  0.76972238602E+02  0.79744048775E+02  0.00000000000E+00 0. -1.
</event>
<event>
 4    1  0.2253948E+005  0.3706904E+02  0.7546771E-02  0.1366573E+00
          2   -1    0    0  502    0  0.00000000000E+00  0.00000000000E+00  0.24437415485E+01  0.24437415485E+01  0.00000000000E+00 0. -1.
         21   -1    0    0  503  502 -0.00000000000E+00 -0.00000000000E+00 -0.75261070056E+03  0.75261070056E+03  0.00000000000E+00 0.  1.
          2    1    1    2  501    0  0.62543969462E+01 -0.36537601744E+02 -0.18524002053E+03  0.18891262273E+03  0.00000000000E+00 0. -1.
         21    1    1    2  503  501 -0.62543969462E+01  0.36537601744E+02 -0.56492693849E+03  0.56614181938E+03  0.00000000000E+00 0.  1.
</event>
<event>
 4    1  0.2253948E+005  0.2040287E+02  0.7546771E-02  0.1527964E+00
          2   -1    0    0  503    0  0.00000000000E+00  0.00000000000E+00  0.32450157531E+01  0.32450157531E+01  0.00000000000E+00 0.  1.
         21   -1    0    0  501  502 -0.00000000000E+00 -0.00000000000E+00 -0.20906826220E+03  0.20906826220E+03  0.00000000000E+00 0.  1.
          2    1    1    2  501    0  0.17868538930E+01  0.20324474166E+02 -0.36922573540E+02  0.42184754756E+02  0.00000000000E+00 0.  1.
         21    1    1    2  503  502 -0.17868538930E+01 -0.20324474166E+02 -0.16890067291E+03  0.17012852320E+03  0.00000000000E+00 0.  1.
</event>
<event>
 4    1  0.2253948E+005  0.5812947E+02  0.7546771E-02  0.1266324E+00
          2   -1    0    0  503    0  0.00000000000E+00  0.00000000000E+00  0.22497281955E+04  0.22497281955E+04  0.00000000000E+00 0. -1.
         21   -1    0    0  501  502 -0.00000000000E+00 -0.00000000000E+00 -0.37249941243E+01  0.37249941243E+01  0.00000000000E+00 0.  1.
          2    1    1    2  501    0  0.34881670273E+02  0.46500586016E+02  0.19934185765E+04  0.19942659443E+04  0.00000000000E+00 0. -1.
         21    1    1    2  503  502 -0.34881670273E+02 -0.46500586016E+02  0.25258462493E+03  0.25918724538E+03  0.00000000000E+00 0.  1.
</event>
<event>
 4    1  0.2253948E+005  0.2437542E+02  0.7546771E-02  0.1475913E+00
          2   -1    0    0  502    0  0.00000000000E+00  0.00000000000E+00  0.37451849218E+01  0.37451849218E+01  0.00000000000E+00 0. -1.
         21   -1    0    0  503  502 -0.00000000000E+00 -0.00000000000E+00 -0.13350465865E+04  0.13350465865E+04  0.00000000000E+00 0. -1.
          2    1    1    2  501    0  0.24263390775E+02 -0.23343373577E+01 -0.37285227822E+02  0.44546037720E+02  0.00000000000E+00 0. -1.
         21    1    1    2  503  501 -0.24263390775E+02  0.23343373577E+01 -0.12940161738E+04  0.12942457337E+04  0.00000000000E+00 0. -1.
</event>
<event>
 4    1  0.2253948E+005  0.2019212E+02  0.7546771E-02  0.1531119E+00
          2   -1    0    0  502    0  0.00000000000E+00  0.00000000000E+00  0.11172417445E+04  0.11172417445E+04  0.00000000000E+00 0. -1.
         21   -1    0    0  503  502 -0.00000000000E+00 -0.00000000000E+00 -0.13113324194E+01  0.13113324194E+01  0.00000000000E+00 0. -1.
          2    1    1    2  501    0  0.36875732239E+01  0.19852543003E+02  0.10330889793E+04  0.10332862918E+04  0.00000000000E+00 0. -1.
         21    1    1    2  503  501 -0.36875732239E+01 -0.19852543003E+02  0.82841432710E+02  0.85266785054E+02  0.00000000000E+00 0. -1.
</event>
<event>
 4    1  0.2253948E+005  0.2753687E+02  0.7546771E-02  0.1442288E+00
          2   -1    0    0  503    0  0.00000000000E+00  0.00000000000E+00  0.74918348455E+03  0.74918348455E+03  0.00000000000E+00 0.  1.
         21   -1    0    0  501  502 -0.00000000000E+00 -0.00000000000E+00 -0.79113388376E+01  0.79113388376E+01  0.00000000000E+00 0.  1.
          2    1    1    2  501    0 -0.22554787024E+02 -0.15797487905E+02  0.72414029026E+03  0.72466367303E+03  0.00000000000E+00 0.  1.
         21    1    1    2  503  502  0.22554787024E+02  0.15797487905E+02  0.17131855452E+02  0.32431150350E+02  0.00000000000E+00 0.  1.
</event>
<event>
 4    1  0.2253948E+005  0.2262166E+02  0.7546771E-02  0.1497304E+00
          2   -1    0    0  503    0  0.00000000000E+00  0.00000000000E+00  0.33175816320E+03  0.33175816320E+03  0.00000000000E+00 0. -1.
         21   -1    0    0  501  502 -0.00000000000E+00 -0.00000000000E+00 -0.31402943511E+02  0.31402943511E+02  0.00000000000E+00 0.  1.
          2    1    1    2  501    0  0.22397769001E+02 -0.31747878437E+01  0.32724240908E+03  0.32802337361E+03  0.00000000000E+00 0. -1.
         21    1    1    2  503  502 -0.22397769001E+02  0.31747878437E+01 -0.26887189391E+02  0.35137733100E+02  0.00000000000E+00 0.  1.
</event>
<event>
 4    1  0.2253948E+005  0.2683581E+02  0.7546771E-02  0.1449264E+00
          2   -1    0    0  502    0  0.00000000000E+00  0.00000000000E+00  0.12445914678E+04  0.12445914678E+04  0.00000000000E+00 0.  1.
         21   -1    0    0  503  502 -0.00000000000E+00 -0.00000000000E+00 -0.68412164519E+01  0.68412164519E+01  0.00000000000E+00 0.  1.
          2    1    1    2  501    0  0.21113899856E+02 -0.16563937795E+02  0.12175452969E+04  0.12178410040E+04  0.00000000000E+00 0.  1.
         21    1    1    2  503  501 -0.21113899856E+02  0.16563937795E+02  0.20204954392E+02  0.33591680285E+02  0.00000000000E+00 0.  1.
</event>
<event>
 4    1  0.2253948E+005  0.2033328E+02  0.7546771E-02  0.1529000E+00
          2   -1    0    0  503    0  0.00000000000E+00  0.00000000000E+00  0.78308103382E+02  0.78308103382E+02  0.00000000000E+00 0.  1.
         21   -1    0    0  501  502 -0.00000000000E+00 -0.00000000000E+00 -0.53014413178E+01  0.53014413178E+01  0.00000000000E+00 0.  1.
          2    1    1    2  501    0 -0.55333228519E+01  0.19565908879E+02  0.39181136978E+02  0.44142994314E+02  0.00000000000E+00 0.  1.
         21    1    1    2  503  502  0.55333228519E+01 -0.19565908879E+02  0.33825525086E+02  0.39466550386E+02  0.00000000000E+00 0.  1.
</event>
<event>
 4    1  0.2253948E+005  0.2393477E+02  0.7546771E-02  0.1481082E+00
          2   -1    0    0  502    0  0.00000000000E+00  0.00000000000E+00  0.46886411739E+01  0.46886411739E+01  0.00000000000E+00 0. -1.
         21   -1    0    0  503  502 -0.00000000000E+00 -0.00000000000E+00 -0.11761444155E+04  0.11761444155E+04  0.00000000000E+00 0.  1.
          2    1    1    2  501    0  0.18016993122E+02 -0.15756309507E+02 -0.26819676491E+02  0.35946743629E+02  0.00000000000E+00 0. -1.
         21    1    1    2  503  501 -0.18016993122E+02  0.15756309507E+02 -0.11446360979E+04  0.11448863131E+04  0.00000000000E+00 0.  1.
</event>
<event>
 4    1  0.2253948E+005  0.2342892E+02  0.7546771E-02  0.1487181E+00
          2   -1    0    0  502    0  0.00000000000E+00  0.00000000000E+00  0.51755782877E+03  0.51755782877E+03  0.00000000000E+00 0. -1.
         21   -1    0    0  503  502 -0.00000000000E+00 -0.00000000000E+00 -0.69276598363E+01  0.69276598363E+01  0.00000000000E+00 0. -1.
          2    1    1    2  501    0  0.18681941719E+02 -0.14138582466E+02  0.49665046173E+03  0.49720277111E+03  0.00000000000E+00 0. -1.
         21    1    1    2  503  501 -0.18681941719E+02  0.14138582466E+02  0.13979707201E+02  0.27282717496E+02  0.00000000000E+00 0. -1.
</event>
<event>
 4    1  0.2253948E+005  0.6595715E+02  0.7546771E-02  0.1240833E+00
          2   -1    0    0  503    0  0.00000000000E+00  0.00000000000E+00  0.52706039840E+03  0.52706039840E+03  0.00000000000E+00 0. -1.
         21   -1    0    0  501  502 -0.00000000000E+00 -0.00000000000E+00 -0.71091185025E+02  0.71091185025E+02  0.00000000000E+00 0. -1.
          2    1    1    2  501    0 -0.64552303844E+02 -0.13540543203E+02  0.50916291415E+03  0.51341719818E+03  0.00000000000E+00 0. -1.
         21    1    1    2  503  502  0.64552303844E+02  0.13540543203E+02 -0.53193700771E+02  0.84734385249E+02  0.00000000000E+00 0. -1.
</event>
<event>
 4    1  0.2253948E+005  0.4049040E+02  0.7546771E-02  0.1345636E+00
          2   -1    0    0  502    0  0.00000000000E+00  0.00000000000E+00  0.13888278139E+04  0.13888278139E+04  0.00000000000E+00 0. -1.
         21   -1    0    0  503  502 -0.00000000000E+00 -0.00000000000E+00 -0.76675513631E+01  0.76675513631E+01  0.00000000000E+00 0.  1.
          2    1    1    2  501    0  0.35582548208E+02 -0.19322393184E+02  0.13328325598E+04  0.13334474512E+04  0.00000000000E+00 0. -1.
         21    1    1    2  503  501 -0.35582548208E+02  0.19322393184E+02  0.48327702664E+02  0.63047914003E+02  0.00000000000E+00 0.  1.
</event>
<event>
 4    1  0.2253948E+005  0.2288305E+02  0.7546771E-02  0.1493972E+00
          2   -1    0    0  503    0  0.00000000000E+00  0.00000000000E+00  0.21862453253E+02  0.21862453253E+02  0.00000000000E+00 0. -1.
         21   -1    0    0  501  502 -0.00000000000E+00 -0.00000000000E+00 -0.44425106938E+02  0.44425106938E+02  0.00000000000E+00 0.  1.
          2    1    1    2  501    0  0.19722408132E+02 -0.11604341003E+02  0.11218912131E+02  0.25485252639E+02  0.00000000000E+00 0. -1.
         21    1    1    2  503  502 -0.19722408132E+02  0.11604341003E+02 -0.33781565816E+02  0.40802307553E+02  0.00000000000E+00 0.  1.
</event>
<event>
 4    1  0.2253948E+005  0.2972948E+02  0.7546771E-02  0.1421962E+00
          2   -1    0    0  502    0  0.00000000000E+00  0.00000000000E+00  0.87836758188E+03  0.87836758188E+03  0.00000000000E+00 0.  1.
         21   -1    0    0  503  502 -0.00000000000E+00 -0.00000000000E+00 -0.43088387348E+01  0.43088387348E+01  0.00000000000E+00 0. -1.
          2    1    1    2  501    0 -0.29698285345E+02  0.13616299095E+01  0.82341395874E+03  0.82395047766E+03  0.00000000000E+00 0.  1.
         21    1    1    2  503  501  0.29698285345E+02 -0.13616299095E+01  0.50644784405E+02  0.58725942954E+02  0.00000000000E+00 0. -1.
</event>
<event>
 4    1  0.2253948E+005  0.2028428E+02  0.7546771E-02  0.1529733E+00
          2   -1    0    0  503    0  0.00000000000E+00  0.00000000000E+00  0.81659830799E+02  0.81659830799E+02  0.00000000000E+00 0. -1.
         21   -1    0    0  501  502 -0.00000000000E+00 -0.00000000000E+00 -0.47126854284E+02  0.47126854284E+02  0.00000000000E+00 0.  1.
          2    1    1    2  501    0  0.19784161313E+02 -0.44764774408E+01  0.78120211860E+02  0.80710714222E+02  0.00000000000E+00 0. -1.
         21    1    1    2  503  502 -0.19784161313E+02  0.44764774408E+01 -0.43587235345E+02  0.48075970860E+02  0.00000000000E+00 0.  1.
</event>
<event>
 4    1  0.2253948E+005  0.2591501E+02  0.7546771E-02  0.1458822E+00
          2   -1    0    0  502    0  0.00000000000E+00  0.00000000000E+00  0.57229656593E+03  0.57229656593E+03  0.00000000000E+00 0. -1.
         21   -1    0    0  503  502 -0.00000000000E+00 -0.00000000000E+00 -0.28034923000E+01  0.28034923000E+01  0.00000000000E+00 0.  1.
          2    1    1    2  501    0 -0.16266536300E+02  0.20173935665E+02  0.50400532318E+03  0.50467113418E+03  0.00000000000E+00 0. -1.
         21    1    1    2  503  501  0.16266536300E+02 -0.20173935665E+02  0.65487750444E+02  0.70428924041E+02  0.00000000000E+00 0.  1.
</event>
<event>
 4    1  0.2253948E+005  0.2001490E+02  0.7546771E-02  0.1533808E+00
          2   -1    0    0  503    0  0.00000000000E+00  0.00000000000E+00  0.56968741418E+03  0.56968741418E+03  0.00000000000E+00 0.  1.
         21   -1    0    0  501  502 -0.00000000000E+00 -0.00000000000E+00 -0.45716377302E+01  0.45716377302E+01  0.00000000000E+00 0.  1.
          2    1    1    2  501    0 -0.22302243066E+01  0.19890261420E+02  0.54668350400E+03  0.54704976916E+03  0.00000000000E+00 0.  1.
         21    1    1    2  503  502  0.22302243066E+01 -0.19890261420E+02  0.18432272455E+02  0.27209282748E+02  0.00000000000E+00 0.  1.
</event>
<event>
 4    1  0.2253948E+005  0.3736876E+02  0.7546771E-02  0.1364635E+00
          2   -1    0    0  502    0  0.00000000000E+00  0.00000000000E+00  0.57312429373E+03  0.57312429373E+03  0.00000000000E+00 0. -1.
         21   -1    0    0  503  502 -0.00000000000E+00 -0.00000000000E+00 -0.15436694094E+02  0.15436694094E+02  0.00000000000E+00 0.  1.
          2    1    1    2  501    0  0.16995506511E+02  0.33280281876E+02  0.54890303893E+03  0.55017358220E+03  0.00000000000E+00 0. -1.
         21    1    1    2  503  501 -0.16995506511E+02 -0.33280281876E+02  0.87845606982E+01  0.38387405617E+02  0.00000000000E+00 0.  1.
</event>
<event>
 4    1  0.2253948E+005  0.2702788E+02  0.7546771E-02  0.1447328E+00
          2   -1    0    0  502    0  0.00000000000E+00  0.00000000000E+00  0.78323266325E+03  0.78323266325E+03  0.00000000000E+00 0. -1.
         21   -1    0    0  503  502 -0.00000000000E+00 -0.00000000000E+00 -0.19796953576E+01  0.19796953576E+01  0.00000000000E+00 0. -1.
          2    1    1    2  501    0 -0.52888906295E+00  0.27022709058E+02  0.67614493986E+03  0.67668492389E+03  0.00000000000E+00 0. -1.
         21    1    1    2  503  501  0.52888906295E+00 -0.27022709058E+02  0.10510802804E+03  0.10852743472E+03  0.00000000000E+00 0. -1.
</event>
<event>
 4    1  0.2253948E+005  0.2007465E+02  0.7546771E-02  0.1532898E+00
          2   -1    0    0  502    0  0.00000000000E+00  0.00000000000E+00  0.28725563782E+03  0.28725563782E+03  0.00000000000E+00 0.  1.
         21   -1    0    0  503  502 -0.00000000000E+00 -0.00000000000E+00 -0.77558909907E+01  0.77558909907E+01  0.00000000000E+00 0. -1.
          2    1    1    2  501    0 -0.18642913946E+02 -0.74453679672E+01  0.27325015066E+03  0.27398656277E+03  0.00000000000E+00 0.  1.
         21    1    1    2  503  501  0.18642913946E+02  0.74453679672E+01  0.62495961687E+01  0.21024966037E+02  0.00000000000E+00 0. -1.
</event>
<event>
 4    1  0.2253948E+005  0.3719176E+02  0.7546771E-02  0.1365777E+00
          2   -1    0    0  502    0  0.00000000000E+00  0.00000000000E+00  0.87703606961E+03  0.87703606961E+03  0.00000000000E+00 0. -1.
         21   -1    0    0  503  502 -0.00000000000E+00 -0.00000000000E+00 -0.17572398213E+02  0.17572398213E+02  0.00000000000E+00 0.  1.
          2    1    1    2  501    0  0.37175191758E+02  0.11101466291E+01  0.85649097435E+03  0.85729809078E+03  0.00000000000E+00 0. -1.
         21    1    1    2  503  501 -0.37175191758E+02 -0.11101466291E+01  0.29726970518E+01  0.37310377050E+02  0.00000000000E+00 0.  1.
</event>
<event>
 4    1  0.2253948E+005  0.2381104E+02  0.7546771E-02  0.1482557E+00
          2   -1    0    0  503    0  0.00000000000E+00  0.00000000000E+00  0.13394309554E+04  0.13394309554E+04  0.00000000000E+00 0.  1.
         21   -1    0    0  501  502 -0.00000000000E+00 -0.00000000000E+00 -0.94959311239E+00  0.94959311239E+00  0.00000000000E+00 0.  1.
          2    1    1    2  501    0  0.21730631807E+02  0.97337190491E+01  0.11681802578E+04  0.11684229030E+04  0.00000000000E+00 0.  1.
         21    1    1    2  503  502 -0.21730631807E+02 -0.97337190491E+01  0.17030110452E+03  0.17195764550E+03  0.00000000000E+00 0.  1.
</event>
<event>
 4    1  0.2253948E+005  0.2318827E+02  0.7546771E-02  0.1490147E+00
          2   -1    0    0  502    0  0.00000000000E+00  0.00000000000E+00  0.14494545078E+02  0.14494545078E+02  0.00000000000E+00 0. -1.
         21   -1    0    0  503  502 -0.00000000000E+00 -0.00000000000E+00 -0.54247381410E+02  0.54247381410E+02  0.00000000000E+00 0.  1.
          2    1    1    2  501    0  0.15912955015E+02  0.16866350375E+02 -0.55022165392E+00  0.23194798040E+02  0.00000000000E+00 0. -1.
         21    1    1    2  503  501 -0.15912955015E+02 -0.16866350375E+02 -0.39202614678E+02  0.45547128448E+02  0.00000000000E+00 0.  1.
</event>
<event>
 4    1  0.2253948E+005  0.4688489E+02  0.7546771E-02  0.1312274E+00
          2   -1    0    0  502    0  0.00000000000E+00  0.00000000000E+00  0.12944488823E+04  0.12944488823E+04  0.00000000000E+00 0. -1.
         21   -1    0    0  503  502 -0.00000000000E+00 -0.00000000000E+00 -0.22633195215E+01  0.22633195215E+01  0.00000000000E+00 0.  1.
          2    1    1    2  501    0  0.27073706478E+02  0.38278027848E+02  0.97007615493E+03  0.97120849428E+03  0.00000000000E+00 0. -1.
         21    1    1    2  503  501 -0.27073706478E+02 -0.38278027848E+02  0.32210940782E+03  0.32550370751E+03  0.00000000000E+00 0.  1.
</event>
<event>
 4    1  0.2253948E+005  0.5837810E+02  0.7546771E-02  0.1265445E+00
          2   -1    0    0  503    0  0.00000000000E+00  0.00000000000E+00  0.16157338375E+03  0.16157338375E+03  0.00000000000E+00 0. -1.
         21   -1    0    0  501  502 -0.00000000000E+00 -0.00000000000E+00 -0.21100135288E+02  0.21100135288E+02  0.00000000000E+00 0. -1.
          2    1    1    2  501    0  0.13133513470E+02  0.56881570853E+02  0.71963009179E+02  0.92664324143E+02  0.00000000000E+00 0. -1.
         21    1    1    2  503  502 -0.13133513470E+02 -0.56881570853E+02  0.68510239280E+02  0.90009194891E+02  0.00000000000E+00 0. -1.
</event>
<event>
 4    1  0.2253948E+005  0.2207835E+02  0.7546771E-02  0.1504407E+00
          2   -1    0    0  503    0  0.00000000000E+00  0.00000000000E+00  0.18486887205E+03  0.18486887205E+03  0.00000000000E+00 0. -1.
         21   -1    0    0  501  502 -0.00000000000E+00 -0.00000000000E+00 -0.70204555959E+01  0.70204555959E+01  0.00000000000E+00 0.  1.
          2    1    1    2  501    0 -0.21036039446E+02 -0.67036177760E+01  0.16473983799E+03  0.16621271813E+03  0.00000000000E+00 0. -1.
         21    1    1    2  503  502  0.21036039446E+02  0.67036177760E+01  0.13108578461E+02  0.25676609514E+02  0.00000000000E+00 0.  1.
</event>
<event>
 4    1  0.2253948E+005  0.2514890E+02  0.7546771E-02  0.1467144E+00
          2   -1    0    0  503    0  0.00000000000E+00  0.00000000000E+00  0.31687653990E+03  0.31687653990E+03  0.00000000000E+00 0. -1.
         21   -1    0    0  501  502 -0.00000000000E+00 -0.00000000000E+00 -0.49011198565E+01  0.49011198565E+01  0.00000000000E+00 0. -1.
          2    1    1    2  501    0 -0.67320655562E+01 -0.24231103411E+02  0.27985727757E+03  0.28098498695E+03  0.00000000000E+00 0. -1.
         21    1    1    2  503  502  0.67320655562E+01  0.24231103411E+02  0.32118142470E+02  0.40792672809E+02  0.00000000000E+00 0. -1.
</event>
<event>
 4    1  0.2253948E+005  0.3592973E+02  0.7546771E-02  0.1374142E+00
          2   -1    0    0  503    0  0.00000000000E+00  0.00000000000E+00  0.72117234492E+03  0.72117234492E+03  0.00000000000E+00 0.  1.
         21   -1    0    0  501  502 -0.00000000000E+00 -0.00000000000E+00 -0.18870384382E+02  0.18870384382E+02  0.00000000000E+00 0. -1.
          2    1    1    2  501    0  0.35907353908E+02  0.12677829000E+01  0.70318482712E+03  0.70410215625E+03  0.00000000000E+00 0.  1.
         21    1    1    2  503  502 -0.35907353908E+02 -0.12677829000E+01 -0.88286658319E+00  0.35940573056E+02  0.00000000000E+00 0. -1.
</event>
<event>
 4    1  0.2253948E+005  0.2936930E+02  0.7546771E-02  0.1425158E+00
          2   -1    0    0  502    0  0.00000000000E+00  0.00000000000E+00  0.91231614062E+03  0.91231614062E+03  0.00000000000E+00 0.  1.
         21   -1    0    0  503  502 -0.00000000000E+00 -0.00000000000E+00 -0.99349232756E+01  0.99349232756E+01  0.00000000000E+00 0.  1.
          2    1    1    2  501    0  0.11645171253E+02  0.26961926686E+02  0.88982620105E+03  0.89031074552E+03  0.00000000000E+00 0.  1.
         21    1    1    2  503  501 -0.11645171253E+02 -0.26961926686E+02  0.12555016294E+02  0.31940318381E+02  0.00000000000E+00 0.  1.
</event>
<event>
 4    1  0.2253948E+005  0.2084631E+02  0.7546771E-02  0.1521471E+00
          2   -1    0    0  502    0  0.00000000000E+00  0.00000000000E+00  0.76191504037E+02  0.76191504037E+02  0.00000000000E+00 0. -1.
         21   -1    0    0  503  502 -0.00000000000E+00 -0.00000000000E+00 -0.13260263520E+02  0.13260263520E+02  0.00000000000E+00 0. -1.
          2    1    1    2  501    0 -0.14491910122E+01  0.20795878125E+02  0.65229070874E+02  0.68479196758E+02  0.00000000000E+00 0. -1.
         21    1    1    2  503  501  0.14491910122E+01 -0.20795878125E+02 -0.22978303562E+01  0.20972570799E+02  0.00000000000E+00 0. -1.
</event>
<event>
 4    1  0.2253948E+005  0.3069379E+02  0.7546771E-02  0.1413661E+00
          2   -1    0    0  503    0  0.00000000000E+00  0.00000000000E+00  0.20505534739E+04  0.20505534739E+04  0.00000000000E+00 0.  1.
         21   -1    0    0  501  502 -0.00000000000E+00 -0.00000000000E+00 -0.22299655954E+01  0.22299655954E+01  0.00000000000E+00 0. -1.
          2    1    1    2  501    0 -0.23262100192E+02 -0.20024574527E+02  0.19387276605E+04  0.19389706162E+04  0.00000000000E+00 0.  1.
         21    1    1    2  503  502  0.23262100192E+02  0.20024574527E+02  0.10959584773E+03  0.11381282322E+03  0.00000000000E+00 0. -1.
</event>
<event>
 4    1  0.2253948E+005  0.2237239E+02  0.7546771E-02  0.1500533E+00
          2   -1    0    0  502    0  0.00000000000E+00  0.00000000000E+00  0.73848564610E+02  0.73848564610E+02  0.00000000000E+00 0. -1.
         21   -1    0    0  503  502 -0.00000000000E+00 -0.00000000000E+00 -0.12683095756E+02  0.12683095756E+02  0.00000000000E+00 0. -1.
          2    1    1    2  501    0 -0.18053236164E+02  0.13213803251E+02  0.60105473797E+02  0.64134171179E+02  0.00000000000E+00 0. -1.
         21    1    1    2  503  501  0.18053236164E+02 -0.13213803251E+02  0.10599950566E+01  0.22397489187E+02  0.00000000000E+00 0. -1.
</event>
<event>
 4    1  0.2253948E+005  0.2059022E+02  0.7546771E-02  0.1525197E+00
          2   -1    0    0  503    0  0.00000000000E+00  0.00000000000E+00  0.31026672729E+03  0.31026672729E+03  0.00000000000E+00 0. -1.
         21   -1    0    0  501  502 -0.00000000000E+00 -0.00000000000E+00 -0.20237380885E+01  0.20237380885E+01  0.00000000000E+00 0. -1.
          2    1    1    2  501    0 -0.15450607865E+02  0.13610140781E+02  0.24311056067E+03  0.24398094583E+03  0.00000000000E+00 0. -1.
         21    1    1    2  503  502  0.15450607865E+02 -0.13610140781E+02  0.65132428530E+02  0.68309519554E+02  0.00000000000E+00 0. -1.
</event>
<event>
 4    1  0.2253948E+005  0.2374382E+02  0.7546771E-02  0.1483363E+00
          2   -1    0    0  503    0  0.00000000000E+00  0.00000000000E+00  0.59796623929E+03  0.59796623929E+03  0.00000000000E+00 0.  1.
         21   -1    0    0  501  502 -0.00000000000E+00 -0.00000000000E+00 -0.99654151866E+00  0.99654151866E+00  0.00000000000E+00 0.  1.
          2    1    1    2  501    0  0.17030289425E+02  0.16545032888E+02  0.36802482380E+03  0.36878996706E+03  0.00000000000E+00 0.  1.
         21    1    1    2  503  502 -0.17030289425E+02 -0.16545032888E+02  0.22894487397E+03  0.23017281374E+03  0.00000000000E+00 0.  1.
</event>
<event>
 4    1  0.2253948E+005  0.3232801E+02  0.7546771E-02  0.1400389E+00
          2   -1    0    0  502    0  0.00000000000E+00  0.00000000000E+00  0.95269930588E+02  0.95269930588E+02  0.00000000000E+00 0. -1.
         21   -1    0    0  503  502 -0.00000000000E+00 -0.00000000000E+00 -0.12256889661E+02  0.12256889661E+02  0.00000000000E+00 0.  1.
          2    1    1    2  501    0 -0.86065070012E+01  0.31161330531E+02  0.58928046585E+02  0.67213206720E+02  0.00000000000E+00 0. -1.
         21    1    1    2  503  501  0.86065070012E+01 -0.31161330531E+02  0.24084994342E+02  0.40313613528E+02  0.00000000000E+00 0.  1.
</event>
<event>
 4    1  0.2253948E+005  0.4701502E+02  0.7546771E-02  0.1311660E+00
          2   -1    0    0  502    0  0.00000000000E+00  0.00000000000E+00  0.12668914360E+03  0.12668914360E+03  0.00000000000E+00 0. -1.
         21   -1    0    0  503  502 -0.00000000000E+00 -0.00000000000E+00 -0.19978055223E+03  0.19978055223E+03  0.00000000000E+00 0.  1.
          2    1    1    2  501    0 -0.25809404321E+02 -0.39297419223E+02  0.11939839300E+03  0.12832142751E+03  0.00000000000E+00 0. -1.
         21    1    1    2  503  501  0.25809404321E+02  0.39297419223E+02 -0.19248980162E+03  0.19814826831E+03  0.00000000000E+00 0.  1.
</event>
<event>
 4    1  0.2253948E+005  0.2218101E+02  0.7546771E-02  0.1503046E+00
          2   -1    0    0  502    0  0.00000000000E+00  0.00000000000E+00  0.10519115142E+03  0.10519115142E+03  0.00000000000E+00 0.  1.
         21   -1    0    0  503  502 -0.00000000000E+00 -0.00000000000E+00 -0.63636437744E+01  0.63636437744E+01  0.00000000000E+00 0.  1.
          2    1    1    2  501    0  0.20061142974E+02  0.94629730901E+01  0.78127813581E+02  0.81215470029E+02  0.00000000000E+00 0.  1.
         21    1    1    2  503  501 -0.20061142974E+02 -0.94629730901E+01  0.20699694066E+02  0.30339325167E+02  0.00000000000E+00 0.  1.
</event>
<event>
 4    1  0.2253948E+005  0.3099101E+02  0.7546771E-02  0.1411176E+00
          2   -1    0    0  502    0  0.00000000000E+00  0.00000000000E+00  0.21201588171E+02  0.21201588171E+02  0.00000000000E+00 0. -1.
         21   -1    0    0  503  502 -0.00000000000E+00 -0.00000000000E+00 -0.16997484013E+03  0.16997484013E+03  0.00000000000E+00 0.  1.
          2    1    1    2  501    0  0.21010453230E+02  0.22781644121E+02  0.74788090177E+01  0.31880637354E+02  0.00000000000E+00 0. -1.
         21    1    1    2  503  501 -0.21010453230E+02 -0.22781644121E+02 -0.15625206098E+03  0.15929579095E+03  0.00000000000E+00 0.  1.
</event>
<event>
 4    1  0.2253948E+005  0.2221742E+02  0.7546771E-02  0.1502566E+00
          2   -1    0    0  503    0  0.00000000000E+00  0.00000000000E+00  0.53745051885E+03  0.53745051885E+03  0.00000000000E+00 0. -1.
         21   -1    0    0  501  502 -0.00000000000E+00 -0.00000000000E+00 -0.76071810043E+01  0.76071810043E+01  0.00000000000E+00 0.  1.
          2    1    1    2  501    0 -0.21708759203E+02  0.47269048254E+01  0.52046993074E+03  0.52094391508E+03  0.00000000000E+00 0. -1.
         21    1    1    2  503  502  0.21708759203E+02 -0.47269048254E+01  0.93734071065E+01  0.24113784774E+02  0.00000000000E+00 0.  1.
</event>
<event>
 4    1  0.2253948E+005  0.2568569E+02  0.7546771E-02  0.1461277E+00
          2   -1    0    0  503    0  0.00000000000E+00  0.00000000000E+00  0.85840473825E+03  0.85840473825E+03  0.00000000000E+00 0.  1.
         21   -1    0    0  501  502 -0.00000000000E+00 -0.00000000000E+00 -0.10625006189E+01  0.10625006189E+01  0.00000000000E+00 0.  1.
          2    1    1    2  501    0 -0.19191980361E+02  0.17071107623E+02  0.65469167768E+03  0.65519535076E+03  0.00000000000E+00 0.  1.
         21    1    1    2  503  502  0.19191980361E+02 -0.17071107623E+02  0.20265055995E+03  0.20427188811E+03  0.00000000000E+00 0.  1.
</event>
<event>
 4    1  0.2253948E+005  0.3452369E+02  0.7546771E-02  0.1383943E+00
          2   -1    0    0  503    0  0.00000000000E+00  0.00000000000E+00  0.24696407012E+04  0.24696407012E+04  0.00000000000E+00 0. -1.
         21   -1    0    0  501  502 -0.00000000000E+00 -0.00000000000E+00 -0.28667102620E+01  0.28667102620E+01  0.00000000000E+00 0. -1.
          2    1    1    2  501    0  0.32306968527E+02 -0.12171467896E+02  0.23607857163E+04  0.23610381367E+04  0.00000000000E+00 0. -1.
         21    1    1    2  503  502 -0.32306968527E+02  0.12171467896E+02  0.10598827459E+03  0.11146927468E+03  0.00000000000E+00 0. -1.
</event>
<event>
 4    1  0.2253948E+005  0.2857952E+02  0.7546771E-02  0.1432356E+00
          2   -1    0    0  502    0  0.00000000000E+00  0.00000000000E+00  0.88086853441E+03  0.88086853441E+03  0.00000000000E+00 0. -1.
         21   -1    0    0  503  502 -0.00000000000E+00 -0.00000000000E+00 -0.52952402312E+01  0.52952402312E+01  0.00000000000E+00 0. -1.
          2    1    1    2  501    0 -0.26455518401E+02 -0.10811769872E+02  0.84020872229E+03  0.84069464482E+03  0.00000000000E+00 0. -1.
         21    1    1    2  503  501  0.26455518401E+02  0.10811769872E+02  0.35364571892E+02  0.45469129822E+02  0.00000000000E+00 0. -1.
</event>
<event>
 4    1  0.2253948E+005  0.2649704E+02  0.7546771E-02  0.1452727E+00
          2   -1    0    0  502    0  0.00000000000E+00  0.00000000000E+00  0.45676789104E+02  0.45676789104E+02  0.00000000000E+00 0.  1.
         21   -1    0    0  503  502 -0.00000000000E+00 -0.00000000000E+00 -0.14438594694E+03  0.14438594694E+03  0.00000000000E+00 0.  1.
          2    1    1    2  501    0  0.25256294762E+02  0.80132887274E+01  0.40476104933E+02  0.48377766504E+02  0.00000000000E+00 0.  1.
         21    1    1    2  503  501 -0.25256294762E+02 -0.80132887274E+01 -0.13918526277E+03  0.14168496954E+03  0.00000000000E+00 0.  1.
</event>
<event>
 4    1  0.2253948E+005  0.2166589E+02  0.7546771E-02  0.1509966E+00
          2   -1    0    0  503    0  0.00000000000E+00  0.00000000000E+00  0.71254189656E+02  0.71254189656E+02  0.00000000000E+00 0.  1.
         21   -1    0    0  501  502 -0.00000000000E+00 -0.00000000000E+00 -0.66056190103E+01  0.66056190103E+01  0.00000000000E+00 0.  1.
          2    1    1    2  501    0  0.20941614777E+02  0.55551467789E+01  0.34344206663E+02  0.40607085792E+02  0.00000000000E+00 0.  1.
         21    1    1    2  503  502 -0.20941614777E+02 -0.55551467789E+01  0.30304363983E+02  0.37252722875E+02  0.00000000000E+00 0.  1.
</event>
<event>
 4    1  0.2253948E+005  0.2400849E+02  0.7546771E-02  0.1480208E+00
          2   -1    0    0  503    0  0.00000000000E+00  0.00000000000E+00  0.27460599954E+03  0.27460599954E+03  0.00000000000E+00 0. -1.
         21   -1    0    0  501  502 -0.00000000000E+00 -0.00000000000E+00 -0.23733644310E+01  0.23733644310E+01  0.00000000000E+00 0. -1.
          2    1    1    2  501    0 -0.11413447241E+02 -0.21122044572E+02  0.18320012510E+03  0.18476659163E+03  0.00000000000E+00 0. -1.
         21    1    1    2  503  502  0.11413447241E+02  0.21122044572E+02  0.89032510005E+02  0.92212772340E+02  0.00000000000E+00 0. -1.
</event>
<event>
 4    1  0.2253948E+005  0.2590145E+02  0.7546771E-02  0.1458967E+00
          2   -1    0    0  502    0  0.00000000000E+00  0.00000000000E+00  0.17155921694E+03  0.17155921694E+03  0.00000000000E+00 0.  1.
         21   -1    0    0  503  502 -0.00000000000E+00 -0.00000000000E+00 -0.24605397410E+02  0.24605397410E+02  0.00000000000E+00 0. -1.
          2    1    1    2  501    0 -0.25397518243E+02 -0.50844274635E+01  0.16342810440E+03  0.16546791424E+03  0.00000000000E+00 0.  1.
         21    1    1    2  503  501  0.25397518243E+02  0.50844274635E+01 -0.16474284871E+02  0.30696700108E+02  0.00000000000E+00 0. -1.
</event>
<event>
 4    1  0.2253948E+005  0.2348011E+02  0.7546771E-02  0.1486556E+00
          2   -1    0    0  502    0  0.00000000000E+00  0.00000000000E+00  0.22619014725E+03  0.22619014725E+03  0.00000000000E+00 0. -1.
         21   -1    0    0  503  502 -0.00000000000E+00 -0.00000000000E+00 -0.11670482279E+02  0.11670482279E+02  0.00000000000E+00 0. -1.
          2    1    1    2  501    0 -0.23420957688E+02 -0.16656609404E+01  0.21304421080E+03  0.21433420501E+03  0.00000000000E+00 0. -1.
         21    1    1    2  503  501  0.23420957688E+02  0.16656609404E+01  0.14754541739E+01  0.23526424514E+02  0.00000000000E+00 0. -1.
</event>
<event>
 4    1  0.2253948E+005  0.3238388E+02  0.7546771E-02  0.1399951E+00
          2   -1    0    0  502    0  0.00000000000E+00  0.00000000000E+00  0.20326808442E+03  0.20326808442E+03  0.00000000000E+00 0. -1.
         21   -1    0    0  503  502 -0.00000000000E+00 -0.00000000000E+00 -0.99060932783E+02  0.99060932783E+02  0.00000000000E+00 0.  1.
          2    1    1    2  501    0  0.27542381874E+02 -0.17033297013E+02  0.19927898746E+03  0.20189311739E+03  0.00000000000E+00 0. -1.
         21    1    1    2  503  501 -0.27542381874E+02  0.17033297013E+02 -0.95071835818E+02  0.10043589982E+03  0.00000000000E+00 0.  1.
</event>
<event>
 4    1  0.2253948E+005  0.2824921E+02  0.7546771E-02  0.1435448E+00
          2   -1    0    0  502    0  0.00000000000E+00  0.00000000000E+00  0.48436699019E+03  0.48436699019E+03  0.00000000000E+00 0.  1.
         21   -1    0    0  503  502 -0.00000000000E+00 -0.00000000000E+00 -0.12885734044E+03  0.12885734044E+03  0.00000000000E+00 0.  1.
          2    1    1    2  501    0 -0.28088612786E+02 -0.30079120738E+01  0.48240053924E+03  0.48322696320E+03  0.00000000000E+00 0.  1.
         21    1    1    2  503  501  0.28088612786E+02  0.30079120738E+01 -0.12689088949E+03  0.12999736743E+03  0.00000000000E+00 0.  1.
</event>
<event>
 4    1  0.2253948E+005  0.2832343E+02  0.7546771E-02  0.1434749E+00
          2   -1    0    0  503    0  0.00000000000E+00  0.00000000000E+00  0.19153659179E+03  0.19153659179E+03  0.00000000000E+00 0. -1.
         21   -1    0    0  501  502 -0.00000000000E+00 -0.00000000000E+00 -0.78834801615E+01  0.78834801615E+01  0.00000000000E+00 0. -1.
          2    1    1    2  501    0  0.11622480075E+01 -0.28299574066E+02  0.16009129941E+03  0.16257749186E+03  0.00000000000E+00 0. -1.
         21    1    1    2  503  502 -0.11622480075E+01  0.28299574066E+02  0.23561812219E+02  0.36842580092E+02  0.00000000000E+00 0. -1.
</event>
<event>
 4    1  0.2316427E+005  0.2893267E+02  0.7546771E-02  0.1429104E+00
          2   -1    0    0  502    0  0.00000000000E+00  0.00000000000E+00  0.17386675941E+04  0.17386675941E+04  0.00000000000E+00 0. -1.
         21   -1    0    0  503  502 -0.00000000000E+00 -0.00000000000E+00 -0.21150268602E+03  0.21150268602E+03  0.00000000000E+00 0. -1.
          2    1    1    2  501    0  0.20766212964E+02  0.20146054970E+02  0.17375571305E+04  0.17377979977E+04  0.00000000000E+00 0. -1.
         21    1    1    2  503  501 -0.20766212964E+02 -0.20146054970E+02 -0.21039222236E+03  0.21237228246E+03  0.00000000000E+00 0. -1.
</event>
<event>
 4    1  0.2253948E+005  0.2295884E+02  0.7546771E-02  0.1493016E+00
          2   -1    0    0  502    0  0.00000000000E+00  0.00000000000E+00  0.10452814202E+02  0.10452814202E+02  0.00000000000E+00 0. -1.
         21   -1    0    0  503  502 -0.00000000000E+00 -0.00000000000E+00 -0.51390059750E+03  0.51390059750E+03  0.00000000000E+00 0.  1.
          2    1    1    2  501    0 -0.17044058676E+02 -0.15382076584E+02 -0.27425204602E+01  0.23122059482E+02  0.00000000000E+00 0. -1.
         21    1    1    2  503  501  0.17044058676E+02  0.15382076584E+02 -0.50070526284E+03  0.50123135222E+03  0.00000000000E+00 0.  1.
</event>
<event>
 4    1  0.2253948E+005  0.2707004E+02  0.7546771E-02  0.1446906E+00
          2   -1    0    0  503    0  0.00000000000E+00  0.00000000000E+00  0.29994945051E+02  0.29994945051E+02  0.00000000000E+00 0.  1.
         21   -1    0    0  501  502 -0.00000000000E+00 -0.00000000000E+00 -0.13991173770E+03  0.13991173770E+03  0.00000000000E+00 0.  1.
          2    1    1    2  501    0 -0.27048769981E+02  0.10727926129E+01  0.22222425243E+02  0.35023178399E+02  0.00000000000E+00 0.  1.
         21    1    1    2  503  502  0.27048769981E+02 -0.10727926129E+01 -0.13213921790E+03  0.13488350436E+03  0.00000000000E+00 0.  1.
</event>
<event>
 4    1  0.2253948E+005  0.2317590E+02  0.7546771E-02  0.1490301E+00
          2   -1    0    0  503    0  0.00000000000E+00  0.00000000000E+00  0.31131974082E+02  0.31131974082E+02  0.00000000000E+00 0.  1.
         21   -1    0    0  501  502 -0.00000000000E+00 -0.00000000000E+00 -0.15586677949E+03  0.15586677949E+03  0.00000000000E+00 0. -1.
          2    1    1    2  501    0 -0.19605806162E+02  0.12358596131E+02  0.25805473482E+02  0.34684939026E+02  0.00000000000E+00 0.  1.
         21    1    1    2  503  502  0.19605806162E+02 -0.12358596131E+02 -0.15054027889E+03  0.15231381455E+03  0.00000000000E+00 0. -1.
</event>
<event>
 4    1  0.2253948E+005  0.3050839E+02  0.7546771E-02  0.1415229E+00
          2   -1    0    0  502    0  0.00000000000E+00  0.00000000000E+00  0.32508388626E+03  0.32508388626E+03  0.00000000000E+00 0. -1.
         21   -1    0    0  503  502 -0.00000000000E+00 -0.00000000000E+00 -0.62657269365E+02  0.62657269365E+02  0.00000000000E+00 0.  1.
          2    1    1    2  501    0 -0.96073419913E+01 -0.28956189491E+02  0.32060260544E+03  0.32205091607E+03  0.00000000000E+00 0. -1.
         21    1    1    2  503  501  0.96073419913E+01  0.28956189491E+02 -0.58175988540E+02  0.65690239554E+02  0.00000000000E+00 0.  1.
</event>
<event>
 4    1  0.2253948E+005  0.3567485E+02  0.7546771E-02  0.1375880E+00
          2   -1    0    0  502    0  0.00000000000E+00  0.00000000000E+00  0.82751715705E+00  0.82751715705E+00  0.00000000000E+00 0.  1.
         21   -1    0    0  503  502 -0.00000000000E+00 -0.00000000000E+00 -0.30175945022E+04  0.30175945022E+04  0.00000000000E+00 0. -1.
          2    1    1    2  501    0  0.22992792599E+02 -0.27276852488E+02 -0.45157687320E+03  0.45298384916E+03  0.00000000000E+00 0.  1.
         21    1    1    2  503  501 -0.22992792599E+02  0.27276852488E+02 -0.25651901118E+04  0.25654381702E+04  0.00000000000E+00 0. -1.
</event>
<event>
 4    1  0.2253948E+005  0.2429407E+02  0.7546771E-02  0.1476858E+00
          2   -1    0    0  502    0  0.00000000000E+00  0.00000000000E+00  0.19670398815E+03  0.19670398815E+03  0.00000000000E+00 0.  1.
         21   -1    0    0  503  502 -0.00000000000E+00 -0.00000000000E+00 -0.19686222040E+02  0.19686222040E+02  0.00000000000E+00 0.  1.
          2    1    1    2  501    0 -0.23419007203E+02  0.64615838007E+01  0.18811808908E+03  0.18968030315E+03  0.00000000000E+00 0.  1.
         21    1    1    2  503  501  0.23419007203E+02 -0.64615838007E+01 -0.11100322976E+02  0.26709907034E+02  0.00000000000E+00 0.  1.
</event>
<event>
 4    1  0.2253948E+005  0.2646697E+02  0.7546771E-02  0.1453037E+00
          2   -1    0    0  503    0  0.00000000000E+00  0.00000000000E+00  0.12522463464E+03  0.12522463464E+03  0.00000000000E+00 0.  1.
         21   -1    0    0  501  502 -0.00000000000E+00 -0.00000000000E+00 -0.98895975340E+02  0.98895975340E+02  0.00000000000E+00 0.  1.
          2    1    1    2  501    0 -0.18184806267E+02 -0.19230524253E+02  0.12200921561E+03  0.12484690199E+03  0.00000000000E+00 0.  1.
         21    1    1    2  503  502  0.18184806267E+02  0.19230524253E+02 -0.95680556312E+02  0.99273707991E+02  0.00000000000E+00 0.  1.
</event>
<event>
 4    1  0.2253948E+005  0.3095856E+02  0.7546771E-02  0.1411445E+00
          2   -1    0    0  503    0  0.00000000000E+00  0.00000000000E+00  0.26569638432E+03  0.26569638432E+03  0.00000000000E+00 0. -1.
         21   -1    0    0  501  502 -0.00000000000E+00 -0.00000000000E+00 -0.20080357508E+02  0.20080357508E+02  0.00000000000E+00 0.  1.
          2    1    1    2  501    0  0.60329371810E+01  0.30365047388E+02  0.25222729150E+03  0.25412012712E+03  0.00000000000E+00 0. -1.
         21    1    1    2  503  502 -0.60329371810E+01 -0.30365047388E+02 -0.66112646821E+01  0.31656614705E+02  0.00000000000E+00 0.  1.
</event>
<event>
 4    1  0.2253948E+005  0.2034029E+02  0.7546771E-02  0.1528896E+00
          2   -1    0    0  503    0  0.00000000000E+00  0.00000000000E+00  0.81475043457E+01  0.81475043457E+01  0.00000000000E+00 0.  1.
         21   -1    0    0  501  502 -0.00000000000E+00 -0.00000000000E+00 -0.16787514956E+03  0.16787514956E+03  0.00000000000E+00 0. -1.
          2    1    1    2  501    0 -0.19500239312E+02  0.57851732764E+01 -0.63590680533E+01  0.21311154581E+02  0.00000000000E+00 0.  1.
         21    1    1    2  503  502  0.19500239312E+02 -0.57851732764E+01 -0.15336857716E+03  0.15471149933E+03  0.00000000000E+00 0. -1.
</event>
<event>
 4    1  0.2253948E+005  0.2323289E+02  0.7546771E-02  0.1489594E+00
          2   -1    0    0  503    0  0.00000000000E+00  0.00000000000E+00  0.12310101758E+04  0.12310101758E+04  0.00000000000E+00 0. -1.
         21   -1    0    0  501  502 -0.00000000000E+00 -0.00000000000E+00 -0.43376128897E+01  0.43376128897E+01  0.00000000000E+00 0.  1.
          2    1    1    2  501    0  0.23037808702E+02 -0.30044370073E+01  0.11989593073E+04  0.11991843844E+04  0.00000000000E+00 0. -1.
         21    1    1    2  503  502 -0.23037808702E+02  0.30044370073E+01  0.27713255585E+02  0.36163404246E+02  0.00000000000E+00 0.  1.
</event>
<event>
 4    1  0.2253948E+005  0.2817356E+02  0.7546771E-02  0.1436163E+00
          2   -1    0    0  502    0  0.00000000000E+00  0.00000000000E+00  0.11434209788E+02  0.11434209788E+02  0.00000000000E+00 0. -1.
         21   -1    0    0  503  502 -0.00000000000E+00 -0.00000000000E+00 -0.33672474342E+03  0.33672474342E+03  0.00000000000E+00 0. -1.
          2    1    1    2  501    0  0.13879377570E+01 -0.28139349576E+02 -0.75443563391E+01  0.29166190672E+02  0.00000000000E+00 0. -1.
         21    1    1    2  503  501 -0.13879377570E+01  0.28139349576E+02 -0.31774617730E+03  0.31899276254E+03  0.00000000000E+00 0. -1.
</event>
<event>
 4    1  0.2253948E+005  0.2297014E+02  0.7546771E-02  0.1492873E+00
          2   -1    0    0  502    0  0.00000000000E+00  0.00000000000E+00  0.11798393068E+02  0.11798393068E+02  0.00000000000E+00 0.  1.
         21   -1    0    0  503  502 -0.00000000000E+00 -0.00000000000E+00 -0.21309511606E+03  0.21309511606E+03  0.00000000000E+00 0.  1.
          2    1    1    2  501    0 -0.72601739555E+01  0.21792590719E+02 -0.69467795464E+00  0.22980637797E+02  0.00000000000E+00 0.  1.
         21    1    1    2  503  501  0.72601739555E+01 -0.21792590719E+02 -0.20060204503E+03  0.20191287133E+03  0.00000000000E+00 0.  1.
</event>
<event>
 4    1  0.2253948E+005  0.2574444E+02  0.7546771E-02  0.1460645E+00
          2   -1    0    0  502    0  0.00000000000E+00  0.00000000000E+00  0.24143669173E+04  0.24143669173E+04  0.00000000000E+00 0.  1.
         21   -1    0    0  503  502 -0.00000000000E+00 -0.00000000000E+00 -0.29801210374E+00  0.29801210374E+00  0.00000000000E+00 0.  1.
          2    1    1    2  501    0 -0.22638090939E+02 -0.12259397589E+02  0.15460598150E+04  0.15462741437E+04  0.00000000000E+00 0.  1.
         21    1    1    2  503  501  0.22638090939E+02  0.12259397589E+02  0.86800909014E+03  0.86839078563E+03  0.00000000000E+00 0.  1.
</event>
<event>
 4    1  0.2253948E+005  0.2278220E+02  0.7546771E-02  0.1495251E+00
          2   -1    0    0  502    0  0.00000000000E+00  0.00000000000E+00  0.29798596056E+03  0.29798596056E+03  0.00000000000E+00 0.  1.
         21   -1    0    0  503  502 -0.00000000000E+00 -0.00000000000E+00 -0.52386881040E+01  0.52386881040E+01  0.00000000000E+00 0. -1.
          2    1    1    2  501    0  0.67388426485E+01  0.21762732692E+02  0.27024325852E+03  0.27120185713E+03  0.00000000000E+00 0.  1.
         21    1    1    2  503  501 -0.67388426485E+01 -0.21762732692E+02  0.22504013934E+02  0.32022791534E+02  0.00000000000E+00 0. -1.
</event>
<event>
 4    1  0.2253948E+005  0.2174955E+02  0.7546771E-02  0.1508827E+00
          2   -1    0    0  503    0  0.00000000000E+00  0.00000000000E+00  0.13821022577E+04  0.13821022577E+04  0.00000000000E+00 0. -1.
         21   -1    0    0  501  502 -0.00000000000E+00 -0.00000000000E+00 -0.75781359559E+00  0.75781359559E+00  0.00000000000E+00 0. -1.
          2    1    1    2  501    0 -0.13806342405E+02 -0.16805592732E+02  0.12026826228E+04  0.12028792683E+04  0.00000000000E+00 0. -1.
         21    1    1    2  503  502  0.13806342405E+02  0.16805592732E+02  0.17866182131E+03  0.17998080295E+03  0.00000000000E+00 0. -1.
</event>
<event>
 4    1  0.2253948E+005  0.3261806E+02  0.7546771E-02  0.1398129E+00
          2   -1    0    0  502    0  0.00000000000E+00  0.00000000000E+00  0.12612462750E+04  0.12612462750E+04  0.00000000000E+00 0.  1.
         21   -1    0    0  503  502 -0.00000000000E+00 -0.00000000000E+00 -0.89712811081E+00  0.89712811081E+00  0.00000000000E+00 0.  1.
          2    1    1    2  501    0 -0.18595317190E+01  0.32565014341E+02  0.47596864423E+03  0.47708499066E+03  0.00000000000E+00 0.  1.
         21    1    1    2  503  501  0.18595317190E+01 -0.32565014341E+02  0.78438050266E+03  0.78505841245E+03  0.00000000000E+00 0.  1.
</event>
<event>
 4    1  0.2253948E+005  0.2078607E+02  0.7546771E-02  0.1522341E+00
          2   -1    0    0  503    0  0.00000000000E+00  0.00000000000E+00  0.12832050709E+04  0.12832050709E+04  0.00000000000E+00 0. -1.
         21   -1    0    0  501  502 -0.00000000000E+00 -0.00000000000E+00 -0.81962733168E+00  0.81962733168E+00  0.00000000000E+00 0. -1.
          2    1    1    2  501    0  0.16463256598E+02  0.12689441781E+02  0.11339965751E+04  0.11341870627E+04  0.00000000000E+00 0. -1.
         21    1    1    2  503  502 -0.16463256598E+02 -0.12689441781E+02  0.14838886846E+03  0.14983763557E+03  0.00000000000E+00 0. -1.
</event>
<event>
 4    1  0.2253948E+005  0.2339765E+02  0.7546771E-02  0.1487564E+00
          2   -1    0    0  503    0  0.00000000000E+00  0.00000000000E+00  0.35758841155E+03  0.35758841155E+03  0.00000000000E+00 0.  1.
         21   -1    0    0  501  502 -0.00000000000E+00 -0.00000000000E+00 -0.16437882342E+02  0.16437882342E+02  0.00000000000E+00 0.  1.
          2    1    1    2  501    0 -0.22377526978E+02 -0.68334817616E+01  0.34866682382E+03  0.34945100403E+03  0.00000000000E+00 0.  1.
         21    1    1    2  503  502  0.22377526978E+02  0.68334817616E+01 -0.75162946175E+01  0.24575289854E+02  0.00000000000E+00 0.  1.
</event>
<event>
 4    1  0.2253948E+005  0.2967608E+02  0.7546771E-02  0.1422433E+00
          2   -1    0    0  502    0  0.00000000000E+00  0.00000000000E+00  0.63016974228E+03  0.63016974228E+03  0.00000000000E+00 0. -1.
         21   -1    0    0  503  502 -0.00000000000E+00 -0.00000000000E+00 -0.24759657004E+02  0.24759657004E+02  0.00000000000E+00 0. -1.
          2    1    1    2  501    0 -0.24466837171E+02 -0.16794145462E+02  0.62079396208E+03  0.62150286629E+03  0.00000000000E+00 0. -1.
         21    1    1    2  503  501  0.24466837171E+02  0.16794145462E+02 -0.15383876804E+02  0.33426533002E+02  0.00000000000E+00 0. -1.
</event>
<event>
 4    1  0.2253948E+005  0.2385806E+02  0.7546771E-02  0.1481996E+00
          2   -1    0    0  503    0  0.00000000000E+00  0.00000000000E+00  0.12514077711E+04  0.12514077711E+04  0.00000000000E+00 0. -1.
         21   -1    0    0  501  502 -0.00000000000E+00 -0.00000000000E+00 -0.16627745104E+01  0.16627745104E+01  0.00000000000E+00 0.  1.
          2    1    1    2  501    0 -0.23365361089E+02 -0.48235996367E+01  0.11588809289E+04  0.11591264877E+04  0.00000000000E+00 0. -1.
         21    1    1    2  503  502  0.23365361089E+02  0.48235996367E+01  0.90864067718E+02  0.93944057899E+02  0.00000000000E+00 0.  1.
</event>
<event>
 4    1  0.2253948E+005  0.2114527E+02  0.7546771E-02  0.1517201E+00
          2   -1    0    0  503    0  0.00000000000E+00  0.00000000000E+00  0.80491431265E+03  0.80491431265E+03  0.00000000000E+00 0.  1.
         21   -1    0    0  501  502 -0.00000000000E+00 -0.00000000000E+00 -0.14736114496E+01  0.14736114496E+01  0.00000000000E+00 0. -1.
          2    1    1    2  501    0  0.14364199547E+02 -0.15517484991E+02  0.71997325972E+03  0.72028370611E+03  0.00000000000E+00 0.  1.
         21    1    1    2  503  502 -0.14364199547E+02  0.15517484991E+02  0.83467441476E+02  0.86104217990E+02  0.00000000000E+00 0. -1.
</event>
<event>
 4    1  0.2253948E+005  0.2941479E+02  0.7546771E-02  0.1424751E+00
          2   -1    0    0  502    0  0.00000000000E+00  0.00000000000E+00  0.61867232492E+02  0.61867232492E+02  0.00000000000E+00 0. -1.
         21   -1    0    0  503  502 -0.00000000000E+00 -0.00000000000E+00 -0.21937094979E+03  0.21937094979E+03  0.00000000000E+00 0. -1.
          2    1    1    2  501    0  0.72343722156E+01  0.28511293236E+02  0.57311067999E+02  0.64418852043E+02  0.00000000000E+00 0. -1.
         21    1    1    2  503  501 -0.72343722156E+01 -0.28511293236E+02 -0.21481478530E+03  0.21681933024E+03  0.00000000000E+00 0. -1.
</event>
<event>
 4    1  0.2253948E+005  0.3695485E+02  0.7546771E-02  0.1367318E+00
          2   -1    0    0  503    0  0.00000000000E+00  0.00000000000E+00  0.16422085234E+03  0.16422085234E+03  0.00000000000E+00 0.  1.
         21   -1    0    0  501  502 -0.00000000000E+00 -0.00000000000E+00 -0.12680774442E+03  0.12680774442E+03  0.00000000000E+00 0.  1.
          2    1    1    2  501    0 -0.32007234243E+02 -0.18471540804E+02  0.15936856575E+03  0.16359706786E+03  0.00000000000E+00 0.  1.
         21    1    1    2  503  502  0.32007234243E+02  0.18471540804E+02 -0.12195545783E+03  0.12743152890E+03  0.00000000000E+00 0.  1.
</event>
<event>
 4    1  0.2253948E+005  0.2148606E+02  0.7546771E-02  0.1512437E+00
          2   -1    0    0  503    0  0.00000000000E+00  0.00000000000E+00  0.50545118710E+03  0.50545118710E+03  0.00000000000E+00 0. -1.
         21   -1    0    0  501  502 -0.00000000000E+00 -0.00000000000E+00 -0.18314215324E+01  0.18314215324E+01  0.00000000000E+00 0. -1.
          2    1    1    2  501    0  0.86314435452E+01 -0.19676100475E+02  0.43139300927E+03  0.43192774766E+03  0.00000000000E+00 0. -1.
         21    1    1    2  503  502 -0.86314435452E+01  0.19676100475E+02  0.72226756295E+02  0.75354860974E+02  0.00000000000E+00 0. -1.
</event>
<event>
 4    1  0.2253948E+005  0.5125893E+02  0.7546771E-02  0.1292805E+00
          2   -1    0    0  503    0  0.00000000000E+00  0.00000000000E+00  0.13143147057E+04  0.13143147057E+04  0.00000000000E+00 0. -1.
         21   -1    0    0  501  502 -0.00000000000E+00 -0.00000000000E+00 -0.21253642612E+01  0.21253642612E+01  0.00000000000E+00 0.  1.
          2    1    1    2  501    0  0.28531774347E+01 -0.51179462213E+02  0.81651281231E+03  0.81812019328E+03  0.00000000000E+00 0. -1.
         21    1    1    2  503  502 -0.28531774347E+01  0.51179462213E+02  0.49567652912E+03  0.49831987668E+03  0.00000000000E+00 0.  1.
</event>
<event>
 4    1  0.2253948E+005  0.2611713E+02  0.7546771E-02  0.1456684E+00
          2   -1    0    0  503    0  0.00000000000E+00  0.00000000000E+00  0.64970373055E+03  0.64970373055E+03  0.00000000000E+00 0.  1.
         21   -1    0    0  501  502 -0.00000000000E+00 -0.00000000000E+00 -0.18621125014E+01  0.18621125014E+01  0.00000000000E+00 0.  1.
          2    1    1    2  501    0 -0.45614619422E+01  0.25715706145E+02  0.53908411174E+03  0.53971639220E+03  0.00000000000E+00 0.  1.
         21    1    1    2  503  502  0.45614619422E+01 -0.25715706145E+02  0.10875750631E+03  0.11184945085E+03  0.00000000000E+00 0.  1.
</event>
<event>
 4    1  0.2253948E+005  0.4568005E+02  0.7546771E-02  0.1318073E+00
          2   -1    0    0  503    0  0.00000000000E+00  0.00000000000E+00  0.90916595872E+02  0.90916595872E+02  0.00000000000E+00 0.  1.
         21   -1    0    0  501  502 -0.00000000000E+00 -0.00000000000E+00 -0.50563586843E+02  0.50563586843E+02  0.00000000000E+00 0. -1.
          2    1    1    2  501    0 -0.21267110974E+02  0.40427433550E+02  0.72451826297E+02  0.85650070206E+02  0.00000000000E+00 0.  1.
         21    1    1    2  503  502  0.21267110974E+02 -0.40427433550E+02 -0.32098817268E+02  0.55830112508E+02  0.00000000000E+00 0. -1.
</event>
<event>
 4    1  0.2253948E+005  0.3248360E+02  0.7546771E-02  0.1399173E+00
          2   -1    0    0  503    0  0.00000000000E+00  0.00000000000E+00  0.14819906853E+03  0.14819906853E+03  0.00000000000E+00 0.  1.
         21   -1    0    0  501  502 -0.00000000000E+00 -0.00000000000E+00 -0.46252078422E+02  0.46252078422E+02  0.00000000000E+00 0.  1.
          2    1    1    2  501    0 -0.40989905902E+01 -0.32223944855E+02  0.14040305281E+03  0.14411176768E+03  0.00000000000E+00 0.  1.
         21    1    1    2  503  502  0.40989905902E+01  0.32223944855E+02 -0.38456062707E+02  0.50339379265E+02  0.00000000000E+00 0.  1.
</event>
<event>
 4    1  0.2253948E+005  0.3586211E+02  0.7546771E-02  0.1374602E+00
          2   -1    0    0  502    0  0.00000000000E+00  0.00000000000E+00  0.10051078291E+04  0.10051078291E+04  0.00000000000E+00 0.  1.
         21   -1    0    0  503  502 -0.00000000000E+00 -0.00000000000E+00 -0.12867740106E+01  0.12867740106E+01  0.00000000000E+00 0. -1.
          2    1    1    2  501    0 -0.26320416000E+02  0.24358296554E+02  0.46422095804E+03  0.46560411166E+03  0.00000000000E+00 0.  1.
         21    1    1    2  503  501  0.26320416000E+02 -0.24358296554E+02  0.53960009700E+03  0.54079049141E+03  0.00000000000E+00 0. -1.
</event>
<event>
 4    1  0.2253948E+005  0.5935372E+02  0.7546771E-02  0.1262044E+00
          2   -1    0    0  502    0  0.00000000000E+00  0.00000000000E+00  0.47456413726E+02  0.47456413726E+02  0.00000000000E+00 0. -1.
         21   -1    0    0  503  502 -0.00000000000E+00 -0.00000000000E+00 -0.14275919421E+03  0.14275919421E+03  0.00000000000E+00 0. -1.
          2    1    1    2  501    0  0.33355423797E+02 -0.49094595153E+02  0.18241765268E+02  0.62093683818E+02  0.00000000000E+00 0. -1.
         21    1    1    2  503  501 -0.33355423797E+02  0.49094595153E+02 -0.11354454575E+03  0.12812192412E+03  0.00000000000E+00 0. -1.
</event>
<event>
 4    1  0.2253948E+005  0.2042674E+02  0.7546771E-02  0.1527609E+00
          2   -1    0    0  503    0  0.00000000000E+00  0.00000000000E+00  0.16364794330E+04  0.16364794330E+04  0.00000000000E+00 0.  1.
         21   -1    0    0  501  502 -0.00000000000E+00 -0.00000000000E+00 -0.38532547847E+00  0.38532547847E+00  0.00000000000E+00 0. -1.
          2    1    1    2  501    0  0.18571562574E+02 -0.85058076902E+01  0.12940778721E+04  0.12942390779E+04  0.00000000000E+00 0.  1.
         21    1    1    2  503  502 -0.18571562574E+02  0.85058076902E+01  0.34201623540E+03  0.34262568056E+03  0.00000000000E+00 0. -1.
</event>
<event>
 4    1  0.2253948E+005  0.3209185E+02  0.7546771E-02  0.1402249E+00
          2   -1    0    0  503    0  0.00000000000E+00  0.00000000000E+00  0.80711873964E+03  0.80711873964E+03  0.00000000000E+00 0. -1.
         21   -1    0    0  501  502 -0.00000000000E+00 -0.00000000000E+00 -0.25078908311E+01  0.25078908311E+01  0.00000000000E+00 0.  1.
          2    1    1    2  501    0 -0.86607961662E+01 -0.30901090762E+02  0.68602275714E+03  0.68677296839E+03  0.00000000000E+00 0. -1.
         21    1    1    2  503  502  0.86607961662E+01  0.30901090762E+02  0.11858809167E+03  0.12285366208E+03  0.00000000000E+00 0.  1.
</event>
<event>
 4    1  0.2253948E+005  0.3480673E+02  0.7546771E-02  0.1381927E+00
          2   -1    0    0  503    0  0.00000000000E+00  0.00000000000E+00  0.17000200017E+04  0.17000200017E+04  0.00000000000E+00 0. -1.
         21   -1    0    0  501  502 -0.00000000000E+00 -0.00000000000E+00 -0.50912886302E+01  0.50912886302E+01  0.00000000000E+00 0.  1.
          2    1    1    2  501    0 -0.52551357031E+01  0.34407729572E+02  0.16381042918E+04  0.16384740398E+04  0.00000000000E+00 0. -1.
         21    1    1    2  503  502  0.52551357031E+01 -0.34407729572E+02  0.56824421311E+02  0.66637250565E+02  0.00000000000E+00 0.  1.
</event>
<event>
 4    1  0.2253948E+005  0.2324033E+02  0.7546771E-02  0.1489502E+00
          2   -1    0    0  502    0  0.00000000000E+00  0.00000000000E+00  0.12409136911E+04  0.12409136911E+04  0.00000000000E+00 0.  1.
         21   -1    0    0  503  502 -0.00000000000E+00 -0.00000000000E+00 -0.13998018659E+02  0.13998018659E+02  0.00000000000E+00 0. -1.
          2    1    1    2  501    0  0.14219941726E+02 -0.18382224881E+02  0.12310816053E+04  0.12313009509E+04  0.00000000000E+00 0.  1.
         21    1    1    2  503  501 -0.14219941726E+02  0.18382224881E+02 -0.41659328600E+01  0.23610758795E+02  0.00000000000E+00 0. -1.
</event>
<event>
 4    1  0.2253948E+005  0.2154664E+02  0.7546771E-02  0.1511601E+00
          2   -1    0    0  503    0  0.00000000000E+00  0.00000000000E+00  0.18132625029E+03  0.18132625029E+03  0.00000000000E+00 0.  1.
         21   -1    0    0  501  502 -0.00000000000E+00 -0.00000000000E+00 -0.69354569028E+01  0.69354569028E+01  0.00000000000E+00 0.  1.
          2    1    1    2  501    0  0.17994664620E+02  0.11851147146E+02  0.16195880169E+03  0.16338577382E+03  0.00000000000E+00 0.  1.
         21    1    1    2  503  502 -0.17994664620E+02 -0.11851147146E+02  0.12431991701E+02  0.24875933372E+02  0.00000000000E+00 0.  1.
</event>
<event>
 4    1  0.2253948E+005  0.2159852E+02  0.7546771E-02  0.1510888E+00
          2   -1    0    0  502    0  0.00000000000E+00  0.00000000000E+00  0.21633694053E+03  0.21633694053E+03  0.00000000000E+00 0.  1.
         21   -1    0    0  503  502 -0.00000000000E+00 -0.00000000000E+00 -0.56280290197E+01  0.56280290197E+01  0.00000000000E+00 0. -1.
          2    1    1    2  501    0 -0.16283809501E+02 -0.14189215030E+02  0.19252035357E+03  0.19372811571E+03  0.00000000000E+00 0.  1.
         21    1    1    2  503  501  0.16283809501E+02  0.14189215030E+02  0.18188557931E+02  0.28236853838E+02  0.00000000000E+00 0. -1.
</event>
<event>
 4    1  0.2253948E+005  0.2726262E+02  0.7546771E-02  0.1444988E+00
          2   -1    0    0  502    0  0.00000000000E+00  0.00000000000E+00  0.25974955394E+03  0.25974955394E+03  0.00000000000E+00 0. -1.
         21   -1    0    0  503  502 -0.00000000000E+00 -0.00000000000E+00 -0.22918050224E+03  0.22918050224E+03  0.00000000000E+00 0. -1.
          2    1    1    2  501    0 -0.22507250129E+02  0.15384212708E+02  0.25821863801E+03  0.25965383749E+03  0.00000000000E+00 0. -1.
         21    1    1    2  503  501  0.22507250129E+02 -0.15384212708E+02 -0.22764958630E+03  0.22927621868E+03  0.00000000000E+00 0. -1.
</event>
<event>
 4    1  0.2253948E+005  0.2859639E+02  0.7546771E-02  0.1432199E+00
          2   -1    0    0  502    0  0.00000000000E+00  0.00000000000E+00  0.71445418890E+03  0.71445418890E+03  0.00000000000E+00 0. -1.
         21   -1    0    0  503  502 -0.00000000000E+00 -0.00000000000E+00 -0.15085900944E+02  0.15085900944E+02  0.00000000000E+00 0.  1.
          2    1    1    2  501    0  0.28095632349E+02 -0.53281230624E+01  0.70034349734E+03  0.70092707732E+03  0.00000000000E+00 0. -1.
         21    1    1    2  503  501 -0.28095632349E+02  0.53281230624E+01 -0.97520938232E+00  0.28613012526E+02  0.00000000000E+00 0.  1.
</event>
<event>
 4    1  0.2253948E+005  0.2695711E+02  0.7546771E-02  0.1448039E+00
          2   -1    0    0  503    0  0.00000000000E+00  0.00000000000E+00  0.65861369689E+03  0.65861369689E+03  0.00000000000E+00 0. -1.
         21   -1    0    0  501  502 -0.00000000000E+00 -0.00000000000E+00 -0.75629982871E+01  0.75629982871E+01  0.00000000000E+00 0.  1.
          2    1    1    2  501    0 -0.61861069468E+01 -0.26237717426E+02  0.63335939855E+03  0.63393281463E+03  0.00000000000E+00 0. -1.
         21    1    1    2  503  502  0.61861069468E+01  0.26237717426E+02  0.17691300046E+02  0.32243880539E+02  0.00000000000E+00 0.  1.
</event>
<event>
 4    1  0.2253948E+005  0.2245288E+02  0.7546771E-02  0.1499485E+00
          2   -1    0    0  502    0  0.00000000000E+00  0.00000000000E+00  0.75704371172E+03  0.75704371172E+03  0.00000000000E+00 0.  1.
         21   -1    0    0  503  502 -0.00000000000E+00 -0.00000000000E+00 -0.88566589395E+01  0.88566589395E+01  0.00000000000E+00 0.  1.
          2    1    1    2  501    0 -0.17828079934E+02  0.13648855047E+02  0.74236563301E+03  0.74270509945E+03  0.00000000000E+00 0.  1.
         21    1    1    2  503  501  0.17828079934E+02 -0.13648855047E+02  0.58214197704E+01  0.23195271207E+02  0.00000000000E+00 0.  1.
</event>
<event>
 4    1  0.2253948E+005  0.2070700E+02  0.7546771E-02  0.1523490E+00
          2   -1    0    0  502    0  0.00000000000E+00  0.00000000000E+00  0.97074359215E+03  0.97074359215E+03  0.00000000000E+00 0. -1.
         21   -1    0    0  503  502 -0.00000000000E+00 -0.00000000000E+00 -0.25839827752E+01  0.25839827752E+01  0.00000000000E+00 0.  1.
          2    1    1    2  501    0  0.20532783998E+02 -0.26803985219E+01  0.92720085471E+03  0.92743204858E+03  0.00000000000E+00 0. -1.
         21    1    1    2  503  501 -0.20532783998E+02  0.26803985219E+01  0.40958754661E+02  0.45895526343E+02  0.00000000000E+00 0.  1.
</event>
<event>
 4    1  0.2253948E+005  0.3141983E+02  0.7546771E-02  0.1407647E+00
          2   -1    0    0  502    0  0.00000000000E+00  0.00000000000E+00  0.20633002361E+04  0.20633002361E+04  0.00000000000E+00 0. -1.
         21   -1    0    0  503  502 -0.00000000000E+00 -0.00000000000E+00 -0.63146992357E+01  0.63146992357E+01  0.00000000000E+00 0. -1.
          2    1    1    2  501    0  0.19440048295E+02 -0.24683801050E+02  0.20233248502E+04  0.20235687918E+04  0.00000000000E+00 0. -1.
         21    1    1    2  503  501 -0.19440048295E+02  0.24683801050E+02  0.33660686653E+02  0.46046143573E+02  0.00000000000E+00 0. -1.
</event>
<event>
 4    1  0.2253948E+005  0.3023627E+02  0.7546771E-02  0.1417554E+00
          2   -1    0    0  502    0  0.00000000000E+00  0.00000000000E+00  0.14845472779E+03  0.14845472779E+03  0.00000000000E+00 0.  1.
         21   -1    0    0  503  502 -0.00000000000E+00 -0.00000000000E+00 -0.25867082024E+02  0.25867082024E+02  0.00000000000E+00 0. -1.
          2    1    1    2  501    0 -0.27188518302E+02  0.13229377480E+02  0.13737507747E+03  0.14066322855E+03  0.00000000000E+00 0.  1.
         21    1    1    2  503  501  0.27188518302E+02 -0.13229377480E+02 -0.14787431708E+02  0.33658581261E+02  0.00000000000E+00 0. -1.
</event>
<event>
 4    1  0.2253948E+005  0.2208852E+02  0.7546771E-02  0.1504272E+00
          2   -1    0    0  502    0  0.00000000000E+00  0.00000000000E+00  0.19734233884E+02  0.19734233884E+02  0.00000000000E+00 0. -1.
         21   -1    0    0  503  502 -0.00000000000E+00 -0.00000000000E+00 -0.33331001330E+02  0.33331001330E+02  0.00000000000E+00 0.  1.
          2    1    1    2  501    0 -0.20243019506E+02  0.88387115433E+01  0.66847304142E+01  0.23077874278E+02  0.00000000000E+00 0. -1.
         21    1    1    2  503  501  0.20243019506E+02 -0.88387115433E+01 -0.20281497860E+02  0.29987360936E+02  0.00000000000E+00 0.  1.
</event>
<event>
 4    1  0.2253948E+005  0.3413140E+02  0.7546771E-02  0.1386775E+00
          2   -1    0    0  503    0  0.00000000000E+00  0.00000000000E+00  0.11025968041E+04  0.11025968041E+04  0.00000000000E+00 0.  1.
         21   -1    0    0  501  502 -0.00000000000E+00 -0.00000000000E+00 -0.13915702300E+01  0.13915702300E+01  0.00000000000E+00 0.  1.
          2    1    1    2  501    0  0.10545352005E+02  0.32461483984E+02  0.82144414696E+03  0.82215292918E+03  0.00000000000E+00 0.  1.
         21    1    1    2  503  502 -0.10545352005E+02 -0.32461483984E+02  0.27976108688E+03  0.28183544512E+03  0.00000000000E+00 0.  1.
</event>
<event>
 4    1  0.2253948E+005  0.2142818E+02  0.7546771E-02  0.1513239E+00
          2   -1    0    0  502    0  0.00000000000E+00  0.00000000000E+00  0.14756407231E+03  0.14756407231E+03  0.00000000000E+00 0.  1.
         21   -1    0    0  503  502 -0.00000000000E+00 -0.00000000000E+00 -0.59106383170E+03  0.59106383170E+03  0.00000000000E+00 0. -1.
          2    1    1    2  501    0 -0.21324891142E+02 -0.21014136144E+01  0.14659066633E+03  0.14814854159E+03  0.00000000000E+00 0.  1.
         21    1    1    2  503  501  0.21324891142E+02  0.21014136144E+01 -0.59009042572E+03  0.59047936242E+03  0.00000000000E+00 0. -1.
</event>
<event>
 4    1  0.2253948E+005  0.2547525E+02  0.7546771E-02  0.1463556E+00
          2   -1    0    0  503    0  0.00000000000E+00  0.00000000000E+00  0.20641896893E+02  0.20641896893E+02  0.00000000000E+00 0. -1.
         21   -1    0    0  501  502 -0.00000000000E+00 -0.00000000000E+00 -0.16639378580E+03  0.16639378580E+03  0.00000000000E+00 0.  1.
          2    1    1    2  501    0  0.25336072722E+02 -0.26593215211E+01  0.11344569327E+02  0.27887054795E+02  0.00000000000E+00 0. -1.
         21    1    1    2  503  502 -0.25336072722E+02  0.26593215211E+01 -0.15709645824E+03  0.15914862790E+03  0.00000000000E+00 0.  1.
</event>
<event>
 4    1  0.2253948E+005  0.3606296E+02  0.7546771E-02  0.1373240E+00
          2   -1    0    0  502    0  0.00000000000E+00  0.00000000000E+00  0.30149354354E+03  0.30149354354E+03  0.00000000000E+00 0. -1.
         21   -1    0    0  503  502 -0.00000000000E+00 -0.00000000000E+00 -0.65452884804E+03  0.65452884804E+03  0.00000000000E+00 0.  1.
          2    1    1    2  501    0  0.34019012785E+02  0.11968463131E+02  0.29991578181E+03  0.30207617172E+03  0.00000000000E+00 0. -1.
         21    1    1    2  503  501 -0.34019012785E+02 -0.11968463131E+02 -0.65295108631E+03  0.65394621985E+03  0.00000000000E+00 0.  1.
</event>
<event>
 4    1  0.2253948E+005  0.2554327E+02  0.7546771E-02  0.1462817E+00
          2   -1    0    0  502    0  0.00000000000E+00  0.00000000000E+00  0.12206121097E+04  0.12206121097E+04  0.00000000000E+00 0.  1.
         21   -1    0    0  503  502 -0.00000000000E+00 -0.00000000000E+00 -0.14436116472E+02  0.14436116472E+02  0.00000000000E+00 0. -1.
          2    1    1    2  501    0 -0.13447472370E+02  0.21716910241E+02  0.12090715701E+04  0.12093413581E+04  0.00000000000E+00 0.  1.
         21    1    1    2  503  501  0.13447472370E+02 -0.21716910241E+02 -0.28955768523E+01  0.25706868126E+02  0.00000000000E+00 0. -1.
</event>
<event>
 4    1  0.2253948E+005  0.2017533E+02  0.7546771E-02  0.1531372E+00
          2   -1    0    0  502    0  0.00000000000E+00  0.00000000000E+00  0.70559213389E+03  0.70559213389E+03  0.00000000000E+00 0. -1.
         21   -1    0    0  503  502 -0.00000000000E+00 -0.00000000000E+00 -0.14519749725E+03  0.14519749725E+03  0.00000000000E+00 0.  1.
          2    1    1    2  501    0  0.17925795002E+02  0.92579679367E+01  0.70474622651E+03  0.70503495508E+03  0.00000000000E+00 0. -1.
         21    1    1    2  503  501 -0.17925795002E+02 -0.92579679367E+01 -0.14435158987E+03  0.14575467607E+03  0.00000000000E+00 0.  1.
</event>
<event>
 4    1  0.2253948E+005  0.6138226E+02  0.7546771E-02  0.1255207E+00
          2   -1    0    0  503    0  0.00000000000E+00  0.00000000000E+00  0.84037297513E+02  0.84037297513E+02  0.00000000000E+00 0.  1.
         21   -1    0    0  501  502 -0.00000000000E+00 -0.00000000000E+00 -0.44926875532E+02  0.44926875532E+02  0.00000000000E+00 0.  1.
          2    1    1    2  501    0  0.97028273289E+01 -0.60610535223E+02  0.16633487652E+02  0.63596027782E+02  0.00000000000E+00 0.  1.
         21    1    1    2  503  502 -0.97028273289E+01  0.60610535223E+02  0.22476934328E+02  0.65368145262E+02  0.00000000000E+00 0.  1.
</event>
<event>
 4    1  0.2253948E+005  0.2591363E+02  0.7546771E-02  0.1458837E+00
          2   -1    0    0  503    0  0.00000000000E+00  0.00000000000E+00  0.10906007359E+04  0.10906007359E+04  0.00000000000E+00 0. -1.
         21   -1    0    0  501  502 -0.00000000000E+00 -0.00000000000E+00 -0.22013411208E+01  0.22013411208E+01  0.00000000000E+00 0. -1.
          2    1    1    2  501    0 -0.24352041550E+02 -0.88597017307E+01  0.10079306693E+04  0.10082637305E+04  0.00000000000E+00 0. -1.
         21    1    1    2  503  502  0.24352041550E+02  0.88597017307E+01  0.80468725474E+02  0.84538346458E+02  0.00000000000E+00 0. -1.
</event>
<event>
 4    1  0.2253948E+005  0.2030963E+02  0.7546771E-02  0.1529354E+00
          2   -1    0    0  503    0  0.00000000000E+00  0.00000000000E+00  0.10863765948E+03  0.10863765948E+03  0.00000000000E+00 0. -1.
         21   -1    0    0  501  502 -0.00000000000E+00 -0.00000000000E+00 -0.22329435876E+02  0.22329435876E+02  0.00000000000E+00 0. -1.
          2    1    1    2  501    0 -0.20053395917E+02 -0.32159858274E+01  0.10281109622E+03  0.10479791391E+03  0.00000000000E+00 0. -1.
         21    1    1    2  503  502  0.20053395917E+02  0.32159858274E+01 -0.16502872623E+02  0.26169181445E+02  0.00000000000E+00 0. -1.
</event>
<event>
 4    1  0.2253948E+005  0.2247944E+02  0.7546771E-02  0.1499140E+00
          2   -1    0    0  502    0  0.00000000000E+00  0.00000000000E+00  0.74646265781E+02  0.74646265781E+02  0.00000000000E+00 0.  1.
         21   -1    0    0  503  502 -0.00000000000E+00 -0.00000000000E+00 -0.11857929163E+03  0.11857929163E+03  0.00000000000E+00 0. -1.
          2    1    1    2  501    0  0.22478157436E+02  0.23992130521E+00  0.71847967652E+02  0.75282505137E+02  0.00000000000E+00 0.  1.
         21    1    1    2  503  501 -0.22478157436E+02 -0.23992130521E+00 -0.11578099350E+03  0.11794305228E+03  0.00000000000E+00 0. -1.
</event>
<event>
 4    1  0.2253948E+005  0.2866300E+02  0.7546771E-02  0.1431582E+00
          2   -1    0    0  502    0  0.00000000000E+00  0.00000000000E+00  0.15129892484E+04  0.15129892484E+04  0.00000000000E+00 0. -1.
         21   -1    0    0  503  502 -0.00000000000E+00 -0.00000000000E+00 -0.30435351615E+02  0.30435351615E+02  0.00000000000E+00 0. -1.
          2    1    1    2  501    0 -0.14638183143E+02 -0.24643272790E+02  0.15060740507E+04  0.15063467773E+04  0.00000000000E+00 0. -1.
         21    1    1    2  503  501  0.14638183143E+02  0.24643272790E+02 -0.23520153893E+02  0.37077822734E+02  0.00000000000E+00 0. -1.
</event>
<event>
 4    1  0.2253948E+005  0.2181064E+02  0.7546771E-02  0.1507998E+00
          2   -1    0    0  502    0  0.00000000000E+00  0.00000000000E+00  0.57598623791E+02  0.57598623791E+02  0.00000000000E+00 0. -1.
         21   -1    0    0  503  502 -0.00000000000E+00 -0.00000000000E+00 -0.29085557379E+02  0.29085557379E+02  0.00000000000E+00 0.  1.
          2    1    1    2  501    0 -0.20808787083E+02  0.65344110325E+01  0.50932403334E+02  0.55405900920E+02  0.00000000000E+00 0. -1.
         21    1    1    2  503  501  0.20808787083E+02 -0.65344110325E+01 -0.22419336922E+02  0.31278280250E+02  0.00000000000E+00 0.  1.
</event>
<event>
 4    1  0.2253948E+005  0.2411349E+02  0.7546771E-02  0.1478970E+00
          2   -1    0    0  502    0  0.00000000000E+00  0.00000000000E+00  0.80888464340E+02  0.80888464340E+02  0.00000000000E+00 0. -1.
         21   -1    0    0  503  502 -0.00000000000E+00 -0.00000000000E+00 -0.11246821691E+02  0.11246821691E+02  0.00000000000E+00 0.  1.
          2    1    1    2  501    0  0.84456609373E+01  0.22586081915E+02  0.62493970429E+02  0.66984749196E+02  0.00000000000E+00 0. -1.
         21    1    1    2  503  501 -0.84456609373E+01 -0.22586081915E+02  0.71476722196E+01  0.25150536835E+02  0.00000000000E+00 0.  1.
</event>
<event>
 4    1  0.2253948E+005  0.2344054E+02  0.7546771E-02  0.1487039E+00
          2   -1    0    0  503    0  0.00000000000E+00  0.00000000000E+00  0.11195974094E+04  0.11195974094E+04  0.00000000000E+00 0. -1.
         21   -1    0    0  501  502 -0.00000000000E+00 -0.00000000000E+00 -0.19302527660E+01  0.19302527660E+01  0.00000000000E+00 0. -1.
          2    1    1    2  501    0  0.77672333217E+01 -0.22116259320E+02  0.10430917334E+04  0.10433550801E+04  0.00000000000E+00 0. -1.
         21    1    1    2  503  502 -0.77672333217E+01  0.22116259320E+02  0.74575423268E+02  0.78172582120E+02  0.00000000000E+00 0. -1.
</event>
<event>
 4    1  0.2253948E+005  0.2937015E+02  0.7546771E-02  0.1425150E+00
          2   -1    0    0  503    0  0.00000000000E+00  0.00000000000E+00  0.24321096507E+03  0.24321096507E+03  0.00000000000E+00 0.  1.
         21   -1    0    0  501  502 -0.00000000000E+00 -0.00000000000E+00 -0.45184291597E+01  0.45184291597E+01  0.00000000000E+00 0.  1.
          2    1    1    2  501    0 -0.21026216283E+02  0.20506194532E+02  0.17678670501E+03  0.17920977890E+03  0.00000000000E+00 0.  1.
         21    1    1    2  503  502  0.21026216283E+02 -0.20506194532E+02  0.61905830896E+02  0.68519615325E+02  0.00000000000E+00 0.  1.
</event>
<event>
 4    1  0.2253948E+005  0.3366351E+02  0.7546771E-02  0.1390211E+00
          2   -1    0    0  503    0  0.00000000000E+00  0.00000000000E+00  0.59878578879E+03  0.59878578879E+03  0.00000000000E+00 0. -1.
         21   -1    0    0  501  502 -0.00000000000E+00 -0.00000000000E+00 -0.19456629453E+01  0.19456629453E+01  0.00000000000E+00 0. -1.
          2    1    1    2  501    0  0.94505526389E-01  0.33663376273E+02  0.34804708383E+03  0.34967128049E+03  0.00000000000E+00 0. -1.
         21    1    1    2  503  502 -0.94505526389E-01 -0.33663376273E+02  0.24879304200E+03  0.25106017124E+03  0.00000000000E+00 0. -1.
</event>
<event>
 4    1  0.2253948E+005  0.2010406E+02  0.7546771E-02  0.1532451E+00
          2   -1    0    0  502    0  0.00000000000E+00  0.00000000000E+00  0.60408683640E+03  0.60408683640E+03  0.00000000000E+00 0. -1.
         21   -1    0    0  503  502 -0.00000000000E+00 -0.00000000000E+00 -0.83126450193E+01  0.83126450193E+01  0.00000000000E+00 0.  1.
          2    1    1    2  501    0  0.17451976133E+02  0.99800623055E+01  0.59150573443E+03  0.59184728350E+03  0.00000000000E+00 0. -1.
         21    1    1    2  503  501 -0.17451976133E+02 -0.99800623055E+01  0.42684569421E+01  0.20552197918E+02  0.00000000000E+00 0.  1.
</event>
<event>
 4    1  0.2253948E+005  0.3551561E+02  0.7546771E-02  0.1376974E+00
          2   -1    0    0  503    0  0.00000000000E+00  0.00000000000E+00  0.44302115661E+03  0.44302115661E+03  0.00000000000E+00 0. -1.
         21   -1    0    0  501  502 -0.00000000000E+00 -0.00000000000E+00 -0.21082206916E+02  0.21082206916E+02  0.00000000000E+00 0. -1.
          2    1    1    2  501    0 -0.21008788205E+02  0.28635455124E+02  0.42678364477E+03  0.42825884453E+03  0.00000000000E+00 0. -1.
         21    1    1    2  503  502  0.21008788205E+02 -0.28635455124E+02 -0.48446950760E+01  0.35844519000E+02  0.00000000000E+00 0. -1.
</event>
<event>
 4    1  0.2253948E+005  0.2771147E+02  0.7546771E-02  0.1440589E+00
          2   -1    0    0  502    0  0.00000000000E+00  0.00000000000E+00  0.69493537045E+03  0.69493537045E+03  0.00000000000E+00 0.  1.
         21   -1    0    0  503  502 -0.00000000000E+00 -0.00000000000E+00 -0.31901711951E+01  0.31901711951E+01  0.00000000000E+00 0.  1.
          2    1    1    2  501    0 -0.16017496174E+02  0.22613390458E+02  0.62807720354E+03  0.62868823690E+03  0.00000000000E+00 0.  1.
         21    1    1    2  503  501  0.16017496174E+02 -0.22613390458E+02  0.63667995712E+02  0.69437304740E+02  0.00000000000E+00 0.  1.
</event>
<event>
 4    1  0.2253948E+005  0.2086863E+02  0.7546771E-02  0.1521149E+00
          2   -1    0    0  503    0  0.00000000000E+00  0.00000000000E+00  0.11558928463E+03  0.11558928463E+03  0.00000000000E+00 0.  1.
         21   -1    0    0  501  502 -0.00000000000E+00 -0.00000000000E+00 -0.27122557836E+02  0.27122557836E+02  0.00000000000E+00 0.  1.
          2    1    1    2  501    0 -0.73365422271E+01 -0.19536501645E+02  0.11044796830E+03  0.11240219505E+03  0.00000000000E+00 0.  1.
         21    1    1    2  503  502  0.73365422271E+01  0.19536501645E+02 -0.21981241511E+02  0.30309647420E+02  0.00000000000E+00 0.  1.
</event>
<event>
 4    1  0.2253948E+005  0.2442944E+02  0.7546771E-02  0.1475288E+00
          2   -1    0    0  503    0  0.00000000000E+00  0.00000000000E+00  0.93483859352E+02  0.93483859352E+02  0.00000000000E+00 0.  1.
         21   -1    0    0  501  502 -0.00000000000E+00 -0.00000000000E+00 -0.70501908969E+01  0.70501908969E+01  0.00000000000E+00 0.  1.
          2    1    1    2  501    0 -0.24287304462E+02 -0.26314112705E+01  0.58669172538E+02  0.63552099018E+02  0.00000000000E+00 0.  1.
         21    1    1    2  503  502  0.24287304462E+02  0.26314112705E+01  0.27764495917E+02  0.36981951231E+02  0.00000000000E+00 0.  1.
</event>
<event>
 4    1  0.2253948E+005  0.4565932E+02  0.7546771E-02  0.1318175E+00
          2   -1    0    0  503    0  0.00000000000E+00  0.00000000000E+00  0.21873706026E+03  0.21873706026E+03  0.00000000000E+00 0. -1.
         21   -1    0    0  501  502 -0.00000000000E+00 -0.00000000000E+00 -0.99917494027E+01  0.99917494027E+01  0.00000000000E+00 0. -1.
          2    1    1    2  501    0  0.92340950355E+01  0.44715820095E+02  0.12893239208E+03  0.13677841498E+03  0.00000000000E+00 0. -1.
         21    1    1    2  503  502 -0.92340950355E+01 -0.44715820095E+02  0.79812918776E+02  0.91950394678E+02  0.00000000000E+00 0. -1.
</event>
<event>
 4    1  0.2253948E+005  0.2904544E+02  0.7546771E-02  0.1428077E+00
          2   -1    0    0  502    0  0.00000000000E+00  0.00000000000E+00  0.32466658088E+03  0.32466658088E+03  0.00000000000E+00 0.  1.
         21   -1    0    0  503  502 -0.00000000000E+00 -0.00000000000E+00 -0.36520339922E+01  0.36520339922E+01  0.00000000000E+00 0.  1.
          2    1    1    2  501    0 -0.14687826936E+02  0.25058040613E+02  0.24867867554E+03  0.25036917008E+03  0.00000000000E+00 0.  1.
         21    1    1    2  503  501  0.14687826936E+02 -0.25058040613E+02  0.72335871353E+02  0.77949444795E+02  0.00000000000E+00 0.  1.
</event>
<event>
 4    1  0.2253948E+005  0.2569349E+02  0.7546771E-02  0.1461193E+00
          2   -1    0    0  503    0  0.00000000000E+00  0.00000000000E+00  0.67653492316E+03  0.67653492316E+03  0.00000000000E+00 0. -1.
         21   -1    0    0  501  502 -0.00000000000E+00 -0.00000000000E+00 -0.15775946521E+01  0.15775946521E+01  0.00000000000E+00 0. -1.
          2    1    1    2  501    0  0.22075097593E+02  0.13147076756E+02  0.12806642329E+03  0.13061839203E+03  0.00000000000E+00 0. -1.
         21    1    1    2  503  502 -0.22075097593E+02 -0.13147076756E+02  0.54689090521E+03  0.54749412578E+03  0.00000000000E+00 0. -1.
</event>
<event>
 4    1  0.2253948E+005  0.2072342E+02  0.7546771E-02  0.1523251E+00
          2   -1    0    0  503    0  0.00000000000E+00  0.00000000000E+00  0.14331881727E+03  0.14331881727E+03  0.00000000000E+00 0.  1.
         21   -1    0    0  501  502 -0.00000000000E+00 -0.00000000000E+00 -0.17939052533E+03  0.17939052533E+03  0.00000000000E+00 0. -1.
          2    1    1    2  501    0  0.12606341593E+02  0.16448108641E+02  0.14196550893E+03  0.14347008696E+03  0.00000000000E+00 0.  1.
         21    1    1    2  503  502 -0.12606341593E+02 -0.16448108641E+02 -0.17803721699E+03  0.17923925563E+03  0.00000000000E+00 0. -1.
</event>
<event>
 4    1  0.2253948E+005  0.2132235E+02  0.7546771E-02  0.1514712E+00
          2   -1    0    0  503    0  0.00000000000E+00  0.00000000000E+00  0.75840382059E+03  0.75840382059E+03  0.00000000000E+00 0.  1.
         21   -1    0    0  501  502 -0.00000000000E+00 -0.00000000000E+00 -0.33425999620E+01  0.33425999620E+01  0.00000000000E+00 0.  1.
          2    1    1    2  501    0 -0.12287462747E+02  0.17425869671E+02  0.72256403796E+03  0.72287857322E+03  0.00000000000E+00 0.  1.
         21    1    1    2  503  502  0.12287462747E+02 -0.17425869671E+02  0.32497182673E+02  0.38867847332E+02  0.00000000000E+00 0.  1.
</event>
<event>
 4    1  0.2253948E+005  0.2267763E+02  0.7546771E-02  0.1496586E+00
          2   -1    0    0  502    0  0.00000000000E+00  0.00000000000E+00  0.18625791894E+04  0.18625791894E+04  0.00000000000E+00 0. -1.
         21   -1    0    0  503  502 -0.00000000000E+00 -0.00000000000E+00 -0.44272668895E+00  0.44272668895E+00  0.00000000000E+00 0. -1.
          2    1    1    2  501    0 -0.20331111077E+02  0.10045946306E+02  0.15025212137E+04  0.15026923413E+04  0.00000000000E+00 0. -1.
         21    1    1    2  503  501  0.20331111077E+02 -0.10045946306E+02  0.35961524906E+03  0.36032957480E+03  0.00000000000E+00 0. -1.
</event>
<event>
 4    1  0.2253948E+005  0.2059242E+02  0.7546771E-02  0.1525164E+00
          2   -1    0    0  503    0  0.00000000000E+00  0.00000000000E+00  0.25449864028E+03  0.25449864028E+03  0.00000000000E+00 0. -1.
         21   -1    0    0  501  502 -0.00000000000E+00 -0.00000000000E+00 -0.70404276527E+02  0.70404276527E+02  0.00000000000E+00 0.  1.
          2    1    1    2  501    0  0.10666664697E+02 -0.17614485530E+02  0.25256481778E+03  0.25340291044E+03  0.00000000000E+00 0. -1.
         21    1    1    2  503  502 -0.10666664697E+02  0.17614485530E+02 -0.68470454028E+02  0.71500006371E+02  0.00000000000E+00 0.  1.
</event>
<event>
 4    1  0.2253948E+005  0.2190333E+02  0.7546771E-02  0.1506748E+00
          2   -1    0    0  503    0  0.00000000000E+00  0.00000000000E+00  0.95936668384E+02  0.95936668384E+02  0.00000000000E+00 0. -1.
         21   -1    0    0  501  502 -0.00000000000E+00 -0.00000000000E+00 -0.54252629050E+01  0.54252629050E+01  0.00000000000E+00 0. -1.
          2    1    1    2  501    0 -0.13507361710E+02 -0.17242592452E+02  0.59432468400E+02  0.63340146155E+02  0.00000000000E+00 0. -1.
         21    1    1    2  503  502  0.13507361710E+02  0.17242592452E+02  0.31078937080E+02  0.38021785135E+02  0.00000000000E+00 0. -1.
</event>
<event>
 4    1  0.2253948E+005  0.2057602E+02  0.7546771E-02  0.1525405E+00
          2   -1    0    0  503    0  0.00000000000E+00  0.00000000000E+00  0.97230473795E+03  0.97230473795E+03  0.00000000000E+00 0. -1.
         21   -1    0    0  501  502 -0.00000000000E+00 -0.00000000000E+00 -0.43948109186E+00  0.43948109186E+00  0.00000000000E+00 0. -1.
          2    1    1    2  501    0 -0.11430762040E+02  0.17108779498E+02  0.43924798268E+03  0.43972964756E+03  0.00000000000E+00 0. -1.
         21    1    1    2  503  502  0.11430762040E+02 -0.17108779498E+02  0.53261727418E+03  0.53301457148E+03  0.00000000000E+00 0. -1.
</event>
<event>
 4    1  0.2253948E+005  0.3279554E+02  0.7546771E-02  0.1396761E+00
          2   -1    0    0  502    0  0.00000000000E+00  0.00000000000E+00  0.17133439602E+04  0.17133439602E+04  0.00000000000E+00 0. -1.
         21   -1    0    0  503  502 -0.00000000000E+00 -0.00000000000E+00 -0.47664934827E+01  0.47664934827E+01  0.00000000000E+00 0. -1.
          2    1    1    2  501    0 -0.26111972700E+02 -0.19842185335E+02  0.16547788375E+04  0.16551037878E+04  0.00000000000E+00 0. -1.
         21    1    1    2  503  501  0.26111972700E+02  0.19842185335E+02  0.53798629238E+02  0.63006665878E+02  0.00000000000E+00 0. -1.
</event>
<event>
 4    1  0.2253948E+005  0.2380124E+02  0.7546771E-02  0.1482675E+00
          2   -1    0    0  502    0  0.00000000000E+00  0.00000000000E+00  0.45229956470E+03  0.45229956470E+03  0.00000000000E+00 0. -1.
         21   -1    0    0  503  502 -0.00000000000E+00 -0.00000000000E+00 -0.42060392487E+02  0.42060392487E+02  0.00000000000E+00 0.  1.
          2    1    1    2  501    0 -0.22976311398E+02 -0.62119500823E+01  0.44859145168E+03  0.44922242790E+03  0.00000000000E+00 0. -1.
         21    1    1    2  503  501  0.22976311398E+02  0.62119500823E+01 -0.38352279469E+02  0.45137529283E+02  0.00000000000E+00 0.  1.
</event>
<event>
 4    1  0.2253948E+005  0.2302847E+02  0.7546771E-02  0.1492141E+00
          2   -1    0    0  503    0  0.00000000000E+00  0.00000000000E+00  0.38525745134E+01  0.38525745134E+01  0.00000000000E+00 0.  1.
         21   -1    0    0  501  502 -0.00000000000E+00 -0.00000000000E+00 -0.32237348306E+03  0.32237348306E+03  0.00000000000E+00 0. -1.
          2    1    1    2  501    0  0.19848833070E+02  0.11676224740E+02 -0.35788313613E+02  0.42557182586E+02  0.00000000000E+00 0.  1.
         21    1    1    2  503  502 -0.19848833070E+02 -0.11676224740E+02 -0.28273259494E+03  0.28366887499E+03  0.00000000000E+00 0. -1.
</event>
<event>
 4    1  0.2253948E+005  0.2054420E+02  0.7546771E-02  0.1525873E+00
          2   -1    0    0  503    0  0.00000000000E+00  0.00000000000E+00  0.24620083119E+03  0.24620083119E+03  0.00000000000E+00 0.  1.
         21   -1    0    0  501  502 -0.00000000000E+00 -0.00000000000E+00 -0.17905885948E+01  0.17905885948E+01  0.00000000000E+00 0.  1.
          2    1    1    2  501    0 -0.37865947642E+01 -0.20192226692E+02  0.96612620063E+02  0.98772783064E+02  0.00000000000E+00 0.  1.
         21    1    1    2  503  502  0.37865947642E+01  0.20192226692E+02  0.14779762253E+03  0.14921863672E+03  0.00000000000E+00 0.  1.
</event>
<event>
 4    1  0.2253948E+005  0.2041741E+02  0.7546771E-02  0.1527748E+00
          2   -1    0    0  503    0  0.00000000000E+00  0.00000000000E+00  0.12971717222E+04  0.12971717222E+04  0.00000000000E+00 0.  1.
         21   -1    0    0  501  502 -0.00000000000E+00 -0.00000000000E+00 -0.18120186415E+01  0.18120186415E+01  0.00000000000E+00 0.  1.
          2    1    1    2  501    0  0.13103106395E+02 -0.15658205324E+02  0.12367678537E+04  0.12369363746E+04  0.00000000000E+00 0.  1.
         21    1    1    2  503  502 -0.13103106395E+02  0.15658205324E+02  0.58591849843E+02  0.62047366255E+02  0.00000000000E+00 0.  1.
</event>
<event>
 4    1  0.2253948E+005  0.4441257E+02  0.7546771E-02  0.1324403E+00
          2   -1    0    0  503    0  0.00000000000E+00  0.00000000000E+00  0.11088144412E+03  0.11088144412E+03  0.00000000000E+00 0.  1.
         21   -1    0    0  501  502 -0.00000000000E+00 -0.00000000000E+00 -0.33217059125E+02  0.33217059125E+02  0.00000000000E+00 0.  1.
          2    1    1    2  501    0 -0.31206431709E+02  0.31601189274E+02  0.87934703569E+02  0.98513900721E+02  0.00000000000E+00 0.  1.
         21    1    1    2  503  502  0.31206431709E+02 -0.31601189274E+02 -0.10270318576E+02  0.45584602523E+02  0.00000000000E+00 0.  1.
</event>
<event>
 4    1  0.2253948E+005  0.6202695E+02  0.7546771E-02  0.1253097E+00
          2   -1    0    0  503    0  0.00000000000E+00  0.00000000000E+00  0.17383000705E+03  0.17383000705E+03  0.00000000000E+00 0.  1.
         21   -1    0    0  501  502 -0.00000000000E+00 -0.00000000000E+00 -0.53427496627E+02  0.53427496627E+02  0.00000000000E+00 0. -1.
          2    1    1    2  501    0 -0.82714091028E+01 -0.61472970082E+02  0.14716561355E+03  0.15970303714E+03  0.00000000000E+00 0.  1.
         21    1    1    2  503  502  0.82714091028E+01  0.61472970082E+02 -0.26763103133E+02  0.67554466533E+02  0.00000000000E+00 0. -1.
</event>
<event>
 4    1  0.2253948E+005  0.4226740E+02  0.7546771E-02  0.1335688E+00
          2   -1    0    0  503    0  0.00000000000E+00  0.00000000000E+00  0.23484535972E+01  0.23484535972E+01  0.00000000000E+00 0.  1.
         21   -1    0    0  501  502 -0.00000000000E+00 -0.00000000000E+00 -0.81459032243E+03  0.81459032243E+03  0.00000000000E+00 0.  1.
          2    1    1    2  501    0 -0.31744173163E+02  0.27907715534E+02 -0.30108578756E+03  0.30403813015E+03  0.00000000000E+00 0.  1.
         21    1    1    2  503  502  0.31744173163E+02 -0.27907715534E+02 -0.51115608128E+03  0.51290064588E+03  0.00000000000E+00 0.  1.
</event>
<event>
 4    1  0.2253948E+005  0.2097592E+02  0.7546771E-02  0.1519609E+00
          2   -1    0    0  503    0  0.00000000000E+00  0.00000000000E+00  0.93391094014E+03  0.93391094014E+03  0.00000000000E+00 0. -1.
         21   -1    0    0  501  502 -0.00000000000E+00 -0.00000000000E+00 -0.61553094571E+00  0.61553094571E+00  0.00000000000E+00 0.  1.
          2    1    1    2  501    0  0.20726564985E+02 -0.32247194844E+01  0.69297053508E+03  0.69328792850E+03  0.00000000000E+00 0. -1.
         21    1    1    2  503  502 -0.20726564985E+02  0.32247194844E+01  0.24032487411E+03  0.24123854259E+03  0.00000000000E+00 0.  1.
</event>
<event>
 4    1  0.2253948E+005  0.4921102E+02  0.7546771E-02  0.1301630E+00
          2   -1    0    0  503    0  0.00000000000E+00  0.00000000000E+00  0.10280189881E+03  0.10280189881E+03  0.00000000000E+00 0. -1.
         21   -1    0    0  501  502 -0.00000000000E+00 -0.00000000000E+00 -0.29224747720E+02  0.29224747720E+02  0.00000000000E+00 0.  1.
          2    1    1    2  501    0 -0.47020521039E+02  0.14518767884E+02  0.65859184464E+02  0.82214087588E+02  0.00000000000E+00 0. -1.
         21    1    1    2  503  502  0.47020521039E+02 -0.14518767884E+02  0.77179666256E+01  0.49812558943E+02  0.00000000000E+00 0.  1.
</event>
<event>
 4    1  0.2253948E+005  0.3777897E+02  0.7546771E-02  0.1362017E+00
          2   -1    0    0  503    0  0.00000000000E+00  0.00000000000E+00  0.14183677425E+02  0.14183677425E+02  0.00000000000E+00 0.  1.
         21   -1    0    0  501  502 -0.00000000000E+00 -0.00000000000E+00 -0.10482566590E+03  0.10482566590E+03  0.00000000000E+00 0.  1.
          2    1    1    2  501    0 -0.22004542651E+02 -0.30709130516E+02 -0.33411028507E+02  0.50433594163E+02  0.00000000000E+00 0.  1.
         21    1    1    2  503  502  0.22004542651E+02  0.30709130516E+02 -0.57230959971E+02  0.68575749165E+02  0.00000000000E+00 0.  1.
</event>
<event>
 4    1  0.2253948E+005  0.8139115E+02  0.7546771E-02  0.1200654E+00
          2   -1    0    0  503    0  0.00000000000E+00  0.00000000000E+00  0.88044646014E+02  0.88044646014E+02  0.00000000000E+00 0.  1.
         21   -1    0    0  501  502 -0.00000000000E+00 -0.00000000000E+00 -0.99756142979E+02  0.99756142979E+02  0.00000000000E+00 0. -1.
          2    1    1    2  501    0  0.49533611324E+02  0.64582826212E+02  0.40694236783E+02  0.90997477985E+02  0.00000000000E+00 0.  1.
         21    1    1    2  503  502 -0.49533611324E+02 -0.64582826212E+02 -0.52405733748E+02  0.96803311007E+02  0.00000000000E+00 0. -1.
</event>
<event>
 4    1  0.2253948E+005  0.2572337E+02  0.7546771E-02  0.1460871E+00
          2   -1    0    0  502    0  0.00000000000E+00  0.00000000000E+00  0.58219758916E+03  0.58219758916E+03  0.00000000000E+00 0. -1.
         21   -1    0    0  503  502 -0.00000000000E+00 -0.00000000000E+00 -0.17116499702E+01  0.17116499702E+01  0.00000000000E+00 0. -1.
          2    1    1    2  501    0  0.19952440161E+02  0.16235514624E+02  0.45947505325E+03  0.46019454187E+03  0.00000000000E+00 0. -1.
         21    1    1    2  503  501 -0.19952440161E+02 -0.16235514624E+02  0.12101088594E+03  0.12371469727E+03  0.00000000000E+00 0. -1.
</event>
<event>
 4    1  0.2253948E+005  0.2630791E+02  0.7546771E-02  0.1454687E+00
          2   -1    0    0  502    0  0.00000000000E+00  0.00000000000E+00  0.88411480893E+03  0.88411480893E+03  0.00000000000E+00 0.  1.
         21   -1    0    0  503  502 -0.00000000000E+00 -0.00000000000E+00 -0.38059517676E+01  0.38059517676E+01  0.00000000000E+00 0. -1.
          2    1    1    2  501    0 -0.13698705953E+02  0.22460004553E+02  0.83583144215E+03  0.83624536234E+03  0.00000000000E+00 0.  1.
         21    1    1    2  503  501  0.13698705953E+02 -0.22460004553E+02  0.44477415021E+02  0.51675398366E+02  0.00000000000E+00 0. -1.
</event>
<event>
 4    1  0.2253948E+005  0.2392971E+02  0.7546771E-02  0.1481142E+00
          2   -1    0    0  503    0  0.00000000000E+00  0.00000000000E+00  0.16693763783E+04  0.16693763783E+04  0.00000000000E+00 0.  1.
         21   -1    0    0  501  502 -0.00000000000E+00 -0.00000000000E+00 -0.49248007133E+00  0.49248007133E+00  0.00000000000E+00 0.  1.
          2    1    1    2  501    0 -0.14477666326E+01  0.23885872547E+02  0.12944012125E+04  0.12946223889E+04  0.00000000000E+00 0.  1.
         21    1    1    2  503  502  0.14477666326E+01 -0.23885872547E+02  0.37448268573E+03  0.37524646947E+03  0.00000000000E+00 0.  1.
</event>
<event>
 4    1  0.2253948E+005  0.2767010E+02  0.7546771E-02  0.1440991E+00
          2   -1    0    0  503    0  0.00000000000E+00  0.00000000000E+00  0.21266362929E+02  0.21266362929E+02  0.00000000000E+00 0.  1.
         21   -1    0    0  501  502 -0.00000000000E+00 -0.00000000000E+00 -0.61508789199E+02  0.61508789199E+02  0.00000000000E+00 0. -1.
          2    1    1    2  501    0 -0.22034599551E+01  0.27582226529E+02  0.65306856520E+01  0.28430341383E+02  0.00000000000E+00 0.  1.
         21    1    1    2  503  502  0.22034599551E+01 -0.27582226529E+02 -0.46773111922E+02  0.54344810745E+02  0.00000000000E+00 0. -1.
</event>
<event>
 4    1  0.2253948E+005  0.2198080E+02  0.7546771E-02  0.1505709E+00
          2   -1    0    0  503    0  0.00000000000E+00  0.00000000000E+00  0.20038606538E+02  0.20038606538E+02  0.00000000000E+00 0. -1.
         21   -1    0    0  501  502 -0.00000000000E+00 -0.00000000000E+00 -0.34027149472E+02  0.34027149472E+02  0.00000000000E+00 0. -1.
          2    1    1    2  501    0 -0.13129348013E+02 -0.17628839382E+02  0.75987647803E+01  0.23257192079E+02  0.00000000000E+00 0. -1.
         21    1    1    2  503  502  0.13129348013E+02  0.17628839382E+02 -0.21587307714E+02  0.30808563931E+02  0.00000000000E+00 0. -1.
</event>
<event>
 4    1  0.2253948E+005  0.2541234E+02  0.7546771E-02  0.1464243E+00
          2   -1    0    0  503    0  0.00000000000E+00  0.00000000000E+00  0.56694226952E+01  0.56694226952E+01  0.00000000000E+00 0.  1.
         21   -1    0    0  501  502 -0.00000000000E+00 -0.00000000000E+00 -0.11955290572E+03  0.11955290572E+03  0.00000000000E+00 0.  1.
          2    1    1    2  501    0 -0.67775697414E+01 -0.24491869448E+02 -0.43335529468E+02  0.50236990703E+02  0.00000000000E+00 0.  1.
         21    1    1    2  503  502  0.67775697414E+01  0.24491869448E+02 -0.70547953556E+02  0.74985337711E+02  0.00000000000E+00 0.  1.
</event>
<event>
 4    1  0.2253948E+005  0.4576291E+02  0.7546771E-02  0.1317668E+00
          2   -1    0    0  502    0  0.00000000000E+00  0.00000000000E+00  0.11185012159E+02  0.11185012159E+02  0.00000000000E+00 0.  1.
         21   -1    0    0  503  502 -0.00000000000E+00 -0.00000000000E+00 -0.11191289768E+04  0.11191289768E+04  0.00000000000E+00 0. -1.
          2    1    1    2  501    0  0.13574564982E+02  0.43703258688E+02 -0.38254425797E+02  0.59645995067E+02  0.00000000000E+00 0.  1.
         21    1    1    2  503  501 -0.13574564982E+02 -0.43703258688E+02 -0.10696895388E+04  0.10706679939E+04  0.00000000000E+00 0. -1.
</event>
<event>
 4    1  0.2253948E+005  0.2071489E+02  0.7546771E-02  0.1523375E+00
          2   -1    0    0  503    0  0.00000000000E+00  0.00000000000E+00  0.57895697398E+03  0.57895697398E+03  0.00000000000E+00 0. -1.
         21   -1    0    0  501  502 -0.00000000000E+00 -0.00000000000E+00 -0.34171394561E+02  0.34171394561E+02  0.00000000000E+00 0. -1.
          2    1    1    2  501    0 -0.99453025897E+01  0.18171340042E+02  0.57561408467E+03  0.57598670220E+03  0.00000000000E+00 0. -1.
         21    1    1    2  503  502  0.99453025897E+01 -0.18171340042E+02 -0.30828505251E+02  0.37141666340E+02  0.00000000000E+00 0. -1.
</event>
<event>
 4    1  0.2253948E+005  0.3070912E+02  0.7546771E-02  0.1413532E+00
          2   -1    0    0  502    0  0.00000000000E+00  0.00000000000E+00  0.36235754421E+03  0.36235754421E+03  0.00000000000E+00 0.  1.
         21   -1    0    0  503  502 -0.00000000000E+00 -0.00000000000E+00 -0.89517804788E+01  0.89517804788E+01  0.00000000000E+00 0. -1.
          2    1    1    2  501    0  0.14122704110E+02 -0.27269015833E+02  0.33305797666E+03  0.33447072490E+03  0.00000000000E+00 0.  1.
         21    1    1    2  503  501 -0.14122704110E+02  0.27269015833E+02  0.20347787068E+02  0.36838599789E+02  0.00000000000E+00 0. -1.
</event>
<event>
 4    1  0.2253948E+005  0.2132364E+02  0.7546771E-02  0.1514694E+00
          2   -1    0    0  503    0  0.00000000000E+00  0.00000000000E+00  0.16255921005E+03  0.16255921005E+03  0.00000000000E+00 0.  1.
         21   -1    0    0  501  502 -0.00000000000E+00 -0.00000000000E+00 -0.11887410814E+02  0.11887410814E+02  0.00000000000E+00 0.  1.
          2    1    1    2  501    0  0.17782000807E+02 -0.11768511768E+02  0.15161013228E+03  0.15310235018E+03  0.00000000000E+00 0.  1.
         21    1    1    2  503  502 -0.17782000807E+02  0.11768511768E+02 -0.93833304527E+00  0.21344270679E+02  0.00000000000E+00 0.  1.
</event>
<event>
 4    1  0.2253948E+005  0.6806122E+02  0.7546771E-02  0.1234657E+00
          2   -1    0    0  502    0  0.00000000000E+00  0.00000000000E+00  0.31946898549E+03  0.31946898549E+03  0.00000000000E+00 0. -1.
         21   -1    0    0  503  502 -0.00000000000E+00 -0.00000000000E+00 -0.91507574744E+02  0.91507574744E+02  0.00000000000E+00 0. -1.
          2    1    1    2  501    0  0.66777429874E+02  0.13156900706E+02  0.30248662926E+03  0.31004917361E+03  0.00000000000E+00 0. -1.
         21    1    1    2  503  501 -0.66777429874E+02 -0.13156900706E+02 -0.74525218511E+02  0.10092738662E+03  0.00000000000E+00 0. -1.
</event>
<event>
 4    1  0.2253948E+005  0.2263507E+02  0.7546771E-02  0.1497132E+00
          2   -1    0    0  502    0  0.00000000000E+00  0.00000000000E+00  0.71500783192E+03  0.71500783192E+03  0.00000000000E+00 0.  1.
         21   -1    0    0  503  502 -0.00000000000E+00 -0.00000000000E+00 -0.24028124791E+01  0.24028124791E+01  0.00000000000E+00 0. -1.
          2    1    1    2  501    0 -0.89427542774E+01  0.20793597417E+02  0.65679877946E+03  0.65718869683E+03  0.00000000000E+00 0.  1.
         21    1    1    2  503  501  0.89427542774E+01 -0.20793597417E+02  0.55806239980E+02  0.60221947564E+02  0.00000000000E+00 0. -1.
</event>
<event>
 4    1  0.2253948E+005  0.4194459E+02  0.7546771E-02  0.1337452E+00
          2   -1    0    0  502    0  0.00000000000E+00  0.00000000000E+00  0.12244315544E+04  0.12244315544E+04  0.00000000000E+00 0.  1.
         21   -1    0    0  503  502 -0.00000000000E+00 -0.00000000000E+00 -0.13313431180E+02  0.13313431180E+02  0.00000000000E+00 0.  1.
          2    1    1    2  501    0  0.97968412418E+00 -0.41933146471E+02  0.11900819779E+04  0.11908209197E+04  0.00000000000E+00 0.  1.
         21    1    1    2  503  501 -0.97968412418E+00  0.41933146471E+02  0.21036145329E+02  0.46924065939E+02  0.00000000000E+00 0.  1.
</event>
<event>
 4    1  0.2253948E+005  0.2585068E+02  0.7546771E-02  0.1459508E+00
          2   -1    0    0  503    0  0.00000000000E+00  0.00000000000E+00  0.17298078583E+03  0.17298078583E+03  0.00000000000E+00 0.  1.
         21   -1    0    0  501  502 -0.00000000000E+00 -0.00000000000E+00 -0.12539672860E+02  0.12539672860E+02  0.00000000000E+00 0.  1.
          2    1    1    2  501    0 -0.16349129626E+02  0.20024078650E+02  0.15738025982E+03  0.15948919696E+03  0.00000000000E+00 0.  1.
         21    1    1    2  503  502  0.16349129626E+02 -0.20024078650E+02  0.30608531480E+01  0.26031261730E+02  0.00000000000E+00 0.  1.
</event>
<event>
 4    1  0.2253948E+005  0.2217155E+02  0.7546771E-02  0.1503172E+00
          2   -1    0    0  503    0  0.00000000000E+00  0.00000000000E+00  0.12012718347E+04  0.12012718347E+04  0.00000000000E+00 0.  1.
         21   -1    0    0  501  502 -0.00000000000E+00 -0.00000000000E+00 -0.64198910599E+00  0.64198910599E+00  0.00000000000E+00 0.  1.
          2    1    1    2  501    0 -0.25012011641E+01 -0.22030016077E+02  0.96218068124E+03  0.96243609708E+03  0.00000000000E+00 0.  1.
         21    1    1    2  503  502  0.25012011641E+01  0.22030016077E+02  0.23844916437E+03  0.23947772674E+03  0.00000000000E+00 0.  1.
</event>
<event>
 4    1  0.2253948E+005  0.2020749E+02  0.7546771E-02  0.1530887E+00
          2   -1    0    0  503    0  0.00000000000E+00  0.00000000000E+00  0.38627140387E+02  0.38627140387E+02  0.00000000000E+00 0. -1.
         21   -1    0    0  501  502 -0.00000000000E+00 -0.00000000000E+00 -0.16000352387E+02  0.16000352387E+02  0.00000000000E+00 0.  1.
          2    1    1    2  501    0 -0.10369293496E+02  0.17344173380E+02  0.27223566262E+02  0.33903763181E+02  0.00000000000E+00 0. -1.
         21    1    1    2  503  502  0.10369293496E+02 -0.17344173380E+02 -0.45967782619E+01  0.20723729592E+02  0.00000000000E+00 0.  1.
</event>
<event>
 4    1  0.2253948E+005  0.2029231E+02  0.7546771E-02  0.1529613E+00
          2   -1    0    0  502    0  0.00000000000E+00  0.00000000000E+00  0.11638350022E+04  0.11638350022E+04  0.00000000000E+00 0. -1.
         21   -1    0    0  503  502 -0.00000000000E+00 -0.00000000000E+00 -0.40175623447E+01  0.40175623447E+01  0.00000000000E+00 0. -1.
          2    1    1    2  501    0  0.89744351366E+01  0.18199932569E+02  0.11375304447E+04  0.11377114268E+04  0.00000000000E+00 0. -1.
         21    1    1    2  503  501 -0.89744351366E+01 -0.18199932569E+02  0.22286995124E+02  0.30141137723E+02  0.00000000000E+00 0. -1.
</event>
<event>
 4    1  0.2253948E+005  0.2118975E+02  0.7546771E-02  0.1516573E+00
          2   -1    0    0  502    0  0.00000000000E+00  0.00000000000E+00  0.12475788659E+04  0.12475788659E+04  0.00000000000E+00 0. -1.
         21   -1    0    0  503  502 -0.00000000000E+00 -0.00000000000E+00 -0.14921557232E+02  0.14921557232E+02  0.00000000000E+00 0.  1.
          2    1    1    2  501    0 -0.12822471457E+02  0.16869781746E+02  0.12399196622E+04  0.12401007113E+04  0.00000000000E+00 0. -1.
         21    1    1    2  503  501  0.12822471457E+02 -0.16869781746E+02 -0.72623535924E+01  0.22399711831E+02  0.00000000000E+00 0.  1.
</event>
<event>
 4    1  0.2253948E+005  0.3433960E+02  0.7546771E-02  0.1385266E+00
          2   -1    0    0  503    0  0.00000000000E+00  0.00000000000E+00  0.16774438057E+04  0.16774438057E+04  0.00000000000E+00 0. -1.
         21   -1    0    0  501  502 -0.00000000000E+00 -0.00000000000E+00 -0.11155526388E+01  0.11155526388E+01  0.00000000000E+00 0. -1.
          2    1    1    2  501    0  0.19274067385E+02 -0.28420390209E+02  0.13485660002E+04  0.13490031375E+04  0.00000000000E+00 0. -1.
         21    1    1    2  503  502 -0.19274067385E+02  0.28420390209E+02  0.32776225294E+03  0.32955622085E+03  0.00000000000E+00 0. -1.
</event>
<event>
 4    1  0.2253948E+005  0.2052692E+02  0.7546771E-02  0.1526128E+00
          2   -1    0    0  503    0  0.00000000000E+00  0.00000000000E+00  0.38582586232E+03  0.38582586232E+03  0.00000000000E+00 0.  1.
         21   -1    0    0  501  502 -0.00000000000E+00 -0.00000000000E+00 -0.78363153050E+01  0.78363153050E+01  0.00000000000E+00 0. -1.
          2    1    1    2  501    0 -0.20383712693E+02 -0.24204791497E+01  0.37159611112E+03  0.37216263147E+03  0.00000000000E+00 0.  1.
         21    1    1    2  503  502  0.20383712693E+02  0.24204791497E+01  0.63934358980E+01  0.21499546159E+02  0.00000000000E+00 0. -1.
</event>
<event>
 4    1  0.2253948E+005  0.2413103E+02  0.7546771E-02  0.1478764E+00
          2   -1    0    0  502    0  0.00000000000E+00  0.00000000000E+00  0.45672665475E+02  0.45672665475E+02  0.00000000000E+00 0.  1.
         21   -1    0    0  503  502 -0.00000000000E+00 -0.00000000000E+00 -0.14782734102E+02  0.14782734102E+02  0.00000000000E+00 0.  1.
          2    1    1    2  501    0 -0.23693648113E+02 -0.45736058717E+01  0.26655181332E+02  0.35955604896E+02  0.00000000000E+00 0.  1.
         21    1    1    2  503  501  0.23693648113E+02  0.45736058717E+01  0.42347500404E+01  0.24499794682E+02  0.00000000000E+00 0.  1.
</event>
<event>
 4    1  0.2253948E+005  0.2142706E+02  0.7546771E-02  0.1513254E+00
          2   -1    0    0  502    0  0.00000000000E+00  0.00000000000E+00  0.12279868694E+04  0.12279868694E+04  0.00000000000E+00 0.  1.
         21   -1    0    0  503  502 -0.00000000000E+00 -0.00000000000E+00 -0.18907130741E+01  0.18907130741E+01  0.00000000000E+00 0.  1.
          2    1    1    2  501    0 -0.15362464089E+02  0.14936981091E+02  0.11638406700E+04  0.11640378963E+04  0.00000000000E+00 0.  1.
         21    1    1    2  503  501  0.15362464089E+02 -0.14936981091E+02  0.62255486270E+02  0.65839686191E+02  0.00000000000E+00 0.  1.
</event>
<event>
 4    1  0.2253948E+005  0.3131890E+02  0.7546771E-02  0.1408471E+00
          2   -1    0    0  502    0  0.00000000000E+00  0.00000000000E+00  0.13268172875E+04  0.13268172875E+04  0.00000000000E+00 0.  1.
         21   -1    0    0  503  502 -0.00000000000E+00 -0.00000000000E+00 -0.26653335635E+01  0.26653335635E+01  0.00000000000E+00 0. -1.
          2    1    1    2  501    0  0.29765462698E+02 -0.97411754736E+01  0.12271592383E+04  0.12275588252E+04  0.00000000000E+00 0.  1.
         21    1    1    2  503  501 -0.29765462698E+02  0.97411754736E+01  0.96992715624E+02  0.10192379582E+03  0.00000000000E+00 0. -1.
</event>
<event>
 4    1  0.2253948E+005  0.4042658E+02  0.7546771E-02  0.1346004E+00
          2   -1    0    0  503    0  0.00000000000E+00  0.00000000000E+00  0.43398060672E+03  0.43398060672E+03  0.00000000000E+00 0. -1.
         21   -1    0    0  501  502 -0.00000000000E+00 -0.00000000000E+00 -0.45206886581E+01  0.45206886581E+01  0.00000000000E+00 0.  1.
          2    1    1    2  501    0 -0.38377741949E+02  0.12706573868E+02  0.30432091600E+03  0.30699434524E+03  0.00000000000E+00 0. -1.
         21    1    1    2  503  502  0.38377741949E+02 -0.12706573868E+02  0.12513900206E+03  0.13150695014E+03  0.00000000000E+00 0.  1.
</event>
<event>
 4    1  0.2253948E+005  0.2221749E+02  0.7546771E-02  0.1502565E+00
          2   -1    0    0  503    0  0.00000000000E+00  0.00000000000E+00  0.10991274228E+03  0.10991274228E+03  0.00000000000E+00 0. -1.
         21   -1    0    0  501  502 -0.00000000000E+00 -0.00000000000E+00 -0.46102899925E+02  0.46102899925E+02  0.00000000000E+00 0. -1.
          2    1    1    2  501    0  0.14984704631E+02  0.16403525402E+02  0.10601595145E+03  0.10831896870E+03  0.00000000000E+00 0. -1.
         21    1    1    2  503  502 -0.14984704631E+02 -0.16403525402E+02 -0.42206109095E+02  0.47696673505E+02  0.00000000000E+00 0. -1.
</event>
<event>
 4    1  0.2253948E+005  0.2006164E+02  0.7546771E-02  0.1533096E+00
          2   -1    0    0  503    0  0.00000000000E+00  0.00000000000E+00  0.79717857523E+02  0.79717857523E+02  0.00000000000E+00 0. -1.
         21   -1    0    0  501  502 -0.00000000000E+00 -0.00000000000E+00 -0.32437382910E+03  0.32437382910E+03  0.00000000000E+00 0. -1.
          2    1    1    2  501    0 -0.31686263753E+01 -0.19809821640E+02  0.78139334189E+02  0.80673569240E+02  0.00000000000E+00 0. -1.
         21    1    1    2  503  502  0.31686263753E+01  0.19809821640E+02 -0.32279530577E+03  0.32341811738E+03  0.00000000000E+00 0. -1.
</event>
<event>
 4    1  0.2253948E+005  0.2530944E+02  0.7546771E-02  0.1465371E+00
          2   -1    0    0  503    0  0.00000000000E+00  0.00000000000E+00  0.87650798184E+03  0.87650798184E+03  0.00000000000E+00 0. -1.
         21   -1    0    0  501  502 -0.00000000000E+00 -0.00000000000E+00 -0.17478726598E+04  0.17478726598E+04  0.00000000000E+00 0. -1.
          2    1    1    2  501    0 -0.18216740453E+02  0.17570372736E+02  0.87623362767E+03  0.87659907477E+03  0.00000000000E+00 0. -1.
         21    1    1    2  503  502  0.18216740453E+02 -0.17570372736E+02 -0.17475983057E+04  0.17477815669E+04  0.00000000000E+00 0. -1.
</event>
<event>
 4    1  0.2253948E+005  0.4418598E+02  0.7546771E-02  0.1325560E+00
          2   -1    0    0  503    0  0.00000000000E+00  0.00000000000E+00  0.95747483852E+02  0.95747483852E+02  0.00000000000E+00 0.  1.
         21   -1    0    0  501  502 -0.00000000000E+00 -0.00000000000E+00 -0.20733473722E+02  0.20733473722E+02  0.00000000000E+00 0.  1.
          2    1    1    2  501    0 -0.28175658871E+02 -0.34037226844E+02  0.44990635118E+02  0.63059954110E+02  0.00000000000E+00 0.  1.
         21    1    1    2  503  502  0.28175658871E+02  0.34037226844E+02  0.30023375011E+02  0.53421003464E+02  0.00000000000E+00 0.  1.
</event>
<event>
 4    1  0.2253948E+005  0.2106623E+02  0.7546771E-02  0.1518321E+00
          2   -1    0    0  502    0  0.00000000000E+00  0.00000000000E+00  0.88575670559E+02  0.88575670559E+02  0.00000000000E+00 0.  1.
         21   -1    0    0  503  502 -0.00000000000E+00 -0.00000000000E+00 -0.16174524129E+02  0.16174524129E+02  0.00000000000E+00 0. -1.
          2    1    1    2  501    0  0.26654530361E+01 -0.20896924475E+02  0.79714108401E+02  0.82450743906E+02  0.00000000000E+00 0.  1.
         21    1    1    2  503  501 -0.26654530361E+01  0.20896924475E+02 -0.73129619709E+01  0.22299450782E+02  0.00000000000E+00 0. -1.
</event>
<event>
 4    1  0.2253948E+005  0.2676392E+02  0.7546771E-02  0.1449994E+00
          2   -1    0    0  502    0  0.00000000000E+00  0.00000000000E+00  0.77500739831E+03  0.77500739831E+03  0.00000000000E+00 0.  1.
         21   -1    0    0  503  502 -0.00000000000E+00 -0.00000000000E+00 -0.17630354231E+01  0.17630354231E+01  0.00000000000E+00 0. -1.
          2    1    1    2  501    0 -0.53101596824E+01  0.26231848111E+02  0.65451140878E+03  0.65505838814E+03  0.00000000000E+00 0.  1.
         21    1    1    2  503  501  0.53101596824E+01 -0.26231848111E+02  0.11873295411E+03  0.12171204559E+03  0.00000000000E+00 0. -1.
</event>
<event>
 4    1  0.2253948E+005  0.3080272E+02  0.7546771E-02  0.1412746E+00
          2   -1    0    0  503    0  0.00000000000E+00  0.00000000000E+00  0.11722769318E+04  0.11722769318E+04  0.00000000000E+00 0. -1.
         21   -1    0    0  501  502 -0.00000000000E+00 -0.00000000000E+00 -0.13258072037E+01  0.13258072037E+01  0.00000000000E+00 0. -1.
          2    1    1    2  501    0 -0.14792644289E+02  0.27018238241E+02  0.95170990522E+03  0.95220824992E+03  0.00000000000E+00 0. -1.
         21    1    1    2  503  502  0.14792644289E+02 -0.27018238241E+02  0.21924121935E+03  0.22139448906E+03  0.00000000000E+00 0. -1.
</event>
<event>
 4    1  0.2253948E+005  0.2513344E+02  0.7546771E-02  0.1467316E+00
          2   -1    0    0  503    0  0.00000000000E+00  0.00000000000E+00  0.18216839995E+04  0.18216839995E+04  0.00000000000E+00 0.  1.
         21   -1    0    0  501  502 -0.00000000000E+00 -0.00000000000E+00 -0.16204608718E+01  0.16204608718E+01  0.00000000000E+00 0.  1.
          2    1    1    2  501    0 -0.21526096371E+02 -0.12973695075E+02  0.17182774986E+04  0.17184613035E+04  0.00000000000E+00 0.  1.
         21    1    1    2  503  502  0.21526096371E+02  0.12973695075E+02  0.10178604007E+03  0.10484315686E+03  0.00000000000E+00 0.  1.
</event>
<event>
 4    1  0.2253948E+005  0.2387254E+02  0.7546771E-02  0.1481823E+00
          2   -1    0    0  503    0  0.00000000000E+00  0.00000000000E+00  0.34218087088E+01  0.34218087088E+01  0.00000000000E+00 0. -1.
         21   -1    0    0  501  502 -0.00000000000E+00 -0.00000000000E+00 -0.30170484204E+03  0.30170484204E+03  0.00000000000E+00 0. -1.
          2    1    1    2  501    0 -0.32553054808E+01 -0.23649552179E+02 -0.47029548762E+02  0.52741603965E+02  0.00000000000E+00 0. -1.
         21    1    1    2  503  502  0.32553054808E+01  0.23649552179E+02 -0.25125348457E+03  0.25238504679E+03  0.00000000000E+00 0. -1.
</event>
<event>
 4    1  0.2253948E+005  0.7921224E+02  0.7546771E-02  0.1205688E+00
          2   -1    0    0  502    0  0.00000000000E+00  0.00000000000E+00  0.88650141703E+03  0.88650141703E+03  0.00000000000E+00 0.  1.
         21   -1    0    0  503  502 -0.00000000000E+00 -0.00000000000E+00 -0.10921129807E+02  0.10921129807E+02  0.00000000000E+00 0. -1.
          2    1    1    2  501    0 -0.66475637558E+02 -0.43076313340E+02  0.70397337089E+03  0.70841589909E+03  0.00000000000E+00 0.  1.
         21    1    1    2  503  501  0.66475637558E+02  0.43076313340E+02  0.17160691633E+03  0.18900664774E+03  0.00000000000E+00 0. -1.
</event>
<event>
 4    1  0.2253948E+005  0.2435221E+02  0.7546771E-02  0.1476182E+00
          2   -1    0    0  503    0  0.00000000000E+00  0.00000000000E+00  0.33657096487E+02  0.33657096487E+02  0.00000000000E+00 0. -1.
         21   -1    0    0  501  502 -0.00000000000E+00 -0.00000000000E+00 -0.27699618002E+02  0.27699618002E+02  0.00000000000E+00 0.  1.
          2    1    1    2  501    0 -0.17803598757E+02 -0.16615120718E+02  0.21485148400E+02  0.32475251607E+02  0.00000000000E+00 0. -1.
         21    1    1    2  503  502  0.17803598757E+02  0.16615120718E+02 -0.15527669915E+02  0.28881462881E+02  0.00000000000E+00 0.  1.
</event>
<event>
 4    1  0.2253948E+005  0.2114404E+02  0.7546771E-02  0.1517218E+00
          2   -1    0    0  503    0  0.00000000000E+00  0.00000000000E+00  0.28883915126E+03  0.28883915126E+03  0.00000000000E+00 0.  1.
         21   -1    0    0  501  502 -0.00000000000E+00 -0.00000000000E+00 -0.15546099346E+01  0.15546099346E+01  0.00000000000E+00 0.  1.
          2    1    1    2  501    0  0.78809301764E+01  0.19620429204E+02  0.15323977329E+03  0.15469162363E+03  0.00000000000E+00 0.  1.
         21    1    1    2  503  502 -0.78809301764E+01 -0.19620429204E+02  0.13404476804E+03  0.13570213757E+03  0.00000000000E+00 0.  1.
</event>
<event>
 4    1  0.2253948E+005  0.2415768E+02  0.7546771E-02  0.1478451E+00
          2   -1    0    0  503    0  0.00000000000E+00  0.00000000000E+00  0.10980251762E+02  0.10980251762E+02  0.00000000000E+00 0. -1.
         21   -1    0    0  501  502 -0.00000000000E+00 -0.00000000000E+00 -0.84419346655E+02  0.84419346655E+02  0.00000000000E+00 0.  1.
          2    1    1    2  501    0  0.21269958551E+02 -0.11453492629E+02 -0.76887322813E+01  0.25351730400E+02  0.00000000000E+00 0. -1.
         21    1    1    2  503  502 -0.21269958551E+02  0.11453492629E+02 -0.65750362611E+02  0.70047868017E+02  0.00000000000E+00 0.  1.
</event>
<event>
 4    1  0.2253948E+005  0.3317282E+02  0.7546771E-02  0.1393885E+00
          2   -1    0    0  503    0  0.00000000000E+00  0.00000000000E+00  0.42294973226E+03  0.42294973226E+03  0.00000000000E+00 0. -1.
         21   -1    0    0  501  502 -0.00000000000E+00 -0.00000000000E+00 -0.26345561868E+01  0.26345561868E+01  0.00000000000E+00 0.  1.
          2    1    1    2  501    0  0.10437750364E+02  0.31487926875E+02  0.23388013928E+03  0.23622098916E+03  0.00000000000E+00 0. -1.
         21    1    1    2  503  502 -0.10437750364E+02 -0.31487926875E+02  0.18643503680E+03  0.18936329929E+03  0.00000000000E+00 0.  1.
</event>
<event>
 4    1  0.2253948E+005  0.2346479E+02  0.7546771E-02  0.1486743E+00
          2   -1    0    0  503    0  0.00000000000E+00  0.00000000000E+00  0.11511162506E+03  0.11511162506E+03  0.00000000000E+00 0. -1.
         21   -1    0    0  501  502 -0.00000000000E+00 -0.00000000000E+00 -0.83216127282E+01  0.83216127282E+01  0.00000000000E+00 0.  1.
          2    1    1    2  501    0 -0.48462947764E+01 -0.22958870414E+02  0.93639420925E+02  0.96534643807E+02  0.00000000000E+00 0. -1.
         21    1    1    2  503  502  0.48462947764E+01  0.22958870414E+02  0.13150591403E+02  0.26898593978E+02  0.00000000000E+00 0.  1.
</event>
<event>
 4    1  0.2253948E+005  0.3155511E+02  0.7546771E-02  0.1406547E+00
          2   -1    0    0  503    0  0.00000000000E+00  0.00000000000E+00  0.23710007840E+03  0.23710007840E+03  0.00000000000E+00 0. -1.
         21   -1    0    0  501  502 -0.00000000000E+00 -0.00000000000E+00 -0.20896123225E+02  0.20896123225E+02  0.00000000000E+00 0.  1.
          2    1    1    2  501    0 -0.27129447807E+02  0.16115765985E+02  0.22341105942E+03  0.22562851399E+03  0.00000000000E+00 0. -1.
         21    1    1    2  503  502  0.27129447807E+02 -0.16115765985E+02 -0.72071042453E+01  0.32367687641E+02  0.00000000000E+00 0.  1.
</event>
<event>
 4    1  0.2253948E+005  0.3539465E+02  0.7546771E-02  0.1377810E+00
          2   -1    0    0  502    0  0.00000000000E+00  0.00000000000E+00  0.52113494145E+03  0.52113494145E+03  0.00000000000E+00 0. -1.
         21   -1    0    0  503  502 -0.00000000000E+00 -0.00000000000E+00 -0.41448519810E+02  0.41448519810E+02  0.00000000000E+00 0.  1.
          2    1    1    2  501    0 -0.33070151538E+02  0.12615322817E+02  0.51285586957E+03  0.51407579621E+03  0.00000000000E+00 0. -1.
         21    1    1    2  503  501  0.33070151538E+02 -0.12615322817E+02 -0.33169447933E+02  0.48507665051E+02  0.00000000000E+00 0.  1.
</event>
<event>
 4    1  0.2253948E+005  0.2507919E+02  0.7546771E-02  0.1467919E+00
          2   -1    0    0  502    0  0.00000000000E+00  0.00000000000E+00  0.29568579610E+03  0.29568579610E+03  0.00000000000E+00 0.  1.
         21   -1    0    0  503  502 -0.00000000000E+00 -0.00000000000E+00 -0.15090722070E+02  0.15090722070E+02  0.00000000000E+00 0. -1.
          2    1    1    2  501    0  0.16178786776E+02 -0.19162798014E+02  0.28431848038E+03  0.28542243124E+03  0.00000000000E+00 0.  1.
         21    1    1    2  503  501 -0.16178786776E+02  0.19162798014E+02 -0.37234063489E+01  0.25354086931E+02  0.00000000000E+00 0. -1.
</event>
<event>
 4    1  0.2253948E+005  0.2249289E+02  0.7546771E-02  0.1498966E+00
          2   -1    0    0  503    0  0.00000000000E+00  0.00000000000E+00  0.26111446140E+03  0.26111446140E+03  0.00000000000E+00 0. -1.
         21   -1    0    0  501  502 -0.00000000000E+00 -0.00000000000E+00 -0.14064162602E+03  0.14064162602E+03  0.00000000000E+00 0. -1.
          2    1    1    2  501    0 -0.21561824851E+02 -0.64044999244E+01  0.25972594313E+03  0.26069809252E+03  0.00000000000E+00 0. -1.
         21    1    1    2  503  502  0.21561824851E+02  0.64044999244E+01 -0.13925310774E+03  0.14105799490E+03  0.00000000000E+00 0. -1.
</event>
<event>
 4    1  0.2253948E+005  0.2322293E+02  0.7546771E-02  0.1489718E+00
          2   -1    0    0  503    0  0.00000000000E+00  0.00000000000E+00  0.25531298096E+02  0.25531298096E+02  0.00000000000E+00 0.  1.
         21   -1    0    0  501  502 -0.00000000000E+00 -0.00000000000E+00 -0.21449128606E+02  0.21449128606E+02  0.00000000000E+00 0.  1.
          2    1    1    2  501    0 -0.22750865229E+02 -0.46586043818E+01 -0.85424323605E+00  0.23238635824E+02  0.00000000000E+00 0.  1.
         21    1    1    2  503  502  0.22750865229E+02  0.46586043818E+01  0.49364127252E+01  0.23741790877E+02  0.00000000000E+00 0.  1.
</event>
<event>
 4    1  0.2253948E+005  0.2166711E+02  0.7546771E-02  0.1509950E+00
          2   -1    0    0  503    0  0.00000000000E+00  0.00000000000E+00  0.34721420644E+03  0.34721420644E+03  0.00000000000E+00 0. -1.
         21   -1    0    0  501  502 -0.00000000000E+00 -0.00000000000E+00 -0.64596619508E+03  0.64596619508E+03  0.00000000000E+00 0. -1.
          2    1    1    2  501    0 -0.17723352282E+02 -0.12463797100E+02  0.34669422230E+03  0.34737061941E+03  0.00000000000E+00 0. -1.
         21    1    1    2  503  502  0.17723352282E+02  0.12463797100E+02 -0.64544621094E+03  0.64580978211E+03  0.00000000000E+00 0. -1.
</event>
<event>
 4    1  0.2253948E+005  0.2144107E+02  0.7546771E-02  0.1513060E+00
          2   -1    0    0  502    0  0.00000000000E+00  0.00000000000E+00  0.45246225276E+03  0.45246225276E+03  0.00000000000E+00 0.  1.
         21   -1    0    0  503  502 -0.00000000000E+00 -0.00000000000E+00 -0.28030165829E+01  0.28030165829E+01  0.00000000000E+00 0.  1.
          2    1    1    2  501    0 -0.21219856033E+02 -0.30719675058E+01  0.40658247630E+03  0.40714742945E+03  0.00000000000E+00 0.  1.
         21    1    1    2  503  501  0.21219856033E+02  0.30719675058E+01  0.43076759882E+02  0.48117839897E+02  0.00000000000E+00 0.  1.
</event>
<event>
 4    1  0.2253948E+005  0.2363429E+02  0.7546771E-02  0.1484683E+00
          2   -1    0    0  502    0  0.00000000000E+00  0.00000000000E+00  0.70235333800E+03  0.70235333800E+03  0.00000000000E+00 0.  1.
         21   -1    0    0  503  502 -0.00000000000E+00 -0.00000000000E+00 -0.26360275272E+02  0.26360275272E+02  0.00000000000E+00 0.  1.
          2    1    1    2  501    0 -0.23562386073E+02 -0.18421303402E+01  0.69681486976E+03  0.69721556365E+03  0.00000000000E+00 0.  1.
         21    1    1    2  503  501  0.23562386073E+02  0.18421303402E+01 -0.20821807032E+02  0.31498049618E+02  0.00000000000E+00 0.  1.
</event>
<event>
 4    1  0.2253948E+005  0.2137285E+02  0.7546771E-02  0.1514008E+00
          2   -1    0    0  503    0  0.00000000000E+00  0.00000000000E+00  0.49964119992E+03  0.49964119992E+03  0.00000000000E+00 0.  1.
         21   -1    0    0  501  502 -0.00000000000E+00 -0.00000000000E+00 -0.15307738813E+01  0.15307738813E+01  0.00000000000E+00 0. -1.
          2    1    1    2  501    0 -0.28084385474E+01  0.21187526313E+02  0.40808374913E+03  0.40864305317E+03  0.00000000000E+00 0.  1.
         21    1    1    2  503  502  0.28084385474E+01 -0.21187526313E+02  0.90026676903E+02  0.92528920628E+02  0.00000000000E+00 0. -1.
</event>
<event>
 4    1  0.2253948E+005  0.3288647E+02  0.7546771E-02  0.1396064E+00
          2   -1    0    0  502    0  0.00000000000E+00  0.00000000000E+00  0.94855495535E+03  0.94855495535E+03  0.00000000000E+00 0.  1.
         21   -1    0    0  503  502 -0.00000000000E+00 -0.00000000000E+00 -0.17694221303E+01  0.17694221303E+01  0.00000000000E+00 0. -1.
          2    1    1    2  501    0 -0.32884392365E+02  0.36928216309E+00  0.75675137468E+03  0.75746561817E+03  0.00000000000E+00 0.  1.
         21    1    1    2  503  501  0.32884392365E+02 -0.36928216309E+00  0.19003415854E+03  0.19285875931E+03  0.00000000000E+00 0. -1.
</event>
<event>
 4    1  0.2253948E+005  0.2794649E+02  0.7546771E-02  0.1438325E+00
          2   -1    0    0  502    0  0.00000000000E+00  0.00000000000E+00  0.46739053044E+03  0.46739053044E+03  0.00000000000E+00 0. -1.
         21   -1    0    0  503  502 -0.00000000000E+00 -0.00000000000E+00 -0.31412709144E+01  0.31412709144E+01  0.00000000000E+00 0. -1.
          2    1    1    2  501    0 -0.27462219596E+02 -0.51800328373E+01  0.39308020491E+03  0.39407239657E+03  0.00000000000E+00 0. -1.
         21    1    1    2  503  501  0.27462219596E+02  0.51800328373E+01  0.71169054616E+02  0.76459404787E+02  0.00000000000E+00 0. -1.
</event>
<event>
 4    1  0.2253948E+005  0.3303000E+02  0.7546771E-02  0.1394968E+00
          2   -1    0    0  503    0  0.00000000000E+00  0.00000000000E+00  0.15245026675E+03  0.15245026675E+03  0.00000000000E+00 0.  1.
         21   -1    0    0  501  502 -0.00000000000E+00 -0.00000000000E+00 -0.60347651424E+02  0.60347651424E+02  0.00000000000E+00 0.  1.
          2    1    1    2  501    0  0.12259459048E+02  0.30670615524E+02  0.14594260974E+03  0.14963364037E+03  0.00000000000E+00 0.  1.
         21    1    1    2  503  502 -0.12259459048E+02 -0.30670615524E+02 -0.53839994410E+02  0.63164277807E+02  0.00000000000E+00 0.  1.
</event>
<event>
 4    1  0.2253948E+005  0.3203943E+02  0.7546771E-02  0.1402664E+00
          2   -1    0    0  502    0  0.00000000000E+00  0.00000000000E+00  0.50587023172E+03  0.50587023172E+03  0.00000000000E+00 0. -1.
         21   -1    0    0  503  502 -0.00000000000E+00 -0.00000000000E+00 -0.30837093188E+01  0.30837093188E+01  0.00000000000E+00 0.  1.
          2    1    1    2  501    0 -0.28846917650E+02  0.13942027846E+02  0.40020312505E+03  0.40148358135E+03  0.00000000000E+00 0. -1.
         21    1    1    2  503  501  0.28846917650E+02 -0.13942027846E+02  0.10258339735E+03  0.10747035969E+03  0.00000000000E+00 0.  1.
</event>
<event>
 4    1  0.2253948E+005  0.4093775E+02  0.7546771E-02  0.1343077E+00
          2   -1    0    0  503    0  0.00000000000E+00  0.00000000000E+00  0.21036553555E+04  0.21036553555E+04  0.00000000000E+00 0.  1.
         21   -1    0    0  501  502 -0.00000000000E+00 -0.00000000000E+00 -0.81317234323E+01  0.81317234323E+01  0.00000000000E+00 0. -1.
          2    1    1    2  501    0 -0.37906813939E+02 -0.15458743144E+02  0.20505997486E+04  0.20510083443E+04  0.00000000000E+00 0.  1.
         21    1    1    2  503  502  0.37906813939E+02  0.15458743144E+02  0.44923883486E+02  0.60778734686E+02  0.00000000000E+00 0. -1.
</event>
<event>
 4    1  0.2253948E+005  0.2100077E+02  0.7546771E-02  0.1519254E+00
          2   -1    0    0  503    0  0.00000000000E+00  0.00000000000E+00  0.50800376495E+02  0.50800376495E+02  0.00000000000E+00 0.  1.
         21   -1    0    0  501  502 -0.00000000000E+00 -0.00000000000E+00 -0.86878900494E+01  0.86878900494E+01  0.00000000000E+00 0.  1.
          2    1    1    2  501    0  0.19315328181E+02  0.82432031538E+01  0.21851863977E+02  0.30307363136E+02  0.00000000000E+00 0.  1.
         21    1    1    2  503  502 -0.19315328181E+02 -0.82432031538E+01  0.20260622469E+02  0.29180903409E+02  0.00000000000E+00 0.  1.
</event>
<event>
 4    1  0.2253948E+005  0.5206360E+02  0.7546771E-02  0.1289465E+00
          2   -1    0    0  503    0  0.00000000000E+00  0.00000000000E+00  0.22600890150E+04  0.22600890150E+04  0.00000000000E+00 0. -1.
         21   -1    0    0  501  502 -0.00000000000E+00 -0.00000000000E+00 -0.16516211787E+01  0.16516211787E+01  0.00000000000E+00 0. -1.
          2    1    1    2  501    0 -0.46222829900E+02 -0.23959718794E+02  0.17209999602E+04  0.17217872926E+04  0.00000000000E+00 0. -1.
         21    1    1    2  503  502  0.46222829900E+02  0.23959718794E+02  0.53743743368E+03  0.53995334359E+03  0.00000000000E+00 0. -1.
</event>
<event>
 4    1  0.2253948E+005  0.4980868E+02  0.7546771E-02  0.1299004E+00
          2   -1    0    0  502    0  0.00000000000E+00  0.00000000000E+00  0.17422828723E+04  0.17422828723E+04  0.00000000000E+00 0. -1.
         21   -1    0    0  503  502 -0.00000000000E+00 -0.00000000000E+00 -0.11770853455E+02  0.11770853455E+02  0.00000000000E+00 0. -1.
          2    1    1    2  501    0  0.29158557284E+02  0.40381712642E+02  0.16875258338E+04  0.16882607453E+04  0.00000000000E+00 0. -1.
         21    1    1    2  503  501 -0.29158557284E+02 -0.40381712642E+02  0.42986185014E+02  0.65792980483E+02  0.00000000000E+00 0. -1.
</event>
<event>
 4    1  0.2253948E+005  0.2405683E+02  0.7546771E-02  0.1479637E+00
          2   -1    0    0  502    0  0.00000000000E+00  0.00000000000E+00  0.34013540194E+01  0.34013540194E+01  0.00000000000E+00 0. -1.
         21   -1    0    0  503  502 -0.00000000000E+00 -0.00000000000E+00 -0.31465590636E+03  0.31465590636E+03  0.00000000000E+00 0. -1.
          2    1    1    2  501    0  0.17262928319E+02 -0.16754777778E+02 -0.47855708680E+02  0.53562114650E+02  0.00000000000E+00 0. -1.
         21    1    1    2  503  501 -0.17262928319E+02  0.16754777778E+02 -0.26339884366E+03  0.26449514572E+03  0.00000000000E+00 0. -1.
</event>
<event>
 4    1  0.2253948E+005  0.2455855E+02  0.7546771E-02  0.1473803E+00
          2   -1    0    0  502    0  0.00000000000E+00  0.00000000000E+00  0.37476671528E+02  0.37476671528E+02  0.00000000000E+00 0.  1.
         21   -1    0    0  503  502 -0.00000000000E+00 -0.00000000000E+00 -0.52446040948E+03  0.52446040948E+03  0.00000000000E+00 0. -1.
          2    1    1    2  501    0  0.94102426547E+01  0.22684126245E+02  0.33132270014E+02  0.41241599952E+02  0.00000000000E+00 0.  1.
         21    1    1    2  503  501 -0.94102426547E+01 -0.22684126245E+02 -0.52011600797E+03  0.52069548106E+03  0.00000000000E+00 0. -1.
</event>
<event>
 4    1  0.2253948E+005  0.3388906E+02  0.7546771E-02  0.1388546E+00
          2   -1    0    0  502    0  0.00000000000E+00  0.00000000000E+00  0.30606262718E+02  0.30606262718E+02  0.00000000000E+00 0. -1.
         21   -1    0    0  503  502 -0.00000000000E+00 -0.00000000000E+00 -0.44787737363E+02  0.44787737363E+02  0.00000000000E+00 0. -1.
          2    1    1    2  501    0  0.12072843908E+02 -0.31665670715E+02  0.80905433283E+01  0.34841428690E+02  0.00000000000E+00 0. -1.
         21    1    1    2  503  501 -0.12072843908E+02  0.31665670715E+02 -0.22272017973E+02  0.40552571391E+02  0.00000000000E+00 0. -1.
</event>
<event>
 4    1  0.2253948E+005  0.2770369E+02  0.7546771E-02  0.1440665E+00
          2   -1    0    0  503    0  0.00000000000E+00  0.00000000000E+00  0.18452587384E+02  0.18452587384E+02  0.00000000000E+00 0. -1.
         21   -1    0    0  501  502 -0.00000000000E+00 -0.00000000000E+00 -0.42754464063E+02  0.42754464063E+02  0.00000000000E+00 0. -1.
          2    1    1    2  501    0  0.23623838460E+02 -0.14470953101E+02 -0.71063402516E+01  0.28600599627E+02  0.00000000000E+00 0. -1.
         21    1    1    2  503  502 -0.23623838460E+02  0.14470953101E+02 -0.17195536428E+02  0.32606451820E+02  0.00000000000E+00 0. -1.
</event>
<event>
 4    1  0.2253948E+005  0.2622810E+02  0.7546771E-02  0.1455520E+00
          2   -1    0    0  502    0  0.00000000000E+00  0.00000000000E+00  0.22027038484E+03  0.22027038484E+03  0.00000000000E+00 0. -1.
         21   -1    0    0  503  502 -0.00000000000E+00 -0.00000000000E+00 -0.11438105365E+03  0.11438105365E+03  0.00000000000E+00 0.  1.
          2    1    1    2  501    0  0.22993659447E+01  0.26127119402E+02  0.21797025898E+03  0.21954258642E+03  0.00000000000E+00 0. -1.
         21    1    1    2  503  501 -0.22993659447E+01 -0.26127119402E+02 -0.11208092779E+03  0.11510885208E+03  0.00000000000E+00 0.  1.
</event>
<event>
 4    1  0.2253948E+005  0.2068349E+02  0.7546771E-02  0.1523832E+00
          2   -1    0    0  502    0  0.00000000000E+00  0.00000000000E+00  0.93646229878E+03  0.93646229878E+03  0.00000000000E+00 0.  1.
         21   -1    0    0  503  502 -0.00000000000E+00 -0.00000000000E+00 -0.61606980916E+00  0.61606980916E+00  0.00000000000E+00 0. -1.
          2    1    1    2  501    0  0.11108579215E+02  0.17447244521E+02  0.70612911562E+03  0.70643197465E+03  0.00000000000E+00 0.  1.
         21    1    1    2  503  501 -0.11108579215E+02 -0.17447244521E+02  0.22971711335E+03  0.23064639394E+03  0.00000000000E+00 0. -1.
</event>
<event>
 4    1  0.2253948E+005  0.6999091E+02  0.7546771E-02  0.1229209E+00
          2   -1    0    0  503    0  0.00000000000E+00  0.00000000000E+00  0.95383655508E+03  0.95383655508E+03  0.00000000000E+00 0. -1.
         21   -1    0    0  501  502 -0.00000000000E+00 -0.00000000000E+00 -0.84777339326E+01  0.84777339326E+01  0.00000000000E+00 0.  1.
          2    1    1    2  501    0 -0.69954842402E+02 -0.22467629795E+01  0.77477543804E+03  0.77793040004E+03  0.00000000000E+00 0. -1.
         21    1    1    2  503  502  0.69954842402E+02  0.22467629795E+01  0.17058338310E+03  0.18438388896E+03  0.00000000000E+00 0.  1.
</event>
<event>
 4    1  0.2253948E+005  0.2125543E+02  0.7546771E-02  0.1515649E+00
          2   -1    0    0  503    0  0.00000000000E+00  0.00000000000E+00  0.12013819389E+04  0.12013819389E+04  0.00000000000E+00 0.  1.
         21   -1    0    0  501  502 -0.00000000000E+00 -0.00000000000E+00 -0.60308944673E+01  0.60308944673E+01  0.00000000000E+00 0. -1.
          2    1    1    2  501    0  0.12535401256E+02 -0.17165580065E+02  0.11822566898E+04  0.11824477468E+04  0.00000000000E+00 0.  1.
         21    1    1    2  503  502 -0.12535401256E+02  0.17165580065E+02  0.13094354693E+02  0.24965086590E+02  0.00000000000E+00 0. -1.
</event>
<event>
 4    1  0.2253948E+005  0.2226206E+02  0.7546771E-02  0.1501978E+00
          2   -1    0    0  503    0  0.00000000000E+00  0.00000000000E+00  0.56883499207E+03  0.56883499207E+03  0.00000000000E+00 0.  1.
         21   -1    0    0  501  502 -0.00000000000E+00 -0.00000000000E+00 -0.18662321982E+02  0.18662321982E+02  0.00000000000E+00 0.  1.
          2    1    1    2  501    0 -0.11563939635E+02  0.19023000028E+02  0.56189619123E+03  0.56233702434E+03  0.00000000000E+00 0.  1.
         21    1    1    2  503  502  0.11563939635E+02 -0.19023000028E+02 -0.11723521145E+02  0.25160289704E+02  0.00000000000E+00 0.  1.
</event>
<event>
 4    1  0.2253948E+005  0.2073846E+02  0.7546771E-02  0.1523032E+00
          2   -1    0    0  503    0  0.00000000000E+00  0.00000000000E+00  0.13822309425E+01  0.13822309425E+01  0.00000000000E+00 0.  1.
         21   -1    0    0  501  502 -0.00000000000E+00 -0.00000000000E+00 -0.11353096174E+04  0.11353096174E+04  0.00000000000E+00 0.  1.
          2    1    1    2  501    0  0.20633630381E+02 -0.20825197220E+01 -0.82723545890E+02  0.85283460505E+02  0.00000000000E+00 0.  1.
         21    1    1    2  503  502 -0.20633630381E+02  0.20825197220E+01 -0.10512038406E+04  0.10514083878E+04  0.00000000000E+00 0.  1.
</event>
<event>
 4    1  0.2253948E+005  0.4617439E+02  0.7546771E-02  0.1315669E+00
          2   -1    0    0  503    0  0.00000000000E+00  0.00000000000E+00  0.42001340818E+02  0.42001340818E+02  0.00000000000E+00 0. -1.
         21   -1    0    0  501  502 -0.00000000000E+00 -0.00000000000E+00 -0.52555020909E+02  0.52555020909E+02  0.00000000000E+00 0. -1.
          2    1    1    2  501    0 -0.14339019631E+02 -0.43891536513E+02  0.34556763820E+01  0.46303522119E+02  0.00000000000E+00 0. -1.
         21    1    1    2  503  502  0.14339019631E+02  0.43891536513E+02 -0.14009356473E+02  0.48252839607E+02  0.00000000000E+00 0. -1.
</event>
<event>
 4    1  0.2253948E+005  0.2332921E+02  0.7546771E-02  0.1488405E+00
          2   -1    0    0  503    0  0.00000000000E+00  0.00000000000E+00  0.76731977731E+03  0.76731977731E+03  0.00000000000E+00 0. -1.
         21   -1    0    0  501  502 -0.00000000000E+00 -0.00000000000E+00 -0.22028145833E+01  0.22028145833E+01  0.00000000000E+00 0. -1.
          2    1    1    2  501    0  0.10194370625E+02 -0.20983961893E+02  0.69937562203E+03  0.69976461224E+03  0.00000000000E+00 0. -1.
         21    1    1    2  503  502 -0.10194370625E+02  0.20983961893E+02  0.65741340700E+02  0.69757979660E+02  0.00000000000E+00 0. -1.
</event>
<event>
 4    1  0.2253948E+005  0.5033631E+02  0.7546771E-02  0.1296721E+00
          2   -1    0    0  503    0  0.00000000000E+00  0.00000000000E+00  0.57008333443E+02  0.57008333443E+02  0.00000000000E+00 0. -1.
         21   -1    0    0  501  502 -0.00000000000E+00 -0.00000000000E+00 -0.45275391342E+02  0.45275391342E+02  0.00000000000E+00 0. -1.
          2    1    1    2  501    0 -0.47849027937E+02 -0.15627371932E+02 -0.10589510525E+01  0.50347448846E+02  0.00000000000E+00 0. -1.
         21    1    1    2  503  502  0.47849027937E+02  0.15627371932E+02  0.12791893153E+02  0.51936275939E+02  0.00000000000E+00 0. -1.
</event>
<event>
 4    1  0.2253948E+005  0.5869029E+02  0.7546771E-02  0.1264349E+00
          2   -1    0    0  503    0  0.00000000000E+00  0.00000000000E+00  0.10429421824E+04  0.10429421824E+04  0.00000000000E+00 0.  1.
         21   -1    0    0  501  502 -0.00000000000E+00 -0.00000000000E+00 -0.61864799418E+02  0.61864799418E+02  0.00000000000E+00 0.  1.
          2    1    1    2  501    0 -0.99360052686E+00  0.58681877144E+02  0.10279945985E+04  0.10296686091E+04  0.00000000000E+00 0.  1.
         21    1    1    2  503  502  0.99360052686E+00 -0.58681877144E+02 -0.46917215522E+02  0.75138372750E+02  0.00000000000E+00 0.  1.
</event>
<event>
 4    1  0.2253948E+005  0.2394876E+02  0.7546771E-02  0.1480916E+00
          2   -1    0    0  503    0  0.00000000000E+00  0.00000000000E+00  0.30831583143E+03  0.30831583143E+03  0.00000000000E+00 0.  1.
         21   -1    0    0  501  502 -0.00000000000E+00 -0.00000000000E+00 -0.22218939614E+02  0.22218939614E+02  0.00000000000E+00 0.  1.
          2    1    1    2  501    0 -0.16732029393E+02 -0.17134239450E+02  0.30124625219E+03  0.30219670321E+03  0.00000000000E+00 0.  1.
         21    1    1    2  503  502  0.16732029393E+02  0.17134239450E+02 -0.15149360374E+02  0.28338067839E+02  0.00000000000E+00 0.  1.
</event>
<event>
 4    1  0.2253948E+005  0.2751942E+02  0.7546771E-02  0.1442459E+00
          2   -1    0    0  503    0  0.00000000000E+00  0.00000000000E+00  0.15714980138E+04  0.15714980138E+04  0.00000000000E+00 0. -1.
         21   -1    0    0  501  502 -0.00000000000E+00 -0.00000000000E+00 -0.62793292043E+00  0.62793292043E+00  0.00000000000E+00 0. -1.
          2    1    1    2  501    0 -0.11521416885E+02  0.24991506856E+02  0.40637041364E+03  0.40730115584E+03  0.00000000000E+00 0. -1.
         21    1    1    2  503  502  0.11521416885E+02 -0.24991506856E+02  0.11644996672E+04  0.11648247909E+04  0.00000000000E+00 0. -1.
</event>
<event>
 4    1  0.2253948E+005  0.2748194E+02  0.7546771E-02  0.1442826E+00
          2   -1    0    0  502    0  0.00000000000E+00  0.00000000000E+00  0.16362071224E+03  0.16362071224E+03  0.00000000000E+00 0. -1.
         21   -1    0    0  503  502 -0.00000000000E+00 -0.00000000000E+00 -0.66356800118E+02  0.66356800118E+02  0.00000000000E+00 0.  1.
          2    1    1    2  501    0 -0.19567456335E+02  0.19296936096E+02  0.15954921586E+03  0.16189876272E+03  0.00000000000E+00 0. -1.
         21    1    1    2  503  501  0.19567456335E+02 -0.19296936096E+02 -0.62285303738E+02  0.68078749635E+02  0.00000000000E+00 0.  1.
</event>
<event>
 4    1  0.2253948E+005  0.2074861E+02  0.7546771E-02  0.1522884E+00
          2   -1    0    0  503    0  0.00000000000E+00  0.00000000000E+00  0.43907333661E+03  0.43907333661E+03  0.00000000000E+00 0.  1.
         21   -1    0    0  501  502 -0.00000000000E+00 -0.00000000000E+00 -0.21074121820E+01  0.21074121820E+01  0.00000000000E+00 0.  1.
          2    1    1    2  501    0 -0.17400222433E+02  0.11302090456E+02  0.37979235923E+03  0.38035870059E+03  0.00000000000E+00 0.  1.
         21    1    1    2  503  502  0.17400222433E+02 -0.11302090456E+02  0.57173565204E+02  0.60822048202E+02  0.00000000000E+00 0.  1.
</event>
<event>
 4    1  0.2253948E+005  0.3117135E+02  0.7546771E-02  0.1409683E+00
          2   -1    0    0  502    0  0.00000000000E+00  0.00000000000E+00  0.70939864378E+02  0.70939864378E+02  0.00000000000E+00 0. -1.
         21   -1    0    0  503  502 -0.00000000000E+00 -0.00000000000E+00 -0.12269043024E+03  0.12269043024E+03  0.00000000000E+00 0. -1.
          2    1    1    2  501    0 -0.27452430900E+02  0.14765393599E+02  0.65375882864E+02  0.72426920897E+02  0.00000000000E+00 0. -1.
         21    1    1    2  503  501  0.27452430900E+02 -0.14765393599E+02 -0.11712644872E+03  0.12120337372E+03  0.00000000000E+00 0. -1.
</event>
<event>
 4    1  0.2253948E+005  0.5663072E+02  0.7546771E-02  0.1271731E+00
          2   -1    0    0  502    0  0.00000000000E+00  0.00000000000E+00  0.48778724187E+03  0.48778724187E+03  0.00000000000E+00 0.  1.
         21   -1    0    0  503  502 -0.00000000000E+00 -0.00000000000E+00 -0.70834134070E+01  0.70834134070E+01  0.00000000000E+00 0.  1.
          2    1    1    2  501    0  0.96028581980E+01 -0.55810602718E+02  0.30666381204E+03  0.31184889270E+03  0.00000000000E+00 0.  1.
         21    1    1    2  503  501 -0.96028581980E+01  0.55810602718E+02  0.17404001642E+03  0.18302176257E+03  0.00000000000E+00 0.  1.
</event>
<event>
 4    1  0.2253948E+005  0.2521852E+02  0.7546771E-02  0.1466374E+00
          2   -1    0    0  502    0  0.00000000000E+00  0.00000000000E+00  0.72804280476E+02  0.72804280476E+02  0.00000000000E+00 0. -1.
         21   -1    0    0  503  502 -0.00000000000E+00 -0.00000000000E+00 -0.94475635208E+01  0.94475635208E+01  0.00000000000E+00 0.  1.
          2    1    1    2  501    0 -0.17595346741E+02  0.18065926976E+02  0.42969763213E+02  0.49823433192E+02  0.00000000000E+00 0. -1.
         21    1    1    2  503  501  0.17595346741E+02 -0.18065926976E+02  0.20386953743E+02  0.32428410805E+02  0.00000000000E+00 0.  1.
</event>
<event>
 4    1  0.2253948E+005  0.2312961E+02  0.7546771E-02  0.1490877E+00
          2   -1    0    0  502    0  0.00000000000E+00  0.00000000000E+00  0.48795227099E+03  0.48795227099E+03  0.00000000000E+00 0. -1.
         21   -1    0    0  503  502 -0.00000000000E+00 -0.00000000000E+00 -0.71205103602E+01  0.71205103602E+01  0.00000000000E+00 0. -1.
          2    1    1    2  501    0  0.18149228034E+02 -0.14338219944E+02  0.46809899677E+03  0.46867008632E+03  0.00000000000E+00 0. -1.
         21    1    1    2  503  501 -0.18149228034E+02  0.14338219944E+02  0.12732763852E+02  0.26402695028E+02  0.00000000000E+00 0. -1.
</event>
<event>
 4    1  0.2253948E+005  0.3920317E+02  0.7546771E-02  0.1353220E+00
          2   -1    0    0  503    0  0.00000000000E+00  0.00000000000E+00  0.13769244132E+04  0.13769244132E+04  0.00000000000E+00 0. -1.
         21   -1    0    0  501  502 -0.00000000000E+00 -0.00000000000E+00 -0.13513269366E+01  0.13513269366E+01  0.00000000000E+00 0. -1.
          2    1    1    2  501    0 -0.24247606354E+02  0.30804904671E+02  0.97526162541E+03  0.97604924392E+03  0.00000000000E+00 0. -1.
         21    1    1    2  503  502  0.24247606354E+02 -0.30804904671E+02  0.40031146088E+03  0.40222649625E+03  0.00000000000E+00 0. -1.
</event>
<event>
 4    1  0.2253948E+005  0.2077445E+02  0.7546771E-02  0.1522510E+00
          2   -1    0    0  503    0  0.00000000000E+00  0.00000000000E+00  0.52953809264E+03  0.52953809264E+03  0.00000000000E+00 0.  1.
         21   -1    0    0  501  502 -0.00000000000E+00 -0.00000000000E+00 -0.56445836449E+01  0.56445836449E+01  0.00000000000E+00 0. -1.
          2    1    1    2  501    0  0.20738867864E+02  0.12153260593E+01  0.50946692283E+03  0.50989030498E+03  0.00000000000E+00 0.  1.
         21    1    1    2  503  502 -0.20738867864E+02 -0.12153260593E+01  0.14426586167E+02  0.25292371304E+02  0.00000000000E+00 0. -1.
</event>
<event>
 4    1  0.2253948E+005  0.3488060E+02  0.7546771E-02  0.1381405E+00
          2   -1    0    0  503    0  0.00000000000E+00  0.00000000000E+00  0.32694949840E+03  0.32694949840E+03  0.00000000000E+00 0. -1.
         21   -1    0    0  501  502 -0.00000000000E+00 -0.00000000000E+00 -0.37769265213E+01  0.37769265213E+01  0.00000000000E+00 0. -1.
          2    1    1    2  501    0  0.28952538106E+02 -0.19452679920E+02  0.18166614085E+03  0.18498443975E+03  0.00000000000E+00 0. -1.
         21    1    1    2  503  502 -0.28952538106E+02  0.19452679920E+02  0.14150643103E+03  0.14574198517E+03  0.00000000000E+00 0. -1.
</event>
<event>
 4    1  0.2253948E+005  0.2022948E+02  0.7546771E-02  0.1530556E+00
          2   -1    0    0  502    0  0.00000000000E+00  0.00000000000E+00  0.17965596150E+03  0.17965596150E+03  0.00000000000E+00 0. -1.
         21   -1    0    0  503  502 -0.00000000000E+00 -0.00000000000E+00 -0.27853184796E+01  0.27853184796E+01  0.00000000000E+00 0. -1.
          2    1    1    2  501    0  0.75779904820E+01  0.18756485521E+02  0.12737161500E+03  0.12896805804E+03  0.00000000000E+00 0. -1.
         21    1    1    2  503  501 -0.75779904820E+01 -0.18756485521E+02  0.49499028020E+02  0.53473221932E+02  0.00000000000E+00 0. -1.
</event>
<event>
 4    1  0.2253948E+005  0.2142553E+02  0.7546771E-02  0.1513275E+00
          2   -1    0    0  503    0  0.00000000000E+00  0.00000000000E+00  0.87025054728E+03  0.87025054728E+03  0.00000000000E+00 0. -1.
         21   -1    0    0  501  502 -0.00000000000E+00 -0.00000000000E+00 -0.12544834266E+02  0.12544834266E+02  0.00000000000E+00 0. -1.
          2    1    1    2  501    0  0.17138061482E+02  0.12858471657E+02  0.86087075563E+03  0.86113733594E+03  0.00000000000E+00 0. -1.
         21    1    1    2  503  502 -0.17138061482E+02 -0.12858471657E+02 -0.31650426187E+01  0.21658045606E+02  0.00000000000E+00 0. -1.
</event>
<event>
 4    1  0.2253948E+005  0.3008687E+02  0.7546771E-02  0.1418843E+00
          2   -1    0    0  503    0  0.00000000000E+00  0.00000000000E+00  0.38867804589E+02  0.38867804589E+02  0.00000000000E+00 0.  1.
         21   -1    0    0  501  502 -0.00000000000E+00 -0.00000000000E+00 -0.98321961808E+02  0.98321961808E+02  0.00000000000E+00 0. -1.
          2    1    1    2  501    0  0.29369254189E+02 -0.65319819860E+01  0.30195493220E+02  0.42626138589E+02  0.00000000000E+00 0.  1.
         21    1    1    2  503  502 -0.29369254189E+02  0.65319819860E+01 -0.89649650439E+02  0.94563627807E+02  0.00000000000E+00 0. -1.
</event>
<event>
 4    1  0.2253948E+005  0.3114725E+02  0.7546771E-02  0.1409882E+00
          2   -1    0    0  502    0  0.00000000000E+00  0.00000000000E+00  0.16140030399E+04  0.16140030399E+04  0.00000000000E+00 0. -1.
         21   -1    0    0  503  502 -0.00000000000E+00 -0.00000000000E+00 -0.83925638594E+00  0.83925638594E+00  0.00000000000E+00 0. -1.
          2    1    1    2  501    0  0.29006448173E+02 -0.11347989907E+02  0.12367109420E+04  0.12371031101E+04  0.00000000000E+00 0. -1.
         21    1    1    2  503  501 -0.29006448173E+02  0.11347989907E+02  0.37645284156E+03  0.37773918625E+03  0.00000000000E+00 0. -1.
</event>
<event>
 4    1  0.2253948E+005  0.2996636E+02  0.7546771E-02  0.1419889E+00
          2   -1    0    0  503    0  0.00000000000E+00  0.00000000000E+00  0.11217220986E+02  0.11217220986E+02  0.00000000000E+00 0.  1.
         21   -1    0    0  501  502 -0.00000000000E+00 -0.00000000000E+00 -0.10653586563E+03  0.10653586563E+03  0.00000000000E+00 0. -1.
          2    1    1    2  501    0  0.24984160150E+02  0.16546127106E+02 -0.18305187876E+02  0.35114989445E+02  0.00000000000E+00 0.  1.
         21    1    1    2  503  502 -0.24984160150E+02 -0.16546127106E+02 -0.77013456768E+02  0.82638097171E+02  0.00000000000E+00 0. -1.
</event>
<event>
 4    1  0.2253948E+005  0.2708106E+02  0.7546771E-02  0.1446796E+00
          2   -1    0    0  503    0  0.00000000000E+00  0.00000000000E+00  0.44480226931E+03  0.44480226931E+03  0.00000000000E+00 0. -1.
         21   -1    0    0  501  502 -0.00000000000E+00 -0.00000000000E+00 -0.83517181914E+01  0.83517181914E+01  0.00000000000E+00 0. -1.
          2    1    1    2  501    0  0.24840075377E+02 -0.10786767126E+02  0.42120857711E+03  0.42207825000E+03  0.00000000000E+00 0. -1.
         21    1    1    2  503  502 -0.24840075377E+02  0.10786767126E+02  0.15241974009E+02  0.31075737504E+02  0.00000000000E+00 0. -1.
</event>
<event>
 4    1  0.2253948E+005  0.4028125E+02  0.7546771E-02  0.1346846E+00
          2   -1    0    0  502    0  0.00000000000E+00  0.00000000000E+00  0.59159629876E+03  0.59159629876E+03  0.00000000000E+00 0. -1.
         21   -1    0    0  503  502 -0.00000000000E+00 -0.00000000000E+00 -0.14157724558E+02  0.14157724558E+02  0.00000000000E+00 0. -1.
          2    1    1    2  501    0  0.38902745533E+02  0.10447746609E+02  0.56068099191E+03  0.56212610125E+03  0.00000000000E+00 0. -1.
         21    1    1    2  503  501 -0.38902745533E+02 -0.10447746609E+02  0.16757582285E+02  0.43627922059E+02  0.00000000000E+00 0. -1.
</event>
<event>
 4    1  0.2253948E+005  0.2521945E+02  0.7546771E-02  0.1466363E+00
          2   -1    0    0  503    0  0.00000000000E+00  0.00000000000E+00  0.44844987734E+02  0.44844987734E+02  0.00000000000E+00 0.  1.
         21   -1    0    0  501  502 -0.00000000000E+00 -0.00000000000E+00 -0.16364865387E+02  0.16364865387E+02  0.00000000000E+00 0. -1.
          2    1    1    2  501    0 -0.23225370360E+02 -0.98286668118E+01  0.30641105331E+01  0.25404906869E+02  0.00000000000E+00 0.  1.
         21    1    1    2  503  502  0.23225370360E+02  0.98286668118E+01  0.25416011814E+02  0.35804946253E+02  0.00000000000E+00 0. -1.
</event>
<event>
 4    1  0.2253948E+005  0.2709507E+02  0.7546771E-02  0.1446655E+00
          2   -1    0    0  502    0  0.00000000000E+00  0.00000000000E+00  0.87010928960E+03  0.87010928960E+03  0.00000000000E+00 0. -1.
         21   -1    0    0  503  502 -0.00000000000E+00 -0.00000000000E+00 -0.53149501052E+02  0.53149501052E+02  0.00000000000E+00 0.  1.
          2    1    1    2  501    0 -0.10794063791E+02  0.24852178585E+02  0.86643050112E+03  0.86685405684E+03  0.00000000000E+00 0. -1.
         21    1    1    2  503  501  0.10794063791E+02 -0.24852178585E+02 -0.49470712573E+02  0.56404733808E+02  0.00000000000E+00 0.  1.
</event>
<event>
 4    1  0.2253948E+005  0.2415307E+02  0.7546771E-02  0.1478505E+00
          2   -1    0    0  502    0  0.00000000000E+00  0.00000000000E+00  0.93147908479E+03  0.93147908479E+03  0.00000000000E+00 0. -1.
         21   -1    0    0  503  502 -0.00000000000E+00 -0.00000000000E+00 -0.16388054852E+01  0.16388054852E+01  0.00000000000E+00 0. -1.
          2    1    1    2  501    0 -0.22959950895E+02 -0.74974136200E+01  0.83164885286E+03  0.83199951023E+03  0.00000000000E+00 0. -1.
         21    1    1    2  503  501  0.22959950895E+02  0.74974136200E+01  0.98191426441E+02  0.10111838004E+03  0.00000000000E+00 0. -1.
</event>
<event>
 4    1  0.2253948E+005  0.2277442E+02  0.7546771E-02  0.1495350E+00
          2   -1    0    0  502    0  0.00000000000E+00  0.00000000000E+00  0.60000870355E+03  0.60000870355E+03  0.00000000000E+00 0.  1.
         21   -1    0    0  503  502 -0.00000000000E+00 -0.00000000000E+00 -0.97879615515E+01  0.97879615515E+01  0.00000000000E+00 0. -1.
          2    1    1    2  501    0  0.17224683375E+02 -0.14899148226E+02  0.58623365814E+03  0.58667586985E+03  0.00000000000E+00 0.  1.
         21    1    1    2  503  501 -0.17224683375E+02  0.14899148226E+02  0.39870838625E+01  0.23120795249E+02  0.00000000000E+00 0. -1.
</event>
<event>
 4    1  0.2253948E+005  0.2085246E+02  0.7546771E-02  0.1521382E+00
          2   -1    0    0  503    0  0.00000000000E+00  0.00000000000E+00  0.28158265716E+03  0.28158265716E+03  0.00000000000E+00 0.  1.
         21   -1    0    0  501  502 -0.00000000000E+00 -0.00000000000E+00 -0.21841785381E+01  0.21841785381E+01  0.00000000000E+00 0.  1.
          2    1    1    2  501    0  0.18395974414E+02  0.98190264403E+01  0.21649972987E+03  0.21750162802E+03  0.00000000000E+00 0.  1.
         21    1    1    2  503  502 -0.18395974414E+02 -0.98190264403E+01  0.62898748751E+02  0.66265207684E+02  0.00000000000E+00 0.  1.
</event>
<event>
 4    1  0.2253948E+005  0.2268777E+02  0.7546771E-02  0.1496456E+00
          2   -1    0    0  502    0  0.00000000000E+00  0.00000000000E+00  0.51184124890E+03  0.51184124890E+03  0.00000000000E+00 0.  1.
         21   -1    0    0  503  502 -0.00000000000E+00 -0.00000000000E+00 -0.38885393286E+01  0.38885393286E+01  0.00000000000E+00 0.  1.
          2    1    1    2  501    0 -0.21073061790E+02  0.84060088252E+01  0.47600688631E+03  0.47654725971E+03  0.00000000000E+00 0.  1.
         21    1    1    2  503  501  0.21073061790E+02 -0.84060088252E+01  0.31945823253E+02  0.39182528516E+02  0.00000000000E+00 0.  1.
</event>
<event>
 4    1  0.2253948E+005  0.2380240E+02  0.7546771E-02  0.1482661E+00
          2   -1    0    0  502    0  0.00000000000E+00  0.00000000000E+00  0.93834714252E+03  0.93834714252E+03  0.00000000000E+00 0. -1.
         21   -1    0    0  503  502 -0.00000000000E+00 -0.00000000000E+00 -0.14092836413E+03  0.14092836413E+03  0.00000000000E+00 0.  1.
          2    1    1    2  501    0 -0.20981398204E+02  0.11239896704E+02  0.93718991735E+03  0.93749213091E+03  0.00000000000E+00 0. -1.
         21    1    1    2  503  501  0.20981398204E+02 -0.11239896704E+02 -0.13977113896E+03  0.14178337573E+03  0.00000000000E+00 0.  1.
</event>
<event>
 4    1  0.2253948E+005  0.2222882E+02  0.7546771E-02  0.1502416E+00
          2   -1    0    0  503    0  0.00000000000E+00  0.00000000000E+00  0.11964472079E+04  0.11964472079E+04  0.00000000000E+00 0.  1.
         21   -1    0    0  501  502 -0.00000000000E+00 -0.00000000000E+00 -0.10349365359E+01  0.10349365359E+01  0.00000000000E+00 0.  1.
          2    1    1    2  501    0 -0.14272584674E+02  0.17041532554E+02  0.10618565947E+04  0.10620892374E+04  0.00000000000E+00 0.  1.
         21    1    1    2  503  502  0.14272584674E+02 -0.17041532554E+02  0.13355567671E+03  0.13539290708E+03  0.00000000000E+00 0.  1.
</event>
<event>
 4    1  0.2253948E+005  0.2554374E+02  0.7546771E-02  0.1462812E+00
          2   -1    0    0  502    0  0.00000000000E+00  0.00000000000E+00  0.93512290041E+03  0.93512290041E+03  0.00000000000E+00 0.  1.
         21   -1    0    0  503  502 -0.00000000000E+00 -0.00000000000E+00 -0.94319236030E+00  0.94319236030E+00  0.00000000000E+00 0. -1.
          2    1    1    2  501    0 -0.12049807569E+02  0.22522986434E+02  0.70584371629E+03  0.70630576566E+03  0.00000000000E+00 0.  1.
         21    1    1    2  503  501  0.12049807569E+02 -0.22522986434E+02  0.22833599176E+03  0.22976032711E+03  0.00000000000E+00 0. -1.
</event>
<event>
 4    1  0.2253948E+005  0.4227212E+02  0.7546771E-02  0.1335662E+00
          2   -1    0    0  503    0  0.00000000000E+00  0.00000000000E+00  0.66197942677E+01  0.66197942677E+01  0.00000000000E+00 0.  1.
         21   -1    0    0  501  502 -0.00000000000E+00 -0.00000000000E+00 -0.26998503410E+03  0.26998503410E+03  0.00000000000E+00 0.  1.
          2    1    1    2  501    0 -0.17670826390E+02  0.38401486861E+02 -0.13351310901E+03  0.14004528759E+03  0.00000000000E+00 0.  1.
         21    1    1    2  503  502  0.17670826390E+02 -0.38401486861E+02 -0.12985213082E+03  0.13655954078E+03  0.00000000000E+00 0.  1.
</event>
<event>
 4    1  0.2253948E+005  0.3970444E+02  0.7546771E-02  0.1350227E+00
          2   -1    0    0  502    0  0.00000000000E+00  0.00000000000E+00  0.87380299898E+03  0.87380299898E+03  0.00000000000E+00 0.  1.
         21   -1    0    0  503  502 -0.00000000000E+00 -0.00000000000E+00 -0.34519827840E+02  0.34519827840E+02  0.00000000000E+00 0. -1.
          2    1    1    2  501    0  0.27392656256E+02  0.28741690215E+02  0.86177578206E+03  0.86268994483E+03  0.00000000000E+00 0.  1.
         21    1    1    2  503  501 -0.27392656256E+02 -0.28741690215E+02 -0.22492610913E+02  0.45632881992E+02  0.00000000000E+00 0. -1.
</event>
<event>
 4    1  0.2253948E+005  0.3993149E+02  0.7546771E-02  0.1348888E+00
          2   -1    0    0  503    0  0.00000000000E+00  0.00000000000E+00  0.55295268021E+03  0.55295268021E+03  0.00000000000E+00 0.  1.
         21   -1    0    0  501  502 -0.00000000000E+00 -0.00000000000E+00 -0.40083091853E+01  0.40083091853E+01  0.00000000000E+00 0.  1.
          2    1    1    2  501    0 -0.33847994434E+02  0.21185771137E+02  0.42198307203E+03  0.42386818318E+03  0.00000000000E+00 0.  1.
         21    1    1    2  503  502  0.33847994434E+02 -0.21185771137E+02  0.12696129899E+03  0.13309280622E+03  0.00000000000E+00 0.  1.
</event>
<event>
 4    1  0.2253948E+005  0.2198454E+02  0.7546771E-02  0.1505659E+00
          2   -1    0    0  503    0  0.00000000000E+00  0.00000000000E+00  0.98702144045E+03  0.98702144045E+03  0.00000000000E+00 0.  1.
         21   -1    0    0  501  502 -0.00000000000E+00 -0.00000000000E+00 -0.63247604865E+00  0.63247604865E+00  0.00000000000E+00 0.  1.
          2    1    1    2  501    0  0.18350110364E+02 -0.12107573421E+02  0.72784320976E+03  0.72817515604E+03  0.00000000000E+00 0.  1.
         21    1    1    2  503  502 -0.18350110364E+02  0.12107573421E+02  0.25854575464E+03  0.25947876046E+03  0.00000000000E+00 0.  1.
</event>
<event>
 4    1  0.2253948E+005  0.2481261E+02  0.7546771E-02  0.1470911E+00
          2   -1    0    0  502    0  0.00000000000E+00  0.00000000000E+00  0.70945952101E+02  0.70945952101E+02  0.00000000000E+00 0.  1.
         21   -1    0    0  503  502 -0.00000000000E+00 -0.00000000000E+00 -0.11878940349E+02  0.11878940349E+02  0.00000000000E+00 0. -1.
          2    1    1    2  501    0 -0.55680687663E+01 -0.24179792848E+02  0.51030804276E+02  0.56743358704E+02  0.00000000000E+00 0.  1.
         21    1    1    2  503  501  0.55680687663E+01  0.24179792848E+02  0.80362074764E+01  0.26081533746E+02  0.00000000000E+00 0. -1.
</event>
<event>
 4    1  0.2253948E+005  0.2115547E+02  0.7546771E-02  0.1517057E+00
          2   -1    0    0  503    0  0.00000000000E+00  0.00000000000E+00  0.18208723517E+02  0.18208723517E+02  0.00000000000E+00 0. -1.
         21   -1    0    0  501  502 -0.00000000000E+00 -0.00000000000E+00 -0.31849974752E+02  0.31849974752E+02  0.00000000000E+00 0.  1.
          2    1    1    2  501    0  0.10640553000E+02  0.18284760461E+02  0.51382039003E+01  0.21770506944E+02  0.00000000000E+00 0. -1.
         21    1    1    2  503  502 -0.10640553000E+02 -0.18284760461E+02 -0.18779455135E+02  0.28288191325E+02  0.00000000000E+00 0.  1.
</event>
<event>
 4    1  0.2253948E+005  0.2129334E+02  0.7546771E-02  0.1515118E+00
          2   -1    0    0  503    0  0.00000000000E+00  0.00000000000E+00  0.34500294695E+03  0.34500294695E+03  0.00000000000E+00 0.  1.
         21   -1    0    0  501  502 -0.00000000000E+00 -0.00000000000E+00 -0.14703545177E+01  0.14703545177E+01  0.00000000000E+00 0.  1.
          2    1    1    2  501    0 -0.15443373433E+02  0.14659760977E+02  0.22821993098E+03  0.22921113252E+03  0.00000000000E+00 0.  1.
         21    1    1    2  503  502  0.15443373433E+02 -0.14659760977E+02  0.11531266145E+03  0.11726216894E+03  0.00000000000E+00 0.  1.
</event>
<event>
 4    1  0.2253948E+005  0.2363496E+02  0.7546771E-02  0.1484675E+00
          2   -1    0    0  503    0  0.00000000000E+00  0.00000000000E+00  0.79124030963E+03  0.79124030963E+03  0.00000000000E+00 0.  1.
         21   -1    0    0  501  502 -0.00000000000E+00 -0.00000000000E+00 -0.23890148915E+01  0.23890148915E+01  0.00000000000E+00 0. -1.
          2    1    1    2  501    0 -0.20019245668E+02 -0.12563477463E+02  0.72748604398E+03  0.72786987528E+03  0.00000000000E+00 0.  1.
         21    1    1    2  503  502  0.20019245668E+02  0.12563477463E+02  0.61365250758E+02  0.65759449235E+02  0.00000000000E+00 0. -1.
</event>
<event>
 4    1  0.2253948E+005  0.2157334E+02  0.7546771E-02  0.1511234E+00
          2   -1    0    0  503    0  0.00000000000E+00  0.00000000000E+00  0.29350922101E+02  0.29350922101E+02  0.00000000000E+00 0.  1.
         21   -1    0    0  501  502 -0.00000000000E+00 -0.00000000000E+00 -0.84434178560E+02  0.84434178560E+02  0.00000000000E+00 0. -1.
          2    1    1    2  501    0  0.37705735885E+01 -0.21241275885E+02  0.23731166425E+02  0.32071440353E+02  0.00000000000E+00 0.  1.
         21    1    1    2  503  502 -0.37705735885E+01  0.21241275885E+02 -0.78814422883E+02  0.81713660308E+02  0.00000000000E+00 0. -1.
</event>
<event>
 4    1  0.2253948E+005  0.2792626E+02  0.7546771E-02  0.1438519E+00
          2   -1    0    0  503    0  0.00000000000E+00  0.00000000000E+00  0.39060225099E+03  0.39060225099E+03  0.00000000000E+00 0. -1.
         21   -1    0    0  501  502 -0.00000000000E+00 -0.00000000000E+00 -0.20039360322E+01  0.20039360322E+01  0.00000000000E+00 0. -1.
          2    1    1    2  501    0  0.27913289530E+02  0.85100678172E+00  0.20617746123E+03  0.20806013905E+03  0.00000000000E+00 0. -1.
         21    1    1    2  503  502 -0.27913289530E+02 -0.85100678172E+00  0.18242085373E+03  0.18454604797E+03  0.00000000000E+00 0. -1.
</event>
<event>
 4    1  0.2253948E+005  0.2111280E+02  0.7546771E-02  0.1517660E+00
          2   -1    0    0  502    0  0.00000000000E+00  0.00000000000E+00  0.76875267478E+02  0.76875267478E+02  0.00000000000E+00 0.  1.
         21   -1    0    0  503  502 -0.00000000000E+00 -0.00000000000E+00 -0.27427701784E+02  0.27427701784E+02  0.00000000000E+00 0.  1.
          2    1    1    2  501    0 -0.80016710855E+01  0.19537750804E+02  0.71035791998E+02  0.74106910552E+02  0.00000000000E+00 0.  1.
         21    1    1    2  503  501  0.80016710855E+01 -0.19537750804E+02 -0.21588226304E+02  0.30196058710E+02  0.00000000000E+00 0.  1.
</event>
<event>
 4    1  0.2253948E+005  0.2043820E+02  0.7546771E-02  0.1527439E+00
          2   -1    0    0  503    0  0.00000000000E+00  0.00000000000E+00  0.31282491525E+03  0.31282491525E+03  0.00000000000E+00 0.  1.
         21   -1    0    0  501  502 -0.00000000000E+00 -0.00000000000E+00 -0.93941953975E+01  0.93941953975E+01  0.00000000000E+00 0.  1.
          2    1    1    2  501    0 -0.11874614550E+02 -0.16634707960E+02  0.30093598135E+03  0.30162921750E+03  0.00000000000E+00 0.  1.
         21    1    1    2  503  502  0.11874614550E+02  0.16634707960E+02  0.24947385037E+01  0.20589893147E+02  0.00000000000E+00 0.  1.
</event>
<event>
 4    1  0.2253948E+005  0.2324847E+02  0.7546771E-02  0.1489401E+00
          2   -1    0    0  502    0  0.00000000000E+00  0.00000000000E+00  0.16386872268E+04  0.16386872268E+04  0.00000000000E+00 0.  1.
         21   -1    0    0  503  502 -0.00000000000E+00 -0.00000000000E+00 -0.68152795704E+00  0.68152795704E+00  0.00000000000E+00 0.  1.
          2    1    1    2  501    0  0.10743798478E+02 -0.20617032799E+02  0.14078310449E+04  0.14080229907E+04  0.00000000000E+00 0.  1.
         21    1    1    2  503  501 -0.10743798478E+02  0.20617032799E+02  0.23017465393E+03  0.23134576408E+03  0.00000000000E+00 0.  1.
</event>
<event>
 4    1  0.2253948E+005  0.2104643E+02  0.7546771E-02  0.1518603E+00
          2   -1    0    0  502    0  0.00000000000E+00  0.00000000000E+00  0.81707069616E+02  0.81707069616E+02  0.00000000000E+00 0. -1.
         21   -1    0    0  503  502 -0.00000000000E+00 -0.00000000000E+00 -0.14889664559E+03  0.14889664559E+03  0.00000000000E+00 0.  1.
          2    1    1    2  501    0  0.70665499489E+01  0.19824632187E+02  0.79588577882E+02  0.82324321429E+02  0.00000000000E+00 0. -1.
         21    1    1    2  503  501 -0.70665499489E+01 -0.19824632187E+02 -0.14677815385E+03  0.14827939377E+03  0.00000000000E+00 0.  1.
</event>
<event>
 4    1  0.2253948E+005  0.2033747E+02  0.7546771E-02  0.1528938E+00
          2   -1    0    0  503    0  0.00000000000E+00  0.00000000000E+00  0.13184074090E+04  0.13184074090E+04  0.00000000000E+00 0.  1.
         21   -1    0    0  501  502 -0.00000000000E+00 -0.00000000000E+00 -0.44065339371E+00  0.44065339371E+00  0.00000000000E+00 0. -1.
          2    1    1    2  501    0 -0.46983947712E+01 -0.19787314069E+02  0.10129005538E+04  0.10131047057E+04  0.00000000000E+00 0.  1.
         21    1    1    2  503  502  0.46983947712E+01  0.19787314069E+02  0.30506620180E+03  0.30574335674E+03  0.00000000000E+00 0. -1.
</event>
<event>
 4    1  0.2253948E+005  0.2585403E+02  0.7546771E-02  0.1459472E+00
          2   -1    0    0  502    0  0.00000000000E+00  0.00000000000E+00  0.42382410485E+02  0.42382410485E+02  0.00000000000E+00 0. -1.
         21   -1    0    0  503  502 -0.00000000000E+00 -0.00000000000E+00 -0.23585728236E+02  0.23585728236E+02  0.00000000000E+00 0. -1.
          2    1    1    2  501    0  0.21102796433E+02  0.14936626171E+02  0.28383963757E+02  0.38393752320E+02  0.00000000000E+00 0. -1.
         21    1    1    2  503  501 -0.21102796433E+02 -0.14936626171E+02 -0.95872815082E+01  0.27574386401E+02  0.00000000000E+00 0. -1.
</event>
<event>
 4    1  0.2253948E+005  0.2047169E+02  0.7546771E-02  0.1526943E+00
          2   -1    0    0  503    0  0.00000000000E+00  0.00000000000E+00  0.11392530109E+04  0.11392530109E+04  0.00000000000E+00 0. -1.
         21   -1    0    0  501  502 -0.00000000000E+00 -0.00000000000E+00 -0.53969837187E+02  0.53969837187E+02  0.00000000000E+00 0. -1.
          2    1    1    2  501    0 -0.17705166235E+02  0.10277013834E+02  0.11372162528E+04  0.11374004992E+04  0.00000000000E+00 0. -1.
         21    1    1    2  503  502  0.17705166235E+02 -0.10277013834E+02 -0.51933079125E+02  0.55822348859E+02  0.00000000000E+00 0. -1.
</event>
<event>
 4    1  0.2253948E+005  0.2291648E+02  0.7546771E-02  0.1493550E+00
          2   -1    0    0  502    0  0.00000000000E+00  0.00000000000E+00  0.81051322893E+02  0.81051322893E+02  0.00000000000E+00 0. -1.
         21   -1    0    0  503  502 -0.00000000000E+00 -0.00000000000E+00 -0.93752428546E+02  0.93752428546E+02  0.00000000000E+00 0. -1.
          2    1    1    2  501    0  0.87787537377E+01 -0.21168332876E+02  0.77976997798E+02  0.81274700981E+02  0.00000000000E+00 0. -1.
         21    1    1    2  503  501 -0.87787537377E+01  0.21168332876E+02 -0.90678103451E+02  0.93529050457E+02  0.00000000000E+00 0. -1.
</event>
<event>
 4    1  0.2253948E+005  0.5283593E+02  0.7546771E-02  0.1286324E+00
          2   -1    0    0  502    0  0.00000000000E+00  0.00000000000E+00  0.62464762292E+03  0.62464762292E+03  0.00000000000E+00 0.  1.
         21   -1    0    0  503  502 -0.00000000000E+00 -0.00000000000E+00 -0.25418353337E+02  0.25418353337E+02  0.00000000000E+00 0. -1.
          2    1    1    2  501    0 -0.51438544012E+02 -0.12071110668E+02  0.59469317733E+03  0.59703568627E+03  0.00000000000E+00 0.  1.
         21    1    1    2  503  501  0.51438544012E+02  0.12071110668E+02  0.45360922563E+01  0.53030289984E+02  0.00000000000E+00 0. -1.
</event>
<event>
 4    1  0.2253948E+005  0.2043780E+02  0.7546771E-02  0.1527445E+00
          2   -1    0    0  503    0  0.00000000000E+00  0.00000000000E+00  0.69993174586E+03  0.69993174586E+03  0.00000000000E+00 0.  1.
         21   -1    0    0  501  502 -0.00000000000E+00 -0.00000000000E+00 -0.55589383854E+01  0.55589383854E+01  0.00000000000E+00 0. -1.
          2    1    1    2  501    0 -0.66336321295E+01 -0.19331285754E+02  0.68045989242E+03  0.68076675071E+03  0.00000000000E+00 0.  1.
         21    1    1    2  503  502  0.66336321295E+01  0.19331285754E+02  0.13912915062E+02  0.24723933539E+02  0.00000000000E+00 0. -1.
</event>
<event>
 4    1  0.2253948E+005  0.2234959E+02  0.7546771E-02  0.1500831E+00
          2   -1    0    0  503    0  0.00000000000E+00  0.00000000000E+00  0.19670463287E+04  0.19670463287E+04  0.00000000000E+00 0. -1.
         21   -1    0    0  501  502 -0.00000000000E+00 -0.00000000000E+00 -0.33365074587E+00  0.33365074587E+00  0.00000000000E+00 0. -1.
          2    1    1    2  501    0 -0.76071853891E+01  0.21015113183E+02  0.14641746686E+04  0.14643452340E+04  0.00000000000E+00 0. -1.
         21    1    1    2  503  502  0.76071853891E+01 -0.21015113183E+02  0.50253800936E+03  0.50303474542E+03  0.00000000000E+00 0. -1.
</event>
<event>
 4    1  0.2253948E+005  0.2540578E+02  0.7546771E-02  0.1464315E+00
          2   -1    0    0  502    0  0.00000000000E+00  0.00000000000E+00  0.79967852269E+02  0.79967852269E+02  0.00000000000E+00 0.  1.
         21   -1    0    0  503  502 -0.00000000000E+00 -0.00000000000E+00 -0.94382544653E+02  0.94382544653E+02  0.00000000000E+00 0. -1.
          2    1    1    2  501    0 -0.21104470549E+02 -0.14144076801E+02  0.76157030690E+02  0.80282917917E+02  0.00000000000E+00 0.  1.
         21    1    1    2  503  501  0.21104470549E+02  0.14144076801E+02 -0.90571723074E+02  0.94067479005E+02  0.00000000000E+00 0. -1.
</event>
<event>
 4    1  0.2253948E+005  0.2062861E+02  0.7546771E-02  0.1524634E+00
          2   -1    0    0  503    0  0.00000000000E+00  0.00000000000E+00  0.18090011848E+03  0.18090011848E+03  0.00000000000E+00 0. -1.
         21   -1    0    0  501  502 -0.00000000000E+00 -0.00000000000E+00 -0.23922097826E+01  0.23922097826E+01  0.00000000000E+00 0.  1.
          2    1    1    2  501    0 -0.19786591906E+02  0.58335675392E+01  0.10108442780E+03  0.10316783062E+03  0.00000000000E+00 0. -1.
         21    1    1    2  503  502  0.19786591906E+02 -0.58335675392E+01  0.77423480892E+02  0.80124497646E+02  0.00000000000E+00 0.  1.
</event>
<event>
 4    1  0.2253948E+005  0.2001379E+02  0.7546771E-02  0.1533825E+00
          2   -1    0    0  503    0  0.00000000000E+00  0.00000000000E+00  0.33770973820E+03  0.33770973820E+03  0.00000000000E+00 0.  1.
         21   -1    0    0  501  502 -0.00000000000E+00 -0.00000000000E+00 -0.13221209169E+01  0.13221209169E+01  0.00000000000E+00 0. -1.
          2    1    1    2  501    0 -0.86197607135E+01 -0.18062436028E+02  0.22256946167E+03  0.22346748564E+03  0.00000000000E+00 0.  1.
         21    1    1    2  503  502  0.86197607135E+01  0.18062436028E+02  0.11381815561E+03  0.11556437348E+03  0.00000000000E+00 0. -1.
</event>
<event>
 4    1  0.2253948E+005  0.2284541E+02  0.7546771E-02  0.1494448E+00
          2   -1    0    0  502    0  0.00000000000E+00  0.00000000000E+00  0.13318281653E+04  0.13318281653E+04  0.00000000000E+00 0. -1.
         21   -1    0    0  503  502 -0.00000000000E+00 -0.00000000000E+00 -0.96989715024E+00  0.96989715024E+00  0.00000000000E+00 0. -1.
          2    1    1    2  501    0 -0.99229487213E+01  0.20577849988E+02  0.11798789379E+04  0.11801000894E+04  0.00000000000E+00 0. -1.
         21    1    1    2  503  501  0.99229487213E+01 -0.20577849988E+02  0.15097933027E+03  0.15269797310E+03  0.00000000000E+00 0. -1.
</event>
<event>
 4    1  0.2253948E+005  0.5584940E+02  0.7546771E-02  0.1274627E+00
          2   -1    0    0  502    0  0.00000000000E+00  0.00000000000E+00  0.13346376925E+03  0.13346376925E+03  0.00000000000E+00 0. -1.
         21   -1    0    0  503  502 -0.00000000000E+00 -0.00000000000E+00 -0.36603321032E+02  0.36603321032E+02  0.00000000000E+00 0.  1.
          2    1    1    2  501    0 -0.11844241843E+02  0.54579021515E+02  0.99557336329E+02  0.11415261220E+03  0.00000000000E+00 0. -1.
         21    1    1    2  503  501  0.11844241843E+02 -0.54579021515E+02 -0.26968881080E+01  0.55914478088E+02  0.00000000000E+00 0.  1.
</event>
<event>
 4    1  0.2253948E+005  0.2429909E+02  0.7546771E-02  0.1476799E+00
          2   -1    0    0  503    0  0.00000000000E+00  0.00000000000E+00  0.29523044049E+03  0.29523044049E+03  0.00000000000E+00 0.  1.
         21   -1    0    0  501  502 -0.00000000000E+00 -0.00000000000E+00 -0.30771430033E+01  0.30771430033E+01  0.00000000000E+00 0. -1.
          2    1    1    2  501    0 -0.43534461641E+01  0.23905926539E+02  0.23432516798E+03  0.23558168470E+03  0.00000000000E+00 0.  1.
         21    1    1    2  503  502  0.43534461641E+01 -0.23905926539E+02  0.57828129508E+02  0.62725898795E+02  0.00000000000E+00 0. -1.
</event>
<event>
 4    1  0.2253948E+005  0.2462847E+02  0.7546771E-02  0.1473003E+00
          2   -1    0    0  503    0  0.00000000000E+00  0.00000000000E+00  0.23153819275E+04  0.23153819275E+04  0.00000000000E+00 0. -1.
         21   -1    0    0  501  502 -0.00000000000E+00 -0.00000000000E+00 -0.35626951807E+00  0.35626951807E+00  0.00000000000E+00 0. -1.
          2    1    1    2  501    0 -0.20391962281E+02 -0.13810481406E+02  0.56181783120E+03  0.56235739257E+03  0.00000000000E+00 0. -1.
         21    1    1    2  503  502  0.20391962281E+02  0.13810481406E+02  0.17532078268E+04  0.17533808045E+04  0.00000000000E+00 0. -1.
</event>
<event>
 4    1  0.2253948E+005  0.5636667E+02  0.7546771E-02  0.1272703E+00
          2   -1    0    0  503    0  0.00000000000E+00  0.00000000000E+00  0.25428879134E+02  0.25428879134E+02  0.00000000000E+00 0. -1.
         21   -1    0    0  501  502 -0.00000000000E+00 -0.00000000000E+00 -0.19175306421E+03  0.19175306421E+03  0.00000000000E+00 0.  1.
          2    1    1    2  501    0  0.20429339476E+02 -0.52534216062E+02 -0.19065015439E+02  0.59503584617E+02  0.00000000000E+00 0. -1.
         21    1    1    2  503  502 -0.20429339476E+02  0.52534216062E+02 -0.14725916963E+03  0.15767835872E+03  0.00000000000E+00 0.  1.
</event>
<event>
 4    1  0.2253948E+005  0.2068509E+02  0.7546771E-02  0.1523809E+00
          2   -1    0    0  502    0  0.00000000000E+00  0.00000000000E+00  0.62709504439E+03  0.62709504439E+03  0.00000000000E+00 0. -1.
         21   -1    0    0  503  502 -0.00000000000E+00 -0.00000000000E+00 -0.22932405974E+01  0.22932405974E+01  0.00000000000E+00 0.  1.
          2    1    1    2  501    0 -0.51844279332E+01 -0.20024854435E+02  0.57615686799E+03  0.57652806491E+03  0.00000000000E+00 0. -1.
         21    1    1    2  503  501  0.51844279332E+01  0.20024854435E+02  0.48644935795E+02  0.52860220077E+02  0.00000000000E+00 0.  1.
</event>
<event>
 4    1  0.2253948E+005  0.2687155E+02  0.7546771E-02  0.1448903E+00
          2   -1    0    0  503    0  0.00000000000E+00  0.00000000000E+00  0.58194633063E+02  0.58194633063E+02  0.00000000000E+00 0.  1.
         21   -1    0    0  501  502 -0.00000000000E+00 -0.00000000000E+00 -0.38319454581E+02  0.38319454581E+02  0.00000000000E+00 0.  1.
          2    1    1    2  501    0  0.22198472309E+02  0.15142925477E+02  0.49619881897E+02  0.56428831676E+02  0.00000000000E+00 0.  1.
         21    1    1    2  503  502 -0.22198472309E+02 -0.15142925477E+02 -0.29744703415E+02  0.40085255969E+02  0.00000000000E+00 0.  1.
</event>
<event>
 4    1  0.2253948E+005  0.2551443E+02  0.7546771E-02  0.1463130E+00
          2   -1    0    0  503    0  0.00000000000E+00  0.00000000000E+00  0.39292075279E+01  0.39292075279E+01  0.00000000000E+00 0. -1.
         21   -1    0    0  501  502 -0.00000000000E+00 -0.00000000000E+00 -0.56061240107E+03  0.56061240107E+03  0.00000000000E+00 0. -1.
          2    1    1    2  501    0 -0.23644352992E+02 -0.95880396686E+01 -0.41424328293E+02  0.48651422462E+02  0.00000000000E+00 0. -1.
         21    1    1    2  503  502  0.23644352992E+02  0.95880396686E+01 -0.51525886525E+03  0.51589018614E+03  0.00000000000E+00 0. -1.
</event>
<event>
 4    1  0.2253948E+005  0.2004124E+02  0.7546771E-02  0.1533406E+00
          2   -1    0    0  502    0  0.00000000000E+00  0.00000000000E+00  0.14652603093E+01  0.14652603093E+01  0.00000000000E+00 0. -1.
         21   -1    0    0  503  502 -0.00000000000E+00 -0.00000000000E+00 -0.35985266792E+03  0.35985266792E+03  0.00000000000E+00 0. -1.
          2    1    1    2  501    0 -0.77585977219E+01  0.18478510402E+02 -0.91011562131E+02  0.93192036284E+02  0.00000000000E+00 0. -1.
         21    1    1    2  503  501  0.77585977219E+01 -0.18478510402E+02 -0.26737584548E+03  0.26812589195E+03  0.00000000000E+00 0. -1.
</event>
<event>
 4    1  0.2253948E+005  0.8474090E+02  0.7546771E-02  0.1193249E+00
          2   -1    0    0  502    0  0.00000000000E+00  0.00000000000E+00  0.61379495955E+02  0.61379495955E+02  0.00000000000E+00 0. -1.
         21   -1    0    0  503  502 -0.00000000000E+00 -0.00000000000E+00 -0.49937327180E+03  0.49937327180E+03  0.00000000000E+00 0.  1.
          2    1    1    2  501    0 -0.71572479822E+02  0.45369605584E+02  0.26347463217E+02  0.88742378809E+02  0.00000000000E+00 0. -1.
         21    1    1    2  503  501  0.71572479822E+02 -0.45369605584E+02 -0.46434123906E+03  0.47201038894E+03  0.00000000000E+00 0.  1.
</event>
<event>
 4    1  0.2253948E+005  0.3345550E+02  0.7546771E-02  0.1391759E+00
          2   -1    0    0  503    0  0.00000000000E+00  0.00000000000E+00  0.15326270077E+04  0.15326270077E+04  0.00000000000E+00 0. -1.
         21   -1    0    0  501  502 -0.00000000000E+00 -0.00000000000E+00 -0.73116592966E+00  0.73116592966E+00  0.00000000000E+00 0. -1.
          2    1    1    2  501    0  0.30977871940E+02 -0.12634943430E+02  0.79240336446E+03  0.79310930038E+03  0.00000000000E+00 0. -1.
         21    1    1    2  503  502 -0.30977871940E+02  0.12634943430E+02  0.73949247730E+03  0.74024887324E+03  0.00000000000E+00 0. -1.
</event>
<event>
 4    1  0.2253948E+005  0.2433931E+02  0.7546771E-02  0.1476332E+00
          2   -1    0    0  503    0  0.00000000000E+00  0.00000000000E+00  0.14787911684E+04  0.14787911684E+04  0.00000000000E+00 0. -1.
         21   -1    0    0  501  502 -0.00000000000E+00 -0.00000000000E+00 -0.16439632759E+02  0.16439632759E+02  0.00000000000E+00 0. -1.
          2    1    1    2  501    0 -0.18270742138E+02 -0.16080483150E+02  0.14696260942E+04  0.14698276289E+04  0.00000000000E+00 0. -1.
         21    1    1    2  503  502  0.18270742138E+02  0.16080483150E+02 -0.72745585815E+01  0.25403172226E+02  0.00000000000E+00 0. -1.
</event>
<event>
 4    1  0.2253948E+005  0.2009303E+02  0.7546771E-02  0.1532618E+00
          2   -1    0    0  502    0  0.00000000000E+00  0.00000000000E+00  0.11601974186E+04  0.11601974186E+04  0.00000000000E+00 0. -1.
         21   -1    0    0  503  502 -0.00000000000E+00 -0.00000000000E+00 -0.28392795554E+03  0.28392795554E+03  0.00000000000E+00 0. -1.
          2    1    1    2  501    0  0.19205143215E+02  0.59069625900E+01  0.11597548010E+04  0.11599288461E+04  0.00000000000E+00 0. -1.
         21    1    1    2  503  501 -0.19205143215E+02 -0.59069625900E+01 -0.28348533790E+03  0.28419652801E+03  0.00000000000E+00 0. -1.
</event>
<event>
 4    1  0.2253948E+005  0.4325920E+02  0.7546771E-02  0.1330377E+00
          2   -1    0    0  502    0  0.00000000000E+00  0.00000000000E+00  0.76525649488E+03  0.76525649488E+03  0.00000000000E+00 0. -1.
         21   -1    0    0  503  502 -0.00000000000E+00 -0.00000000000E+00 -0.29414701999E+03  0.29414701999E+03  0.00000000000E+00 0.  1.
          2    1    1    2  501    0 -0.77769042584E+01 -0.42554409991E+02  0.76305005404E+03  0.76427530577E+03  0.00000000000E+00 0. -1.
         21    1    1    2  503  501  0.77769042584E+01  0.42554409991E+02 -0.29194057914E+03  0.29512820909E+03  0.00000000000E+00 0.  1.
</event>
<event>
 4    1  0.2253948E+005  0.2065178E+02  0.7546771E-02  0.1524295E+00
          2   -1    0    0  503    0  0.00000000000E+00  0.00000000000E+00  0.32537682969E+03  0.32537682969E+03  0.00000000000E+00 0. -1.
         21   -1    0    0  501  502 -0.00000000000E+00 -0.00000000000E+00 -0.15060188395E+02  0.15060188395E+02  0.00000000000E+00 0. -1.
          2    1    1    2  501    0 -0.73572658451E+01  0.19296803117E+02  0.31780067678E+03  0.31847098162E+03  0.00000000000E+00 0. -1.
         21    1    1    2  503  502  0.73572658451E+01 -0.19296803117E+02 -0.74840354785E+01  0.21966036472E+02  0.00000000000E+00 0. -1.
</event>
<event>
 4    1  0.2253948E+005  0.2535732E+02  0.7546771E-02  0.1464845E+00
          2   -1    0    0  503    0  0.00000000000E+00  0.00000000000E+00  0.11999948512E+04  0.11999948512E+04  0.00000000000E+00 0. -1.
         21   -1    0    0  501  502 -0.00000000000E+00 -0.00000000000E+00 -0.53791833740E+00  0.53791833740E+00  0.00000000000E+00 0. -1.
          2    1    1    2  501    0  0.98979524514E+01 -0.23345754596E+02  0.63712614560E+03  0.63763055065E+03  0.00000000000E+00 0. -1.
         21    1    1    2  503  502 -0.98979524514E+01  0.23345754596E+02  0.56233078730E+03  0.56290221892E+03  0.00000000000E+00 0. -1.
</event>
<event>
 4    1  0.2253948E+005  0.2168439E+02  0.7546771E-02  0.1509714E+00
          2   -1    0    0  503    0  0.00000000000E+00  0.00000000000E+00  0.54529841726E+03  0.54529841726E+03  0.00000000000E+00 0. -1.
         21   -1    0    0  501  502 -0.00000000000E+00 -0.00000000000E+00 -0.34103832644E+01  0.34103832644E+01  0.00000000000E+00 0. -1.
          2    1    1    2  501    0  0.19102501851E+02 -0.10261927537E+02  0.50809058576E+03  0.50855310054E+03  0.00000000000E+00 0. -1.
         21    1    1    2  503  502 -0.19102501851E+02  0.10261927537E+02  0.33797448234E+02  0.40155699980E+02  0.00000000000E+00 0. -1.
</event>
<event>
 4    1  0.2253948E+005  0.2314504E+02  0.7546771E-02  0.1490685E+00
          2   -1    0    0  502    0  0.00000000000E+00  0.00000000000E+00  0.15449892342E+04  0.15449892342E+04  0.00000000000E+00 0. -1.
         21   -1    0    0  503  502 -0.00000000000E+00 -0.00000000000E+00 -0.10841158850E+01  0.10841158850E+01  0.00000000000E+00 0. -1.
          2    1    1    2  501    0 -0.22891608259E+02 -0.34157388713E+01  0.14094961255E+04  0.14096861426E+04  0.00000000000E+00 0. -1.
         21    1    1    2  503  501  0.22891608259E+02  0.34157388713E+01  0.13440899290E+03  0.13638720751E+03  0.00000000000E+00 0. -1.
</event>
<event>
 4    1  0.2253948E+005  0.2595627E+02  0.7546771E-02  0.1458384E+00
          2   -1    0    0  502    0  0.00000000000E+00  0.00000000000E+00  0.14536069152E+03  0.14536069152E+03  0.00000000000E+00 0. -1.
         21   -1    0    0  503  502 -0.00000000000E+00 -0.00000000000E+00 -0.13970914755E+02  0.13970914755E+02  0.00000000000E+00 0.  1.
          2    1    1    2  501    0 -0.96005755697E+01  0.24115491460E+02  0.13081887351E+03  0.13336905806E+03  0.00000000000E+00 0. -1.
         21    1    1    2  503  501  0.96005755697E+01 -0.24115491460E+02  0.57090325411E+00  0.25962548222E+02  0.00000000000E+00 0.  1.
</event>
<event>
 4    1  0.2253948E+005  0.2386551E+02  0.7546771E-02  0.1481907E+00
          2   -1    0    0  502    0  0.00000000000E+00  0.00000000000E+00  0.27448564172E+02  0.27448564172E+02  0.00000000000E+00 0.  1.
         21   -1    0    0  503  502 -0.00000000000E+00 -0.00000000000E+00 -0.27377438930E+02  0.27377438930E+02  0.00000000000E+00 0. -1.
          2    1    1    2  501    0 -0.15858504717E+02  0.17834532242E+02  0.13522926461E+02  0.27430498577E+02  0.00000000000E+00 0.  1.
         21    1    1    2  503  501  0.15858504717E+02 -0.17834532242E+02 -0.13451801219E+02  0.27395504525E+02  0.00000000000E+00 0. -1.
</event>
<event>
 4    1  0.2253948E+005  0.2171351E+02  0.7546771E-02  0.1509317E+00
          2   -1    0    0  502    0  0.00000000000E+00  0.00000000000E+00  0.14138191849E+03  0.14138191849E+03  0.00000000000E+00 0.  1.
         21   -1    0    0  503  502 -0.00000000000E+00 -0.00000000000E+00 -0.16721761141E+02  0.16721761141E+02  0.00000000000E+00 0.  1.
          2    1    1    2  501    0  0.21554481703E+02  0.26231081445E+01  0.13306150885E+03  0.13482151725E+03  0.00000000000E+00 0.  1.
         21    1    1    2  503  501 -0.21554481703E+02 -0.26231081445E+01 -0.84013515009E+01  0.23282162375E+02  0.00000000000E+00 0.  1.
</event>
<event>
 4    1  0.2253948E+005  0.2390284E+02  0.7546771E-02  0.1481462E+00
          2   -1    0    0  503    0  0.00000000000E+00  0.00000000000E+00  0.58068256216E+03  0.58068256216E+03  0.00000000000E+00 0.  1.
         21   -1    0    0  501  502 -0.00000000000E+00 -0.00000000000E+00 -0.30156005835E+01  0.30156005835E+01  0.00000000000E+00 0. -1.
          2    1    1    2  501    0  0.33557289806E+01 -0.23666112428E+02  0.52838505243E+03  0.52892542898E+03  0.00000000000E+00 0.  1.
         21    1    1    2  503  502 -0.33557289806E+01  0.23666112428E+02  0.49281909155E+02  0.54772733768E+02  0.00000000000E+00 0. -1.
</event>
<event>
 4    1  0.2253948E+005  0.2204251E+02  0.7546771E-02  0.1504885E+00
          2   -1    0    0  503    0  0.00000000000E+00  0.00000000000E+00  0.93857917380E+02  0.93857917380E+02  0.00000000000E+00 0. -1.
         21   -1    0    0  501  502 -0.00000000000E+00 -0.00000000000E+00 -0.17881393271E+02  0.17881393271E+02  0.00000000000E+00 0. -1.
          2    1    1    2  501    0  0.21802859942E+02  0.32415558314E+01  0.85081413261E+02  0.87890382115E+02  0.00000000000E+00 0. -1.
         21    1    1    2  503  502 -0.21802859942E+02 -0.32415558314E+01 -0.91048891519E+01  0.23848928536E+02  0.00000000000E+00 0. -1.
</event>
<event>
 4    1  0.2253948E+005  0.2135570E+02  0.7546771E-02  0.1514246E+00
          2   -1    0    0  503    0  0.00000000000E+00  0.00000000000E+00  0.15304265181E+04  0.15304265181E+04  0.00000000000E+00 0.  1.
         21   -1    0    0  501  502 -0.00000000000E+00 -0.00000000000E+00 -0.34735234346E+01  0.34735234346E+01  0.00000000000E+00 0.  1.
          2    1    1    2  501    0 -0.12769790081E+01 -0.21317490622E+02  0.14967899522E+04  0.14969422925E+04  0.00000000000E+00 0.  1.
         21    1    1    2  503  502  0.12769790081E+01  0.21317490622E+02  0.30163042408E+02  0.36957748973E+02  0.00000000000E+00 0.  1.
</event>
<event>
 4    1  0.2253948E+005  0.2198293E+02  0.7546771E-02  0.1505680E+00
          2   -1    0    0  503    0  0.00000000000E+00  0.00000000000E+00  0.12250222787E+04  0.12250222787E+04  0.00000000000E+00 0. -1.
         21   -1    0    0  501  502 -0.00000000000E+00 -0.00000000000E+00 -0.24610992337E+01  0.24610992337E+01  0.00000000000E+00 0. -1.
          2    1    1    2  501    0  0.18324181213E+02  0.12143872553E+02  0.11736880633E+04  0.11738939131E+04  0.00000000000E+00 0. -1.
         21    1    1    2  503  502 -0.18324181213E+02 -0.12143872553E+02  0.48873116093E+02  0.53589464770E+02  0.00000000000E+00 0. -1.
</event>
<event>
 4    1  0.2253948E+005  0.2113743E+02  0.7546771E-02  0.1517312E+00
          2   -1    0    0  503    0  0.00000000000E+00  0.00000000000E+00  0.70246868025E+03  0.70246868025E+03  0.00000000000E+00 0. -1.
         21   -1    0    0  501  502 -0.00000000000E+00 -0.00000000000E+00 -0.20595612478E+01  0.20595612478E+01  0.00000000000E+00 0.  1.
          2    1    1    2  501    0 -0.52133334092E+01 -0.20484436169E+02  0.64306762076E+03  0.64341491733E+03  0.00000000000E+00 0. -1.
         21    1    1    2  503  502  0.52133334092E+01  0.20484436169E+02  0.57341498239E+02  0.61113324167E+02  0.00000000000E+00 0.  1.
</event>
<event>
 4    1  0.2253948E+005  0.2679360E+02  0.7546771E-02  0.1449693E+00
          2   -1    0    0  503    0  0.00000000000E+00  0.00000000000E+00  0.71618592266E+02  0.71618592266E+02  0.00000000000E+00 0.  1.
         21   -1    0    0  501  502 -0.00000000000E+00 -0.00000000000E+00 -0.16668751739E+02  0.16668751739E+02  0.00000000000E+00 0.  1.
          2    1    1    2  501    0  0.63583514173E+01 -0.26028220679E+02  0.55346390930E+02  0.61490811455E+02  0.00000000000E+00 0.  1.
         21    1    1    2  503  502 -0.63583514173E+01  0.26028220679E+02 -0.39655040330E+00  0.26796532549E+02  0.00000000000E+00 0.  1.
</event>
<event>
 4    1  0.2253948E+005  0.2097368E+02  0.7546771E-02  0.1519641E+00
          2   -1    0    0  503    0  0.00000000000E+00  0.00000000000E+00  0.32049888194E+03  0.32049888194E+03  0.00000000000E+00 0.  1.
         21   -1    0    0  501  502 -0.00000000000E+00 -0.00000000000E+00 -0.18546214716E+02  0.18546214716E+02  0.00000000000E+00 0.  1.
          2    1    1    2  501    0 -0.15809258660E+02  0.13782686717E+02  0.31410547204E+03  0.31480492798E+03  0.00000000000E+00 0.  1.
         21    1    1    2  503  502  0.15809258660E+02 -0.13782686717E+02 -0.12152804819E+02  0.24240168677E+02  0.00000000000E+00 0.  1.
</event>
<event>
 4    1  0.2253948E+005  0.2942873E+02  0.7546771E-02  0.1424627E+00
          2   -1    0    0  503    0  0.00000000000E+00  0.00000000000E+00  0.96856713018E+03  0.96856713018E+03  0.00000000000E+00 0.  1.
         21   -1    0    0  501  502 -0.00000000000E+00 -0.00000000000E+00 -0.72417917875E+02  0.72417917875E+02  0.00000000000E+00 0.  1.
          2    1    1    2  501    0  0.21668874252E+02 -0.19912562029E+02  0.96534384559E+03  0.96579231228E+03  0.00000000000E+00 0.  1.
         21    1    1    2  503  502 -0.21668874252E+02  0.19912562029E+02 -0.69194633286E+02  0.75192735776E+02  0.00000000000E+00 0.  1.
</event>
<event>
 4    1  0.2253948E+005  0.2818311E+02  0.7546771E-02  0.1436072E+00
          2   -1    0    0  503    0  0.00000000000E+00  0.00000000000E+00  0.56820590913E+03  0.56820590913E+03  0.00000000000E+00 0. -1.
         21   -1    0    0  501  502 -0.00000000000E+00 -0.00000000000E+00 -0.82503205297E+01  0.82503205297E+01  0.00000000000E+00 0.  1.
          2    1    1    2  501    0  0.19666438868E+02  0.20187099146E+02  0.54265557515E+03  0.54338693492E+03  0.00000000000E+00 0. -1.
         21    1    1    2  503  502 -0.19666438868E+02 -0.20187099146E+02  0.17300013445E+02  0.33069294745E+02  0.00000000000E+00 0.  1.
</event>
<event>
 4    1  0.2253948E+005  0.3819276E+02  0.7546771E-02  0.1359414E+00
          2   -1    0    0  503    0  0.00000000000E+00  0.00000000000E+00  0.27061049841E+03  0.27061049841E+03  0.00000000000E+00 0. -1.
         21   -1    0    0  501  502 -0.00000000000E+00 -0.00000000000E+00 -0.60731830861E+01  0.60731830861E+01  0.00000000000E+00 0. -1.
          2    1    1    2  501    0  0.63317129762E+00  0.38187512315E+02  0.85881192576E+02  0.93990777425E+02  0.00000000000E+00 0. -1.
         21    1    1    2  503  502 -0.63317129762E+00 -0.38187512315E+02  0.17865612275E+03  0.18269290407E+03  0.00000000000E+00 0. -1.
</event>
<event>
 4    1  0.2253948E+005  0.2273670E+02  0.7546771E-02  0.1495831E+00
          2   -1    0    0  503    0  0.00000000000E+00  0.00000000000E+00  0.19381061802E+02  0.19381061802E+02  0.00000000000E+00 0.  1.
         21   -1    0    0  501  502 -0.00000000000E+00 -0.00000000000E+00 -0.59995961086E+03  0.59995961086E+03  0.00000000000E+00 0.  1.
          2    1    1    2  501    0  0.24974733081E+01  0.22599117407E+02  0.12419055667E+02  0.25907343055E+02  0.00000000000E+00 0.  1.
         21    1    1    2  503  502 -0.24974733081E+01 -0.22599117407E+02 -0.59299760473E+03  0.59343332961E+03  0.00000000000E+00 0.  1.
</event>
<event>
 4    1  0.2253948E+005  0.3911897E+02  0.7546771E-02  0.1353727E+00
          2   -1    0    0  503    0  0.00000000000E+00  0.00000000000E+00  0.63610445456E+02  0.63610445456E+02  0.00000000000E+00 0.  1.
         21   -1    0    0  501  502 -0.00000000000E+00 -0.00000000000E+00 -0.39634138121E+02  0.39634138121E+02  0.00000000000E+00 0. -1.
          2    1    1    2  501    0  0.20297867492E+02  0.33440848916E+02  0.44350694612E+02  0.59137787527E+02  0.00000000000E+00 0.  1.
         21    1    1    2  503  502 -0.20297867492E+02 -0.33440848916E+02 -0.20374387277E+02  0.44106796051E+02  0.00000000000E+00 0. -1.
</event>
<event>
 4    1  0.2253948E+005  0.3484049E+02  0.7546771E-02  0.1381688E+00
          2   -1    0    0  502    0  0.00000000000E+00  0.00000000000E+00  0.18447833514E+04  0.18447833514E+04  0.00000000000E+00 0.  1.
         21   -1    0    0  503  502 -0.00000000000E+00 -0.00000000000E+00 -0.17563147016E+02  0.17563147016E+02  0.00000000000E+00 0. -1.
          2    1    1    2  501    0  0.21395936170E+02 -0.27496791421E+02  0.18271738408E+04  0.18275059793E+04  0.00000000000E+00 0.  1.
         21    1    1    2  503  501 -0.21395936170E+02  0.27496791421E+02  0.46363520137E-01  0.34840519121E+02  0.00000000000E+00 0. -1.
</event>
<event>
 4    1  0.2253948E+005  0.3006975E+02  0.7546771E-02  0.1418991E+00
          2   -1    0    0  502    0  0.00000000000E+00  0.00000000000E+00  0.87975013905E+03  0.87975013905E+03  0.00000000000E+00 0.  1.
         21   -1    0    0  503  502 -0.00000000000E+00 -0.00000000000E+00 -0.10227496444E+02  0.10227496444E+02  0.00000000000E+00 0.  1.
          2    1    1    2  501    0 -0.20517214899E+02  0.21982583479E+02  0.85679939954E+03  0.85732689281E+03  0.00000000000E+00 0.  1.
         21    1    1    2  503  501  0.20517214899E+02 -0.21982583479E+02  0.12723243066E+02  0.32650742683E+02  0.00000000000E+00 0.  1.
</event>
<event>
 4    1  0.2253948E+005  0.3154162E+02  0.7546771E-02  0.1406657E+00
          2   -1    0    0  502    0  0.00000000000E+00  0.00000000000E+00  0.75132520145E+03  0.75132520145E+03  0.00000000000E+00 0. -1.
         21   -1    0    0  503  502 -0.00000000000E+00 -0.00000000000E+00 -0.20563782565E+02  0.20563782565E+02  0.00000000000E+00 0.  1.
          2    1    1    2  501    0 -0.23322058040E+02  0.21235704562E+02  0.73869244118E+03  0.73936553625E+03  0.00000000000E+00 0. -1.
         21    1    1    2  503  501  0.23322058040E+02 -0.21235704562E+02 -0.79310223001E+01  0.32523447760E+02  0.00000000000E+00 0.  1.
</event>
<event>
 4    1  0.2253948E+005  0.2375696E+02  0.7546771E-02  0.1483206E+00
          2   -1    0    0  503    0  0.00000000000E+00  0.00000000000E+00  0.96735371780E+02  0.96735371780E+02  0.00000000000E+00 0.  1.
         21   -1    0    0  501  502 -0.00000000000E+00 -0.00000000000E+00 -0.33617523289E+02  0.33617523289E+02  0.00000000000E+00 0. -1.
          2    1    1    2  501    0  0.71140583512E+01  0.22666791312E+02  0.90810285014E+02  0.93866400373E+02  0.00000000000E+00 0.  1.
         21    1    1    2  503  502 -0.71140583512E+01 -0.22666791312E+02 -0.27692436523E+02  0.36486494696E+02  0.00000000000E+00 0. -1.
</event>
<event>
 4    1  0.2253948E+005  0.5217283E+02  0.7546771E-02  0.1289017E+00
          2   -1    0    0  503    0  0.00000000000E+00  0.00000000000E+00  0.15867059389E+04  0.15867059389E+04  0.00000000000E+00 0.  1.
         21   -1    0    0  501  502 -0.00000000000E+00 -0.00000000000E+00 -0.21460822704E+01  0.21460822704E+01  0.00000000000E+00 0.  1.
          2    1    1    2  501    0  0.51921522719E+02  0.51146097377E+01  0.11481203297E+04  0.11493051358E+04  0.00000000000E+00 0.  1.
         21    1    1    2  503  502 -0.51921522719E+02 -0.51146097377E+01  0.43643952700E+03  0.43954688542E+03  0.00000000000E+00 0.  1.
</event>
<event>
 4    1  0.2253948E+005  0.2813026E+02  0.7546771E-02  0.1436573E+00
          2   -1    0    0  503    0  0.00000000000E+00  0.00000000000E+00  0.37272138777E+03  0.37272138777E+03  0.00000000000E+00 0.  1.
         21   -1    0    0  501  502 -0.00000000000E+00 -0.00000000000E+00 -0.43159813248E+01  0.43159813248E+01  0.00000000000E+00 0.  1.
          2    1    1    2  501    0 -0.28016010942E+02 -0.25327598881E+01  0.31857992264E+03  0.31981944726E+03  0.00000000000E+00 0.  1.
         21    1    1    2  503  502  0.28016010942E+02  0.25327598881E+01  0.49825483810E+02  0.57217921831E+02  0.00000000000E+00 0.  1.
</event>
<event>
 4    1  0.2253948E+005  0.2085674E+02  0.7546771E-02  0.1521320E+00
          2   -1    0    0  502    0  0.00000000000E+00  0.00000000000E+00  0.60878639163E+02  0.60878639163E+02  0.00000000000E+00 0. -1.
         21   -1    0    0  503  502 -0.00000000000E+00 -0.00000000000E+00 -0.58416783060E+02  0.58416783060E+02  0.00000000000E+00 0.  1.
          2    1    1    2  501    0 -0.44956072972E+01  0.20366467901E+02  0.57111699404E+02  0.60800902201E+02  0.00000000000E+00 0. -1.
         21    1    1    2  503  501  0.44956072972E+01 -0.20366467901E+02 -0.54649843300E+02  0.58494520021E+02  0.00000000000E+00 0.  1.
</event>
<event>
 4    1  0.2253948E+005  0.2054103E+02  0.7546771E-02  0.1525920E+00
          2   -1    0    0  502    0  0.00000000000E+00  0.00000000000E+00  0.44798707884E+03  0.44798707884E+03  0.00000000000E+00 0.  1.
         21   -1    0    0  503  502 -0.00000000000E+00 -0.00000000000E+00 -0.23737829263E+01  0.23737829263E+01  0.00000000000E+00 0.  1.
          2    1    1    2  501    0  0.77314370478E+01 -0.19030472222E+02  0.39769962716E+03  0.39822974203E+03  0.00000000000E+00 0.  1.
         21    1    1    2  503  501 -0.77314370478E+01  0.19030472222E+02  0.47913668755E+02  0.52131119741E+02  0.00000000000E+00 0.  1.
</event>
<event>
 4    1  0.2253948E+005  0.2367379E+02  0.7546771E-02  0.1484206E+00
          2   -1    0    0  503    0  0.00000000000E+00  0.00000000000E+00  0.23219313146E+03  0.23219313146E+03  0.00000000000E+00 0. -1.
         21   -1    0    0  501  502 -0.00000000000E+00 -0.00000000000E+00 -0.70711998664E+01  0.70711998664E+01  0.00000000000E+00 0. -1.
          2    1    1    2  501    0 -0.46894849043E+01  0.23204682173E+02  0.20965153213E+03  0.21098391756E+03  0.00000000000E+00 0. -1.
         21    1    1    2  503  502  0.46894849043E+01 -0.23204682173E+02  0.15470399466E+02  0.28280413771E+02  0.00000000000E+00 0. -1.
</event>
<event>
 4    1  0.2253948E+005  0.2495095E+02  0.7546771E-02  0.1469353E+00
          2   -1    0    0  503    0  0.00000000000E+00  0.00000000000E+00  0.48561430663E+02  0.48561430663E+02  0.00000000000E+00 0.  1.
         21   -1    0    0  501  502 -0.00000000000E+00 -0.00000000000E+00 -0.24220835534E+03  0.24220835534E+03  0.00000000000E+00 0.  1.
          2    1    1    2  501    0 -0.17030891188E+02 -0.18234543395E+02  0.44661588436E+02  0.51158648429E+02  0.00000000000E+00 0.  1.
         21    1    1    2  503  502  0.17030891188E+02  0.18234543395E+02 -0.23830851312E+03  0.23961113758E+03  0.00000000000E+00 0.  1.
</event>
<event>
 4    1  0.2253948E+005  0.2318240E+02  0.7546771E-02  0.1490220E+00
          2   -1    0    0  503    0  0.00000000000E+00  0.00000000000E+00  0.12545648050E+04  0.12545648050E+04  0.00000000000E+00 0. -1.
         21   -1    0    0  501  502 -0.00000000000E+00 -0.00000000000E+00 -0.86349984908E+00  0.86349984908E+00  0.00000000000E+00 0. -1.
          2    1    1    2  501    0  0.10189442741E+01  0.23159999853E+02  0.10724431527E+04  0.10726936840E+04  0.00000000000E+00 0. -1.
         21    1    1    2  503  502 -0.10189442741E+01 -0.23159999853E+02  0.18125815249E+03  0.18273462092E+03  0.00000000000E+00 0. -1.
</event>
<event>
 4    1  0.2253948E+005  0.2494494E+02  0.7546771E-02  0.1469420E+00
          2   -1    0    0  503    0  0.00000000000E+00  0.00000000000E+00  0.72081613270E+02  0.72081613270E+02  0.00000000000E+00 0. -1.
         21   -1    0    0  501  502 -0.00000000000E+00 -0.00000000000E+00 -0.86488732802E+01  0.86488732802E+01  0.00000000000E+00 0.  1.
          2    1    1    2  501    0 -0.75309196755E+01  0.23780990115E+02  0.29964340084E+02  0.38988612680E+02  0.00000000000E+00 0. -1.
         21    1    1    2  503  502  0.75309196755E+01 -0.23780990115E+02  0.33468399905E+02  0.41741873870E+02  0.00000000000E+00 0.  1.
</event>
<event>
 4    1  0.2253948E+005  0.3470716E+02  0.7546771E-02  0.1382634E+00
          2   -1    0    0  503    0  0.00000000000E+00  0.00000000000E+00  0.85681282948E+03  0.85681282948E+03  0.00000000000E+00 0. -1.
         21   -1    0    0  501  502 -0.00000000000E+00 -0.00000000000E+00 -0.20735448694E+02  0.20735448694E+02  0.00000000000E+00 0. -1.
          2    1    1    2  501    0 -0.29892783664E+02  0.17635430055E+02  0.84167701621E+03  0.84239229966E+03  0.00000000000E+00 0. -1.
         21    1    1    2  503  502  0.29892783664E+02 -0.17635430055E+02 -0.55996354252E+01  0.35155978514E+02  0.00000000000E+00 0. -1.
</event>
<event>
 4    1  0.2253948E+005  0.2307291E+02  0.7546771E-02  0.1491585E+00
          2   -1    0    0  503    0  0.00000000000E+00  0.00000000000E+00  0.24561939233E+03  0.24561939233E+03  0.00000000000E+00 0. -1.
         21   -1    0    0  501  502 -0.00000000000E+00 -0.00000000000E+00 -0.28419245436E+01  0.28419245436E+01  0.00000000000E+00 0. -1.
          2    1    1    2  501    0  0.21833265932E+02  0.74610710408E+01  0.18191120625E+03  0.18336860702E+03  0.00000000000E+00 0. -1.
         21    1    1    2  503  502 -0.21833265932E+02 -0.74610710408E+01  0.60866261544E+02  0.65092709858E+02  0.00000000000E+00 0. -1.
</event>
<event>
 4    1  0.2253948E+005  0.3308171E+02  0.7546771E-02  0.1394575E+00
          2   -1    0    0  503    0  0.00000000000E+00  0.00000000000E+00  0.39330111938E+03  0.39330111938E+03  0.00000000000E+00 0.  1.
         21   -1    0    0  501  502 -0.00000000000E+00 -0.00000000000E+00 -0.49789377303E+01  0.49789377303E+01  0.00000000000E+00 0.  1.
          2    1    1    2  501    0  0.32009849719E+02  0.83527709954E+01  0.32642455324E+03  0.32809661415E+03  0.00000000000E+00 0.  1.
         21    1    1    2  503  502 -0.32009849719E+02 -0.83527709954E+01  0.61897628414E+02  0.70183442960E+02  0.00000000000E+00 0.  1.
</event>
<event>
 4    1  0.2253948E+005  0.2349925E+02  0.7546771E-02  0.1486322E+00
          2   -1    0    0  502    0  0.00000000000E+00  0.00000000000E+00  0.40605472798E+02  0.40605472798E+02  0.00000000000E+00 0. -1.
         21   -1    0    0  503  502 -0.00000000000E+00 -0.00000000000E+00 -0.74364834928E+02  0.74364834928E+02  0.00000000000E+00 0.  1.
          2    1    1    2  501    0  0.74091750058E+01 -0.22300646018E+02  0.35083985542E+02  0.42226777389E+02  0.00000000000E+00 0. -1.
         21    1    1    2  503  501 -0.74091750058E+01  0.22300646018E+02 -0.68843347673E+02  0.72743530337E+02  0.00000000000E+00 0.  1.
</event>
<event>
 4    1  0.2253948E+005  0.2431221E+02  0.7546771E-02  0.1476647E+00
          2   -1    0    0  502    0  0.00000000000E+00  0.00000000000E+00  0.43885843006E+02  0.43885843006E+02  0.00000000000E+00 0. -1.
         21   -1    0    0  503  502 -0.00000000000E+00 -0.00000000000E+00 -0.68233139186E+02  0.68233139186E+02  0.00000000000E+00 0.  1.
          2    1    1    2  501    0  0.23512529246E+02 -0.61842255822E+01  0.38049153981E+02  0.45153314344E+02  0.00000000000E+00 0. -1.
         21    1    1    2  503  501 -0.23512529246E+02  0.61842255822E+01 -0.62396450161E+02  0.66965667847E+02  0.00000000000E+00 0.  1.
</event>
<event>
 4    1  0.2253948E+005  0.3795473E+02  0.7546771E-02  0.1360906E+00
          2   -1    0    0  502    0  0.00000000000E+00  0.00000000000E+00  0.12339801505E+04  0.12339801505E+04  0.00000000000E+00 0. -1.
         21   -1    0    0  503  502 -0.00000000000E+00 -0.00000000000E+00 -0.49028848619E+01  0.49028848619E+01  0.00000000000E+00 0.  1.
          2    1    1    2  501    0  0.34755492283E+02 -0.15251802013E+02  0.11552273758E+04  0.11558507047E+04  0.00000000000E+00 0. -1.
         21    1    1    2  503  501 -0.34755492283E+02  0.15251802013E+02  0.73849889777E+02  0.83032330622E+02  0.00000000000E+00 0.  1.
</event>
<event>
 4    1  0.2253948E+005  0.2294580E+02  0.7546771E-02  0.1493180E+00
          2   -1    0    0  503    0  0.00000000000E+00  0.00000000000E+00  0.28919478001E+03  0.28919478001E+03  0.00000000000E+00 0.  1.
         21   -1    0    0  501  502 -0.00000000000E+00 -0.00000000000E+00 -0.43664543234E+01  0.43664543234E+01  0.00000000000E+00 0.  1.
          2    1    1    2  501    0  0.17489272324E+02 -0.14853789604E+02  0.25449220175E+03  0.25552453985E+03  0.00000000000E+00 0.  1.
         21    1    1    2  503  502 -0.17489272324E+02  0.14853789604E+02  0.30336123936E+02  0.38036694486E+02  0.00000000000E+00 0.  1.
</event>
<event>
 4    1  0.2253948E+005  0.2593093E+02  0.7546771E-02  0.1458653E+00
          2   -1    0    0  502    0  0.00000000000E+00  0.00000000000E+00  0.20550671360E+04  0.20550671360E+04  0.00000000000E+00 0.  1.
         21   -1    0    0  503  502 -0.00000000000E+00 -0.00000000000E+00 -0.68861123521E+00  0.68861123521E+00  0.00000000000E+00 0.  1.
          2    1    1    2  501    0  0.22378150274E+02  0.13100813233E+02  0.17718471026E+04  0.17720368416E+04  0.00000000000E+00 0.  1.
         21    1    1    2  503  501 -0.22378150274E+02 -0.13100813233E+02  0.28253142221E+03  0.28371890570E+03  0.00000000000E+00 0.  1.
</event>
<event>
 4    1  0.2253948E+005  0.3698858E+02  0.7546771E-02  0.1367097E+00
          2   -1    0    0  503    0  0.00000000000E+00  0.00000000000E+00  0.95913313976E+03  0.95913313976E+03  0.00000000000E+00 0.  1.
         21   -1    0    0  501  502 -0.00000000000E+00 -0.00000000000E+00 -0.17182343153E+01  0.17182343153E+01  0.00000000000E+00 0.  1.
          2    1    1    2  501    0  0.22506171122E+02 -0.29353490827E+02  0.67668513416E+03  0.67769530465E+03  0.00000000000E+00 0.  1.
         21    1    1    2  503  502 -0.22506171122E+02  0.29353490827E+02  0.28072977129E+03  0.28315606942E+03  0.00000000000E+00 0.  1.
</event>
<event>
 4    1  0.2253948E+005  0.2135278E+02  0.7546771E-02  0.1514287E+00
          2   -1    0    0  503    0  0.00000000000E+00  0.00000000000E+00  0.17468532169E+04  0.17468532169E+04  0.00000000000E+00 0. -1.
         21   -1    0    0  501  502 -0.00000000000E+00 -0.00000000000E+00 -0.47304373223E+00  0.47304373223E+00  0.00000000000E+00 0.  1.
          2    1    1    2  501    0 -0.21216051795E+02  0.24125343195E+01  0.14581131719E+04  0.14582695098E+04  0.00000000000E+00 0. -1.
         21    1    1    2  503  502  0.21216051795E+02 -0.24125343195E+01  0.28826700132E+03  0.28905675088E+03  0.00000000000E+00 0.  1.
</event>
<event>
 4    1  0.2253948E+005  0.2032116E+02  0.7546771E-02  0.1529181E+00
          2   -1    0    0  502    0  0.00000000000E+00  0.00000000000E+00  0.62794203765E+03  0.62794203765E+03  0.00000000000E+00 0.  1.
         21   -1    0    0  503  502 -0.00000000000E+00 -0.00000000000E+00 -0.19803130121E+02  0.19803130121E+02  0.00000000000E+00 0. -1.
          2    1    1    2  501    0  0.17184322242E+02  0.10846600570E+02  0.62251904285E+03  0.62285063088E+03  0.00000000000E+00 0.  1.
         21    1    1    2  503  501 -0.17184322242E+02 -0.10846600570E+02 -0.14380135326E+02  0.24894536887E+02  0.00000000000E+00 0. -1.
</event>
<event>
 4    1  0.2253948E+005  0.2044934E+02  0.7546771E-02  0.1527274E+00
          2   -1    0    0  503    0  0.00000000000E+00  0.00000000000E+00  0.34901634403E+01  0.34901634403E+01  0.00000000000E+00 0. -1.
         21   -1    0    0  501  502 -0.00000000000E+00 -0.00000000000E+00 -0.20688919006E+03  0.20688919006E+03  0.00000000000E+00 0.  1.
          2    1    1    2  501    0  0.18956293451E+02 -0.76703605858E+01 -0.33458129076E+02  0.39212522161E+02  0.00000000000E+00 0. -1.
         21    1    1    2  503  502 -0.18956293451E+02  0.76703605858E+01 -0.16994089755E+03  0.17116683134E+03  0.00000000000E+00 0.  1.
</event>
<event>
 4    1  0.2253948E+005  0.3547825E+02  0.7546771E-02  0.1377232E+00
          2   -1    0    0  502    0  0.00000000000E+00  0.00000000000E+00  0.30860668705E+03  0.30860668705E+03  0.00000000000E+00 0.  1.
         21   -1    0    0  503  502 -0.00000000000E+00 -0.00000000000E+00 -0.11734636050E+02  0.11734636050E+02  0.00000000000E+00 0.  1.
          2    1    1    2  501    0  0.31071143507E+02 -0.17125711762E+02  0.27781033744E+03  0.28006658057E+03  0.00000000000E+00 0.  1.
         21    1    1    2  503  501 -0.31071143507E+02  0.17125711762E+02  0.19061713559E+02  0.40274742531E+02  0.00000000000E+00 0.  1.
</event>
<event>
 4    1  0.2253948E+005  0.2221297E+02  0.7546771E-02  0.1502625E+00
          2   -1    0    0  503    0  0.00000000000E+00  0.00000000000E+00  0.57325325225E+01  0.57325325225E+01  0.00000000000E+00 0.  1.
         21   -1    0    0  501  502 -0.00000000000E+00 -0.00000000000E+00 -0.86092832388E+02  0.86092832388E+02  0.00000000000E+00 0.  1.
          2    1    1    2  501    0  0.22043004513E+02  0.27426393144E+01 -0.39482834079E+02  0.45302431560E+02  0.00000000000E+00 0.  1.
         21    1    1    2  503  502 -0.22043004513E+02 -0.27426393144E+01 -0.40877465787E+02  0.46522933350E+02  0.00000000000E+00 0.  1.
</event>
<event>
 4    1  0.2253948E+005  0.2604990E+02  0.7546771E-02  0.1457393E+00
          2   -1    0    0  503    0  0.00000000000E+00  0.00000000000E+00  0.15027927554E+04  0.15027927554E+04  0.00000000000E+00 0. -1.
         21   -1    0    0  501  502 -0.00000000000E+00 -0.00000000000E+00 -0.48137031632E+01  0.48137031632E+01  0.00000000000E+00 0.  1.
          2    1    1    2  501    0 -0.26028828184E+02 -0.10475591199E+01  0.14665663847E+04  0.14667977223E+04  0.00000000000E+00 0. -1.
         21    1    1    2  503  502  0.26028828184E+02  0.10475591199E+01  0.31412667502E+02  0.40808736274E+02  0.00000000000E+00 0.  1.
</event>
<event>
 4    1  0.2253948E+005  0.2873657E+02  0.7546771E-02  0.1430903E+00
          2   -1    0    0  503    0  0.00000000000E+00  0.00000000000E+00  0.21520002320E+04  0.21520002320E+04  0.00000000000E+00 0.  1.
         21   -1    0    0  501  502 -0.00000000000E+00 -0.00000000000E+00 -0.13650740547E+01  0.13650740547E+01  0.00000000000E+00 0.  1.
          2    1    1    2  501    0  0.20645711899E+01 -0.28662309687E+02  0.19882106441E+04  0.19884183050E+04  0.00000000000E+00 0.  1.
         21    1    1    2  503  502 -0.20645711899E+01  0.28662309687E+02  0.16242451393E+03  0.16494700111E+03  0.00000000000E+00 0.  1.
</event>
<event>
 4    1  0.2253948E+005  0.2908484E+02  0.7546771E-02  0.1427719E+00
          2   -1    0    0  502    0  0.00000000000E+00  0.00000000000E+00  0.96242203876E+03  0.96242203876E+03  0.00000000000E+00 0.  1.
         21   -1    0    0  503  502 -0.00000000000E+00 -0.00000000000E+00 -0.28162188986E+01  0.28162188986E+01  0.00000000000E+00 0.  1.
          2    1    1    2  501    0  0.15466101946E+02 -0.24631846484E+02  0.88008432620E+03  0.88056479000E+03  0.00000000000E+00 0.  1.
         21    1    1    2  503  501 -0.15466101946E+02  0.24631846484E+02  0.79521493661E+02  0.84673467655E+02  0.00000000000E+00 0.  1.
</event>
<event>
 4    1  0.2253948E+005  0.3129863E+02  0.7546771E-02  0.1408637E+00
          2   -1    0    0  502    0  0.00000000000E+00  0.00000000000E+00  0.32722016250E+02  0.32722016250E+02  0.00000000000E+00 0. -1.
         21   -1    0    0  503  502 -0.00000000000E+00 -0.00000000000E+00 -0.31155600839E+02  0.31155600839E+02  0.00000000000E+00 0. -1.
          2    1    1    2  501    0  0.28360025138E+02 -0.13240589424E+02  0.70993641612E+01  0.32093694172E+02  0.00000000000E+00 0. -1.
         21    1    1    2  503  501 -0.28360025138E+02  0.13240589424E+02 -0.55329487497E+01  0.31783922917E+02  0.00000000000E+00 0. -1.
</event>
<event>
 4    1  0.2253948E+005  0.2582141E+02  0.7546771E-02  0.1459820E+00
          2   -1    0    0  502    0  0.00000000000E+00  0.00000000000E+00  0.37931031550E+03  0.37931031550E+03  0.00000000000E+00 0. -1.
         21   -1    0    0  503  502 -0.00000000000E+00 -0.00000000000E+00 -0.92369372790E+02  0.92369372790E+02  0.00000000000E+00 0.  1.
          2    1    1    2  501    0  0.25368871396E+02 -0.48130524751E+01  0.37705552900E+03  0.37793864193E+03  0.00000000000E+00 0. -1.
         21    1    1    2  503  501 -0.25368871396E+02  0.48130524751E+01 -0.90114586294E+02  0.93741046362E+02  0.00000000000E+00 0.  1.
</event>
<event>
 4    1  0.2253948E+005  0.3407590E+02  0.7546771E-02  0.1387179E+00
          2   -1    0    0  503    0  0.00000000000E+00  0.00000000000E+00  0.18892145892E+03  0.18892145892E+03  0.00000000000E+00 0.  1.
         21   -1    0    0  501  502 -0.00000000000E+00 -0.00000000000E+00 -0.29423048323E+02  0.29423048323E+02  0.00000000000E+00 0.  1.
          2    1    1    2  501    0 -0.57514680085E+00 -0.34071046432E+02  0.17685153416E+03  0.18010450337E+03  0.00000000000E+00 0.  1.
         21    1    1    2  503  502  0.57514680085E+00  0.34071046432E+02 -0.17353123565E+02  0.38240003873E+02  0.00000000000E+00 0.  1.
</event>
<event>
 4    1  0.2253948E+005  0.4488797E+02  0.7546771E-02  0.1322001E+00
          2   -1    0    0  502    0  0.00000000000E+00  0.00000000000E+00  0.66720041212E+03  0.66720041212E+03  0.00000000000E+00 0. -1.
         21   -1    0    0  503  502 -0.00000000000E+00 -0.00000000000E+00 -0.68604401773E+01  0.68604401773E+01  0.00000000000E+00 0.  1.
          2    1    1    2  501    0  0.42777082587E+02 -0.13603338156E+02  0.58233506680E+03  0.58406254771E+03  0.00000000000E+00 0. -1.
         21    1    1    2  503  501 -0.42777082587E+02  0.13603338156E+02  0.78004905143E+02  0.89998304595E+02  0.00000000000E+00 0.  1.
</event>
<event>
 4    1  0.2253948E+005  0.3354278E+02  0.7546771E-02  0.1391108E+00
          2   -1    0    0  503    0  0.00000000000E+00  0.00000000000E+00  0.12211837205E+04  0.12211837205E+04  0.00000000000E+00 0. -1.
         21   -1    0    0  501  502 -0.00000000000E+00 -0.00000000000E+00 -0.13834438640E+01  0.13834438640E+01  0.00000000000E+00 0.  1.
          2    1    1    2  501    0  0.26220678408E+02  0.20918750529E+02  0.96319276487E+03  0.96377664446E+03  0.00000000000E+00 0. -1.
         21    1    1    2  503  502 -0.26220678408E+02 -0.20918750529E+02  0.25660751178E+03  0.25879051992E+03  0.00000000000E+00 0.  1.
</event>
<event>
 4    1  0.2253948E+005  0.2194739E+02  0.7546771E-02  0.1506156E+00
          2   -1    0    0  502    0  0.00000000000E+00  0.00000000000E+00  0.46819348897E+03  0.46819348897E+03  0.00000000000E+00 0.  1.
         21   -1    0    0  503  502 -0.00000000000E+00 -0.00000000000E+00 -0.20843785923E+02  0.20843785923E+02  0.00000000000E+00 0.  1.
          2    1    1    2  501    0  0.21378610006E+02 -0.49641545489E+01  0.46208256756E+03  0.46260348793E+03  0.00000000000E+00 0.  1.
         21    1    1    2  503  501 -0.21378610006E+02  0.49641545489E+01 -0.14732864520E+02  0.26433786962E+02  0.00000000000E+00 0.  1.
</event>
<event>
 4    1  0.2253948E+005  0.2368696E+02  0.7546771E-02  0.1484047E+00
          2   -1    0    0  503    0  0.00000000000E+00  0.00000000000E+00  0.55700926234E+02  0.55700926234E+02  0.00000000000E+00 0. -1.
         21   -1    0    0  501  502 -0.00000000000E+00 -0.00000000000E+00 -0.37542772012E+03  0.37542772012E+03  0.00000000000E+00 0. -1.
          2    1    1    2  501    0 -0.92841096671E+01  0.21791683819E+02  0.52789406650E+02  0.57860121244E+02  0.00000000000E+00 0. -1.
         21    1    1    2  503  502  0.92841096671E+01 -0.21791683819E+02 -0.37251620053E+03  0.37326852511E+03  0.00000000000E+00 0. -1.
</event>
<event>
 4    1  0.2253948E+005  0.2097348E+02  0.7546771E-02  0.1519644E+00
          2   -1    0    0  503    0  0.00000000000E+00  0.00000000000E+00  0.13156813692E+03  0.13156813692E+03  0.00000000000E+00 0. -1.
         21   -1    0    0  501  502 -0.00000000000E+00 -0.00000000000E+00 -0.37787473168E+01  0.37787473168E+01  0.00000000000E+00 0.  1.
          2    1    1    2  501    0 -0.19545076715E+02 -0.76076937630E+01  0.86864337661E+02  0.89360506856E+02  0.00000000000E+00 0. -1.
         21    1    1    2  503  502  0.19545076715E+02  0.76076937630E+01  0.40925051944E+02  0.45986377383E+02  0.00000000000E+00 0.  1.
</event>
<event>
 4    1  0.2253948E+005  0.2044359E+02  0.7546771E-02  0.1527359E+00
          2   -1    0    0  503    0  0.00000000000E+00  0.00000000000E+00  0.13860305856E+02  0.13860305856E+02  0.00000000000E+00 0. -1.
         21   -1    0    0  501  502 -0.00000000000E+00 -0.00000000000E+00 -0.53088872674E+02  0.53088872674E+02  0.00000000000E+00 0.  1.
          2    1    1    2  501    0  0.16097279944E+02  0.12602296424E+02  0.23878083353E+01  0.20582563625E+02  0.00000000000E+00 0. -1.
         21    1    1    2  503  502 -0.16097279944E+02 -0.12602296424E+02 -0.41616375153E+02  0.46366614904E+02  0.00000000000E+00 0.  1.
</event>
<event>
 4    1  0.2253948E+005  0.2553355E+02  0.7546771E-02  0.1462922E+00
          2   -1    0    0  503    0  0.00000000000E+00  0.00000000000E+00  0.16979639625E+04  0.16979639625E+04  0.00000000000E+00 0.  1.
         21   -1    0    0  501  502 -0.00000000000E+00 -0.00000000000E+00 -0.40204822044E+00  0.40204822044E+00  0.00000000000E+00 0.  1.
          2    1    1    2  501    0  0.25797615989E+00 -0.25532244172E+02  0.66869630922E+03  0.66918361906E+03  0.00000000000E+00 0.  1.
         21    1    1    2  503  502 -0.25797615989E+00  0.25532244172E+02  0.10288656050E+04  0.10291823916E+04  0.00000000000E+00 0.  1.
</event>
<event>
 4    1  0.2253948E+005  0.2147160E+02  0.7546771E-02  0.1512637E+00
          2   -1    0    0  503    0  0.00000000000E+00  0.00000000000E+00  0.36650619386E+03  0.36650619386E+03  0.00000000000E+00 0. -1.
         21   -1    0    0  501  502 -0.00000000000E+00 -0.00000000000E+00 -0.16095077015E+02  0.16095077015E+02  0.00000000000E+00 0. -1.
          2    1    1    2  501    0  0.10624989505E+02 -0.18658483106E+02  0.35887862293E+03  0.35952036853E+03  0.00000000000E+00 0. -1.
         21    1    1    2  503  502 -0.10624989505E+02  0.18658483106E+02 -0.84675060826E+01  0.23080902345E+02  0.00000000000E+00 0. -1.
</event>
<event>
 4    1  0.2253948E+005  0.2142410E+02  0.7546771E-02  0.1513295E+00
          2   -1    0    0  503    0  0.00000000000E+00  0.00000000000E+00  0.62670613174E+03  0.62670613174E+03  0.00000000000E+00 0. -1.
         21   -1    0    0  501  502 -0.00000000000E+00 -0.00000000000E+00 -0.75322558250E+00  0.75322558250E+00  0.00000000000E+00 0. -1.
          2    1    1    2  501    0  0.20750382589E+02  0.53304450103E+01  0.36515803234E+03  0.36578597650E+03  0.00000000000E+00 0. -1.
         21    1    1    2  503  502 -0.20750382589E+02 -0.53304450103E+01  0.26079487382E+03  0.26167338082E+03  0.00000000000E+00 0. -1.
</event>
