<event>
 4    1  0.7416369E+003  0.3575877E+02  0.7546771E-02  0.1375306E+00
          2   -1    0    0  502    0  0.00000000000E+00  0.00000000000E+00  0.14581854965E+04  0.14581854965E+04  0.00000000000E+00 0.  1.
          1   -1    0    0  501    0 -0.00000000000E+00 -0.00000000000E+00 -0.11512454017E+01  0.11512454017E+01  0.00000000000E+00 0.  1.
          2    1    1    2  501    0  0.33461188728E+02 -0.12611035324E+02  0.10847113561E+04  0.10853006106E+04  0.00000000000E+00 0.  1.
          1    1    1    2  502    0 -0.33461188728E+02  0.12611035324E+02  0.37232289496E+03  0.37403613124E+03  0.00000000000E+00 0.  1.
</event>
<event>
 4    1  0.7416369E+003  0.2035827E+02  0.7546771E-02  0.1528627E+00
          2   -1    0    0  502    0  0.00000000000E+00  0.00000000000E+00  0.10099246701E+04  0.10099246701E+04  0.00000000000E+00 0.  1.
          1   -1    0    0  501    0 -0.00000000000E+00 -0.00000000000E+00 -0.87709527591E+00  0.87709527591E+00  0.00000000000E+00 0. -1.
          2    1    1    2  501    0 -0.18263046706E+02  0.89955785046E+01  0.87319197139E+03  0.87342926343E+03  0.00000000000E+00 0.  1.
          1    1    1    2  502    0  0.18263046706E+02 -0.89955785046E+01  0.13585560339E+03  0.13737250191E+03  0.00000000000E+00 0. -1.
</event>
<event>
 4    1  0.7416369E+003  0.2711807E+02  0.7546771E-02  0.1446426E+00
          2   -1    0    0  502    0  0.00000000000E+00  0.00000000000E+00  0.77305032448E+03  0.77305032448E+03  0.00000000000E+00 0. -1.
          1   -1    0    0  501    0 -0.00000000000E+00 -0.00000000000E+00 -0.63161267355E+01  0.63161267355E+01  0.00000000000E+00 0. -1.
          2    1    1    2  501    0 -0.26067192393E+02 -0.74760362287E+01  0.74250796990E+03  0.74300301144E+03  0.00000000000E+00 0. -1.
          1    1    1    2  502    0  0.26067192393E+02  0.74760362287E+01  0.24226227841E+02  0.36363439776E+02  0.00000000000E+00 0. -1.
</event>
<event>
 4    1  0.7416369E+003  0.2515355E+02  0.7546771E-02  0.1467093E+00
          2   -1    0    0  502    0  0.00000000000E+00  0.00000000000E+00  0.13945797789E+03  0.13945797789E+03  0.00000000000E+00 0.  1.
          1   -1    0    0  501    0 -0.00000000000E+00 -0.00000000000E+00 -0.47775973566E+01  0.47775973566E+01  0.00000000000E+00 0. -1.
          2    1    1    2  501    0  0.67273063572E+01  0.24237254269E+02  0.83528835503E+02  0.87233981371E+02  0.00000000000E+00 0.  1.
          1    1    1    2  502    0 -0.67273063572E+01 -0.24237254269E+02  0.51151545028E+02  0.57001593874E+02  0.00000000000E+00 0. -1.
</event>
<event>
 4    1  0.7416369E+003  0.2121352E+02  0.7546771E-02  0.1516238E+00
          2   -1    0    0  502    0  0.00000000000E+00  0.00000000000E+00  0.27941870892E+03  0.27941870892E+03  0.00000000000E+00 0.  1.
          1   -1    0    0  501    0 -0.00000000000E+00 -0.00000000000E+00 -0.66024904732E+01  0.66024904732E+01  0.00000000000E+00 0. -1.
          2    1    1    2  501    0  0.37663935673E+01  0.20876487540E+02  0.26075923238E+03  0.26162070010E+03  0.00000000000E+00 0.  1.
          1    1    1    2  502    0 -0.37663935673E+01 -0.20876487540E+02  0.12056986069E+02  0.24400499290E+02  0.00000000000E+00 0. -1.
</event>
<event>
 4    1  0.7416369E+003  0.2045351E+02  0.7546771E-02  0.1527212E+00
          2   -1    0    0  502    0  0.00000000000E+00  0.00000000000E+00  0.13628568261E+02  0.13628568261E+02  0.00000000000E+00 0.  1.
          1   -1    0    0  501    0 -0.00000000000E+00 -0.00000000000E+00 -0.14415097655E+03  0.14415097655E+03  0.00000000000E+00 0.  1.
          2    1    1    2  501    0 -0.15332813723E+02  0.13537012966E+02  0.47267359268E+01  0.20992568429E+02  0.00000000000E+00 0.  1.
          1    1    1    2  502    0  0.15332813723E+02 -0.13537012966E+02 -0.13524914422E+03  0.13678697638E+03  0.00000000000E+00 0.  1.
</event>
<event>
 4    1  0.7416369E+003  0.2492143E+02  0.7546771E-02  0.1469684E+00
          2   -1    0    0  502    0  0.00000000000E+00  0.00000000000E+00  0.17482977089E+02  0.17482977089E+02  0.00000000000E+00 0.  1.
          1   -1    0    0  501    0 -0.00000000000E+00 -0.00000000000E+00 -0.71833264152E+02  0.71833264152E+02  0.00000000000E+00 0.  1.
          2    1    1    2  501    0  0.10236518749E+02  0.22722050151E+02  0.45747340314E+01  0.25337838712E+02  0.00000000000E+00 0.  1.
          1    1    1    2  502    0 -0.10236518749E+02 -0.22722050151E+02 -0.58925021095E+02  0.63978402529E+02  0.00000000000E+00 0.  1.
</event>
<event>
 4    1  0.7416369E+003  0.2716726E+02  0.7546771E-02  0.1445935E+00
          2   -1    0    0  502    0  0.00000000000E+00  0.00000000000E+00  0.22026966437E+03  0.22026966437E+03  0.00000000000E+00 0.  1.
          1   -1    0    0  501    0 -0.00000000000E+00 -0.00000000000E+00 -0.74462416102E+01  0.74462416102E+01  0.00000000000E+00 0. -1.
          2    1    1    2  501    0 -0.24180968763E+02  0.12383073287E+02  0.19085204759E+03  0.19277594203E+03  0.00000000000E+00 0.  1.
          1    1    1    2  502    0  0.24180968763E+02 -0.12383073287E+02  0.21971375169E+02  0.34939963955E+02  0.00000000000E+00 0. -1.
</event>
<event>
 4    1  0.7416369E+003  0.2718534E+02  0.7546771E-02  0.1445755E+00
          2   -1    0    0  502    0  0.00000000000E+00  0.00000000000E+00  0.19512658102E+04  0.19512658102E+04  0.00000000000E+00 0. -1.
          1   -1    0    0  501    0 -0.00000000000E+00 -0.00000000000E+00 -0.40625264261E+00  0.40625264261E+00  0.00000000000E+00 0. -1.
          2    1    1    2  501    0  0.33086039651E+01  0.26983248579E+02  0.12293301756E+04  0.12296307263E+04  0.00000000000E+00 0. -1.
          1    1    1    2  502    0 -0.33086039651E+01 -0.26983248579E+02  0.72152938202E+03  0.72204133654E+03  0.00000000000E+00 0. -1.
</event>
<event>
 4    1  0.7416369E+003  0.1233458E+03  0.7546771E-02  0.1128567E+00
          2   -1    0    0  502    0  0.00000000000E+00  0.00000000000E+00  0.16340992636E+04  0.16340992636E+04  0.00000000000E+00 0. -1.
          1   -1    0    0  501    0 -0.00000000000E+00 -0.00000000000E+00 -0.14734459493E+02  0.14734459493E+02  0.00000000000E+00 0.  1.
          2    1    1    2  501    0  0.23664604372E+02  0.12105437560E+03  0.13098788150E+04  0.13156734722E+04  0.00000000000E+00 0. -1.
          1    1    1    2  502    0 -0.23664604372E+02 -0.12105437560E+03  0.30948598912E+03  0.33316025095E+03  0.00000000000E+00 0.  1.
</event>
<event>
 4    1  0.7416369E+003  0.4460875E+02  0.7546771E-02  0.1323407E+00
          2   -1    0    0  502    0  0.00000000000E+00  0.00000000000E+00  0.45930265941E+02  0.45930265941E+02  0.00000000000E+00 0.  1.
          1   -1    0    0  501    0 -0.00000000000E+00 -0.00000000000E+00 -0.96127110949E+03  0.96127110949E+03  0.00000000000E+00 0. -1.
          2    1    1    2  501    0  0.10155015192E+02  0.43437496396E+02  0.34450583215E+02  0.56362958675E+02  0.00000000000E+00 0.  1.
          1    1    1    2  502    0 -0.10155015192E+02 -0.43437496396E+02 -0.94979142676E+03  0.95083841676E+03  0.00000000000E+00 0. -1.
</event>
<event>
 4    1  0.7416369E+003  0.2095553E+02  0.7546771E-02  0.1519901E+00
          2   -1    0    0  502    0  0.00000000000E+00  0.00000000000E+00  0.12879307620E+04  0.12879307620E+04  0.00000000000E+00 0. -1.
          1   -1    0    0  501    0 -0.00000000000E+00 -0.00000000000E+00 -0.23540702790E+01  0.23540702790E+01  0.00000000000E+00 0. -1.
          2    1    1    2  501    0  0.12077661456E+02 -0.17124959645E+02  0.12393832789E+04  0.12395604246E+04  0.00000000000E+00 0. -1.
          1    1    1    2  502    0 -0.12077661456E+02  0.17124959645E+02  0.46193412815E+02  0.50724407700E+02  0.00000000000E+00 0. -1.
</event>
<event>
 4    1  0.7416369E+003  0.2294146E+02  0.7546771E-02  0.1493235E+00
          2   -1    0    0  502    0  0.00000000000E+00  0.00000000000E+00  0.27137203198E+03  0.27137203198E+03  0.00000000000E+00 0. -1.
          1   -1    0    0  501    0 -0.00000000000E+00 -0.00000000000E+00 -0.92425052324E+02  0.92425052324E+02  0.00000000000E+00 0.  1.
          2    1    1    2  501    0  0.55536661157E+01 -0.22259092807E+02  0.26945343904E+03  0.27042830146E+03  0.00000000000E+00 0. -1.
          1    1    1    2  502    0 -0.55536661157E+01  0.22259092807E+02 -0.90506459383E+02  0.93368782845E+02  0.00000000000E+00 0.  1.
</event>
<event>
 4    1  0.7416369E+003  0.2356753E+02  0.7546771E-02  0.1485492E+00
          2   -1    0    0  502    0  0.00000000000E+00  0.00000000000E+00  0.41432014766E+03  0.41432014766E+03  0.00000000000E+00 0. -1.
          1   -1    0    0  501    0 -0.00000000000E+00 -0.00000000000E+00 -0.72069281142E+01  0.72069281142E+01  0.00000000000E+00 0.  1.
          2    1    1    2  501    0  0.19781238817E+02 -0.12811359438E+02  0.39371013733E+03  0.39441488382E+03  0.00000000000E+00 0. -1.
          1    1    1    2  502    0 -0.19781238817E+02  0.12811359438E+02  0.13403082213E+02  0.27112191955E+02  0.00000000000E+00 0.  1.
</event>
<event>
 4    1  0.7416369E+003  0.2876341E+02  0.7546771E-02  0.1430655E+00
          2   -1    0    0  502    0  0.00000000000E+00  0.00000000000E+00  0.11759659715E+04  0.11759659715E+04  0.00000000000E+00 0.  1.
          1   -1    0    0  501    0 -0.00000000000E+00 -0.00000000000E+00 -0.92994180421E+00  0.92994180421E+00  0.00000000000E+00 0.  1.
          2    1    1    2  501    0  0.28752761669E+01 -0.28619329142E+02  0.29716595203E+03  0.29855474584E+03  0.00000000000E+00 0.  1.
          1    1    1    2  502    0 -0.28752761669E+01  0.28619329142E+02  0.87787007765E+03  0.87834116746E+03  0.00000000000E+00 0.  1.
</event>
<event>
 4    1  0.7416369E+003  0.2011864E+02  0.7546771E-02  0.1532230E+00
          2   -1    0    0  502    0  0.00000000000E+00  0.00000000000E+00  0.82045954837E+02  0.82045954837E+02  0.00000000000E+00 0.  1.
          1   -1    0    0  501    0 -0.00000000000E+00 -0.00000000000E+00 -0.12558793282E+03  0.12558793282E+03  0.00000000000E+00 0.  1.
          2    1    1    2  501    0 -0.13752148962E+02  0.14684623756E+02  0.79986464707E+02  0.82477841341E+02  0.00000000000E+00 0.  1.
          1    1    1    2  502    0  0.13752148962E+02 -0.14684623756E+02 -0.12352844269E+03  0.12515604631E+03  0.00000000000E+00 0.  1.
</event>
<event>
 4    1  0.7416369E+003  0.2956524E+02  0.7546771E-02  0.1423413E+00
          2   -1    0    0  502    0  0.00000000000E+00  0.00000000000E+00  0.53746046717E+03  0.53746046717E+03  0.00000000000E+00 0. -1.
          1   -1    0    0  501    0 -0.00000000000E+00 -0.00000000000E+00 -0.28588551439E+01  0.28588551439E+01  0.00000000000E+00 0. -1.
          2    1    1    2  501    0 -0.18823970749E+02 -0.22798273924E+02  0.44468600354E+03  0.44566775171E+03  0.00000000000E+00 0. -1.
          1    1    1    2  502    0  0.18823970749E+02  0.22798273924E+02  0.89915608491E+02  0.94651570610E+02  0.00000000000E+00 0. -1.
</event>
<event>
 4    1  0.7416369E+003  0.5955855E+02  0.7546771E-02  0.1261340E+00
          2   -1    0    0  502    0  0.00000000000E+00  0.00000000000E+00  0.11407903169E+04  0.11407903169E+04  0.00000000000E+00 0.  1.
          1   -1    0    0  501    0 -0.00000000000E+00 -0.00000000000E+00 -0.45216559359E+02  0.45216559359E+02  0.00000000000E+00 0.  1.
          2    1    1    2  501    0  0.44049261754E+02  0.40085945261E+02  0.11200374228E+04  0.11216198327E+04  0.00000000000E+00 0.  1.
          1    1    1    2  502    0 -0.44049261754E+02 -0.40085945261E+02 -0.24463665266E+02  0.64387043625E+02  0.00000000000E+00 0.  1.
</event>
<event>
 4    1  0.7416369E+003  0.2157649E+02  0.7546771E-02  0.1511191E+00
          2   -1    0    0  502    0  0.00000000000E+00  0.00000000000E+00  0.95336336088E+03  0.95336336088E+03  0.00000000000E+00 0. -1.
          1   -1    0    0  501    0 -0.00000000000E+00 -0.00000000000E+00 -0.48878189458E+00  0.48878189458E+00  0.00000000000E+00 0. -1.
          2    1    1    2  501    0  0.85865245476E+01  0.19794350481E+02  0.49112630225E+03  0.49160002998E+03  0.00000000000E+00 0. -1.
          1    1    1    2  502    0 -0.85865245476E+01 -0.19794350481E+02  0.46174827673E+03  0.46225211279E+03  0.00000000000E+00 0. -1.
</event>
<event>
 4    1  0.7416369E+003  0.3207992E+02  0.7546771E-02  0.1402343E+00
          2   -1    0    0  502    0  0.00000000000E+00  0.00000000000E+00  0.14291117947E+04  0.14291117947E+04  0.00000000000E+00 0.  1.
          1   -1    0    0  501    0 -0.00000000000E+00 -0.00000000000E+00 -0.49204079996E+02  0.49204079996E+02  0.00000000000E+00 0. -1.
          2    1    1    2  501    0 -0.30010136763E+02  0.11336346471E+02  0.14236829904E+04  0.14240443736E+04  0.00000000000E+00 0.  1.
          1    1    1    2  502    0  0.30010136763E+02 -0.11336346471E+02 -0.43775275698E+02  0.54271501013E+02  0.00000000000E+00 0. -1.
</event>
<event>
 4    1  0.7416369E+003  0.2615691E+02  0.7546771E-02  0.1456266E+00
          2   -1    0    0  502    0  0.00000000000E+00  0.00000000000E+00  0.58915998967E+03  0.58915998967E+03  0.00000000000E+00 0.  1.
          1   -1    0    0  501    0 -0.00000000000E+00 -0.00000000000E+00 -0.12955748152E+01  0.12955748152E+01  0.00000000000E+00 0.  1.
          2    1    1    2  501    0  0.17419068462E+02 -0.19513050023E+02  0.19888346133E+03  0.20059614716E+03  0.00000000000E+00 0.  1.
          1    1    1    2  502    0 -0.17419068462E+02  0.19513050023E+02  0.38898095352E+03  0.38985941732E+03  0.00000000000E+00 0.  1.
</event>
<event>
 4    1  0.7416369E+003  0.2477354E+02  0.7546771E-02  0.1471353E+00
          2   -1    0    0  502    0  0.00000000000E+00  0.00000000000E+00  0.41717523656E+03  0.41717523656E+03  0.00000000000E+00 0.  1.
          1   -1    0    0  501    0 -0.00000000000E+00 -0.00000000000E+00 -0.38792927062E+01  0.38792927062E+01  0.00000000000E+00 0.  1.
          2    1    1    2  501    0 -0.24081603878E+02 -0.58141721943E+01  0.37251993682E+03  0.37334278026E+03  0.00000000000E+00 0.  1.
          1    1    1    2  502    0  0.24081603878E+02  0.58141721943E+01  0.40776007033E+02  0.47711749006E+02  0.00000000000E+00 0.  1.
</event>
<event>
 4    1  0.7416369E+003  0.2022053E+02  0.7546771E-02  0.1530691E+00
          2   -1    0    0  502    0  0.00000000000E+00  0.00000000000E+00  0.76486762150E+02  0.76486762150E+02  0.00000000000E+00 0. -1.
          1   -1    0    0  501    0 -0.00000000000E+00 -0.00000000000E+00 -0.13915724582E+02  0.13915724582E+02  0.00000000000E+00 0.  1.
          2    1    1    2  501    0 -0.43057759253E+01 -0.19756771998E+02  0.66757899539E+02  0.69753042206E+02  0.00000000000E+00 0. -1.
          1    1    1    2  502    0  0.43057759253E+01  0.19756771998E+02 -0.41868619704E+01  0.20649444526E+02  0.00000000000E+00 0.  1.
</event>
<event>
 4    1  0.7416369E+003  0.2086956E+02  0.7546771E-02  0.1521135E+00
          2   -1    0    0  502    0  0.00000000000E+00  0.00000000000E+00  0.16291921854E+04  0.16291921854E+04  0.00000000000E+00 0. -1.
          1   -1    0    0  501    0 -0.00000000000E+00 -0.00000000000E+00 -0.28900279436E+00  0.28900279436E+00  0.00000000000E+00 0.  1.
          2    1    1    2  501    0  0.15531476452E+02  0.13939572780E+02  0.10375445135E+04  0.10377543813E+04  0.00000000000E+00 0. -1.
          1    1    1    2  502    0 -0.15531476452E+02 -0.13939572780E+02  0.59135866911E+03  0.59172680688E+03  0.00000000000E+00 0.  1.
</event>
<event>
 4    1  0.7416369E+003  0.2625503E+02  0.7546771E-02  0.1455238E+00
          2   -1    0    0  502    0  0.00000000000E+00  0.00000000000E+00  0.23775547192E+03  0.23775547192E+03  0.00000000000E+00 0. -1.
          1   -1    0    0  501    0 -0.00000000000E+00 -0.00000000000E+00 -0.29025078932E+01  0.29025078932E+01  0.00000000000E+00 0.  1.
          2    1    1    2  501    0  0.25442380588E+02 -0.64816419829E+01  0.12142161323E+03  0.12422775282E+03  0.00000000000E+00 0. -1.
          1    1    1    2  502    0 -0.25442380588E+02  0.64816419829E+01  0.11343135080E+03  0.11643022699E+03  0.00000000000E+00 0.  1.
</event>
<event>
 4    1  0.7416369E+003  0.2233079E+02  0.7546771E-02  0.1501077E+00
          2   -1    0    0  502    0  0.00000000000E+00  0.00000000000E+00  0.17176756467E+01  0.17176756467E+01  0.00000000000E+00 0.  1.
          1   -1    0    0  501    0 -0.00000000000E+00 -0.00000000000E+00 -0.34841515728E+03  0.34841515728E+03  0.00000000000E+00 0.  1.
          2    1    1    2  501    0 -0.38391539326E+01 -0.21998294300E+02 -0.10185806615E+03  0.10427717725E+03  0.00000000000E+00 0.  1.
          1    1    1    2  502    0  0.38391539326E+01  0.21998294300E+02 -0.24483941549E+03  0.24585565568E+03  0.00000000000E+00 0.  1.
</event>
<event>
 4    1  0.7416369E+003  0.3642640E+02  0.7546771E-02  0.1370803E+00
          2   -1    0    0  502    0  0.00000000000E+00  0.00000000000E+00  0.66865023972E+01  0.66865023972E+01  0.00000000000E+00 0.  1.
          1   -1    0    0  501    0 -0.00000000000E+00 -0.00000000000E+00 -0.35156403829E+03  0.35156403829E+03  0.00000000000E+00 0.  1.
          2    1    1    2  501    0 -0.27028766706E+02 -0.24419834080E+02 -0.54223500636E+02  0.65322817968E+02  0.00000000000E+00 0.  1.
          1    1    1    2  502    0  0.27028766706E+02  0.24419834080E+02 -0.29065403526E+03  0.29292772272E+03  0.00000000000E+00 0.  1.
</event>
<event>
 4    1  0.7416369E+003  0.2027834E+02  0.7546771E-02  0.1529822E+00
          2   -1    0    0  502    0  0.00000000000E+00  0.00000000000E+00  0.70813178961E+03  0.70813178961E+03  0.00000000000E+00 0.  1.
          1   -1    0    0  501    0 -0.00000000000E+00 -0.00000000000E+00 -0.11540321846E+01  0.11540321846E+01  0.00000000000E+00 0.  1.
          2    1    1    2  501    0 -0.14142185389E+02 -0.14533052428E+02  0.60345783512E+03  0.60379845130E+03  0.00000000000E+00 0.  1.
          1    1    1    2  502    0  0.14142185389E+02  0.14533052428E+02  0.10351992230E+03  0.10548737050E+03  0.00000000000E+00 0.  1.
</event>
<event>
 4    1  0.7416369E+003  0.2858799E+02  0.7546771E-02  0.1432277E+00
          2   -1    0    0  502    0  0.00000000000E+00  0.00000000000E+00  0.17302043819E+04  0.17302043819E+04  0.00000000000E+00 0. -1.
          1   -1    0    0  501    0 -0.00000000000E+00 -0.00000000000E+00 -0.20173859832E+01  0.20173859832E+01  0.00000000000E+00 0.  1.
          2    1    1    2  501    0 -0.18475793879E+02 -0.21815550535E+02  0.16220554210E+04  0.16223073266E+04  0.00000000000E+00 0. -1.
          1    1    1    2  502    0  0.18475793879E+02  0.21815550535E+02  0.10613157497E+03  0.10991444132E+03  0.00000000000E+00 0.  1.
</event>
<event>
 4    1  0.7416369E+003  0.2835897E+02  0.7546771E-02  0.1434415E+00
          2   -1    0    0  502    0  0.00000000000E+00  0.00000000000E+00  0.13730799490E+04  0.13730799490E+04  0.00000000000E+00 0. -1.
          1   -1    0    0  501    0 -0.00000000000E+00 -0.00000000000E+00 -0.33565063571E+01  0.33565063571E+01  0.00000000000E+00 0.  1.
          2    1    1    2  501    0 -0.25293585303E+02  0.12824428101E+02  0.13101560163E+04  0.13104629024E+04  0.00000000000E+00 0. -1.
          1    1    1    2  502    0  0.25293585303E+02 -0.12824428101E+02  0.59567426312E+02  0.65973552967E+02  0.00000000000E+00 0.  1.
</event>
<event>
 4    1  0.7416369E+003  0.2715626E+02  0.7546771E-02  0.1446045E+00
          2   -1    0    0  502    0  0.00000000000E+00  0.00000000000E+00  0.26984785012E+03  0.26984785012E+03  0.00000000000E+00 0. -1.
          1   -1    0    0  501    0 -0.00000000000E+00 -0.00000000000E+00 -0.11759128768E+02  0.11759128768E+02  0.00000000000E+00 0.  1.
          2    1    1    2  501    0  0.26725407506E+02  0.48182178028E+01  0.25240579762E+03  0.25386246139E+03  0.00000000000E+00 0. -1.
          1    1    1    2  502    0 -0.26725407506E+02 -0.48182178028E+01  0.56829237286E+01  0.27744517499E+02  0.00000000000E+00 0.  1.
</event>
<event>
 4    1  0.7416369E+003  0.2648335E+02  0.7546771E-02  0.1452868E+00
          2   -1    0    0  502    0  0.00000000000E+00  0.00000000000E+00  0.16557990445E+03  0.16557990445E+03  0.00000000000E+00 0.  1.
          1   -1    0    0  501    0 -0.00000000000E+00 -0.00000000000E+00 -0.74556696827E+02  0.74556696827E+02  0.00000000000E+00 0.  1.
          2    1    1    2  501    0 -0.10618626263E+02  0.24261344029E+02  0.16211928192E+03  0.16426816371E+03  0.00000000000E+00 0.  1.
          1    1    1    2  502    0  0.10618626263E+02 -0.24261344029E+02 -0.71096074300E+02  0.75868437565E+02  0.00000000000E+00 0.  1.
</event>
<event>
 4    1  0.7416369E+003  0.2425390E+02  0.7546771E-02  0.1477326E+00
          2   -1    0    0  502    0  0.00000000000E+00  0.00000000000E+00  0.23671027725E+03  0.23671027725E+03  0.00000000000E+00 0. -1.
          1   -1    0    0  501    0 -0.00000000000E+00 -0.00000000000E+00 -0.22509127792E+02  0.22509127792E+02  0.00000000000E+00 0.  1.
          2    1    1    2  501    0  0.24247138287E+02  0.57249890448E+00  0.22934632594E+03  0.23062521262E+03  0.00000000000E+00 0. -1.
          1    1    1    2  502    0 -0.24247138287E+02 -0.57249890448E+00 -0.15145176482E+02  0.28594192431E+02  0.00000000000E+00 0.  1.
</event>
<event>
 4    1  0.7416369E+003  0.2148910E+02  0.7546771E-02  0.1512395E+00
          2   -1    0    0  502    0  0.00000000000E+00  0.00000000000E+00  0.21814870092E+04  0.21814870092E+04  0.00000000000E+00 0. -1.
          1   -1    0    0  501    0 -0.00000000000E+00 -0.00000000000E+00 -0.22344216057E+00  0.22344216057E+00  0.00000000000E+00 0. -1.
          2    1    1    2  501    0  0.18484702617E+02 -0.10958889639E+02  0.13408918299E+04  0.13410640108E+04  0.00000000000E+00 0. -1.
          1    1    1    2  502    0 -0.18484702617E+02  0.10958889639E+02  0.84037173720E+03  0.84064644065E+03  0.00000000000E+00 0. -1.
</event>
<event>
 4    1  0.7416369E+003  0.4697717E+02  0.7546771E-02  0.1311839E+00
          2   -1    0    0  502    0  0.00000000000E+00  0.00000000000E+00  0.23996336641E+03  0.23996336641E+03  0.00000000000E+00 0. -1.
          1   -1    0    0  501    0 -0.00000000000E+00 -0.00000000000E+00 -0.78530176497E+02  0.78530176497E+02  0.00000000000E+00 0. -1.
          2    1    1    2  501    0  0.28953592202E+02 -0.36993837998E+02  0.23034844787E+03  0.23508990192E+03  0.00000000000E+00 0. -1.
          1    1    1    2  502    0 -0.28953592202E+02  0.36993837998E+02 -0.68915257952E+02  0.83403640987E+02  0.00000000000E+00 0. -1.
</event>
<event>
 4    1  0.7416369E+003  0.2797837E+02  0.7546771E-02  0.1438020E+00
          2   -1    0    0  502    0  0.00000000000E+00  0.00000000000E+00  0.13384747710E+03  0.13384747710E+03  0.00000000000E+00 0. -1.
          1   -1    0    0  501    0 -0.00000000000E+00 -0.00000000000E+00 -0.64750974542E+01  0.64750974542E+01  0.00000000000E+00 0. -1.
          2    1    1    2  501    0  0.36844827845E+01  0.27734706914E+02  0.85514204755E+02  0.89974822011E+02  0.00000000000E+00 0. -1.
          1    1    1    2  502    0 -0.36844827845E+01 -0.27734706914E+02  0.41858174892E+02  0.50347752545E+02  0.00000000000E+00 0. -1.
</event>
<event>
 4    1  0.7416369E+003  0.3854222E+02  0.7546771E-02  0.1357247E+00
          2   -1    0    0  502    0  0.00000000000E+00  0.00000000000E+00  0.48855277461E+02  0.48855277461E+02  0.00000000000E+00 0. -1.
          1   -1    0    0  501    0 -0.00000000000E+00 -0.00000000000E+00 -0.18051905473E+03  0.18051905473E+03  0.00000000000E+00 0.  1.
          2    1    1    2  501    0 -0.16313198071E+02  0.34919652415E+02  0.38751392101E+02  0.54655035869E+02  0.00000000000E+00 0. -1.
          1    1    1    2  502    0  0.16313198071E+02 -0.34919652415E+02 -0.17041516937E+03  0.17471929632E+03  0.00000000000E+00 0.  1.
</event>
<event>
 4    1  0.7416369E+003  0.2237488E+02  0.7546771E-02  0.1500501E+00
          2   -1    0    0  502    0  0.00000000000E+00  0.00000000000E+00  0.22272230417E+02  0.22272230417E+02  0.00000000000E+00 0. -1.
          1   -1    0    0  501    0 -0.00000000000E+00 -0.00000000000E+00 -0.51284258325E+03  0.51284258325E+03  0.00000000000E+00 0. -1.
          2    1    1    2  501    0 -0.12520293245E+02  0.18543940248E+02  0.16342980060E+02  0.27707913312E+02  0.00000000000E+00 0. -1.
          1    1    1    2  502    0  0.12520293245E+02 -0.18543940248E+02 -0.50691333289E+03  0.50740690035E+03  0.00000000000E+00 0. -1.
</event>
<event>
 4    1  0.7416369E+003  0.2085160E+02  0.7546771E-02  0.1521394E+00
          2   -1    0    0  502    0  0.00000000000E+00  0.00000000000E+00  0.11289056158E+03  0.11289056158E+03  0.00000000000E+00 0.  1.
          1   -1    0    0  501    0 -0.00000000000E+00 -0.00000000000E+00 -0.15724870384E+02  0.15724870384E+02  0.00000000000E+00 0.  1.
          2    1    1    2  501    0  0.20835212979E+02 -0.82647207380E+00  0.10446305026E+03  0.10652379089E+03  0.00000000000E+00 0.  1.
          1    1    1    2  502    0 -0.20835212979E+02  0.82647207380E+00 -0.72973590641E+01  0.22091641073E+02  0.00000000000E+00 0.  1.
</event>
<event>
 4    1  0.7416369E+003  0.2487670E+02  0.7546771E-02  0.1470188E+00
          2   -1    0    0  502    0  0.00000000000E+00  0.00000000000E+00  0.10444096709E+03  0.10444096709E+03  0.00000000000E+00 0.  1.
          1   -1    0    0  501    0 -0.00000000000E+00 -0.00000000000E+00 -0.16811267788E+04  0.16811267788E+04  0.00000000000E+00 0. -1.
          2    1    1    2  501    0 -0.85324444651E+01 -0.23367661861E+02  0.10286620940E+03  0.10583150413E+03  0.00000000000E+00 0.  1.
          1    1    1    2  502    0  0.85324444651E+01  0.23367661861E+02 -0.16795520211E+04  0.16797362417E+04  0.00000000000E+00 0. -1.
</event>
<event>
 4    1  0.7416369E+003  0.6473986E+02  0.7546771E-02  0.1244526E+00
          2   -1    0    0  502    0  0.00000000000E+00  0.00000000000E+00  0.11583903975E+03  0.11583903975E+03  0.00000000000E+00 0. -1.
          1   -1    0    0  501    0 -0.00000000000E+00 -0.00000000000E+00 -0.24347753263E+03  0.24347753263E+03  0.00000000000E+00 0.  1.
          2    1    1    2  501    0 -0.50481672812E+02 -0.40532080371E+02  0.10195350026E+03  0.12077154070E+03  0.00000000000E+00 0. -1.
          1    1    1    2  502    0  0.50481672812E+02  0.40532080371E+02 -0.22959199313E+03  0.23854503168E+03  0.00000000000E+00 0.  1.
</event>
<event>
 4    1  0.7416369E+003  0.3186639E+02  0.7546771E-02  0.1404042E+00
          2   -1    0    0  502    0  0.00000000000E+00  0.00000000000E+00  0.66630992269E+03  0.66630992269E+03  0.00000000000E+00 0.  1.
          1   -1    0    0  501    0 -0.00000000000E+00 -0.00000000000E+00 -0.94858181638E+01  0.94858181638E+01  0.00000000000E+00 0.  1.
          2    1    1    2  501    0 -0.19594808205E+02 -0.25129869344E+02  0.63797840741E+03  0.63877375898E+03  0.00000000000E+00 0.  1.
          1    1    1    2  502    0  0.19594808205E+02  0.25129869344E+02  0.18845697112E+02  0.37021981868E+02  0.00000000000E+00 0.  1.
</event>
<event>
 4    1  0.7416369E+003  0.2451833E+02  0.7546771E-02  0.1474264E+00
          2   -1    0    0  502    0  0.00000000000E+00  0.00000000000E+00  0.16846542565E+02  0.16846542565E+02  0.00000000000E+00 0. -1.
          1   -1    0    0  501    0 -0.00000000000E+00 -0.00000000000E+00 -0.27137944153E+03  0.27137944153E+03  0.00000000000E+00 0.  1.
          2    1    1    2  501    0  0.88159207544E+01 -0.22878551056E+02  0.70380133024E+01  0.25508472875E+02  0.00000000000E+00 0. -1.
          1    1    1    2  502    0 -0.88159207544E+01  0.22878551056E+02 -0.26157091227E+03  0.26271751122E+03  0.00000000000E+00 0.  1.
</event>
<event>
 4    1  0.7416369E+003  0.2161088E+02  0.7546771E-02  0.1510719E+00
          2   -1    0    0  502    0  0.00000000000E+00  0.00000000000E+00  0.11634352838E+01  0.11634352838E+01  0.00000000000E+00 0. -1.
          1   -1    0    0  501    0 -0.00000000000E+00 -0.00000000000E+00 -0.61374385320E+03  0.61374385320E+03  0.00000000000E+00 0.  1.
          2    1    1    2  501    0 -0.30071337087E+01  0.21400641162E+02 -0.12545547420E+03  0.12730320617E+03  0.00000000000E+00 0. -1.
          1    1    1    2  502    0  0.30071337087E+01 -0.21400641162E+02 -0.48712494371E+03  0.48760408231E+03  0.00000000000E+00 0.  1.
</event>
<event>
 4    1  0.7416369E+003  0.2494553E+02  0.7546771E-02  0.1469414E+00
          2   -1    0    0  502    0  0.00000000000E+00  0.00000000000E+00  0.91563266507E+03  0.91563266507E+03  0.00000000000E+00 0. -1.
          1   -1    0    0  501    0 -0.00000000000E+00 -0.00000000000E+00 -0.71762207353E+00  0.71762207353E+00  0.00000000000E+00 0. -1.
          2    1    1    2  501    0  0.24165940509E+02 -0.61876152858E+01  0.56289767984E+03  0.56345015505E+03  0.00000000000E+00 0. -1.
          1    1    1    2  502    0 -0.24165940509E+02  0.61876152858E+01  0.35201736316E+03  0.35290013209E+03  0.00000000000E+00 0. -1.
</event>
<event>
 4    1  0.7416369E+003  0.3229085E+02  0.7546771E-02  0.1400680E+00
          2   -1    0    0  502    0  0.00000000000E+00  0.00000000000E+00  0.97943366783E+03  0.97943366783E+03  0.00000000000E+00 0.  1.
          1   -1    0    0  501    0 -0.00000000000E+00 -0.00000000000E+00 -0.23798574256E+02  0.23798574256E+02  0.00000000000E+00 0.  1.
          2    1    1    2  501    0  0.33862037901E+01 -0.32112810061E+02  0.96808578363E+03  0.96862417036E+03  0.00000000000E+00 0.  1.
          1    1    1    2  502    0 -0.33862037901E+01  0.32112810061E+02 -0.12450690048E+02  0.34608071729E+02  0.00000000000E+00 0.  1.
</event>
<event>
 4    1  0.7416369E+003  0.2292654E+02  0.7546771E-02  0.1493423E+00
          2   -1    0    0  502    0  0.00000000000E+00  0.00000000000E+00  0.47379978317E+03  0.47379978317E+03  0.00000000000E+00 0.  1.
          1   -1    0    0  501    0 -0.00000000000E+00 -0.00000000000E+00 -0.20933928412E+02  0.20933928412E+02  0.00000000000E+00 0.  1.
          2    1    1    2  501    0 -0.30623996033E+01  0.22721089133E+02  0.46715601366E+03  0.46771825630E+03  0.00000000000E+00 0.  1.
          1    1    1    2  502    0  0.30623996033E+01 -0.22721089133E+02 -0.14290158898E+02  0.27015455281E+02  0.00000000000E+00 0.  1.
</event>
<event>
 4    1  0.7416369E+003  0.4118298E+02  0.7546771E-02  0.1341690E+00
          2   -1    0    0  502    0  0.00000000000E+00  0.00000000000E+00  0.33590094945E+04  0.33590094945E+04  0.00000000000E+00 0.  1.
          1   -1    0    0  501    0 -0.00000000000E+00 -0.00000000000E+00 -0.67230313675E+00  0.67230313675E+00  0.00000000000E+00 0.  1.
          2    1    1    2  501    0 -0.33836750237E+02  0.23475775043E+02  0.25173516600E+04  0.25176885069E+04  0.00000000000E+00 0.  1.
          1    1    1    2  502    0  0.33836750237E+02 -0.23475775043E+02  0.84098553139E+03  0.84199329076E+03  0.00000000000E+00 0.  1.
</event>
<event>
 4    1  0.7416369E+003  0.2241176E+02  0.7546771E-02  0.1500020E+00
          2   -1    0    0  502    0  0.00000000000E+00  0.00000000000E+00  0.45864174371E+01  0.45864174371E+01  0.00000000000E+00 0. -1.
          1   -1    0    0  501    0 -0.00000000000E+00 -0.00000000000E+00 -0.37359547794E+03  0.37359547794E+03  0.00000000000E+00 0. -1.
          2    1    1    2  501    0  0.90762619193E+00 -0.22393374274E+02 -0.25526505312E+02  0.33968948617E+02  0.00000000000E+00 0. -1.
          1    1    1    2  502    0 -0.90762619193E+00  0.22393374274E+02 -0.34348255519E+03  0.34421294676E+03  0.00000000000E+00 0. -1.
</event>
<event>
 4    1  0.7416369E+003  0.2803561E+02  0.7546771E-02  0.1437474E+00
          2   -1    0    0  502    0  0.00000000000E+00  0.00000000000E+00  0.26079294599E+01  0.26079294599E+01  0.00000000000E+00 0.  1.
          1   -1    0    0  501    0 -0.00000000000E+00 -0.00000000000E+00 -0.33467742120E+03  0.33467742120E+03  0.00000000000E+00 0.  1.
          2    1    1    2  501    0  0.27965417390E+02  0.19826617629E+01 -0.11284655501E+03  0.11627699900E+03  0.00000000000E+00 0.  1.
          1    1    1    2  502    0 -0.27965417390E+02 -0.19826617629E+01 -0.21922293673E+03  0.22100835167E+03  0.00000000000E+00 0.  1.
</event>
<event>
 4    1  0.7416369E+003  0.2291905E+02  0.7546771E-02  0.1493517E+00
          2   -1    0    0  502    0  0.00000000000E+00  0.00000000000E+00  0.15581370221E+04  0.15581370221E+04  0.00000000000E+00 0.  1.
          1   -1    0    0  501    0 -0.00000000000E+00 -0.00000000000E+00 -0.62106789362E+00  0.62106789362E+00  0.00000000000E+00 0.  1.
          2    1    1    2  501    0 -0.75026369299E+01 -0.21656256023E+02  0.13057410067E+04  0.13059421348E+04  0.00000000000E+00 0.  1.
          1    1    1    2  502    0  0.75026369299E+01  0.21656256023E+02  0.25177494752E+03  0.25281595516E+03  0.00000000000E+00 0.  1.
</event>
<event>
 4    1  0.7416369E+003  0.3553271E+02  0.7546771E-02  0.1376856E+00
          2   -1    0    0  502    0  0.00000000000E+00  0.00000000000E+00  0.51021021966E+01  0.51021021966E+01  0.00000000000E+00 0.  1.
          1   -1    0    0  501    0 -0.00000000000E+00 -0.00000000000E+00 -0.26547543769E+03  0.26547543769E+03  0.00000000000E+00 0.  1.
          2    1    1    2  501    0 -0.79501579742E+01  0.34631902185E+02 -0.94945168121E+02  0.10137632174E+03  0.00000000000E+00 0.  1.
          1    1    1    2  502    0  0.79501579742E+01 -0.34631902185E+02 -0.16542816737E+03  0.16920121814E+03  0.00000000000E+00 0.  1.
</event>
<event>
 4    1  0.7416369E+003  0.3179964E+02  0.7546771E-02  0.1404576E+00
          2   -1    0    0  502    0  0.00000000000E+00  0.00000000000E+00  0.14816558223E+02  0.14816558223E+02  0.00000000000E+00 0. -1.
          1   -1    0    0  501    0 -0.00000000000E+00 -0.00000000000E+00 -0.69007497389E+02  0.69007497389E+02  0.00000000000E+00 0.  1.
          2    1    1    2  501    0 -0.30526870076E+02 -0.89065934876E+01 -0.22701769192E+02  0.39071569313E+02  0.00000000000E+00 0. -1.
          1    1    1    2  502    0  0.30526870076E+02  0.89065934876E+01 -0.31489169975E+02  0.44752486299E+02  0.00000000000E+00 0.  1.
</event>
<event>
 4    1  0.7416369E+003  0.2017548E+02  0.7546771E-02  0.1531370E+00
          2   -1    0    0  502    0  0.00000000000E+00  0.00000000000E+00  0.56941236973E+03  0.56941236973E+03  0.00000000000E+00 0. -1.
          1   -1    0    0  501    0 -0.00000000000E+00 -0.00000000000E+00 -0.46586643472E+03  0.46586643472E+03  0.00000000000E+00 0.  1.
          2    1    1    2  501    0  0.52644409367E+01 -0.19476544245E+02  0.56901506513E+03  0.56937263234E+03  0.00000000000E+00 0. -1.
          1    1    1    2  502    0 -0.52644409367E+01  0.19476544245E+02 -0.46546913012E+03  0.46590617211E+03  0.00000000000E+00 0.  1.
</event>
<event>
 4    1  0.7416369E+003  0.2145145E+02  0.7546771E-02  0.1512916E+00
          2   -1    0    0  502    0  0.00000000000E+00  0.00000000000E+00  0.46708862716E+03  0.46708862716E+03  0.00000000000E+00 0.  1.
          1   -1    0    0  501    0 -0.00000000000E+00 -0.00000000000E+00 -0.14811927428E+01  0.14811927428E+01  0.00000000000E+00 0.  1.
          2    1    1    2  501    0 -0.21442640164E+02 -0.61432430155E+00  0.97226419720E+02  0.99564757334E+02  0.00000000000E+00 0.  1.
          1    1    1    2  502    0  0.21442640164E+02  0.61432430155E+00  0.36838101469E+03  0.36900506257E+03  0.00000000000E+00 0.  1.
</event>
<event>
 4    1  0.7416369E+003  0.3938360E+02  0.7546771E-02  0.1352136E+00
          2   -1    0    0  502    0  0.00000000000E+00  0.00000000000E+00  0.55141854389E+03  0.55141854389E+03  0.00000000000E+00 0. -1.
          1   -1    0    0  501    0 -0.00000000000E+00 -0.00000000000E+00 -0.16710140437E+02  0.16710140437E+02  0.00000000000E+00 0.  1.
          2    1    1    2  501    0  0.22905070858E+02 -0.32037873969E+02  0.52640888935E+03  0.52788008716E+03  0.00000000000E+00 0. -1.
          1    1    1    2  502    0 -0.22905070858E+02  0.32037873969E+02  0.82995141082E+01  0.40248597167E+02  0.00000000000E+00 0.  1.
</event>
<event>
 4    1  0.7416369E+003  0.2525228E+02  0.7546771E-02  0.1466001E+00
          2   -1    0    0  502    0  0.00000000000E+00  0.00000000000E+00  0.22879069707E+04  0.22879069707E+04  0.00000000000E+00 0. -1.
          1   -1    0    0  501    0 -0.00000000000E+00 -0.00000000000E+00 -0.31743950858E+00  0.31743950858E+00  0.00000000000E+00 0. -1.
          2    1    1    2  501    0  0.30395972748E+01 -0.25068671481E+02  0.15433921446E+04  0.15435987139E+04  0.00000000000E+00 0. -1.
          1    1    1    2  502    0 -0.30395972748E+01  0.25068671481E+02  0.74419738657E+03  0.74462569632E+03  0.00000000000E+00 0. -1.
</event>
<event>
 4    1  0.7416369E+003  0.2129467E+02  0.7546771E-02  0.1515099E+00
          2   -1    0    0  502    0  0.00000000000E+00  0.00000000000E+00  0.60192119672E+01  0.60192119672E+01  0.00000000000E+00 0. -1.
          1   -1    0    0  501    0 -0.00000000000E+00 -0.00000000000E+00 -0.30224318305E+03  0.30224318305E+03  0.00000000000E+00 0.  1.
          2    1    1    2  501    0  0.50104312182E+01  0.20696829328E+02 -0.14564274916E+02  0.25798861778E+02  0.00000000000E+00 0. -1.
          1    1    1    2  502    0 -0.50104312182E+01 -0.20696829328E+02 -0.28165969616E+03  0.28246353324E+03  0.00000000000E+00 0.  1.
</event>
<event>
 4    1  0.7416369E+003  0.2613378E+02  0.7546771E-02  0.1456509E+00
          2   -1    0    0  502    0  0.00000000000E+00  0.00000000000E+00  0.15960882752E+02  0.15960882752E+02  0.00000000000E+00 0. -1.
          1   -1    0    0  501    0 -0.00000000000E+00 -0.00000000000E+00 -0.59507345737E+02  0.59507345737E+02  0.00000000000E+00 0. -1.
          2    1    1    2  501    0 -0.39974021610E+00  0.26130718376E+02 -0.17734168254E+01  0.26193877955E+02  0.00000000000E+00 0. -1.
          1    1    1    2  502    0  0.39974021610E+00 -0.26130718376E+02 -0.41773046160E+02  0.49274350534E+02  0.00000000000E+00 0. -1.
</event>
<event>
 4    1  0.7416369E+003  0.2190783E+02  0.7546771E-02  0.1506688E+00
          2   -1    0    0  502    0  0.00000000000E+00  0.00000000000E+00  0.52567891312E+03  0.52567891312E+03  0.00000000000E+00 0. -1.
          1   -1    0    0  501    0 -0.00000000000E+00 -0.00000000000E+00 -0.11776659064E+02  0.11776659064E+02  0.00000000000E+00 0. -1.
          2    1    1    2  501    0  0.19937759200E+02 -0.90795695366E+01  0.51505188713E+03  0.51551760325E+03  0.00000000000E+00 0. -1.
          1    1    1    2  502    0 -0.19937759200E+02  0.90795695366E+01 -0.11496330717E+01  0.21937968937E+02  0.00000000000E+00 0. -1.
</event>
<event>
 4    1  0.7416369E+003  0.2093557E+02  0.7546771E-02  0.1520187E+00
          2   -1    0    0  502    0  0.00000000000E+00  0.00000000000E+00  0.47831149169E+02  0.47831149169E+02  0.00000000000E+00 0. -1.
          1   -1    0    0  501    0 -0.00000000000E+00 -0.00000000000E+00 -0.10142228800E+04  0.10142228800E+04  0.00000000000E+00 0. -1.
          2    1    1    2  501    0  0.13235755313E+02  0.16220752254E+02  0.45426807360E+02  0.50018924911E+02  0.00000000000E+00 0. -1.
          1    1    1    2  502    0 -0.13235755313E+02 -0.16220752254E+02 -0.10118185382E+04  0.10120351042E+04  0.00000000000E+00 0. -1.
</event>
<event>
 4    1  0.7416369E+003  0.2377943E+02  0.7546771E-02  0.1482936E+00
          2   -1    0    0  502    0  0.00000000000E+00  0.00000000000E+00  0.13401345671E+04  0.13401345671E+04  0.00000000000E+00 0. -1.
          1   -1    0    0  501    0 -0.00000000000E+00 -0.00000000000E+00 -0.23752880969E+02  0.23752880969E+02  0.00000000000E+00 0.  1.
          2    1    1    2  501    0 -0.23663011379E+02  0.23501290682E+01  0.13340504393E+04  0.13342623564E+04  0.00000000000E+00 0. -1.
          1    1    1    2  502    0  0.23663011379E+02 -0.23501290682E+01 -0.17668753183E+02  0.29625091615E+02  0.00000000000E+00 0.  1.
</event>
<event>
 4    1  0.7416369E+003  0.2105808E+02  0.7546771E-02  0.1518437E+00
          2   -1    0    0  502    0  0.00000000000E+00  0.00000000000E+00  0.21287161723E+01  0.21287161723E+01  0.00000000000E+00 0.  1.
          1   -1    0    0  501    0 -0.00000000000E+00 -0.00000000000E+00 -0.22476171447E+03  0.22476171447E+03  0.00000000000E+00 0.  1.
          2    1    1    2  501    0  0.16427045741E+02 -0.13175544162E+02 -0.80628468543E+02  0.83333023078E+02  0.00000000000E+00 0.  1.
          1    1    1    2  502    0 -0.16427045741E+02  0.13175544162E+02 -0.14200452976E+03  0.14355740757E+03  0.00000000000E+00 0.  1.
</event>
<event>
 4    1  0.7416369E+003  0.2980608E+02  0.7546771E-02  0.1421289E+00
          2   -1    0    0  502    0  0.00000000000E+00  0.00000000000E+00  0.17514358983E+03  0.17514358983E+03  0.00000000000E+00 0. -1.
          1   -1    0    0  501    0 -0.00000000000E+00 -0.00000000000E+00 -0.60911524958E+02  0.60911524958E+02  0.00000000000E+00 0. -1.
          2    1    1    2  501    0  0.16432228796E+02 -0.24867330822E+02  0.17012239540E+03  0.17271372760E+03  0.00000000000E+00 0. -1.
          1    1    1    2  502    0 -0.16432228796E+02  0.24867330822E+02 -0.55890330523E+02  0.63341387191E+02  0.00000000000E+00 0. -1.
</event>
<event>
 4    1  0.7416369E+003  0.5145318E+02  0.7546771E-02  0.1291992E+00
          2   -1    0    0  502    0  0.00000000000E+00  0.00000000000E+00  0.11916443009E+04  0.11916443009E+04  0.00000000000E+00 0.  1.
          1   -1    0    0  501    0 -0.00000000000E+00 -0.00000000000E+00 -0.79288220307E+01  0.79288220307E+01  0.00000000000E+00 0. -1.
          2    1    1    2  501    0  0.32371648402E+02  0.39993831593E+02  0.11007225777E+04  0.11019245088E+04  0.00000000000E+00 0.  1.
          1    1    1    2  502    0 -0.32371648402E+02 -0.39993831593E+02  0.82992901233E+02  0.97648614127E+02  0.00000000000E+00 0. -1.
</event>
<event>
 4    1  0.7416369E+003  0.3333428E+02  0.7546771E-02  0.1392668E+00
          2   -1    0    0  502    0  0.00000000000E+00  0.00000000000E+00  0.98452221786E+01  0.98452221786E+01  0.00000000000E+00 0. -1.
          1   -1    0    0  501    0 -0.00000000000E+00 -0.00000000000E+00 -0.89004644607E+03  0.89004644607E+03  0.00000000000E+00 0. -1.
          2    1    1    2  501    0  0.10967339474E+02  0.31478437197E+02 -0.19649703415E+02  0.38694772099E+02  0.00000000000E+00 0. -1.
          1    1    1    2  502    0 -0.10967339474E+02 -0.31478437197E+02 -0.86055152048E+03  0.86119689615E+03  0.00000000000E+00 0. -1.
</event>
<event>
 4    1  0.7416369E+003  0.5674815E+02  0.7546771E-02  0.1271300E+00
          2   -1    0    0  502    0  0.00000000000E+00  0.00000000000E+00  0.26480007851E+04  0.26480007851E+04  0.00000000000E+00 0. -1.
          1   -1    0    0  501    0 -0.00000000000E+00 -0.00000000000E+00 -0.17048395103E+02  0.17048395103E+02  0.00000000000E+00 0. -1.
          2    1    1    2  501    0  0.51123307384E+02 -0.24632494222E+02  0.25995938151E+04  0.26002131366E+04  0.00000000000E+00 0. -1.
          1    1    1    2  502    0 -0.51123307384E+02  0.24632494222E+02  0.31358574915E+02  0.64836043604E+02  0.00000000000E+00 0. -1.
</event>
<event>
 4    1  0.7416369E+003  0.3267545E+02  0.7546771E-02  0.1397686E+00
          2   -1    0    0  502    0  0.00000000000E+00  0.00000000000E+00  0.38669849303E+03  0.38669849303E+03  0.00000000000E+00 0.  1.
          1   -1    0    0  501    0 -0.00000000000E+00 -0.00000000000E+00 -0.17389542775E+02  0.17389542775E+02  0.00000000000E+00 0. -1.
          2    1    1    2  501    0  0.25378569664E+02 -0.20581861907E+02  0.36996583902E+03  0.37140598659E+03  0.00000000000E+00 0.  1.
          1    1    1    2  502    0 -0.25378569664E+02  0.20581861907E+02 -0.65688876404E+00  0.32682049210E+02  0.00000000000E+00 0. -1.
</event>
<event>
 4    1  0.7416369E+003  0.2887086E+02  0.7546771E-02  0.1429669E+00
          2   -1    0    0  502    0  0.00000000000E+00  0.00000000000E+00  0.33108386869E+03  0.33108386869E+03  0.00000000000E+00 0.  1.
          1   -1    0    0  501    0 -0.00000000000E+00 -0.00000000000E+00 -0.52495922052E+02  0.52495922052E+02  0.00000000000E+00 0. -1.
          2    1    1    2  501    0  0.63834793273E+01  0.28156304989E+02  0.32642849464E+03  0.32770274401E+03  0.00000000000E+00 0.  1.
          1    1    1    2  502    0 -0.63834793273E+01 -0.28156304989E+02 -0.47840547999E+02  0.55877046734E+02  0.00000000000E+00 0. -1.
</event>
<event>
 4    1  0.7416369E+003  0.3256021E+02  0.7546771E-02  0.1398578E+00
          2   -1    0    0  502    0  0.00000000000E+00  0.00000000000E+00  0.18024187603E+04  0.18024187603E+04  0.00000000000E+00 0. -1.
          1   -1    0    0  501    0 -0.00000000000E+00 -0.00000000000E+00 -0.59411880240E+01  0.59411880240E+01  0.00000000000E+00 0.  1.
          2    1    1    2  501    0  0.94904434200E+01  0.31146403934E+02  0.17564945431E+04  0.17567963021E+04  0.00000000000E+00 0. -1.
          1    1    1    2  502    0 -0.94904434200E+01 -0.31146403934E+02  0.39983029195E+02  0.51563646282E+02  0.00000000000E+00 0.  1.
</event>
<event>
 4    1  0.1021871E+004  0.2767781E+02  0.7546771E-02  0.1440916E+00
          2   -1    0    0  502    0  0.00000000000E+00  0.00000000000E+00  0.18978271202E+04  0.18978271202E+04  0.00000000000E+00 0.  1.
          1   -1    0    0  501    0 -0.00000000000E+00 -0.00000000000E+00 -0.26102678783E+03  0.26102678783E+03  0.00000000000E+00 0. -1.
          2    1    1    2  501    0 -0.25625788883E+02  0.10458499907E+02  0.18969921845E+04  0.18971940885E+04  0.00000000000E+00 0.  1.
          1    1    1    2  502    0  0.25625788883E+02 -0.10458499907E+02 -0.26019185212E+03  0.26165981958E+03  0.00000000000E+00 0. -1.
</event>
<event>
 4    1  0.7416369E+003  0.2049354E+02  0.7546771E-02  0.1526620E+00
          2   -1    0    0  502    0  0.00000000000E+00  0.00000000000E+00  0.19478777101E+02  0.19478777101E+02  0.00000000000E+00 0.  1.
          1   -1    0    0  501    0 -0.00000000000E+00 -0.00000000000E+00 -0.53414783008E+02  0.53414783008E+02  0.00000000000E+00 0.  1.
          2    1    1    2  501    0 -0.20059939515E+02 -0.41933393488E+01  0.11177419142E+02  0.23343520877E+02  0.00000000000E+00 0.  1.
          1    1    1    2  502    0  0.20059939515E+02  0.41933393488E+01 -0.45113425048E+02  0.49550039232E+02  0.00000000000E+00 0.  1.
</event>
<event>
 4    1  0.7416369E+003  0.2216326E+02  0.7546771E-02  0.1503281E+00
          2   -1    0    0  502    0  0.00000000000E+00  0.00000000000E+00  0.68541248978E+01  0.68541248978E+01  0.00000000000E+00 0.  1.
          1   -1    0    0  501    0 -0.00000000000E+00 -0.00000000000E+00 -0.44744044464E+03  0.44744044464E+03  0.00000000000E+00 0. -1.
          2    1    1    2  501    0  0.16695482878E+02  0.14576381548E+02 -0.12130247693E+02  0.25265647758E+02  0.00000000000E+00 0.  1.
          1    1    1    2  502    0 -0.16695482878E+02 -0.14576381548E+02 -0.42845607205E+03  0.42902892178E+03  0.00000000000E+00 0. -1.
</event>
<event>
 4    1  0.7416369E+003  0.2700149E+02  0.7546771E-02  0.1447593E+00
          2   -1    0    0  502    0  0.00000000000E+00  0.00000000000E+00  0.95992248132E+03  0.95992248132E+03  0.00000000000E+00 0. -1.
          1   -1    0    0  501    0 -0.00000000000E+00 -0.00000000000E+00 -0.16455892182E+01  0.16455892182E+01  0.00000000000E+00 0. -1.
          2    1    1    2  501    0  0.23502558761E+02 -0.13293234287E+02  0.83193403015E+03  0.83237209880E+03  0.00000000000E+00 0. -1.
          1    1    1    2  502    0 -0.23502558761E+02  0.13293234287E+02  0.12634286196E+03  0.12919597174E+03  0.00000000000E+00 0. -1.
</event>
<event>
 4    1  0.7416369E+003  0.2114422E+02  0.7546771E-02  0.1517216E+00
          2   -1    0    0  502    0  0.00000000000E+00  0.00000000000E+00  0.10671414378E+04  0.10671414378E+04  0.00000000000E+00 0.  1.
          1   -1    0    0  501    0 -0.00000000000E+00 -0.00000000000E+00 -0.23858843657E+01  0.23858843657E+01  0.00000000000E+00 0.  1.
          2    1    1    2  501    0  0.53416373917E+01 -0.20458368455E+02  0.10179258412E+04  0.10181454200E+04  0.00000000000E+00 0.  1.
          1    1    1    2  502    0 -0.53416373917E+01  0.20458368455E+02  0.46829712221E+02  0.51381902229E+02  0.00000000000E+00 0.  1.
</event>
<event>
 4    1  0.7416369E+003  0.2054908E+02  0.7546771E-02  0.1525801E+00
          2   -1    0    0  502    0  0.00000000000E+00  0.00000000000E+00  0.80939379706E+03  0.80939379706E+03  0.00000000000E+00 0. -1.
          1   -1    0    0  501    0 -0.00000000000E+00 -0.00000000000E+00 -0.38569861352E+02  0.38569861352E+02  0.00000000000E+00 0. -1.
          2    1    1    2  501    0  0.46781348412E+00  0.20543755136E+02  0.80651659608E+03  0.80677833664E+03  0.00000000000E+00 0. -1.
          1    1    1    2  502    0 -0.46781348412E+00 -0.20543755136E+02 -0.35692660374E+02  0.41185321767E+02  0.00000000000E+00 0. -1.
</event>
<event>
 4    1  0.7416369E+003  0.2670423E+02  0.7546771E-02  0.1450602E+00
          2   -1    0    0  502    0  0.00000000000E+00  0.00000000000E+00  0.11981407410E+04  0.11981407410E+04  0.00000000000E+00 0.  1.
          1   -1    0    0  501    0 -0.00000000000E+00 -0.00000000000E+00 -0.11373904731E+01  0.11373904731E+01  0.00000000000E+00 0. -1.
          2    1    1    2  501    0 -0.15810934432E+02  0.21520459311E+02  0.10125174931E+04  0.10128695818E+04  0.00000000000E+00 0.  1.
          1    1    1    2  502    0  0.15810934432E+02 -0.21520459311E+02  0.18448585746E+03  0.18640854975E+03  0.00000000000E+00 0. -1.
</event>
<event>
 4    1  0.7416369E+003  0.3791744E+02  0.7546771E-02  0.1361141E+00
          2   -1    0    0  502    0  0.00000000000E+00  0.00000000000E+00  0.53709866349E+03  0.53709866349E+03  0.00000000000E+00 0. -1.
          1   -1    0    0  501    0 -0.00000000000E+00 -0.00000000000E+00 -0.77797165716E+01  0.77797165716E+01  0.00000000000E+00 0.  1.
          2    1    1    2  501    0  0.37844286048E+02 -0.23541954633E+01  0.48530484702E+03  0.48678386041E+03  0.00000000000E+00 0. -1.
          1    1    1    2  502    0 -0.37844286048E+02  0.23541954633E+01  0.44014099901E+02  0.58094519645E+02  0.00000000000E+00 0.  1.
</event>
<event>
 4    1  0.7416369E+003  0.2260029E+02  0.7546771E-02  0.1497579E+00
          2   -1    0    0  502    0  0.00000000000E+00  0.00000000000E+00  0.12209683492E+04  0.12209683492E+04  0.00000000000E+00 0. -1.
          1   -1    0    0  501    0 -0.00000000000E+00 -0.00000000000E+00 -0.51030687264E+00  0.51030687264E+00  0.00000000000E+00 0. -1.
          2    1    1    2  501    0  0.20203742006E+02  0.10128281941E+02  0.86950881673E+03  0.86980248083E+03  0.00000000000E+00 0. -1.
          1    1    1    2  502    0 -0.20203742006E+02 -0.10128281941E+02  0.35094922557E+03  0.35167617522E+03  0.00000000000E+00 0. -1.
</event>
<event>
 4    1  0.7416369E+003  0.2768653E+02  0.7546771E-02  0.1440831E+00
          2   -1    0    0  502    0  0.00000000000E+00  0.00000000000E+00  0.88162275825E+02  0.88162275825E+02  0.00000000000E+00 0. -1.
          1   -1    0    0  501    0 -0.00000000000E+00 -0.00000000000E+00 -0.23741234014E+03  0.23741234014E+03  0.00000000000E+00 0. -1.
          2    1    1    2  501    0  0.10927037834E+02 -0.25439024516E+02  0.85153612199E+02  0.89541508780E+02  0.00000000000E+00 0. -1.
          1    1    1    2  502    0 -0.10927037834E+02  0.25439024516E+02 -0.23440367652E+03  0.23603310719E+03  0.00000000000E+00 0. -1.
</event>
<event>
 4    1  0.7416369E+003  0.2034960E+02  0.7546771E-02  0.1528757E+00
          2   -1    0    0  502    0  0.00000000000E+00  0.00000000000E+00  0.33060087401E+01  0.33060087401E+01  0.00000000000E+00 0. -1.
          1   -1    0    0  501    0 -0.00000000000E+00 -0.00000000000E+00 -0.34078258708E+03  0.34078258708E+03  0.00000000000E+00 0. -1.
          2    1    1    2  501    0 -0.16762437402E+02  0.11538066843E+02 -0.31918376069E+02  0.37853520642E+02  0.00000000000E+00 0. -1.
          1    1    1    2  502    0  0.16762437402E+02 -0.11538066843E+02 -0.30555820227E+03  0.30623507518E+03  0.00000000000E+00 0. -1.
</event>
<event>
 4    1  0.7416369E+003  0.2599905E+02  0.7546771E-02  0.1457930E+00
          2   -1    0    0  502    0  0.00000000000E+00  0.00000000000E+00  0.27753986584E+01  0.27753986584E+01  0.00000000000E+00 0.  1.
          1   -1    0    0  501    0 -0.00000000000E+00 -0.00000000000E+00 -0.11999531389E+04  0.11999531389E+04  0.00000000000E+00 0.  1.
          2    1    1    2  501    0 -0.16010284329E+02 -0.20484665413E+02 -0.61710658832E+02  0.66963841996E+02  0.00000000000E+00 0.  1.
          1    1    1    2  502    0  0.16010284329E+02  0.20484665413E+02 -0.11354670814E+04  0.11357646956E+04  0.00000000000E+00 0.  1.
</event>
<event>
 4    1  0.7416369E+003  0.2394118E+02  0.7546771E-02  0.1481006E+00
          2   -1    0    0  502    0  0.00000000000E+00  0.00000000000E+00  0.13779728347E+04  0.13779728347E+04  0.00000000000E+00 0. -1.
          1   -1    0    0  501    0 -0.00000000000E+00 -0.00000000000E+00 -0.10062834319E+02  0.10062834319E+02  0.00000000000E+00 0. -1.
          2    1    1    2  501    0  0.21613333535E+02 -0.10297766572E+02  0.13634774398E+04  0.13636876141E+04  0.00000000000E+00 0. -1.
          1    1    1    2  502    0 -0.21613333535E+02  0.10297766572E+02  0.44325606053E+01  0.24348054879E+02  0.00000000000E+00 0. -1.
</event>
<event>
 4    1  0.7416369E+003  0.2638060E+02  0.7546771E-02  0.1453931E+00
          2   -1    0    0  502    0  0.00000000000E+00  0.00000000000E+00  0.18523708180E+03  0.18523708180E+03  0.00000000000E+00 0. -1.
          1   -1    0    0  501    0 -0.00000000000E+00 -0.00000000000E+00 -0.33568974073E+02  0.33568974073E+02  0.00000000000E+00 0. -1.
          2    1    1    2  501    0  0.21351190287E+02 -0.15493964185E+02  0.17893333902E+03  0.18086756499E+03  0.00000000000E+00 0. -1.
          1    1    1    2  502    0 -0.21351190287E+02  0.15493964185E+02 -0.27265231295E+02  0.37938490881E+02  0.00000000000E+00 0. -1.
</event>
<event>
 4    1  0.7416369E+003  0.4567556E+02  0.7546771E-02  0.1318095E+00
          2   -1    0    0  502    0  0.00000000000E+00  0.00000000000E+00  0.86371289588E+03  0.86371289588E+03  0.00000000000E+00 0. -1.
          1   -1    0    0  501    0 -0.00000000000E+00 -0.00000000000E+00 -0.10976195853E+03  0.10976195853E+03  0.00000000000E+00 0.  1.
          2    1    1    2  501    0 -0.33020533109E+02 -0.31557897229E+02  0.85832746500E+03  0.85954190919E+03  0.00000000000E+00 0. -1.
          1    1    1    2  502    0  0.33020533109E+02  0.31557897229E+02 -0.10437652765E+03  0.11393294523E+03  0.00000000000E+00 0.  1.
</event>
<event>
 4    1  0.7416369E+003  0.2756087E+02  0.7546771E-02  0.1442054E+00
          2   -1    0    0  502    0  0.00000000000E+00  0.00000000000E+00  0.43073666592E+01  0.43073666592E+01  0.00000000000E+00 0.  1.
          1   -1    0    0  501    0 -0.00000000000E+00 -0.00000000000E+00 -0.64494627962E+03  0.64494627962E+03  0.00000000000E+00 0.  1.
          2    1    1    2  501    0 -0.24543923156E+02 -0.12537835142E+02 -0.43611063270E+02  0.51589982685E+02  0.00000000000E+00 0.  1.
          1    1    1    2  502    0  0.24543923156E+02  0.12537835142E+02 -0.59702784969E+03  0.59766366359E+03  0.00000000000E+00 0.  1.
</event>
<event>
 4    1  0.7429328E+003  0.5074913E+02  0.7546771E-02  0.1294957E+00
          2   -1    0    0  502    0  0.00000000000E+00  0.00000000000E+00  0.64800639796E+03  0.64800639796E+03  0.00000000000E+00 0. -1.
          1   -1    0    0  501    0 -0.00000000000E+00 -0.00000000000E+00 -0.71255636654E+03  0.71255636654E+03  0.00000000000E+00 0. -1.
          2    1    1    2  501    0  0.39653156154E+02  0.31671776490E+02  0.64610652682E+03  0.64809653464E+03  0.00000000000E+00 0. -1.
          1    1    1    2  502    0 -0.39653156154E+02 -0.31671776490E+02 -0.71065649540E+03  0.71246622985E+03  0.00000000000E+00 0. -1.
</event>
<event>
 4    1  0.7416369E+003  0.3441546E+02  0.7546771E-02  0.1384720E+00
          2   -1    0    0  502    0  0.00000000000E+00  0.00000000000E+00  0.17762776648E+04  0.17762776648E+04  0.00000000000E+00 0. -1.
          1   -1    0    0  501    0 -0.00000000000E+00 -0.00000000000E+00 -0.30412417393E+01  0.30412417393E+01  0.00000000000E+00 0.  1.
          2    1    1    2  501    0 -0.23406545052E+02 -0.25230091856E+02  0.16727203646E+04  0.16730743684E+04  0.00000000000E+00 0. -1.
          1    1    1    2  502    0  0.23406545052E+02  0.25230091856E+02  0.10051605846E+03  0.10624453819E+03  0.00000000000E+00 0.  1.
</event>
<event>
 4    1  0.7416369E+003  0.2048595E+02  0.7546771E-02  0.1526732E+00
          2   -1    0    0  502    0  0.00000000000E+00  0.00000000000E+00  0.45272150379E+03  0.45272150379E+03  0.00000000000E+00 0. -1.
          1   -1    0    0  501    0 -0.00000000000E+00 -0.00000000000E+00 -0.88801953390E+01  0.88801953390E+01  0.00000000000E+00 0.  1.
          2    1    1    2  501    0  0.20142630946E+02  0.37347904055E+01  0.44034290766E+03  0.44081918126E+03  0.00000000000E+00 0. -1.
          1    1    1    2  502    0 -0.20142630946E+02 -0.37347904055E+01  0.34984007891E+01  0.20782517866E+02  0.00000000000E+00 0.  1.
</event>
<event>
 4    1  0.7416369E+003  0.2667433E+02  0.7546771E-02  0.1450907E+00
          2   -1    0    0  502    0  0.00000000000E+00  0.00000000000E+00  0.58496062543E+03  0.58496062543E+03  0.00000000000E+00 0.  1.
          1   -1    0    0  501    0 -0.00000000000E+00 -0.00000000000E+00 -0.43887485143E+01  0.43887485143E+01  0.00000000000E+00 0.  1.
          2    1    1    2  501    0  0.15561404915E+02 -0.21664782274E+02  0.54081953381E+03  0.54147695082E+03  0.00000000000E+00 0.  1.
          1    1    1    2  502    0 -0.15561404915E+02  0.21664782274E+02  0.39752343108E+02  0.47872423131E+02  0.00000000000E+00 0.  1.
</event>
<event>
 4    1  0.8282601E+003  0.2144242E+02  0.7546771E-02  0.1513041E+00
          2   -1    0    0  502    0  0.00000000000E+00  0.00000000000E+00  0.47764058287E+03  0.47764058287E+03  0.00000000000E+00 0. -1.
          1   -1    0    0  501    0 -0.00000000000E+00 -0.00000000000E+00 -0.51035919571E+03  0.51035919571E+03  0.00000000000E+00 0.  1.
          2    1    1    2  501    0  0.72501755817E+01  0.20179498816E+02  0.47717449042E+03  0.47765601799E+03  0.00000000000E+00 0. -1.
          1    1    1    2  502    0 -0.72501755817E+01 -0.20179498816E+02 -0.50989310326E+03  0.51034376058E+03  0.00000000000E+00 0.  1.
</event>
<event>
 4    1  0.7416369E+003  0.2279496E+02  0.7546771E-02  0.1495089E+00
          2   -1    0    0  502    0  0.00000000000E+00  0.00000000000E+00  0.13549837494E+03  0.13549837494E+03  0.00000000000E+00 0. -1.
          1   -1    0    0  501    0 -0.00000000000E+00 -0.00000000000E+00 -0.91294647421E+01  0.91294647421E+01  0.00000000000E+00 0.  1.
          2    1    1    2  501    0  0.18572242947E+02  0.13216739395E+02  0.11825483890E+03  0.12043179535E+03  0.00000000000E+00 0. -1.
          1    1    1    2  502    0 -0.18572242947E+02 -0.13216739395E+02  0.81140713008E+01  0.24196044333E+02  0.00000000000E+00 0.  1.
</event>
<event>
 4    1  0.7416369E+003  0.2179168E+02  0.7546771E-02  0.1508255E+00
          2   -1    0    0  502    0  0.00000000000E+00  0.00000000000E+00  0.57559767050E+01  0.57559767050E+01  0.00000000000E+00 0.  1.
          1   -1    0    0  501    0 -0.00000000000E+00 -0.00000000000E+00 -0.44675335948E+03  0.44675335948E+03  0.00000000000E+00 0.  1.
          2    1    1    2  501    0 -0.15809675652E+02 -0.14997717889E+02 -0.16200532049E+02  0.27153906252E+02  0.00000000000E+00 0.  1.
          1    1    1    2  502    0  0.15809675652E+02  0.14997717889E+02 -0.42479685072E+03  0.42535542993E+03  0.00000000000E+00 0.  1.
</event>
<event>
 4    1  0.7416369E+003  0.2004178E+02  0.7546771E-02  0.1533398E+00
          2   -1    0    0  502    0  0.00000000000E+00  0.00000000000E+00  0.83675122468E+02  0.83675122468E+02  0.00000000000E+00 0.  1.
          1   -1    0    0  501    0 -0.00000000000E+00 -0.00000000000E+00 -0.19559850250E+03  0.19559850250E+03  0.00000000000E+00 0. -1.
          2    1    1    2  501    0 -0.22529382983E+01  0.19914750832E+02  0.81950991689E+02  0.84366095503E+02  0.00000000000E+00 0.  1.
          1    1    1    2  502    0  0.22529382983E+01 -0.19914750832E+02 -0.19387437172E+03  0.19490752947E+03  0.00000000000E+00 0. -1.
</event>
<event>
 4    1  0.7416369E+003  0.7468726E+02  0.7546771E-02  0.1216749E+00
          2   -1    0    0  502    0  0.00000000000E+00  0.00000000000E+00  0.17631606770E+04  0.17631606770E+04  0.00000000000E+00 0.  1.
          1   -1    0    0  501    0 -0.00000000000E+00 -0.00000000000E+00 -0.18906780303E+04  0.18906780303E+04  0.00000000000E+00 0. -1.
          2    1    1    2  501    0  0.64422712273E+01  0.74408900636E+02  0.17616315104E+04  0.17632140442E+04  0.00000000000E+00 0.  1.
          1    1    1    2  502    0 -0.64422712273E+01 -0.74408900636E+02 -0.18891488637E+04  0.18906246631E+04  0.00000000000E+00 0. -1.
</event>
<event>
 4    1  0.7416369E+003  0.2027530E+02  0.7546771E-02  0.1529868E+00
          2   -1    0    0  502    0  0.00000000000E+00  0.00000000000E+00  0.69154392549E+02  0.69154392549E+02  0.00000000000E+00 0.  1.
          1   -1    0    0  501    0 -0.00000000000E+00 -0.00000000000E+00 -0.22860837156E+03  0.22860837156E+03  0.00000000000E+00 0. -1.
          2    1    1    2  501    0 -0.70322448340E+00  0.20263106083E+02  0.67205964120E+02  0.70197789183E+02  0.00000000000E+00 0.  1.
          1    1    1    2  502    0  0.70322448340E+00 -0.20263106083E+02 -0.22665994313E+03  0.22756497493E+03  0.00000000000E+00 0. -1.
</event>
<event>
 4    1  0.7416369E+003  0.2609135E+02  0.7546771E-02  0.1456956E+00
          2   -1    0    0  502    0  0.00000000000E+00  0.00000000000E+00  0.25604400273E+01  0.25604400273E+01  0.00000000000E+00 0.  1.
          1   -1    0    0  501    0 -0.00000000000E+00 -0.00000000000E+00 -0.35330281747E+03  0.35330281747E+03  0.00000000000E+00 0.  1.
          2    1    1    2  501    0 -0.26088795072E+02  0.36390753087E+00 -0.26388351957E+03  0.26517026522E+03  0.00000000000E+00 0.  1.
          1    1    1    2  502    0  0.26088795072E+02 -0.36390753087E+00 -0.86858857869E+02  0.90692992272E+02  0.00000000000E+00 0.  1.
</event>
<event>
 4    1  0.7416369E+003  0.2134096E+02  0.7546771E-02  0.1514452E+00
          2   -1    0    0  502    0  0.00000000000E+00  0.00000000000E+00  0.17786671459E+03  0.17786671459E+03  0.00000000000E+00 0.  1.
          1   -1    0    0  501    0 -0.00000000000E+00 -0.00000000000E+00 -0.17237507536E+03  0.17237507536E+03  0.00000000000E+00 0.  1.
          2    1    1    2  501    0  0.20615869142E+02  0.55156793725E+01  0.17656117878E+03  0.17784624436E+03  0.00000000000E+00 0.  1.
          1    1    1    2  502    0 -0.20615869142E+02 -0.55156793725E+01 -0.17106953955E+03  0.17239554560E+03  0.00000000000E+00 0.  1.
</event>
<event>
 4    1  0.7416369E+003  0.2112891E+02  0.7546771E-02  0.1517432E+00
          2   -1    0    0  502    0  0.00000000000E+00  0.00000000000E+00  0.36960309351E+03  0.36960309351E+03  0.00000000000E+00 0.  1.
          1   -1    0    0  501    0 -0.00000000000E+00 -0.00000000000E+00 -0.11882872331E+02  0.11882872331E+02  0.00000000000E+00 0. -1.
          2    1    1    2  501    0  0.45069270975E+01  0.20642635483E+02  0.35964908336E+03  0.36026919650E+03  0.00000000000E+00 0.  1.
          1    1    1    2  502    0 -0.45069270975E+01 -0.20642635483E+02 -0.19288621810E+01  0.21216769332E+02  0.00000000000E+00 0. -1.
</event>
<event>
 4    1  0.7416369E+003  0.2260923E+02  0.7546771E-02  0.1497464E+00
          2   -1    0    0  502    0  0.00000000000E+00  0.00000000000E+00  0.35304684630E+02  0.35304684630E+02  0.00000000000E+00 0.  1.
          1   -1    0    0  501    0 -0.00000000000E+00 -0.00000000000E+00 -0.11814810220E+04  0.11814810220E+04  0.00000000000E+00 0. -1.
          2    1    1    2  501    0  0.53106524949E+01  0.21976678111E+02  0.31565271921E+02  0.38827101388E+02  0.00000000000E+00 0.  1.
          1    1    1    2  502    0 -0.53106524949E+01 -0.21976678111E+02 -0.11777416093E+04  0.11779586052E+04  0.00000000000E+00 0. -1.
</event>
<event>
 4    1  0.7416369E+003  0.2148818E+02  0.7546771E-02  0.1512408E+00
          2   -1    0    0  502    0  0.00000000000E+00  0.00000000000E+00  0.35866579443E+02  0.35866579443E+02  0.00000000000E+00 0. -1.
          1   -1    0    0  501    0 -0.00000000000E+00 -0.00000000000E+00 -0.57467256418E+02  0.57467256418E+02  0.00000000000E+00 0.  1.
          2    1    1    2  501    0  0.11025424659E+02  0.18444015828E+02  0.30308396302E+02  0.37152935216E+02  0.00000000000E+00 0. -1.
          1    1    1    2  502    0 -0.11025424659E+02 -0.18444015828E+02 -0.51909073277E+02  0.56180900644E+02  0.00000000000E+00 0.  1.
</event>
<event>
 4    1  0.7416369E+003  0.2426156E+02  0.7546771E-02  0.1477236E+00
          2   -1    0    0  502    0  0.00000000000E+00  0.00000000000E+00  0.72356925789E+02  0.72356925789E+02  0.00000000000E+00 0. -1.
          1   -1    0    0  501    0 -0.00000000000E+00 -0.00000000000E+00 -0.28492734253E+02  0.28492734253E+02  0.00000000000E+00 0.  1.
          2    1    1    2  501    0  0.63485732537E+01 -0.23416208027E+02  0.64554913813E+02  0.68963469157E+02  0.00000000000E+00 0. -1.
          1    1    1    2  502    0 -0.63485732537E+01  0.23416208027E+02 -0.20690722277E+02  0.31886190884E+02  0.00000000000E+00 0.  1.
</event>
<event>
 4    1  0.7416369E+003  0.2338236E+02  0.7546771E-02  0.1487752E+00
          2   -1    0    0  502    0  0.00000000000E+00  0.00000000000E+00  0.14693813350E+02  0.14693813350E+02  0.00000000000E+00 0.  1.
          1   -1    0    0  501    0 -0.00000000000E+00 -0.00000000000E+00 -0.23600482079E+03  0.23600482079E+03  0.00000000000E+00 0.  1.
          2    1    1    2  501    0 -0.12576469289E+02  0.19712102382E+02  0.43889591312E+01  0.23790702435E+02  0.00000000000E+00 0.  1.
          1    1    1    2  502    0  0.12576469289E+02 -0.19712102382E+02 -0.22569996657E+03  0.22690793171E+03  0.00000000000E+00 0.  1.
</event>
<event>
 4    1  0.7416369E+003  0.2077581E+02  0.7546771E-02  0.1522490E+00
          2   -1    0    0  502    0  0.00000000000E+00  0.00000000000E+00  0.69551525941E+03  0.69551525941E+03  0.00000000000E+00 0.  1.
          1   -1    0    0  501    0 -0.00000000000E+00 -0.00000000000E+00 -0.63205438444E+00  0.63205438444E+00  0.00000000000E+00 0.  1.
          2    1    1    2  501    0  0.19472353123E+02  0.72430620998E+01  0.39430589767E+03  0.39485285288E+03  0.00000000000E+00 0.  1.
          1    1    1    2  502    0 -0.19472353123E+02 -0.72430620998E+01  0.30057730735E+03  0.30129446092E+03  0.00000000000E+00 0.  1.
</event>
<event>
 4    1  0.7416369E+003  0.2182496E+02  0.7546771E-02  0.1507805E+00
          2   -1    0    0  502    0  0.00000000000E+00  0.00000000000E+00  0.58868250675E+03  0.58868250675E+03  0.00000000000E+00 0. -1.
          1   -1    0    0  501    0 -0.00000000000E+00 -0.00000000000E+00 -0.86824753256E+00  0.86824753256E+00  0.00000000000E+00 0. -1.
          2    1    1    2  501    0 -0.10934573905E+02 -0.18888198187E+02  0.37081592794E+03  0.37145764409E+03  0.00000000000E+00 0. -1.
          1    1    1    2  502    0  0.10934573905E+02  0.18888198187E+02  0.21699833127E+03  0.21809311019E+03  0.00000000000E+00 0. -1.
</event>
<event>
 4    1  0.7416369E+003  0.3246705E+02  0.7546771E-02  0.1399302E+00
          2   -1    0    0  502    0  0.00000000000E+00  0.00000000000E+00  0.16846950831E+04  0.16846950831E+04  0.00000000000E+00 0.  1.
          1   -1    0    0  501    0 -0.00000000000E+00 -0.00000000000E+00 -0.31787320883E+01  0.31787320883E+01  0.00000000000E+00 0. -1.
          2    1    1    2  501    0 -0.20739297129E+02 -0.24979806367E+02  0.15970882731E+04  0.15974182487E+04  0.00000000000E+00 0.  1.
          1    1    1    2  502    0  0.20739297129E+02  0.24979806367E+02  0.84428077973E+02  0.90455566561E+02  0.00000000000E+00 0. -1.
</event>
<event>
 4    1  0.7416369E+003  0.2689156E+02  0.7546771E-02  0.1448700E+00
          2   -1    0    0  502    0  0.00000000000E+00  0.00000000000E+00  0.49917914777E+03  0.49917914777E+03  0.00000000000E+00 0.  1.
          1   -1    0    0  501    0 -0.00000000000E+00 -0.00000000000E+00 -0.54405916696E+01  0.54405916696E+01  0.00000000000E+00 0.  1.
          2    1    1    2  501    0 -0.24739298047E+02 -0.10541501828E+02  0.46299231382E+03  0.46377261539E+03  0.00000000000E+00 0.  1.
          1    1    1    2  502    0  0.24739298047E+02  0.10541501828E+02  0.30746242273E+02  0.40847124043E+02  0.00000000000E+00 0.  1.
</event>
<event>
 4    1  0.7416369E+003  0.2493767E+02  0.7546771E-02  0.1469502E+00
          2   -1    0    0  502    0  0.00000000000E+00  0.00000000000E+00  0.36890030912E+03  0.36890030912E+03  0.00000000000E+00 0. -1.
          1   -1    0    0  501    0 -0.00000000000E+00 -0.00000000000E+00 -0.10931925097E+02  0.10931925097E+02  0.00000000000E+00 0.  1.
          2    1    1    2  501    0 -0.65921383913E+01  0.24050594922E+02  0.35364428329E+03  0.35452244852E+03  0.00000000000E+00 0. -1.
          1    1    1    2  502    0  0.65921383913E+01 -0.24050594922E+02  0.43241007356E+01  0.25309785694E+02  0.00000000000E+00 0.  1.
</event>
<event>
 4    1  0.7416369E+003  0.3150590E+02  0.7546771E-02  0.1406946E+00
          2   -1    0    0  502    0  0.00000000000E+00  0.00000000000E+00  0.72696012071E+01  0.72696012071E+01  0.00000000000E+00 0. -1.
          1   -1    0    0  501    0 -0.00000000000E+00 -0.00000000000E+00 -0.45257310240E+03  0.45257310240E+03  0.00000000000E+00 0. -1.
          2    1    1    2  501    0 -0.30179344375E+02 -0.90459396112E+01 -0.30520354307E+02  0.43864722470E+02  0.00000000000E+00 0. -1.
          1    1    1    2  502    0  0.30179344375E+02  0.90459396112E+01 -0.41478314689E+03  0.41597798114E+03  0.00000000000E+00 0. -1.
</event>
<event>
 4    1  0.7416369E+003  0.2661541E+02  0.7546771E-02  0.1451510E+00
          2   -1    0    0  502    0  0.00000000000E+00  0.00000000000E+00  0.12704906459E+03  0.12704906459E+03  0.00000000000E+00 0.  1.
          1   -1    0    0  501    0 -0.00000000000E+00 -0.00000000000E+00 -0.15511880643E+03  0.15511880643E+03  0.00000000000E+00 0. -1.
          2    1    1    2  501    0 -0.40630713729E+01  0.26303446196E+02  0.12449027771E+03  0.12730360982E+03  0.00000000000E+00 0.  1.
          1    1    1    2  502    0  0.40630713729E+01 -0.26303446196E+02 -0.15256001954E+03  0.15486426119E+03  0.00000000000E+00 0. -1.
</event>
<event>
 4    1  0.7416369E+003  0.2442670E+02  0.7546771E-02  0.1475320E+00
          2   -1    0    0  502    0  0.00000000000E+00  0.00000000000E+00  0.19381566505E+02  0.19381566505E+02  0.00000000000E+00 0. -1.
          1   -1    0    0  501    0 -0.00000000000E+00 -0.00000000000E+00 -0.22364198740E+03  0.22364198740E+03  0.00000000000E+00 0. -1.
          2    1    1    2  501    0  0.67128586533E+01  0.23486195593E+02  0.10708796196E+02  0.26670998682E+02  0.00000000000E+00 0. -1.
          1    1    1    2  502    0 -0.67128586533E+01 -0.23486195593E+02 -0.21496921709E+03  0.21635255522E+03  0.00000000000E+00 0. -1.
</event>
<event>
 4    1  0.7416369E+003  0.4437506E+02  0.7546771E-02  0.1324594E+00
          2   -1    0    0  502    0  0.00000000000E+00  0.00000000000E+00  0.13007184902E+03  0.13007184902E+03  0.00000000000E+00 0. -1.
          1   -1    0    0  501    0 -0.00000000000E+00 -0.00000000000E+00 -0.22186137345E+02  0.22186137345E+02  0.00000000000E+00 0.  1.
          2    1    1    2  501    0 -0.23911331014E+02 -0.37381732497E+02  0.96848898417E+02  0.10653100394E+03  0.00000000000E+00 0. -1.
          1    1    1    2  502    0  0.23911331014E+02  0.37381732497E+02  0.11036813262E+02  0.45726982432E+02  0.00000000000E+00 0.  1.
</event>
<event>
 4    1  0.7416369E+003  0.2351059E+02  0.7546771E-02  0.1486184E+00
          2   -1    0    0  502    0  0.00000000000E+00  0.00000000000E+00  0.60410648561E+03  0.60410648561E+03  0.00000000000E+00 0.  1.
          1   -1    0    0  501    0 -0.00000000000E+00 -0.00000000000E+00 -0.10814921593E+01  0.10814921593E+01  0.00000000000E+00 0.  1.
          2    1    1    2  501    0  0.21113612228E+02 -0.10342306809E+02  0.42024401386E+03  0.42090115124E+03  0.00000000000E+00 0.  1.
          1    1    1    2  502    0 -0.21113612228E+02  0.10342306809E+02  0.18278097959E+03  0.18428682653E+03  0.00000000000E+00 0.  1.
</event>
<event>
 4    1  0.7416369E+003  0.2253818E+02  0.7546771E-02  0.1498380E+00
          2   -1    0    0  502    0  0.00000000000E+00  0.00000000000E+00  0.12534362067E+04  0.12534362067E+04  0.00000000000E+00 0.  1.
          1   -1    0    0  501    0 -0.00000000000E+00 -0.00000000000E+00 -0.22541442640E+01  0.22541442640E+01  0.00000000000E+00 0. -1.
          2    1    1    2  501    0 -0.12827383260E+02 -0.18531804249E+02  0.11942035093E+04  0.11944161717E+04  0.00000000000E+00 0.  1.
          1    1    1    2  502    0  0.12827383260E+02  0.18531804249E+02  0.56978553101E+02  0.61274179256E+02  0.00000000000E+00 0. -1.
</event>
<event>
 4    1  0.7416369E+003  0.2521280E+02  0.7546771E-02  0.1466437E+00
          2   -1    0    0  502    0  0.00000000000E+00  0.00000000000E+00  0.26999292199E+02  0.26999292199E+02  0.00000000000E+00 0.  1.
          1   -1    0    0  501    0 -0.00000000000E+00 -0.00000000000E+00 -0.25545329294E+02  0.25545329294E+02  0.00000000000E+00 0. -1.
          2    1    1    2  501    0 -0.24593514418E+02 -0.55537751755E+01  0.80796567576E+01  0.26475766721E+02  0.00000000000E+00 0.  1.
          1    1    1    2  502    0  0.24593514418E+02  0.55537751755E+01 -0.66256938518E+01  0.26068854772E+02  0.00000000000E+00 0. -1.
</event>
<event>
 4    1  0.7416369E+003  0.2390036E+02  0.7546771E-02  0.1481491E+00
          2   -1    0    0  502    0  0.00000000000E+00  0.00000000000E+00  0.23098111031E+02  0.23098111031E+02  0.00000000000E+00 0.  1.
          1   -1    0    0  501    0 -0.00000000000E+00 -0.00000000000E+00 -0.11397064321E+04  0.11397064321E+04  0.00000000000E+00 0. -1.
          2    1    1    2  501    0  0.16835894616E+02 -0.16964080878E+02  0.16755594186E+02  0.29188650604E+02  0.00000000000E+00 0.  1.
          1    1    1    2  502    0 -0.16835894616E+02  0.16964080878E+02 -0.11333639153E+04  0.11336158925E+04  0.00000000000E+00 0. -1.
</event>
<event>
 4    1  0.7416369E+003  0.2194795E+02  0.7546771E-02  0.1506149E+00
          2   -1    0    0  502    0  0.00000000000E+00  0.00000000000E+00  0.82090878180E+03  0.82090878180E+03  0.00000000000E+00 0. -1.
          1   -1    0    0  501    0 -0.00000000000E+00 -0.00000000000E+00 -0.46993586571E+01  0.46993586571E+01  0.00000000000E+00 0.  1.
          2    1    1    2  501    0 -0.18789656666E+02  0.11342896475E+02  0.79427647921E+03  0.79457966116E+03  0.00000000000E+00 0. -1.
          1    1    1    2  502    0  0.18789656666E+02 -0.11342896475E+02  0.21932943930E+02  0.31028479297E+02  0.00000000000E+00 0.  1.
</event>
<event>
 4    1  0.7416369E+003  0.3697262E+02  0.7546771E-02  0.1367202E+00
          2   -1    0    0  502    0  0.00000000000E+00  0.00000000000E+00  0.58987085170E+03  0.58987085170E+03  0.00000000000E+00 0.  1.
          1   -1    0    0  501    0 -0.00000000000E+00 -0.00000000000E+00 -0.85300487362E+02  0.85300487362E+02  0.00000000000E+00 0.  1.
          2    1    1    2  501    0  0.28656127058E+02  0.23362390564E+02  0.58525357071E+03  0.58642025625E+03  0.00000000000E+00 0.  1.
          1    1    1    2  502    0 -0.28656127058E+02 -0.23362390564E+02 -0.80683206369E+02  0.88751082815E+02  0.00000000000E+00 0.  1.
</event>
<event>
 4    1  0.7416369E+003  0.2812549E+02  0.7546771E-02  0.1436619E+00
          2   -1    0    0  502    0  0.00000000000E+00  0.00000000000E+00  0.91510254592E+03  0.91510254592E+03  0.00000000000E+00 0. -1.
          1   -1    0    0  501    0 -0.00000000000E+00 -0.00000000000E+00 -0.76033945961E+02  0.76033945961E+02  0.00000000000E+00 0. -1.
          2    1    1    2  501    0  0.27118689866E+02  0.74578835895E+01  0.91227743082E+03  0.91271088202E+03  0.00000000000E+00 0. -1.
          1    1    1    2  502    0 -0.27118689866E+02 -0.74578835895E+01 -0.73208830857E+02  0.78425609868E+02  0.00000000000E+00 0. -1.
</event>
<event>
 4    1  0.7416369E+003  0.3438807E+02  0.7546771E-02  0.1384917E+00
          2   -1    0    0  502    0  0.00000000000E+00  0.00000000000E+00  0.51211553636E+01  0.51211553636E+01  0.00000000000E+00 0. -1.
          1   -1    0    0  501    0 -0.00000000000E+00 -0.00000000000E+00 -0.33702542945E+03  0.33702542945E+03  0.00000000000E+00 0. -1.
          2    1    1    2  501    0  0.17955877848E+02  0.29327896685E+02 -0.69960164428E+02  0.77954882336E+02  0.00000000000E+00 0. -1.
          1    1    1    2  502    0 -0.17955877848E+02 -0.29327896685E+02 -0.26194410965E+03  0.26419170247E+03  0.00000000000E+00 0. -1.
</event>
<event>
 4    1  0.7416369E+003  0.2283660E+02  0.7546771E-02  0.1494560E+00
          2   -1    0    0  502    0  0.00000000000E+00  0.00000000000E+00  0.55074717791E+03  0.55074717791E+03  0.00000000000E+00 0.  1.
          1   -1    0    0  501    0 -0.00000000000E+00 -0.00000000000E+00 -0.11349159476E+01  0.11349159476E+01  0.00000000000E+00 0. -1.
          2    1    1    2  501    0  0.52883041230E+01  0.22215851667E+02  0.38711540144E+03  0.38778840139E+03  0.00000000000E+00 0.  1.
          1    1    1    2  502    0 -0.52883041230E+01 -0.22215851667E+02  0.16249686052E+03  0.16409369246E+03  0.00000000000E+00 0. -1.
</event>
<event>
 4    1  0.7416369E+003  0.2397606E+02  0.7546771E-02  0.1480592E+00
          2   -1    0    0  502    0  0.00000000000E+00  0.00000000000E+00  0.21690841339E+02  0.21690841339E+02  0.00000000000E+00 0. -1.
          1   -1    0    0  501    0 -0.00000000000E+00 -0.00000000000E+00 -0.26879407993E+02  0.26879407993E+02  0.00000000000E+00 0.  1.
          2    1    1    2  501    0  0.17219006989E+02  0.16684030046E+02 -0.54718531576E+01  0.24592524011E+02  0.00000000000E+00 0. -1.
          1    1    1    2  502    0 -0.17219006989E+02 -0.16684030046E+02  0.28328650348E+00  0.23977725320E+02  0.00000000000E+00 0.  1.
</event>
<event>
 4    1  0.7416369E+003  0.4366952E+02  0.7546771E-02  0.1328228E+00
          2   -1    0    0  502    0  0.00000000000E+00  0.00000000000E+00  0.25047383866E+01  0.25047383866E+01  0.00000000000E+00 0.  1.
          1   -1    0    0  501    0 -0.00000000000E+00 -0.00000000000E+00 -0.78108845552E+03  0.78108845552E+03  0.00000000000E+00 0.  1.
          2    1    1    2  501    0 -0.42924261217E+02  0.80333457907E+01 -0.32703709566E+03  0.32993982601E+03  0.00000000000E+00 0.  1.
          1    1    1    2  502    0  0.42924261217E+02 -0.80333457907E+01 -0.45154662147E+03  0.45365336790E+03  0.00000000000E+00 0.  1.
</event>
<event>
 4    1  0.7416369E+003  0.2382524E+02  0.7546771E-02  0.1482388E+00
          2   -1    0    0  502    0  0.00000000000E+00  0.00000000000E+00  0.18445407539E+03  0.18445407539E+03  0.00000000000E+00 0.  1.
          1   -1    0    0  501    0 -0.00000000000E+00 -0.00000000000E+00 -0.30963634446E+01  0.30963634446E+01  0.00000000000E+00 0.  1.
          2    1    1    2  501    0  0.33614938194E+01  0.23586907827E+02  0.98014550804E+02  0.10086869698E+03  0.00000000000E+00 0.  1.
          1    1    1    2  502    0 -0.33614938194E+01 -0.23586907827E+02  0.83343161141E+02  0.86681741852E+02  0.00000000000E+00 0.  1.
</event>
<event>
 4    1  0.7416369E+003  0.2397660E+02  0.7546771E-02  0.1480586E+00
          2   -1    0    0  502    0  0.00000000000E+00  0.00000000000E+00  0.19715001431E+01  0.19715001431E+01  0.00000000000E+00 0. -1.
          1   -1    0    0  501    0 -0.00000000000E+00 -0.00000000000E+00 -0.88265599526E+03  0.88265599526E+03  0.00000000000E+00 0. -1.
          2    1    1    2  501    0  0.22952369623E+01  0.23866482740E+02 -0.78389971816E+02  0.81974781442E+02  0.00000000000E+00 0. -1.
          1    1    1    2  502    0 -0.22952369623E+01 -0.23866482740E+02 -0.80229452330E+03  0.80265271396E+03  0.00000000000E+00 0. -1.
</event>
<event>
 4    1  0.7416369E+003  0.2106248E+02  0.7546771E-02  0.1518375E+00
          2   -1    0    0  502    0  0.00000000000E+00  0.00000000000E+00  0.99647108052E+00  0.99647108052E+00  0.00000000000E+00 0.  1.
          1   -1    0    0  501    0 -0.00000000000E+00 -0.00000000000E+00 -0.53330649604E+03  0.53330649604E+03  0.00000000000E+00 0.  1.
          2    1    1    2  501    0  0.18976826774E+02  0.91382729944E+01 -0.15756861210E+03  0.15897010884E+03  0.00000000000E+00 0.  1.
          1    1    1    2  502    0 -0.18976826774E+02 -0.91382729944E+01 -0.37474141287E+03  0.37533285828E+03  0.00000000000E+00 0.  1.
</event>
<event>
 4    1  0.7416369E+003  0.4742122E+02  0.7546771E-02  0.1309758E+00
          2   -1    0    0  502    0  0.00000000000E+00  0.00000000000E+00  0.35925597971E+01  0.35925597971E+01  0.00000000000E+00 0.  1.
          1   -1    0    0  501    0 -0.00000000000E+00 -0.00000000000E+00 -0.13160495250E+04  0.13160495250E+04  0.00000000000E+00 0.  1.
          2    1    1    2  501    0  0.12673591801E+01 -0.47404285617E+02 -0.17842967591E+03  0.18462373016E+03  0.00000000000E+00 0.  1.
          1    1    1    2  502    0 -0.12673591801E+01  0.47404285617E+02 -0.11340272893E+04  0.11350183546E+04  0.00000000000E+00 0.  1.
</event>
<event>
 4    1  0.7416369E+003  0.1105914E+03  0.7546771E-02  0.1146620E+00
          2   -1    0    0  502    0  0.00000000000E+00  0.00000000000E+00  0.17135871456E+04  0.17135871456E+04  0.00000000000E+00 0. -1.
          1   -1    0    0  501    0 -0.00000000000E+00 -0.00000000000E+00 -0.16055050735E+02  0.16055050735E+02  0.00000000000E+00 0.  1.
          2    1    1    2  501    0 -0.18185087373E+01  0.11057646600E+03  0.14933018043E+04  0.14973913117E+04  0.00000000000E+00 0. -1.
          1    1    1    2  502    0  0.18185087373E+01 -0.11057646600E+03  0.20423029064E+03  0.23225088465E+03  0.00000000000E+00 0.  1.
</event>
<event>
 4    1  0.7416369E+003  0.2186097E+02  0.7546771E-02  0.1507319E+00
          2   -1    0    0  502    0  0.00000000000E+00  0.00000000000E+00  0.47677093371E+02  0.47677093371E+02  0.00000000000E+00 0.  1.
          1   -1    0    0  501    0 -0.00000000000E+00 -0.00000000000E+00 -0.47721363043E+02  0.47721363043E+02  0.00000000000E+00 0.  1.
          2    1    1    2  501    0 -0.10213536424E+01  0.21837096160E+02  0.42372609375E+02  0.47679554918E+02  0.00000000000E+00 0.  1.
          1    1    1    2  502    0  0.10213536424E+01 -0.21837096160E+02 -0.42416879046E+02  0.47718901496E+02  0.00000000000E+00 0.  1.
</event>
<event>
 4    1  0.7416369E+003  0.3191746E+02  0.7546771E-02  0.1403634E+00
          2   -1    0    0  502    0  0.00000000000E+00  0.00000000000E+00  0.21257044717E+04  0.21257044717E+04  0.00000000000E+00 0.  1.
          1   -1    0    0  501    0 -0.00000000000E+00 -0.00000000000E+00 -0.48000049583E+00  0.48000049583E+00  0.00000000000E+00 0.  1.
          2    1    1    2  501    0 -0.92298480758E+00 -0.31904108936E+02  0.11049085703E+04  0.11053694734E+04  0.00000000000E+00 0.  1.
          1    1    1    2  502    0  0.92298480758E+00  0.31904108936E+02  0.10203159009E+04  0.10208149988E+04  0.00000000000E+00 0.  1.
</event>
<event>
 4    1  0.7416369E+003  0.2912068E+02  0.7546771E-02  0.1427395E+00
          2   -1    0    0  502    0  0.00000000000E+00  0.00000000000E+00  0.51214284127E+01  0.51214284127E+01  0.00000000000E+00 0. -1.
          1   -1    0    0  501    0 -0.00000000000E+00 -0.00000000000E+00 -0.20156116767E+04  0.20156116767E+04  0.00000000000E+00 0. -1.
          2    1    1    2  501    0  0.18172137216E+02 -0.22754945070E+02 -0.37268371156E+02  0.47296359106E+02  0.00000000000E+00 0. -1.
          1    1    1    2  502    0 -0.18172137216E+02  0.22754945070E+02 -0.19732218772E+04  0.19734367460E+04  0.00000000000E+00 0. -1.
</event>
<event>
 4    1  0.7416369E+003  0.2248135E+02  0.7546771E-02  0.1499116E+00
          2   -1    0    0  502    0  0.00000000000E+00  0.00000000000E+00  0.46644161267E+03  0.46644161267E+03  0.00000000000E+00 0.  1.
          1   -1    0    0  501    0 -0.00000000000E+00 -0.00000000000E+00 -0.18875977874E+01  0.18875977874E+01  0.00000000000E+00 0. -1.
          2    1    1    2  501    0 -0.80608096474E+01 -0.20986526070E+02  0.38510698184E+03  0.38576261922E+03  0.00000000000E+00 0.  1.
          1    1    1    2  502    0  0.80608096474E+01  0.20986526070E+02  0.79447033048E+02  0.82566591239E+02  0.00000000000E+00 0. -1.
</event>
<event>
 4    1  0.7416369E+003  0.4567365E+02  0.7546771E-02  0.1318105E+00
          2   -1    0    0  502    0  0.00000000000E+00  0.00000000000E+00  0.88968038467E+02  0.88968038467E+02  0.00000000000E+00 0. -1.
          1   -1    0    0  501    0 -0.00000000000E+00 -0.00000000000E+00 -0.78550168042E+02  0.78550168042E+02  0.00000000000E+00 0.  1.
          2    1    1    2  501    0 -0.45033026769E+02 -0.76228908309E+01  0.75361669308E+02  0.88121865422E+02  0.00000000000E+00 0. -1.
          1    1    1    2  502    0  0.45033026769E+02  0.76228908309E+01 -0.64943798883E+02  0.79396341087E+02  0.00000000000E+00 0.  1.
</event>
<event>
 4    1  0.7416369E+003  0.2470696E+02  0.7546771E-02  0.1472108E+00
          2   -1    0    0  502    0  0.00000000000E+00  0.00000000000E+00  0.60305069092E+03  0.60305069092E+03  0.00000000000E+00 0.  1.
          1   -1    0    0  501    0 -0.00000000000E+00 -0.00000000000E+00 -0.11986786350E+01  0.11986786350E+01  0.00000000000E+00 0.  1.
          2    1    1    2  501    0  0.16073705261E+02  0.18763522657E+02  0.42007747530E+03  0.42080342090E+03  0.00000000000E+00 0.  1.
          1    1    1    2  502    0 -0.16073705261E+02 -0.18763522657E+02  0.18177453699E+03  0.18344594866E+03  0.00000000000E+00 0.  1.
</event>
<event>
 4    1  0.7416369E+003  0.2025719E+02  0.7546771E-02  0.1530140E+00
          2   -1    0    0  502    0  0.00000000000E+00  0.00000000000E+00  0.49369792179E+01  0.49369792179E+01  0.00000000000E+00 0. -1.
          1   -1    0    0  501    0 -0.00000000000E+00 -0.00000000000E+00 -0.25898669657E+03  0.25898669657E+03  0.00000000000E+00 0.  1.
          2    1    1    2  501    0 -0.12575842103E+02  0.15880873413E+02 -0.18281342126E+02  0.27286652688E+02  0.00000000000E+00 0. -1.
          1    1    1    2  502    0  0.12575842103E+02 -0.15880873413E+02 -0.23576837522E+03  0.23663702310E+03  0.00000000000E+00 0.  1.
</event>
<event>
 4    1  0.7416369E+003  0.2271874E+02  0.7546771E-02  0.1496060E+00
          2   -1    0    0  502    0  0.00000000000E+00  0.00000000000E+00  0.55328575790E+02  0.55328575790E+02  0.00000000000E+00 0. -1.
          1   -1    0    0  501    0 -0.00000000000E+00 -0.00000000000E+00 -0.11784801001E+02  0.11784801001E+02  0.00000000000E+00 0.  1.
          2    1    1    2  501    0 -0.10657599065E+02  0.20063815965E+02  0.37091407602E+02  0.43496133700E+02  0.00000000000E+00 0. -1.
          1    1    1    2  502    0  0.10657599065E+02 -0.20063815965E+02  0.64523671871E+01  0.23617243091E+02  0.00000000000E+00 0.  1.
</event>
<event>
 4    1  0.7416369E+003  0.4064192E+02  0.7546771E-02  0.1344765E+00
          2   -1    0    0  502    0  0.00000000000E+00  0.00000000000E+00  0.19346373625E+04  0.19346373625E+04  0.00000000000E+00 0.  1.
          1   -1    0    0  501    0 -0.00000000000E+00 -0.00000000000E+00 -0.63417129734E+02  0.63417129734E+02  0.00000000000E+00 0.  1.
          2    1    1    2  501    0  0.87590232044E+01 -0.39686833935E+02  0.19278896173E+04  0.19283179566E+04  0.00000000000E+00 0.  1.
          1    1    1    2  502    0 -0.87590232044E+01  0.39686833935E+02 -0.56669384465E+02  0.69736535696E+02  0.00000000000E+00 0.  1.
</event>
<event>
 4    1  0.7416369E+003  0.3786232E+02  0.7546771E-02  0.1361489E+00
          2   -1    0    0  502    0  0.00000000000E+00  0.00000000000E+00  0.26690950222E+04  0.26690950222E+04  0.00000000000E+00 0. -1.
          1   -1    0    0  501    0 -0.00000000000E+00 -0.00000000000E+00 -0.46560270362E+01  0.46560270362E+01  0.00000000000E+00 0.  1.
          2    1    1    2  501    0 -0.29979153494E+02 -0.23125865753E+02  0.25896256577E+04  0.25899024310E+04  0.00000000000E+00 0. -1.
          1    1    1    2  502    0  0.29979153494E+02  0.23125865753E+02  0.74813337511E+02  0.83848618239E+02  0.00000000000E+00 0.  1.
</event>
<event>
 4    1  0.7416369E+003  0.3265961E+02  0.7546771E-02  0.1397808E+00
          2   -1    0    0  502    0  0.00000000000E+00  0.00000000000E+00  0.10243717384E+04  0.10243717384E+04  0.00000000000E+00 0. -1.
          1   -1    0    0  501    0 -0.00000000000E+00 -0.00000000000E+00 -0.18766899341E+01  0.18766899341E+01  0.00000000000E+00 0. -1.
          2    1    1    2  501    0 -0.31584818834E+02  0.83095826681E+01  0.85360361514E+03  0.85422817896E+03  0.00000000000E+00 0. -1.
          1    1    1    2  502    0  0.31584818834E+02 -0.83095826681E+01  0.16889143336E+03  0.17202024941E+03  0.00000000000E+00 0. -1.
</event>
<event>
 4    1  0.7416369E+003  0.2238809E+02  0.7546771E-02  0.1500328E+00
          2   -1    0    0  502    0  0.00000000000E+00  0.00000000000E+00  0.55910461017E+03  0.55910461017E+03  0.00000000000E+00 0. -1.
          1   -1    0    0  501    0 -0.00000000000E+00 -0.00000000000E+00 -0.21209324339E+02  0.21209324339E+02  0.00000000000E+00 0. -1.
          2    1    1    2  501    0 -0.34586604048E+01  0.22119316231E+02  0.55290619269E+03  0.55335927244E+03  0.00000000000E+00 0. -1.
          1    1    1    2  502    0  0.34586604048E+01 -0.22119316231E+02 -0.15010906860E+02  0.26954662066E+02  0.00000000000E+00 0. -1.
</event>
<event>
 4    1  0.7416369E+003  0.4085791E+02  0.7546771E-02  0.1343531E+00
          2   -1    0    0  502    0  0.00000000000E+00  0.00000000000E+00  0.97299291160E+02  0.97299291160E+02  0.00000000000E+00 0.  1.
          1   -1    0    0  501    0 -0.00000000000E+00 -0.00000000000E+00 -0.39177132311E+03  0.39177132311E+03  0.00000000000E+00 0. -1.
          2    1    1    2  501    0  0.25245164394E+02 -0.32125544336E+02  0.91884814972E+02  0.10055937622E+03  0.00000000000E+00 0.  1.
          1    1    1    2  502    0 -0.25245164394E+02  0.32125544336E+02 -0.38635684693E+03  0.38851123805E+03  0.00000000000E+00 0. -1.
</event>
<event>
 4    1  0.7416369E+003  0.2010911E+02  0.7546771E-02  0.1532374E+00
          2   -1    0    0  502    0  0.00000000000E+00  0.00000000000E+00  0.76554435193E+01  0.76554435193E+01  0.00000000000E+00 0.  1.
          1   -1    0    0  501    0 -0.00000000000E+00 -0.00000000000E+00 -0.53314169731E+02  0.53314169731E+02  0.00000000000E+00 0.  1.
          2    1    1    2  501    0  0.45345601528E+01  0.19591158935E+02 -0.25758400744E+02  0.32678294831E+02  0.00000000000E+00 0.  1.
          1    1    1    2  502    0 -0.45345601528E+01 -0.19591158935E+02 -0.19900325468E+02  0.28291318419E+02  0.00000000000E+00 0.  1.
</event>
<event>
 4    1  0.7416369E+003  0.2277104E+02  0.7546771E-02  0.1495393E+00
          2   -1    0    0  502    0  0.00000000000E+00  0.00000000000E+00  0.24982291985E+02  0.24982291985E+02  0.00000000000E+00 0.  1.
          1   -1    0    0  501    0 -0.00000000000E+00 -0.00000000000E+00 -0.80959678470E+02  0.80959678470E+02  0.00000000000E+00 0.  1.
          2    1    1    2  501    0 -0.21301766571E+02 -0.80470468892E+01  0.17690344093E+02  0.28835195453E+02  0.00000000000E+00 0.  1.
          1    1    1    2  502    0  0.21301766571E+02  0.80470468892E+01 -0.73667730577E+02  0.77106775001E+02  0.00000000000E+00 0.  1.
</event>
<event>
 4    1  0.7416369E+003  0.2130920E+02  0.7546771E-02  0.1514896E+00
          2   -1    0    0  502    0  0.00000000000E+00  0.00000000000E+00  0.76853986403E+01  0.76853986403E+01  0.00000000000E+00 0.  1.
          1   -1    0    0  501    0 -0.00000000000E+00 -0.00000000000E+00 -0.16021960112E+03  0.16021960112E+03  0.00000000000E+00 0.  1.
          2    1    1    2  501    0 -0.81983352642E+01 -0.19668991876E+02 -0.95667008951E+01  0.23358161497E+02  0.00000000000E+00 0.  1.
          1    1    1    2  502    0  0.81983352642E+01  0.19668991876E+02 -0.14296750158E+03  0.14454683826E+03  0.00000000000E+00 0.  1.
</event>
<event>
 4    1  0.7416369E+003  0.4981249E+02  0.7546771E-02  0.1298987E+00
          2   -1    0    0  502    0  0.00000000000E+00  0.00000000000E+00  0.78381863671E+02  0.78381863671E+02  0.00000000000E+00 0.  1.
          1   -1    0    0  501    0 -0.00000000000E+00 -0.00000000000E+00 -0.87253806574E+02  0.87253806574E+02  0.00000000000E+00 0. -1.
          2    1    1    2  501    0  0.10070723510E+02  0.48783860580E+02  0.61672802662E+02  0.79276851055E+02  0.00000000000E+00 0.  1.
          1    1    1    2  502    0 -0.10070723510E+02 -0.48783860580E+02 -0.70544745565E+02  0.86358819190E+02  0.00000000000E+00 0. -1.
</event>
<event>
 4    1  0.7416369E+003  0.2093256E+02  0.7546771E-02  0.1520230E+00
          2   -1    0    0  502    0  0.00000000000E+00  0.00000000000E+00  0.56296767118E+02  0.56296767118E+02  0.00000000000E+00 0.  1.
          1   -1    0    0  501    0 -0.00000000000E+00 -0.00000000000E+00 -0.11797353343E+02  0.11797353343E+02  0.00000000000E+00 0. -1.
          2    1    1    2  501    0  0.89068235131E+01  0.18943087518E+02  0.42109803320E+02  0.47025605849E+02  0.00000000000E+00 0.  1.
          1    1    1    2  502    0 -0.89068235131E+01 -0.18943087518E+02  0.23896104559E+01  0.21068514612E+02  0.00000000000E+00 0. -1.
</event>
<event>
 4    1  0.7416369E+003  0.3109401E+02  0.7546771E-02  0.1410322E+00
          2   -1    0    0  502    0  0.00000000000E+00  0.00000000000E+00  0.22570238916E+04  0.22570238916E+04  0.00000000000E+00 0. -1.
          1   -1    0    0  501    0 -0.00000000000E+00 -0.00000000000E+00 -0.44317273499E+00  0.44317273499E+00  0.00000000000E+00 0.  1.
          2    1    1    2  501    0 -0.30821448393E+02  0.41079865751E+01  0.13345919001E+04  0.13349540730E+04  0.00000000000E+00 0. -1.
          1    1    1    2  502    0  0.30821448393E+02 -0.41079865751E+01  0.92198881874E+03  0.92251299130E+03  0.00000000000E+00 0.  1.
</event>
<event>
 4    1  0.7416369E+003  0.2837216E+02  0.7546771E-02  0.1434291E+00
          2   -1    0    0  502    0  0.00000000000E+00  0.00000000000E+00  0.11176280446E+03  0.11176280446E+03  0.00000000000E+00 0.  1.
          1   -1    0    0  501    0 -0.00000000000E+00 -0.00000000000E+00 -0.83240391280E+01  0.83240391280E+01  0.00000000000E+00 0.  1.
          2    1    1    2  501    0 -0.10381983232E+02 -0.26404434373E+02  0.73758363420E+02  0.79027058055E+02  0.00000000000E+00 0.  1.
          1    1    1    2  502    0  0.10381983232E+02  0.26404434373E+02  0.29680401912E+02  0.41059785534E+02  0.00000000000E+00 0.  1.
</event>
<event>
 4    1  0.7416369E+003  0.4983002E+02  0.7546771E-02  0.1298911E+00
          2   -1    0    0  502    0  0.00000000000E+00  0.00000000000E+00  0.13074897479E+03  0.13074897479E+03  0.00000000000E+00 0. -1.
          1   -1    0    0  501    0 -0.00000000000E+00 -0.00000000000E+00 -0.19714205242E+02  0.19714205242E+02  0.00000000000E+00 0. -1.
          2    1    1    2  501    0  0.40277082882E+01  0.49666978908E+02  0.69928353322E+02  0.85866208873E+02  0.00000000000E+00 0. -1.
          1    1    1    2  502    0 -0.40277082882E+01 -0.49666978908E+02  0.41106416227E+02  0.64596971159E+02  0.00000000000E+00 0. -1.
</event>
<event>
 4    1  0.7416369E+003  0.2018033E+02  0.7546771E-02  0.1531297E+00
          2   -1    0    0  502    0  0.00000000000E+00  0.00000000000E+00  0.37260656868E+01  0.37260656868E+01  0.00000000000E+00 0.  1.
          1   -1    0    0  501    0 -0.00000000000E+00 -0.00000000000E+00 -0.73302953255E+03  0.73302953255E+03  0.00000000000E+00 0. -1.
          2    1    1    2  501    0  0.48072355894E+01 -0.19599395404E+02 -0.24844908917E+02  0.32008050758E+02  0.00000000000E+00 0.  1.
          1    1    1    2  502    0 -0.48072355894E+01  0.19599395404E+02 -0.70445855795E+03  0.70474754748E+03  0.00000000000E+00 0. -1.
</event>
<event>
 4    1  0.7416369E+003  0.2493892E+02  0.7546771E-02  0.1469488E+00
          2   -1    0    0  502    0  0.00000000000E+00  0.00000000000E+00  0.41035382537E+03  0.41035382537E+03  0.00000000000E+00 0.  1.
          1   -1    0    0  501    0 -0.00000000000E+00 -0.00000000000E+00 -0.11162493080E+02  0.11162493080E+02  0.00000000000E+00 0. -1.
          2    1    1    2  501    0 -0.24835880906E+02 -0.22646988241E+01  0.39552369238E+03  0.39630914836E+03  0.00000000000E+00 0.  1.
          1    1    1    2  502    0  0.24835880906E+02  0.22646988241E+01  0.36676399047E+01  0.25207170083E+02  0.00000000000E+00 0. -1.
</event>
<event>
 4    1  0.7416369E+003  0.2100878E+02  0.7546771E-02  0.1519139E+00
          2   -1    0    0  502    0  0.00000000000E+00  0.00000000000E+00  0.40061087051E+03  0.40061087051E+03  0.00000000000E+00 0.  1.
          1   -1    0    0  501    0 -0.00000000000E+00 -0.00000000000E+00 -0.22364685785E+02  0.22364685785E+02  0.00000000000E+00 0. -1.
          2    1    1    2  501    0 -0.13337125428E+02  0.16232369033E+02  0.39533588217E+03  0.39589370853E+03  0.00000000000E+00 0.  1.
          1    1    1    2  502    0  0.13337125428E+02 -0.16232369033E+02 -0.17089697453E+02  0.27081847761E+02  0.00000000000E+00 0. -1.
</event>
<event>
 4    1  0.7416369E+003  0.2618853E+02  0.7546771E-02  0.1455934E+00
          2   -1    0    0  502    0  0.00000000000E+00  0.00000000000E+00  0.35183142909E+02  0.35183142909E+02  0.00000000000E+00 0. -1.
          1   -1    0    0  501    0 -0.00000000000E+00 -0.00000000000E+00 -0.21950132819E+02  0.21950132819E+02  0.00000000000E+00 0. -1.
          2    1    1    2  501    0  0.23630933108E+02  0.11287966083E+02  0.16173453990E+02  0.30780185052E+02  0.00000000000E+00 0. -1.
          1    1    1    2  502    0 -0.23630933108E+02 -0.11287966083E+02 -0.29404439000E+01  0.26353090676E+02  0.00000000000E+00 0. -1.
</event>
<event>
 4    1  0.7416369E+003  0.2492555E+02  0.7546771E-02  0.1469638E+00
          2   -1    0    0  502    0  0.00000000000E+00  0.00000000000E+00  0.13399173011E+01  0.13399173011E+01  0.00000000000E+00 0. -1.
          1   -1    0    0  501    0 -0.00000000000E+00 -0.00000000000E+00 -0.10310521516E+04  0.10310521516E+04  0.00000000000E+00 0.  1.
          2    1    1    2  501    0 -0.24802761760E+02 -0.24710845375E+01 -0.13193342948E+03  0.13426731942E+03  0.00000000000E+00 0. -1.
          1    1    1    2  502    0  0.24802761760E+02  0.24710845375E+01 -0.89777880484E+03  0.89812474950E+03  0.00000000000E+00 0.  1.
</event>
<event>
 4    1  0.7416369E+003  0.2354808E+02  0.7546771E-02  0.1485728E+00
          2   -1    0    0  502    0  0.00000000000E+00  0.00000000000E+00  0.13744339898E+02  0.13744339898E+02  0.00000000000E+00 0.  1.
          1   -1    0    0  501    0 -0.00000000000E+00 -0.00000000000E+00 -0.98315837043E+03  0.98315837043E+03  0.00000000000E+00 0. -1.
          2    1    1    2  501    0 -0.14891725018E+02 -0.18241403795E+02  0.34100135038E+01  0.23793706700E+02  0.00000000000E+00 0.  1.
          1    1    1    2  502    0  0.14891725018E+02  0.18241403795E+02 -0.97282404404E+03  0.97310900363E+03  0.00000000000E+00 0. -1.
</event>
<event>
 4    1  0.7416369E+003  0.2294456E+02  0.7546771E-02  0.1493195E+00
          2   -1    0    0  502    0  0.00000000000E+00  0.00000000000E+00  0.69075655534E+01  0.69075655534E+01  0.00000000000E+00 0.  1.
          1   -1    0    0  501    0 -0.00000000000E+00 -0.00000000000E+00 -0.21281363868E+03  0.21281363868E+03  0.00000000000E+00 0.  1.
          2    1    1    2  501    0  0.17901287969E+02 -0.14352589284E+02 -0.14935930752E+02  0.27377636084E+02  0.00000000000E+00 0.  1.
          1    1    1    2  502    0 -0.17901287969E+02  0.14352589284E+02 -0.19097014238E+03  0.19234356815E+03  0.00000000000E+00 0.  1.
</event>
<event>
 4    1  0.7416369E+003  0.2233516E+02  0.7546771E-02  0.1501020E+00
          2   -1    0    0  502    0  0.00000000000E+00  0.00000000000E+00  0.67535319275E+03  0.67535319275E+03  0.00000000000E+00 0.  1.
          1   -1    0    0  501    0 -0.00000000000E+00 -0.00000000000E+00 -0.38083620931E+01  0.38083620931E+01  0.00000000000E+00 0. -1.
          2    1    1    2  501    0 -0.17881681533E+02  0.13383007566E+02  0.64064739088E+03  0.64103661273E+03  0.00000000000E+00 0.  1.
          1    1    1    2  502    0  0.17881681533E+02 -0.13383007566E+02  0.30897439778E+02  0.38124942109E+02  0.00000000000E+00 0. -1.
</event>
<event>
 4    1  0.7416369E+003  0.3661788E+02  0.7546771E-02  0.1369532E+00
          2   -1    0    0  502    0  0.00000000000E+00  0.00000000000E+00  0.12952183809E+04  0.12952183809E+04  0.00000000000E+00 0.  1.
          1   -1    0    0  501    0 -0.00000000000E+00 -0.00000000000E+00 -0.24850713079E+02  0.24850713079E+02  0.00000000000E+00 0. -1.
          2    1    1    2  501    0  0.70867405186E+01 -0.35925580531E+02  0.12813240830E+04  0.12818472120E+04  0.00000000000E+00 0.  1.
          1    1    1    2  502    0 -0.70867405186E+01  0.35925580531E+02 -0.10956415189E+02  0.38221881971E+02  0.00000000000E+00 0. -1.
</event>
<event>
 4    1  0.7416369E+003  0.2018866E+02  0.7546771E-02  0.1531171E+00
          2   -1    0    0  502    0  0.00000000000E+00  0.00000000000E+00  0.71614116308E+03  0.71614116308E+03  0.00000000000E+00 0.  1.
          1   -1    0    0  501    0 -0.00000000000E+00 -0.00000000000E+00 -0.51513365568E+03  0.51513365568E+03  0.00000000000E+00 0. -1.
          2    1    1    2  501    0  0.91065184449E+01  0.18018140313E+02  0.71580098094E+03  0.71608562782E+03  0.00000000000E+00 0.  1.
          1    1    1    2  502    0 -0.91065184449E+01 -0.18018140313E+02 -0.51479347354E+03  0.51518919094E+03  0.00000000000E+00 0. -1.
</event>
<event>
 4    1  0.7416369E+003  0.2938476E+02  0.7546771E-02  0.1425019E+00
          2   -1    0    0  502    0  0.00000000000E+00  0.00000000000E+00  0.80674733062E+03  0.80674733062E+03  0.00000000000E+00 0.  1.
          1   -1    0    0  501    0 -0.00000000000E+00 -0.00000000000E+00 -0.57193978998E+01  0.57193978998E+01  0.00000000000E+00 0. -1.
          2    1    1    2  501    0 -0.31100172024E+01  0.29219717339E+02  0.76676987471E+03  0.76733272109E+03  0.00000000000E+00 0.  1.
          1    1    1    2  502    0  0.31100172024E+01 -0.29219717339E+02  0.34258058014E+02  0.45134007437E+02  0.00000000000E+00 0. -1.
</event>
<event>
 4    1  0.7416369E+003  0.3311552E+02  0.7546771E-02  0.1394319E+00
          2   -1    0    0  502    0  0.00000000000E+00  0.00000000000E+00  0.14361242921E+04  0.14361242921E+04  0.00000000000E+00 0. -1.
          1   -1    0    0  501    0 -0.00000000000E+00 -0.00000000000E+00 -0.71328483153E+01  0.71328483153E+01  0.00000000000E+00 0. -1.
          2    1    1    2  501    0  0.27232717137E+02 -0.18841896370E+02  0.13964040530E+04  0.13967966628E+04  0.00000000000E+00 0. -1.
          1    1    1    2  502    0 -0.27232717137E+02  0.18841896370E+02  0.32587390723E+02  0.46460477566E+02  0.00000000000E+00 0. -1.
</event>
<event>
 4    1  0.7416369E+003  0.4076967E+02  0.7546771E-02  0.1344034E+00
          2   -1    0    0  502    0  0.00000000000E+00  0.00000000000E+00  0.22273071020E+02  0.22273071020E+02  0.00000000000E+00 0.  1.
          1   -1    0    0  501    0 -0.00000000000E+00 -0.00000000000E+00 -0.95242988908E+03  0.95242988908E+03  0.00000000000E+00 0.  1.
          2    1    1    2  501    0 -0.10100090077E+02 -0.39498787543E+02  0.27906825794E+01  0.40865070001E+02  0.00000000000E+00 0.  1.
          1    1    1    2  502    0  0.10100090077E+02  0.39498787543E+02 -0.93294750064E+03  0.93383789010E+03  0.00000000000E+00 0.  1.
</event>
<event>
 4    1  0.7416369E+003  0.2259802E+02  0.7546771E-02  0.1497609E+00
          2   -1    0    0  502    0  0.00000000000E+00  0.00000000000E+00  0.13442701433E+02  0.13442701433E+02  0.00000000000E+00 0. -1.
          1   -1    0    0  501    0 -0.00000000000E+00 -0.00000000000E+00 -0.59452816703E+02  0.59452816703E+02  0.00000000000E+00 0. -1.
          2    1    1    2  501    0  0.16861179801E+02 -0.15045629321E+02 -0.11051930178E+01  0.22625025913E+02  0.00000000000E+00 0. -1.
          1    1    1    2  502    0 -0.16861179801E+02  0.15045629321E+02 -0.44904922252E+02  0.50270492224E+02  0.00000000000E+00 0. -1.
</event>
<event>
 4    1  0.7416369E+003  0.2592081E+02  0.7546771E-02  0.1458761E+00
          2   -1    0    0  502    0  0.00000000000E+00  0.00000000000E+00  0.17596102143E+03  0.17596102143E+03  0.00000000000E+00 0. -1.
          1   -1    0    0  501    0 -0.00000000000E+00 -0.00000000000E+00 -0.43620124109E+01  0.43620124109E+01  0.00000000000E+00 0. -1.
          2    1    1    2  501    0  0.17492484803E+01 -0.25861705127E+02  0.53970228475E+02  0.59872140633E+02  0.00000000000E+00 0. -1.
          1    1    1    2  502    0 -0.17492484803E+01  0.25861705127E+02  0.11762878054E+03  0.12045089320E+03  0.00000000000E+00 0. -1.
</event>
<event>
 4    1  0.7416369E+003  0.3309180E+02  0.7546771E-02  0.1394499E+00
          2   -1    0    0  502    0  0.00000000000E+00  0.00000000000E+00  0.77724371568E+02  0.77724371568E+02  0.00000000000E+00 0.  1.
          1   -1    0    0  501    0 -0.00000000000E+00 -0.00000000000E+00 -0.15318160319E+04  0.15318160319E+04  0.00000000000E+00 0. -1.
          2    1    1    2  501    0 -0.18735647648E+02  0.27277150984E+02  0.74014823355E+02  0.81075653157E+02  0.00000000000E+00 0.  1.
          1    1    1    2  502    0  0.18735647648E+02 -0.27277150984E+02 -0.15281064836E+04  0.15284647503E+04  0.00000000000E+00 0. -1.
</event>
<event>
 4    1  0.7416369E+003  0.2277967E+02  0.7546771E-02  0.1495283E+00
          2   -1    0    0  502    0  0.00000000000E+00  0.00000000000E+00  0.10962117765E+04  0.10962117765E+04  0.00000000000E+00 0. -1.
          1   -1    0    0  501    0 -0.00000000000E+00 -0.00000000000E+00 -0.30956711083E+02  0.30956711083E+02  0.00000000000E+00 0.  1.
          2    1    1    2  501    0 -0.13039986357E+01  0.22742319777E+02  0.10918861960E+04  0.10921237927E+04  0.00000000000E+00 0. -1.
          1    1    1    2  502    0  0.13039986357E+01 -0.22742319777E+02 -0.26631130610E+02  0.35044694875E+02  0.00000000000E+00 0.  1.
</event>
<event>
 4    1  0.7416369E+003  0.2619013E+02  0.7546771E-02  0.1455918E+00
          2   -1    0    0  502    0  0.00000000000E+00  0.00000000000E+00  0.12426275000E+04  0.12426275000E+04  0.00000000000E+00 0.  1.
          1   -1    0    0  501    0 -0.00000000000E+00 -0.00000000000E+00 -0.26632435095E+01  0.26632435095E+01  0.00000000000E+00 0. -1.
          2    1    1    2  501    0  0.10847049493E+02  0.23838292521E+02  0.11743590303E+04  0.11746510353E+04  0.00000000000E+00 0.  1.
          1    1    1    2  502    0 -0.10847049493E+02 -0.23838292521E+02  0.65605226182E+02  0.70639708206E+02  0.00000000000E+00 0. -1.
</event>
<event>
 4    1  0.7416369E+003  0.3900761E+02  0.7546771E-02  0.1354401E+00
          2   -1    0    0  502    0  0.00000000000E+00  0.00000000000E+00  0.15947982653E+02  0.15947982653E+02  0.00000000000E+00 0.  1.
          1   -1    0    0  501    0 -0.00000000000E+00 -0.00000000000E+00 -0.16335795916E+03  0.16335795916E+03  0.00000000000E+00 0.  1.
          2    1    1    2  501    0  0.32298423267E+02 -0.21872478424E+02 -0.15884273022E+02  0.42117734832E+02  0.00000000000E+00 0.  1.
          1    1    1    2  502    0 -0.32298423267E+02  0.21872478424E+02 -0.13152570349E+03  0.13718820698E+03  0.00000000000E+00 0.  1.
</event>
<event>
 4    1  0.7416369E+003  0.2144660E+02  0.7546771E-02  0.1512983E+00
          2   -1    0    0  502    0  0.00000000000E+00  0.00000000000E+00  0.14133100265E+03  0.14133100265E+03  0.00000000000E+00 0. -1.
          1   -1    0    0  501    0 -0.00000000000E+00 -0.00000000000E+00 -0.46181416151E+01  0.46181416151E+01  0.00000000000E+00 0. -1.
          2    1    1    2  501    0  0.21376260166E+01  0.21339807302E+02  0.10801103377E+03  0.11011966326E+03  0.00000000000E+00 0. -1.
          1    1    1    2  502    0 -0.21376260166E+01 -0.21339807302E+02  0.28701827267E+02  0.35829481006E+02  0.00000000000E+00 0. -1.
</event>
<event>
 4    1  0.7416369E+003  0.2733149E+02  0.7546771E-02  0.1444306E+00
          2   -1    0    0  502    0  0.00000000000E+00  0.00000000000E+00  0.20620875554E+04  0.20620875554E+04  0.00000000000E+00 0.  1.
          1   -1    0    0  501    0 -0.00000000000E+00 -0.00000000000E+00 -0.51209358420E+00  0.51209358420E+00  0.00000000000E+00 0. -1.
          2    1    1    2  501    0 -0.22799382694E+02 -0.15073107569E+02  0.15886356983E+04  0.15888707916E+04  0.00000000000E+00 0.  1.
          1    1    1    2  502    0  0.22799382694E+02  0.15073107569E+02  0.47293976347E+03  0.47372885736E+03  0.00000000000E+00 0. -1.
</event>
<event>
 4    1  0.7416369E+003  0.2257772E+02  0.7546771E-02  0.1497870E+00
          2   -1    0    0  502    0  0.00000000000E+00  0.00000000000E+00  0.35968327874E+02  0.35968327874E+02  0.00000000000E+00 0.  1.
          1   -1    0    0  501    0 -0.00000000000E+00 -0.00000000000E+00 -0.43022073698E+02  0.43022073698E+02  0.00000000000E+00 0.  1.
          2    1    1    2  501    0  0.21977911272E+02 -0.51695881639E+01  0.28815360685E+02  0.36607079057E+02  0.00000000000E+00 0.  1.
          1    1    1    2  502    0 -0.21977911272E+02  0.51695881639E+01 -0.35869106509E+02  0.42383322515E+02  0.00000000000E+00 0.  1.
</event>
<event>
 4    1  0.7416369E+003  0.5292998E+02  0.7546771E-02  0.1285945E+00
          2   -1    0    0  502    0  0.00000000000E+00  0.00000000000E+00  0.84976312399E+02  0.84976312399E+02  0.00000000000E+00 0.  1.
          1   -1    0    0  501    0 -0.00000000000E+00 -0.00000000000E+00 -0.37051950732E+02  0.37051950732E+02  0.00000000000E+00 0. -1.
          2    1    1    2  501    0 -0.93499557451E+01 -0.52097612152E+02  0.44216269315E+02  0.68968553244E+02  0.00000000000E+00 0.  1.
          1    1    1    2  502    0  0.93499557451E+01  0.52097612152E+02  0.37080923517E+01  0.53059709887E+02  0.00000000000E+00 0. -1.
</event>
<event>
 4    1  0.7416369E+003  0.4667291E+02  0.7546771E-02  0.1313280E+00
          2   -1    0    0  502    0  0.00000000000E+00  0.00000000000E+00  0.25313570099E+02  0.25313570099E+02  0.00000000000E+00 0. -1.
          1   -1    0    0  501    0 -0.00000000000E+00 -0.00000000000E+00 -0.91288035601E+03  0.91288035601E+03  0.00000000000E+00 0.  1.
          2    1    1    2  501    0  0.43261319802E+02  0.17516253559E+02  0.26560592388E+01  0.46748428641E+02  0.00000000000E+00 0. -1.
          1    1    1    2  502    0 -0.43261319802E+02 -0.17516253559E+02 -0.89022284515E+03  0.89144549747E+03  0.00000000000E+00 0.  1.
</event>
<event>
 4    1  0.7416369E+003  0.2052489E+02  0.7546771E-02  0.1526158E+00
          2   -1    0    0  502    0  0.00000000000E+00  0.00000000000E+00  0.48207370561E+03  0.48207370561E+03  0.00000000000E+00 0. -1.
          1   -1    0    0  501    0 -0.00000000000E+00 -0.00000000000E+00 -0.28014691139E+02  0.28014691139E+02  0.00000000000E+00 0.  1.
          2    1    1    2  501    0 -0.20098586187E+02  0.41614713918E+01  0.47806434758E+03  0.47850474547E+03  0.00000000000E+00 0. -1.
          1    1    1    2  502    0  0.20098586187E+02 -0.41614713918E+01 -0.24005333105E+02  0.31583651282E+02  0.00000000000E+00 0.  1.
</event>
<event>
 4    1  0.7416369E+003  0.3981425E+02  0.7546771E-02  0.1349578E+00
          2   -1    0    0  502    0  0.00000000000E+00  0.00000000000E+00  0.16843629460E+01  0.16843629460E+01  0.00000000000E+00 0.  1.
          1   -1    0    0  501    0 -0.00000000000E+00 -0.00000000000E+00 -0.11792863661E+04  0.11792863661E+04  0.00000000000E+00 0.  1.
          2    1    1    2  501    0 -0.19571314304E+02  0.34671867424E+02 -0.32343412756E+03  0.32587545107E+03  0.00000000000E+00 0.  1.
          1    1    1    2  502    0  0.19571314304E+02 -0.34671867424E+02 -0.85416787556E+03  0.85509527795E+03  0.00000000000E+00 0.  1.
</event>
<event>
 4    1  0.7416369E+003  0.2571226E+02  0.7546771E-02  0.1460991E+00
          2   -1    0    0  502    0  0.00000000000E+00  0.00000000000E+00  0.30991573511E+03  0.30991573511E+03  0.00000000000E+00 0.  1.
          1   -1    0    0  501    0 -0.00000000000E+00 -0.00000000000E+00 -0.49249416509E+02  0.49249416509E+02  0.00000000000E+00 0. -1.
          2    1    1    2  501    0  0.82209603076E+01 -0.24362600573E+02  0.30598339362E+03  0.30706181408E+03  0.00000000000E+00 0.  1.
          1    1    1    2  502    0 -0.82209603076E+01  0.24362600573E+02 -0.45317075015E+02  0.52103337542E+02  0.00000000000E+00 0. -1.
</event>
<event>
 4    1  0.7416369E+003  0.2103990E+02  0.7546771E-02  0.1518696E+00
          2   -1    0    0  502    0  0.00000000000E+00  0.00000000000E+00  0.66115822621E+01  0.66115822621E+01  0.00000000000E+00 0.  1.
          1   -1    0    0  501    0 -0.00000000000E+00 -0.00000000000E+00 -0.42211263721E+03  0.42211263721E+03  0.00000000000E+00 0. -1.
          2    1    1    2  501    0  0.19043201149E+02  0.89461645363E+01 -0.11122904896E+02  0.23799083664E+02  0.00000000000E+00 0.  1.
          1    1    1    2  502    0 -0.19043201149E+02 -0.89461645363E+01 -0.40437815005E+03  0.40492513580E+03  0.00000000000E+00 0. -1.
</event>
<event>
 4    1  0.7416369E+003  0.2204339E+02  0.7546771E-02  0.1504873E+00
          2   -1    0    0  502    0  0.00000000000E+00  0.00000000000E+00  0.13711933042E+04  0.13711933042E+04  0.00000000000E+00 0. -1.
          1   -1    0    0  501    0 -0.00000000000E+00 -0.00000000000E+00 -0.70260749545E+02  0.70260749545E+02  0.00000000000E+00 0. -1.
          2    1    1    2  501    0 -0.22025220898E+02  0.89486915485E+00  0.13693734572E+04  0.13695508667E+04  0.00000000000E+00 0. -1.
          1    1    1    2  502    0  0.22025220898E+02 -0.89486915485E+00 -0.68440902625E+02  0.71903186984E+02  0.00000000000E+00 0. -1.
</event>
<event>
 4    1  0.7416369E+003  0.2371911E+02  0.7546771E-02  0.1483660E+00
          2   -1    0    0  502    0  0.00000000000E+00  0.00000000000E+00  0.42196689377E+03  0.42196689377E+03  0.00000000000E+00 0. -1.
          1   -1    0    0  501    0 -0.00000000000E+00 -0.00000000000E+00 -0.10139523440E+02  0.10139523440E+02  0.00000000000E+00 0. -1.
          2    1    1    2  501    0  0.20614234058E+02  0.11732422888E+02  0.40726177047E+03  0.40795189187E+03  0.00000000000E+00 0. -1.
          1    1    1    2  502    0 -0.20614234058E+02 -0.11732422888E+02  0.45655998646E+01  0.24154525347E+02  0.00000000000E+00 0. -1.
</event>
<event>
 4    1  0.7416369E+003  0.7587307E+02  0.7546771E-02  0.1213767E+00
          2   -1    0    0  502    0  0.00000000000E+00  0.00000000000E+00  0.34411054896E+04  0.34411054896E+04  0.00000000000E+00 0. -1.
          1   -1    0    0  501    0 -0.00000000000E+00 -0.00000000000E+00 -0.16828487095E+01  0.16828487095E+01  0.00000000000E+00 0. -1.
          2    1    1    2  501    0 -0.35987647432E+02 -0.66795296149E+02  0.18518789631E+04  0.18534326036E+04  0.00000000000E+00 0. -1.
          1    1    1    2  502    0  0.35987647432E+02  0.66795296149E+02  0.15875436779E+04  0.15893557347E+04  0.00000000000E+00 0. -1.
</event>
<event>
 4    1  0.7819682E+003  0.2392406E+02  0.7546771E-02  0.1481210E+00
          2   -1    0    0  502    0  0.00000000000E+00  0.00000000000E+00  0.76152577782E+03  0.76152577782E+03  0.00000000000E+00 0.  1.
          1   -1    0    0  501    0 -0.00000000000E+00 -0.00000000000E+00 -0.15296194615E+03  0.15296194615E+03  0.00000000000E+00 0. -1.
          2    1    1    2  501    0 -0.46446844712E+01  0.23468863335E+02  0.76040103271E+03  0.76077729408E+03  0.00000000000E+00 0.  1.
          1    1    1    2  502    0  0.46446844712E+01 -0.23468863335E+02 -0.15183720104E+03  0.15371042990E+03  0.00000000000E+00 0. -1.
</event>
<event>
 4    1  0.7416369E+003  0.4119469E+02  0.7546771E-02  0.1341624E+00
          2   -1    0    0  502    0  0.00000000000E+00  0.00000000000E+00  0.68309232350E+03  0.68309232350E+03  0.00000000000E+00 0.  1.
          1   -1    0    0  501    0 -0.00000000000E+00 -0.00000000000E+00 -0.56833451896E+01  0.56833451896E+01  0.00000000000E+00 0.  1.
          2    1    1    2  501    0  0.39032683184E+02  0.13170117883E+02  0.59708298098E+03  0.59850237137E+03  0.00000000000E+00 0.  1.
          1    1    1    2  502    0 -0.39032683184E+02 -0.13170117883E+02  0.80325997332E+02  0.90273297319E+02  0.00000000000E+00 0.  1.
</event>
<event>
 4    1  0.7416369E+003  0.2492709E+02  0.7546771E-02  0.1469621E+00
          2   -1    0    0  502    0  0.00000000000E+00  0.00000000000E+00  0.62015280191E+03  0.62015280191E+03  0.00000000000E+00 0. -1.
          1   -1    0    0  501    0 -0.00000000000E+00 -0.00000000000E+00 -0.19191752314E+02  0.19191752314E+02  0.00000000000E+00 0. -1.
          2    1    1    2  501    0  0.11111797506E+02 -0.22313396715E+02  0.61169636614E+03  0.61220405427E+03  0.00000000000E+00 0. -1.
          1    1    1    2  502    0 -0.11111797506E+02  0.22313396715E+02 -0.10735316539E+02  0.27140499958E+02  0.00000000000E+00 0. -1.
</event>
<event>
 4    1  0.7416369E+003  0.2841694E+02  0.7546771E-02  0.1433871E+00
          2   -1    0    0  502    0  0.00000000000E+00  0.00000000000E+00  0.37086299396E+02  0.37086299396E+02  0.00000000000E+00 0.  1.
          1   -1    0    0  501    0 -0.00000000000E+00 -0.00000000000E+00 -0.14318279136E+03  0.14318279136E+03  0.00000000000E+00 0.  1.
          2    1    1    2  501    0  0.13958205447E+02 -0.24752596187E+02  0.29950334732E+02  0.41286136509E+02  0.00000000000E+00 0.  1.
          1    1    1    2  502    0 -0.13958205447E+02  0.24752596187E+02 -0.13604682669E+03  0.13898295424E+03  0.00000000000E+00 0.  1.
</event>
<event>
 4    1  0.8987575E+003  0.2623876E+02  0.7546771E-02  0.1455408E+00
          2   -1    0    0  502    0  0.00000000000E+00  0.00000000000E+00  0.28142935370E+03  0.28142935370E+03  0.00000000000E+00 0. -1.
          1   -1    0    0  501    0 -0.00000000000E+00 -0.00000000000E+00 -0.11596946852E+04  0.11596946852E+04  0.00000000000E+00 0.  1.
          2    1    1    2  501    0  0.44629173842E+01 -0.25856427621E+02  0.28066895020E+03  0.28189276700E+03  0.00000000000E+00 0. -1.
          1    1    1    2  502    0 -0.44629173842E+01  0.25856427621E+02 -0.11589342817E+04  0.11592312719E+04  0.00000000000E+00 0.  1.
</event>
<event>
 4    1  0.7416369E+003  0.2670424E+02  0.7546771E-02  0.1450602E+00
          2   -1    0    0  502    0  0.00000000000E+00  0.00000000000E+00  0.19307074074E+01  0.19307074074E+01  0.00000000000E+00 0.  1.
          1   -1    0    0  501    0 -0.00000000000E+00 -0.00000000000E+00 -0.80406336589E+03  0.80406336589E+03  0.00000000000E+00 0.  1.
          2    1    1    2  501    0  0.23396332896E+02 -0.12873534811E+02 -0.10474988677E+03  0.10810020846E+03  0.00000000000E+00 0.  1.
          1    1    1    2  502    0 -0.23396332896E+02  0.12873534811E+02 -0.69738277171E+03  0.69789386483E+03  0.00000000000E+00 0.  1.
</event>
<event>
 4    1  0.7416369E+003  0.2195255E+02  0.7546771E-02  0.1506087E+00
          2   -1    0    0  502    0  0.00000000000E+00  0.00000000000E+00  0.55718839805E+00  0.55718839805E+00  0.00000000000E+00 0.  1.
          1   -1    0    0  501    0 -0.00000000000E+00 -0.00000000000E+00 -0.96137867710E+03  0.96137867710E+03  0.00000000000E+00 0.  1.
          2    1    1    2  501    0  0.13019980950E+02  0.17674683520E+02 -0.32804894872E+03  0.32878264416E+03  0.00000000000E+00 0.  1.
          1    1    1    2  502    0 -0.13019980950E+02 -0.17674683520E+02 -0.63277253998E+03  0.63315322134E+03  0.00000000000E+00 0.  1.
</event>
<event>
 4    1  0.7416369E+003  0.2805960E+02  0.7546771E-02  0.1437245E+00
          2   -1    0    0  502    0  0.00000000000E+00  0.00000000000E+00  0.61612396977E+03  0.61612396977E+03  0.00000000000E+00 0. -1.
          1   -1    0    0  501    0 -0.00000000000E+00 -0.00000000000E+00 -0.44794911193E+02  0.44794911193E+02  0.00000000000E+00 0. -1.
          2    1    1    2  501    0  0.27480892078E+02  0.56693458986E+01  0.61137624841E+03  0.61201981833E+03  0.00000000000E+00 0. -1.
          1    1    1    2  502    0 -0.27480892078E+02 -0.56693458986E+01 -0.40047189834E+02  0.48899062628E+02  0.00000000000E+00 0. -1.
</event>
<event>
 4    1  0.7416369E+003  0.2641782E+02  0.7546771E-02  0.1453546E+00
          2   -1    0    0  502    0  0.00000000000E+00  0.00000000000E+00  0.48919251111E+03  0.48919251111E+03  0.00000000000E+00 0. -1.
          1   -1    0    0  501    0 -0.00000000000E+00 -0.00000000000E+00 -0.13351128883E+02  0.13351128883E+02  0.00000000000E+00 0. -1.
          2    1    1    2  501    0 -0.26406200431E+02 -0.78342226970E+00  0.47538847203E+03  0.47612193870E+03  0.00000000000E+00 0. -1.
          1    1    1    2  502    0  0.26406200431E+02  0.78342226970E+00  0.45291019703E+00  0.26421701295E+02  0.00000000000E+00 0. -1.
</event>
<event>
 4    1  0.7416369E+003  0.2108403E+02  0.7546771E-02  0.1518068E+00
          2   -1    0    0  502    0  0.00000000000E+00  0.00000000000E+00  0.30190671745E+01  0.30190671745E+01  0.00000000000E+00 0. -1.
          1   -1    0    0  501    0 -0.00000000000E+00 -0.00000000000E+00 -0.15619493876E+03  0.15619493876E+03  0.00000000000E+00 0. -1.
          2    1    1    2  501    0 -0.20967903570E+02  0.22098006252E+01 -0.57529869648E+02  0.61271707178E+02  0.00000000000E+00 0. -1.
          1    1    1    2  502    0  0.20967903570E+02 -0.22098006252E+01 -0.95646001936E+02  0.97942298754E+02  0.00000000000E+00 0. -1.
</event>
<event>
 4    1  0.7416369E+003  0.3832025E+02  0.7546771E-02  0.1358620E+00
          2   -1    0    0  502    0  0.00000000000E+00  0.00000000000E+00  0.50046715248E+03  0.50046715248E+03  0.00000000000E+00 0.  1.
          1   -1    0    0  501    0 -0.00000000000E+00 -0.00000000000E+00 -0.76329310845E+01  0.76329310845E+01  0.00000000000E+00 0. -1.
          2    1    1    2  501    0 -0.28236245763E+02  0.25906679665E+02  0.44574431783E+03  0.44738846488E+03  0.00000000000E+00 0.  1.
          1    1    1    2  502    0  0.28236245763E+02 -0.25906679665E+02  0.47089903568E+02  0.60711618691E+02  0.00000000000E+00 0. -1.
</event>
<event>
 4    1  0.7416369E+003  0.2266316E+02  0.7546771E-02  0.1496772E+00
          2   -1    0    0  502    0  0.00000000000E+00  0.00000000000E+00  0.85847519467E+01  0.85847519467E+01  0.00000000000E+00 0. -1.
          1   -1    0    0  501    0 -0.00000000000E+00 -0.00000000000E+00 -0.28247691187E+03  0.28247691187E+03  0.00000000000E+00 0. -1.
          2    1    1    2  501    0 -0.10405083527E+02 -0.20133376120E+02 -0.77430556685E+01  0.23949394737E+02  0.00000000000E+00 0. -1.
          1    1    1    2  502    0  0.10405083527E+02  0.20133376120E+02 -0.26614910426E+03  0.26711226908E+03  0.00000000000E+00 0. -1.
</event>
<event>
 4    1  0.7416369E+003  0.2156202E+02  0.7546771E-02  0.1511390E+00
          2   -1    0    0  502    0  0.00000000000E+00  0.00000000000E+00  0.46294287220E+03  0.46294287220E+03  0.00000000000E+00 0. -1.
          1   -1    0    0  501    0 -0.00000000000E+00 -0.00000000000E+00 -0.16254654040E+02  0.16254654040E+02  0.00000000000E+00 0.  1.
          2    1    1    2  501    0  0.10438114958E+02  0.18867075118E+02  0.45542322530E+03  0.45593336674E+03  0.00000000000E+00 0. -1.
          1    1    1    2  502    0 -0.10438114958E+02 -0.18867075118E+02 -0.87350071393E+01  0.23264159497E+02  0.00000000000E+00 0.  1.
</event>
<event>
 4    1  0.7416369E+003  0.2661842E+02  0.7546771E-02  0.1451479E+00
          2   -1    0    0  502    0  0.00000000000E+00  0.00000000000E+00  0.21888390002E+02  0.21888390002E+02  0.00000000000E+00 0.  1.
          1   -1    0    0  501    0 -0.00000000000E+00 -0.00000000000E+00 -0.47485981730E+03  0.47485981730E+03  0.00000000000E+00 0. -1.
          2    1    1    2  501    0 -0.26202467634E+02  0.46873465872E+01  0.13273300186E+02  0.29744260387E+02  0.00000000000E+00 0.  1.
          1    1    1    2  502    0  0.26202467634E+02 -0.46873465872E+01 -0.46624472748E+03  0.46700394691E+03  0.00000000000E+00 0. -1.
</event>
<event>
 4    1  0.7416369E+003  0.3024765E+02  0.7546771E-02  0.1417456E+00
          2   -1    0    0  502    0  0.00000000000E+00  0.00000000000E+00  0.31365199387E+03  0.31365199387E+03  0.00000000000E+00 0.  1.
          1   -1    0    0  501    0 -0.00000000000E+00 -0.00000000000E+00 -0.38781461394E+02  0.38781461394E+02  0.00000000000E+00 0. -1.
          2    1    1    2  501    0 -0.11778913569E+02 -0.27859965092E+02  0.30689528487E+03  0.30838228927E+03  0.00000000000E+00 0.  1.
          1    1    1    2  502    0  0.11778913569E+02  0.27859965092E+02 -0.32024752393E+02  0.44051165996E+02  0.00000000000E+00 0. -1.
</event>
<event>
 4    1  0.7416369E+003  0.4447278E+02  0.7546771E-02  0.1324097E+00
          2   -1    0    0  502    0  0.00000000000E+00  0.00000000000E+00  0.12633857364E+04  0.12633857364E+04  0.00000000000E+00 0. -1.
          1   -1    0    0  501    0 -0.00000000000E+00 -0.00000000000E+00 -0.10777795718E+02  0.10777795718E+02  0.00000000000E+00 0. -1.
          2    1    1    2  501    0 -0.15900336071E+02  0.41533212693E+02  0.12153024485E+04  0.12161158948E+04  0.00000000000E+00 0. -1.
          1    1    1    2  502    0  0.15900336071E+02 -0.41533212693E+02  0.37305492216E+02  0.58047637275E+02  0.00000000000E+00 0. -1.
</event>
<event>
 4    1  0.7416369E+003  0.3488609E+02  0.7546771E-02  0.1381366E+00
          2   -1    0    0  502    0  0.00000000000E+00  0.00000000000E+00  0.15220331726E+03  0.15220331726E+03  0.00000000000E+00 0. -1.
          1   -1    0    0  501    0 -0.00000000000E+00 -0.00000000000E+00 -0.17157476340E+02  0.17157476340E+02  0.00000000000E+00 0.  1.
          2    1    1    2  501    0 -0.34880569684E+02 -0.62062176753E+00  0.12940081820E+03  0.13402093517E+03  0.00000000000E+00 0. -1.
          1    1    1    2  502    0  0.34880569684E+02  0.62062176753E+00  0.56450227281E+01  0.35339858439E+02  0.00000000000E+00 0.  1.
</event>
<event>
 4    1  0.7416369E+003  0.3536934E+02  0.7546771E-02  0.1377985E+00
          2   -1    0    0  502    0  0.00000000000E+00  0.00000000000E+00  0.25330642276E+03  0.25330642276E+03  0.00000000000E+00 0.  1.
          1   -1    0    0  501    0 -0.00000000000E+00 -0.00000000000E+00 -0.48595030964E+03  0.48595030964E+03  0.00000000000E+00 0.  1.
          2    1    1    2  501    0 -0.91907904276E+01 -0.34154350628E+02  0.25142338590E+03  0.25389901393E+03  0.00000000000E+00 0.  1.
          1    1    1    2  502    0  0.91907904276E+01  0.34154350628E+02 -0.48406727279E+03  0.48535771847E+03  0.00000000000E+00 0.  1.
</event>
<event>
 4    1  0.7416369E+003  0.2013438E+02  0.7546771E-02  0.1531991E+00
          2   -1    0    0  502    0  0.00000000000E+00  0.00000000000E+00  0.65810527668E+03  0.65810527668E+03  0.00000000000E+00 0.  1.
          1   -1    0    0  501    0 -0.00000000000E+00 -0.00000000000E+00 -0.19590376626E+01  0.19590376626E+01  0.00000000000E+00 0.  1.
          2    1    1    2  501    0 -0.74115134041E+01  0.18720646847E+02  0.60133489625E+03  0.60167187951E+03  0.00000000000E+00 0.  1.
          1    1    1    2  502    0  0.74115134041E+01 -0.18720646847E+02  0.54811342769E+02  0.58392434830E+02  0.00000000000E+00 0.  1.
</event>
<event>
 4    1  0.7416369E+003  0.2105397E+02  0.7546771E-02  0.1518496E+00
          2   -1    0    0  502    0  0.00000000000E+00  0.00000000000E+00  0.28491584630E+02  0.28491584630E+02  0.00000000000E+00 0.  1.
          1   -1    0    0  501    0 -0.00000000000E+00 -0.00000000000E+00 -0.66449599793E+02  0.66449599793E+02  0.00000000000E+00 0.  1.
          2    1    1    2  501    0 -0.20770272635E+02 -0.34446183408E+01  0.22564377747E+02  0.30861315007E+02  0.00000000000E+00 0.  1.
          1    1    1    2  502    0  0.20770272635E+02  0.34446183408E+01 -0.60522392910E+02  0.64079869416E+02  0.00000000000E+00 0.  1.
</event>
<event>
 4    1  0.7416369E+003  0.2488556E+02  0.7546771E-02  0.1470088E+00
          2   -1    0    0  502    0  0.00000000000E+00  0.00000000000E+00  0.16803100721E+04  0.16803100721E+04  0.00000000000E+00 0.  1.
          1   -1    0    0  501    0 -0.00000000000E+00 -0.00000000000E+00 -0.72395981316E+02  0.72395981316E+02  0.00000000000E+00 0.  1.
          2    1    1    2  501    0  0.11096966276E+02 -0.22274386044E+02  0.16780765322E+04  0.16782610461E+04  0.00000000000E+00 0.  1.
          1    1    1    2  502    0 -0.11096966276E+02  0.22274386044E+02 -0.70162441398E+02  0.74445007335E+02  0.00000000000E+00 0.  1.
</event>
<event>
 4    1  0.7416369E+003  0.2172610E+02  0.7546771E-02  0.1509146E+00
          2   -1    0    0  502    0  0.00000000000E+00  0.00000000000E+00  0.28785394450E+03  0.28785394450E+03  0.00000000000E+00 0. -1.
          1   -1    0    0  501    0 -0.00000000000E+00 -0.00000000000E+00 -0.14353745835E+02  0.14353745835E+02  0.00000000000E+00 0.  1.
          2    1    1    2  501    0  0.16635121984E+02  0.13974841258E+02  0.27896104834E+03  0.27980580759E+03  0.00000000000E+00 0. -1.
          1    1    1    2  502    0 -0.16635121984E+02 -0.13974841258E+02 -0.54608496687E+01  0.22401882749E+02  0.00000000000E+00 0.  1.
</event>
<event>
 4    1  0.7416369E+003  0.2325166E+02  0.7546771E-02  0.1489362E+00
          2   -1    0    0  502    0  0.00000000000E+00  0.00000000000E+00  0.30724036568E+03  0.30724036568E+03  0.00000000000E+00 0.  1.
          1   -1    0    0  501    0 -0.00000000000E+00 -0.00000000000E+00 -0.20960064216E+02  0.20960064216E+02  0.00000000000E+00 0. -1.
          2    1    1    2  501    0  0.23017352561E+02  0.32925906798E+01  0.30020101800E+03  0.30110013431E+03  0.00000000000E+00 0.  1.
          1    1    1    2  502    0 -0.23017352561E+02 -0.32925906798E+01 -0.13920716533E+02  0.27100295590E+02  0.00000000000E+00 0. -1.
</event>
<event>
 4    1  0.7416369E+003  0.6625832E+02  0.7546771E-02  0.1239933E+00
          2   -1    0    0  502    0  0.00000000000E+00  0.00000000000E+00  0.11878940649E+02  0.11878940649E+02  0.00000000000E+00 0.  1.
          1   -1    0    0  501    0 -0.00000000000E+00 -0.00000000000E+00 -0.54393284745E+03  0.54393284745E+03  0.00000000000E+00 0. -1.
          2    1    1    2  501    0  0.13321981591E+02 -0.64905238896E+02 -0.10868473744E+03  0.12728918800E+03  0.00000000000E+00 0.  1.
          1    1    1    2  502    0 -0.13321981591E+02  0.64905238896E+02 -0.42336916936E+03  0.42852260010E+03  0.00000000000E+00 0. -1.
</event>
<event>
 4    1  0.7416369E+003  0.2670746E+02  0.7546771E-02  0.1450569E+00
          2   -1    0    0  502    0  0.00000000000E+00  0.00000000000E+00  0.57897637713E+03  0.57897637713E+03  0.00000000000E+00 0.  1.
          1   -1    0    0  501    0 -0.00000000000E+00 -0.00000000000E+00 -0.20590642214E+01  0.20590642214E+01  0.00000000000E+00 0. -1.
          2    1    1    2  501    0  0.26686994727E+02  0.10453521045E+01  0.47258334989E+03  0.47333741775E+03  0.00000000000E+00 0.  1.
          1    1    1    2  502    0 -0.26686994727E+02 -0.10453521045E+01  0.10433396302E+03  0.10769802360E+03  0.00000000000E+00 0. -1.
</event>
<event>
 4    1  0.7416369E+003  0.2889315E+02  0.7546771E-02  0.1429465E+00
          2   -1    0    0  502    0  0.00000000000E+00  0.00000000000E+00  0.44944404398E+01  0.44944404398E+01  0.00000000000E+00 0. -1.
          1   -1    0    0  501    0 -0.00000000000E+00 -0.00000000000E+00 -0.42848165222E+03  0.42848165222E+03  0.00000000000E+00 0. -1.
          2    1    1    2  501    0 -0.19034336083E+02  0.21737255724E+02 -0.49050271063E+02  0.56927526979E+02  0.00000000000E+00 0. -1.
          1    1    1    2  502    0  0.19034336083E+02 -0.21737255724E+02 -0.37493694072E+03  0.37604856568E+03  0.00000000000E+00 0. -1.
</event>
<event>
 4    1  0.7416369E+003  0.5262143E+02  0.7546771E-02  0.1287190E+00
          2   -1    0    0  502    0  0.00000000000E+00  0.00000000000E+00  0.22400820586E+03  0.22400820586E+03  0.00000000000E+00 0.  1.
          1   -1    0    0  501    0 -0.00000000000E+00 -0.00000000000E+00 -0.13169804399E+02  0.13169804399E+02  0.00000000000E+00 0.  1.
          2    1    1    2  501    0 -0.17115572921E+02 -0.49760149988E+02  0.13480358970E+03  0.14471013496E+03  0.00000000000E+00 0.  1.
          1    1    1    2  502    0  0.17115572921E+02  0.49760149988E+02  0.76034811761E+02  0.92467875301E+02  0.00000000000E+00 0.  1.
</event>
<event>
 4    1  0.7416369E+003  0.2860690E+02  0.7546771E-02  0.1432102E+00
          2   -1    0    0  502    0  0.00000000000E+00  0.00000000000E+00  0.37550406497E+01  0.37550406497E+01  0.00000000000E+00 0.  1.
          1   -1    0    0  501    0 -0.00000000000E+00 -0.00000000000E+00 -0.65781374034E+03  0.65781374034E+03  0.00000000000E+00 0. -1.
          2    1    1    2  501    0 -0.26633691343E+02 -0.10440351041E+02 -0.56533835276E+02  0.63359521584E+02  0.00000000000E+00 0.  1.
          1    1    1    2  502    0  0.26633691343E+02  0.10440351041E+02 -0.59752486442E+03  0.59820925941E+03  0.00000000000E+00 0. -1.
</event>
<event>
 4    1  0.7416369E+003  0.3391177E+02  0.7546771E-02  0.1388379E+00
          2   -1    0    0  502    0  0.00000000000E+00  0.00000000000E+00  0.10934014720E+04  0.10934014720E+04  0.00000000000E+00 0. -1.
          1   -1    0    0  501    0 -0.00000000000E+00 -0.00000000000E+00 -0.14667198728E+02  0.14667198728E+02  0.00000000000E+00 0.  1.
          2    1    1    2  501    0  0.10937676411E+02 -0.32099456611E+02  0.10731673436E+04  0.10737030108E+04  0.00000000000E+00 0. -1.
          1    1    1    2  502    0 -0.10937676411E+02  0.32099456611E+02  0.55669296512E+01  0.34365659979E+02  0.00000000000E+00 0.  1.
</event>
<event>
 4    1  0.7416369E+003  0.2136265E+02  0.7546771E-02  0.1514150E+00
          2   -1    0    0  502    0  0.00000000000E+00  0.00000000000E+00  0.53769682093E+00  0.53769682093E+00  0.00000000000E+00 0.  1.
          1   -1    0    0  501    0 -0.00000000000E+00 -0.00000000000E+00 -0.17276372627E+04  0.17276372627E+04  0.00000000000E+00 0.  1.
          2    1    1    2  501    0 -0.54947529033E+01 -0.20643896712E+02 -0.24723666052E+03  0.24815787130E+03  0.00000000000E+00 0.  1.
          1    1    1    2  502    0  0.54947529033E+01  0.20643896712E+02 -0.14798629053E+04  0.14800170882E+04  0.00000000000E+00 0.  1.
</event>
<event>
 4    1  0.7416369E+003  0.2812454E+02  0.7546771E-02  0.1436628E+00
          2   -1    0    0  502    0  0.00000000000E+00  0.00000000000E+00  0.11329163117E+02  0.11329163117E+02  0.00000000000E+00 0. -1.
          1   -1    0    0  501    0 -0.00000000000E+00 -0.00000000000E+00 -0.10512075554E+04  0.10512075554E+04  0.00000000000E+00 0.  1.
          2    1    1    2  501    0 -0.10035637079E+02 -0.26273098889E+02 -0.66167789373E+01  0.28892412504E+02  0.00000000000E+00 0. -1.
          1    1    1    2  502    0  0.10035637079E+02  0.26273098889E+02 -0.10332616133E+04  0.10336443060E+04  0.00000000000E+00 0.  1.
</event>
<event>
 4    1  0.7416369E+003  0.2013630E+02  0.7546771E-02  0.1531962E+00
          2   -1    0    0  502    0  0.00000000000E+00  0.00000000000E+00  0.11044004353E+02  0.11044004353E+02  0.00000000000E+00 0. -1.
          1   -1    0    0  501    0 -0.00000000000E+00 -0.00000000000E+00 -0.38750122833E+03  0.38750122833E+03  0.00000000000E+00 0. -1.
          2    1    1    2  501    0 -0.18957516858E+02  0.67884474223E+01  0.13690239245E+01  0.20182782026E+02  0.00000000000E+00 0. -1.
          1    1    1    2  502    0  0.18957516858E+02 -0.67884474223E+01 -0.37782624790E+03  0.37836245066E+03  0.00000000000E+00 0. -1.
</event>
<event>
 4    1  0.7416369E+003  0.5020569E+02  0.7546771E-02  0.1297283E+00
          2   -1    0    0  502    0  0.00000000000E+00  0.00000000000E+00  0.29297374632E+02  0.29297374632E+02  0.00000000000E+00 0. -1.
          1   -1    0    0  501    0 -0.00000000000E+00 -0.00000000000E+00 -0.96456452121E+02  0.96456452121E+02  0.00000000000E+00 0.  1.
          2    1    1    2  501    0  0.36726635894E+02  0.34231056029E+02 -0.12912340015E+02  0.51839555414E+02  0.00000000000E+00 0. -1.
          1    1    1    2  502    0 -0.36726635894E+02 -0.34231056029E+02 -0.54246737474E+02  0.73914271339E+02  0.00000000000E+00 0.  1.
</event>
<event>
 4    1  0.7416369E+003  0.2956952E+02  0.7546771E-02  0.1423375E+00
          2   -1    0    0  502    0  0.00000000000E+00  0.00000000000E+00  0.70342337634E+03  0.70342337634E+03  0.00000000000E+00 0.  1.
          1   -1    0    0  501    0 -0.00000000000E+00 -0.00000000000E+00 -0.79224187716E+02  0.79224187716E+02  0.00000000000E+00 0.  1.
          2    1    1    2  501    0 -0.15254666717E+02 -0.25330843611E+02  0.70034136813E+03  0.70096532612E+03  0.00000000000E+00 0.  1.
          1    1    1    2  502    0  0.15254666717E+02  0.25330843611E+02 -0.76142179510E+02  0.81682237941E+02  0.00000000000E+00 0.  1.
</event>
<event>
 4    1  0.7416369E+003  0.2036759E+02  0.7546771E-02  0.1528489E+00
          2   -1    0    0  502    0  0.00000000000E+00  0.00000000000E+00  0.14846613681E+04  0.14846613681E+04  0.00000000000E+00 0. -1.
          1   -1    0    0  501    0 -0.00000000000E+00 -0.00000000000E+00 -0.31496036829E+00  0.31496036829E+00  0.00000000000E+00 0. -1.
          2    1    1    2  501    0  0.50348176199E+00  0.20361351293E+02  0.49274413556E+03  0.49316490270E+03  0.00000000000E+00 0. -1.
          1    1    1    2  502    0 -0.50348176199E+00 -0.20361351293E+02  0.99160227212E+03  0.99181142572E+03  0.00000000000E+00 0. -1.
</event>
<event>
 4    1  0.7416369E+003  0.2432238E+02  0.7546771E-02  0.1476529E+00
          2   -1    0    0  502    0  0.00000000000E+00  0.00000000000E+00  0.29973742507E+03  0.29973742507E+03  0.00000000000E+00 0.  1.
          1   -1    0    0  501    0 -0.00000000000E+00 -0.00000000000E+00 -0.20925154285E+02  0.20925154285E+02  0.00000000000E+00 0.  1.
          2    1    1    2  501    0 -0.98952800402E+00  0.24302244293E+02  0.29198899125E+03  0.29300025470E+03  0.00000000000E+00 0.  1.
          1    1    1    2  502    0  0.98952800402E+00 -0.24302244293E+02 -0.13176720461E+02  0.27662324658E+02  0.00000000000E+00 0.  1.
</event>
<event>
 4    1  0.7416369E+003  0.2248728E+02  0.7546771E-02  0.1499039E+00
          2   -1    0    0  502    0  0.00000000000E+00  0.00000000000E+00  0.37102425117E+02  0.37102425117E+02  0.00000000000E+00 0.  1.
          1   -1    0    0  501    0 -0.00000000000E+00 -0.00000000000E+00 -0.32097965872E+02  0.32097965872E+02  0.00000000000E+00 0. -1.
          2    1    1    2  501    0  0.22313564830E+02 -0.27897688934E+01  0.28747933452E+02  0.36498241926E+02  0.00000000000E+00 0.  1.
          1    1    1    2  502    0 -0.22313564830E+02  0.27897688934E+01 -0.23743474207E+02  0.32702149063E+02  0.00000000000E+00 0. -1.
</event>
<event>
 4    1  0.7416369E+003  0.2890102E+02  0.7546771E-02  0.1429393E+00
          2   -1    0    0  502    0  0.00000000000E+00  0.00000000000E+00  0.76749840965E+02  0.76749840965E+02  0.00000000000E+00 0.  1.
          1   -1    0    0  501    0 -0.00000000000E+00 -0.00000000000E+00 -0.14549860476E+03  0.14549860476E+03  0.00000000000E+00 0. -1.
          2    1    1    2  501    0 -0.27505728623E+02  0.88715245396E+01  0.72513141491E+02  0.78060391644E+02  0.00000000000E+00 0.  1.
          1    1    1    2  502    0  0.27505728623E+02 -0.88715245396E+01 -0.14126190528E+03  0.14418805408E+03  0.00000000000E+00 0. -1.
</event>
<event>
 4    1  0.7714732E+003  0.3048272E+02  0.7546771E-02  0.1415447E+00
          2   -1    0    0  502    0  0.00000000000E+00  0.00000000000E+00  0.70306793212E+03  0.70306793212E+03  0.00000000000E+00 0.  1.
          1   -1    0    0  501    0 -0.00000000000E+00 -0.00000000000E+00 -0.33139327046E+03  0.33139327046E+03  0.00000000000E+00 0.  1.
          2    1    1    2  501    0  0.20793896032E+01 -0.30411718820E+02  0.70203551675E+03  0.70269699251E+03  0.00000000000E+00 0.  1.
          1    1    1    2  502    0 -0.20793896032E+01  0.30411718820E+02 -0.33036085509E+03  0.33176421007E+03  0.00000000000E+00 0.  1.
</event>
<event>
 4    1  0.7416369E+003  0.2299436E+02  0.7546771E-02  0.1492569E+00
          2   -1    0    0  502    0  0.00000000000E+00  0.00000000000E+00  0.47395312502E+03  0.47395312502E+03  0.00000000000E+00 0.  1.
          1   -1    0    0  501    0 -0.00000000000E+00 -0.00000000000E+00 -0.42365798798E+01  0.42365798798E+01  0.00000000000E+00 0.  1.
          2    1    1    2  501    0  0.84425240841E+01 -0.21388418750E+02  0.44007285669E+03  0.44067318941E+03  0.00000000000E+00 0.  1.
          1    1    1    2  502    0 -0.84425240841E+01  0.21388418750E+02  0.29643688450E+02  0.37516515489E+02  0.00000000000E+00 0.  1.
</event>
<event>
 4    1  0.7416369E+003  0.2181339E+02  0.7546771E-02  0.1507961E+00
          2   -1    0    0  502    0  0.00000000000E+00  0.00000000000E+00  0.92670977390E+03  0.92670977390E+03  0.00000000000E+00 0. -1.
          1   -1    0    0  501    0 -0.00000000000E+00 -0.00000000000E+00 -0.51427993157E+00  0.51427993157E+00  0.00000000000E+00 0. -1.
          2    1    1    2  501    0 -0.14634720397E+02  0.16175562310E+02  0.48166459809E+03  0.48215828201E+03  0.00000000000E+00 0. -1.
          1    1    1    2  502    0  0.14634720397E+02 -0.16175562310E+02  0.44453089587E+03  0.44506577181E+03  0.00000000000E+00 0. -1.
</event>
<event>
 4    1  0.7416369E+003  0.2585098E+02  0.7546771E-02  0.1459505E+00
          2   -1    0    0  502    0  0.00000000000E+00  0.00000000000E+00  0.34022004168E+01  0.34022004168E+01  0.00000000000E+00 0. -1.
          1   -1    0    0  501    0 -0.00000000000E+00 -0.00000000000E+00 -0.21213717249E+03  0.21213717249E+03  0.00000000000E+00 0. -1.
          2    1    1    2  501    0 -0.11307931455E+02  0.23246592890E+02 -0.75036823317E+02  0.79364968647E+02  0.00000000000E+00 0. -1.
          1    1    1    2  502    0  0.11307931455E+02 -0.23246592890E+02 -0.13369814875E+03  0.13617440425E+03  0.00000000000E+00 0. -1.
</event>
<event>
 4    1  0.7416369E+003  0.2118552E+02  0.7546771E-02  0.1516632E+00
          2   -1    0    0  502    0  0.00000000000E+00  0.00000000000E+00  0.13664817154E+02  0.13664817154E+02  0.00000000000E+00 0.  1.
          1   -1    0    0  501    0 -0.00000000000E+00 -0.00000000000E+00 -0.33770705679E+02  0.33770705679E+02  0.00000000000E+00 0.  1.
          2    1    1    2  501    0  0.16763457196E+02 -0.12954238354E+02 -0.13979000277E+02  0.25381848578E+02  0.00000000000E+00 0.  1.
          1    1    1    2  502    0 -0.16763457196E+02  0.12954238354E+02 -0.61268882480E+01  0.22053674254E+02  0.00000000000E+00 0.  1.
</event>
<event>
 4    1  0.7416369E+003  0.2097475E+02  0.7546771E-02  0.1519626E+00
          2   -1    0    0  502    0  0.00000000000E+00  0.00000000000E+00  0.33627733477E+02  0.33627733477E+02  0.00000000000E+00 0.  1.
          1   -1    0    0  501    0 -0.00000000000E+00 -0.00000000000E+00 -0.10743555755E+03  0.10743555755E+03  0.00000000000E+00 0.  1.
          2    1    1    2  501    0 -0.12915645293E+02  0.16526526995E+02  0.29193983254E+02  0.35947581923E+02  0.00000000000E+00 0.  1.
          1    1    1    2  502    0  0.12915645293E+02 -0.16526526995E+02 -0.10300180733E+03  0.10511570911E+03  0.00000000000E+00 0.  1.
</event>
<event>
 4    1  0.7416369E+003  0.2010552E+02  0.7546771E-02  0.1532429E+00
          2   -1    0    0  502    0  0.00000000000E+00  0.00000000000E+00  0.18564030730E+04  0.18564030730E+04  0.00000000000E+00 0.  1.
          1   -1    0    0  501    0 -0.00000000000E+00 -0.00000000000E+00 -0.23660988651E+00  0.23660988651E+00  0.00000000000E+00 0.  1.
          2    1    1    2  501    0 -0.11087671763E+02  0.16771864158E+02  0.11901729366E+04  0.11903427452E+04  0.00000000000E+00 0.  1.
          1    1    1    2  502    0  0.11087671763E+02 -0.16771864158E+02  0.66599352651E+03  0.66629693774E+03  0.00000000000E+00 0.  1.
</event>
<event>
 4    1  0.7416369E+003  0.2122261E+02  0.7546771E-02  0.1516110E+00
          2   -1    0    0  502    0  0.00000000000E+00  0.00000000000E+00  0.25225654133E+03  0.25225654133E+03  0.00000000000E+00 0. -1.
          1   -1    0    0  501    0 -0.00000000000E+00 -0.00000000000E+00 -0.23202308937E+02  0.23202308937E+02  0.00000000000E+00 0.  1.
          2    1    1    2  501    0 -0.16731842684E+02  0.13055440607E+02  0.24685114433E+03  0.24776175360E+03  0.00000000000E+00 0. -1.
          1    1    1    2  502    0  0.16731842684E+02 -0.13055440607E+02 -0.17796911941E+02  0.27697096665E+02  0.00000000000E+00 0.  1.
</event>
<event>
 4    1  0.7416369E+003  0.2293061E+02  0.7546771E-02  0.1493371E+00
          2   -1    0    0  502    0  0.00000000000E+00  0.00000000000E+00  0.19154384531E+02  0.19154384531E+02  0.00000000000E+00 0.  1.
          1   -1    0    0  501    0 -0.00000000000E+00 -0.00000000000E+00 -0.44014586956E+03  0.44014586956E+03  0.00000000000E+00 0. -1.
          2    1    1    2  501    0  0.10334908495E+02  0.20469554511E+02  0.11877610845E+02  0.25824225736E+02  0.00000000000E+00 0.  1.
          1    1    1    2  502    0 -0.10334908495E+02 -0.20469554511E+02 -0.43286909588E+03  0.43347602836E+03  0.00000000000E+00 0. -1.
</event>
<event>
 4    1  0.7416369E+003  0.3181286E+02  0.7546771E-02  0.1404470E+00
          2   -1    0    0  502    0  0.00000000000E+00  0.00000000000E+00  0.34650013724E+03  0.34650013724E+03  0.00000000000E+00 0.  1.
          1   -1    0    0  501    0 -0.00000000000E+00 -0.00000000000E+00 -0.29341580525E+01  0.29341580525E+01  0.00000000000E+00 0. -1.
          2    1    1    2  501    0 -0.73248760298E+01 -0.30958109927E+02  0.18357068314E+03  0.18630688148E+03  0.00000000000E+00 0.  1.
          1    1    1    2  502    0  0.73248760298E+01  0.30958109927E+02  0.15999529605E+03  0.16312741381E+03  0.00000000000E+00 0. -1.
</event>
<event>
 4    1  0.7416369E+003  0.2041272E+02  0.7546771E-02  0.1527817E+00
          2   -1    0    0  502    0  0.00000000000E+00  0.00000000000E+00  0.19935815402E+02  0.19935815402E+02  0.00000000000E+00 0. -1.
          1   -1    0    0  501    0 -0.00000000000E+00 -0.00000000000E+00 -0.12833866407E+04  0.12833866407E+04  0.00000000000E+00 0. -1.
          2    1    1    2  501    0  0.53766535723E+00 -0.20405637487E+02  0.14607606752E+02  0.25101021897E+02  0.00000000000E+00 0. -1.
          1    1    1    2  502    0 -0.53766535723E+00  0.20405637487E+02 -0.12780584320E+04  0.12782214342E+04  0.00000000000E+00 0. -1.
</event>
<event>
 4    1  0.7416369E+003  0.3201756E+02  0.7546771E-02  0.1402838E+00
          2   -1    0    0  502    0  0.00000000000E+00  0.00000000000E+00  0.17493149560E+03  0.17493149560E+03  0.00000000000E+00 0. -1.
          1   -1    0    0  501    0 -0.00000000000E+00 -0.00000000000E+00 -0.41660752762E+02  0.41660752762E+02  0.00000000000E+00 0. -1.
          2    1    1    2  501    0 -0.13832917003E+02  0.28875154340E+02  0.16702631823E+03  0.17006738403E+03  0.00000000000E+00 0. -1.
          1    1    1    2  502    0  0.13832917003E+02 -0.28875154340E+02 -0.33755575389E+02  0.46524864329E+02  0.00000000000E+00 0. -1.
</event>
<event>
 4    1  0.7416369E+003  0.3031869E+02  0.7546771E-02  0.1416847E+00
          2   -1    0    0  502    0  0.00000000000E+00  0.00000000000E+00  0.15770764888E+03  0.15770764888E+03  0.00000000000E+00 0.  1.
          1   -1    0    0  501    0 -0.00000000000E+00 -0.00000000000E+00 -0.73751924986E+03  0.73751924986E+03  0.00000000000E+00 0. -1.
          2    1    1    2  501    0  0.23621186134E+02 -0.19006902726E+02  0.15593538489E+03  0.15885549108E+03  0.00000000000E+00 0.  1.
          1    1    1    2  502    0 -0.23621186134E+02  0.19006902726E+02 -0.73574698588E+03  0.73637140766E+03  0.00000000000E+00 0. -1.
</event>
<event>
 4    1  0.7416369E+003  0.2202590E+02  0.7546771E-02  0.1505106E+00
          2   -1    0    0  502    0  0.00000000000E+00  0.00000000000E+00  0.15360215750E+04  0.15360215750E+04  0.00000000000E+00 0. -1.
          1   -1    0    0  501    0 -0.00000000000E+00 -0.00000000000E+00 -0.75188728381E+01  0.75188728381E+01  0.00000000000E+00 0.  1.
          2    1    1    2  501    0  0.16172383635E+02  0.14953076006E+02  0.15196379555E+04  0.15197975708E+04  0.00000000000E+00 0. -1.
          1    1    1    2  502    0 -0.16172383635E+02 -0.14953076006E+02  0.88647466194E+01  0.23742876976E+02  0.00000000000E+00 0.  1.
</event>
<event>
 4    1  0.7416369E+003  0.2402523E+02  0.7546771E-02  0.1480010E+00
          2   -1    0    0  502    0  0.00000000000E+00  0.00000000000E+00  0.24336753771E+03  0.24336753771E+03  0.00000000000E+00 0.  1.
          1   -1    0    0  501    0 -0.00000000000E+00 -0.00000000000E+00 -0.23411337809E+02  0.23411337809E+02  0.00000000000E+00 0.  1.
          2    1    1    2  501    0 -0.67010073581E+01 -0.23071804993E+02  0.23643040179E+03  0.23764794672E+03  0.00000000000E+00 0.  1.
          1    1    1    2  502    0  0.67010073581E+01  0.23071804993E+02 -0.16474201890E+02  0.29130928807E+02  0.00000000000E+00 0.  1.
</event>
<event>
 4    1  0.7416369E+003  0.3518294E+02  0.7546771E-02  0.1379282E+00
          2   -1    0    0  502    0  0.00000000000E+00  0.00000000000E+00  0.11302340199E+03  0.11302340199E+03  0.00000000000E+00 0. -1.
          1   -1    0    0  501    0 -0.00000000000E+00 -0.00000000000E+00 -0.38335438455E+02  0.38335438455E+02  0.00000000000E+00 0.  1.
          2    1    1    2  501    0  0.13542890788E+02  0.32471983234E+02  0.10130583783E+03  0.10724137431E+03  0.00000000000E+00 0. -1.
          1    1    1    2  502    0 -0.13542890788E+02 -0.32471983234E+02 -0.26617874295E+02  0.44117466133E+02  0.00000000000E+00 0.  1.
</event>
<event>
 4    1  0.7416369E+003  0.2213039E+02  0.7546771E-02  0.1503716E+00
          2   -1    0    0  502    0  0.00000000000E+00  0.00000000000E+00  0.35294592459E+03  0.35294592459E+03  0.00000000000E+00 0.  1.
          1   -1    0    0  501    0 -0.00000000000E+00 -0.00000000000E+00 -0.15049153713E+02  0.15049153713E+02  0.00000000000E+00 0. -1.
          2    1    1    2  501    0  0.10557489704E+02  0.19449773647E+02  0.34425799761E+03  0.34496858292E+03  0.00000000000E+00 0.  1.
          1    1    1    2  502    0 -0.10557489704E+02 -0.19449773647E+02 -0.63612267379E+01  0.23026495377E+02  0.00000000000E+00 0. -1.
</event>
<event>
 4    1  0.7416369E+003  0.2114784E+02  0.7546771E-02  0.1517164E+00
          2   -1    0    0  502    0  0.00000000000E+00  0.00000000000E+00  0.40873587184E+03  0.40873587184E+03  0.00000000000E+00 0. -1.
          1   -1    0    0  501    0 -0.00000000000E+00 -0.00000000000E+00 -0.17043770113E+01  0.17043770113E+01  0.00000000000E+00 0.  1.
          2    1    1    2  501    0 -0.99697086931E+01 -0.18650363298E+02  0.32630820530E+03  0.32699277666E+03  0.00000000000E+00 0. -1.
          1    1    1    2  502    0  0.99697086931E+01  0.18650363298E+02  0.80723289532E+02  0.83447472193E+02  0.00000000000E+00 0.  1.
</event>
<event>
 4    1  0.7416369E+003  0.2119443E+02  0.7546771E-02  0.1516507E+00
          2   -1    0    0  502    0  0.00000000000E+00  0.00000000000E+00  0.21246118934E+02  0.21246118934E+02  0.00000000000E+00 0.  1.
          1   -1    0    0  501    0 -0.00000000000E+00 -0.00000000000E+00 -0.38949951324E+02  0.38949951324E+02  0.00000000000E+00 0. -1.
          2    1    1    2  501    0 -0.20727306971E+02  0.44252034656E+01  0.11498870394E+02  0.24112811954E+02  0.00000000000E+00 0.  1.
          1    1    1    2  502    0  0.20727306971E+02 -0.44252034656E+01 -0.29202702784E+02  0.36083258305E+02  0.00000000000E+00 0. -1.
</event>
<event>
 4    1  0.7416369E+003  0.2272176E+02  0.7546771E-02  0.1496022E+00
          2   -1    0    0  502    0  0.00000000000E+00  0.00000000000E+00  0.20480897392E+02  0.20480897392E+02  0.00000000000E+00 0. -1.
          1   -1    0    0  501    0 -0.00000000000E+00 -0.00000000000E+00 -0.66864456539E+02  0.66864456539E+02  0.00000000000E+00 0.  1.
          2    1    1    2  501    0  0.40151247352E+01 -0.22364191103E+02  0.11279260133E+02  0.25367301383E+02  0.00000000000E+00 0. -1.
          1    1    1    2  502    0 -0.40151247352E+01  0.22364191103E+02 -0.57662819280E+02  0.61978052548E+02  0.00000000000E+00 0.  1.
</event>
<event>
 4    1  0.7416369E+003  0.2372956E+02  0.7546771E-02  0.1483535E+00
          2   -1    0    0  502    0  0.00000000000E+00  0.00000000000E+00  0.59637387110E+01  0.59637387110E+01  0.00000000000E+00 0. -1.
          1   -1    0    0  501    0 -0.00000000000E+00 -0.00000000000E+00 -0.10949222682E+03  0.10949222682E+03  0.00000000000E+00 0.  1.
          2    1    1    2  501    0  0.18580196935E+02 -0.14760364571E+02 -0.30345528564E+02  0.38521983129E+02  0.00000000000E+00 0. -1.
          1    1    1    2  502    0 -0.18580196935E+02  0.14760364571E+02 -0.73182959544E+02  0.76933982401E+02  0.00000000000E+00 0.  1.
</event>
<event>
 4    1  0.7416369E+003  0.4513428E+02  0.7546771E-02  0.1320769E+00
          2   -1    0    0  502    0  0.00000000000E+00  0.00000000000E+00  0.14109337737E+02  0.14109337737E+02  0.00000000000E+00 0. -1.
          1   -1    0    0  501    0 -0.00000000000E+00 -0.00000000000E+00 -0.29378458600E+03  0.29378458600E+03  0.00000000000E+00 0.  1.
          2    1    1    2  501    0 -0.44787128669E+02  0.55871508101E+01 -0.30053663060E+02  0.54224771202E+02  0.00000000000E+00 0. -1.
          1    1    1    2  502    0  0.44787128669E+02 -0.55871508101E+01 -0.24962158520E+03  0.25366915253E+03  0.00000000000E+00 0.  1.
</event>
<event>
 4    1  0.7416369E+003  0.3443044E+02  0.7546771E-02  0.1384612E+00
          2   -1    0    0  502    0  0.00000000000E+00  0.00000000000E+00  0.58240769009E+01  0.58240769009E+01  0.00000000000E+00 0.  1.
          1   -1    0    0  501    0 -0.00000000000E+00 -0.00000000000E+00 -0.60325390075E+03  0.60325390075E+03  0.00000000000E+00 0.  1.
          2    1    1    2  501    0  0.33994702003E+02 -0.54603444455E+01 -0.50821287143E+02  0.61386141372E+02  0.00000000000E+00 0.  1.
          1    1    1    2  502    0 -0.33994702003E+02  0.54603444455E+01 -0.54660853671E+03  0.54769183628E+03  0.00000000000E+00 0.  1.
</event>
<event>
 4    1  0.7416369E+003  0.2158569E+02  0.7546771E-02  0.1511065E+00
          2   -1    0    0  502    0  0.00000000000E+00  0.00000000000E+00  0.19363633807E+03  0.19363633807E+03  0.00000000000E+00 0.  1.
          1   -1    0    0  501    0 -0.00000000000E+00 -0.00000000000E+00 -0.62686219779E+03  0.62686219779E+03  0.00000000000E+00 0.  1.
          2    1    1    2  501    0 -0.15132427394E+01 -0.21532585136E+02  0.19284818925E+03  0.19405248317E+03  0.00000000000E+00 0.  1.
          1    1    1    2  502    0  0.15132427394E+01  0.21532585136E+02 -0.62607404897E+03  0.62644605268E+03  0.00000000000E+00 0.  1.
</event>
<event>
 4    1  0.7416369E+003  0.3381403E+02  0.7546771E-02  0.1389098E+00
          2   -1    0    0  502    0  0.00000000000E+00  0.00000000000E+00  0.10263683803E+01  0.10263683803E+01  0.00000000000E+00 0. -1.
          1   -1    0    0  501    0 -0.00000000000E+00 -0.00000000000E+00 -0.17925901173E+04  0.17925901173E+04  0.00000000000E+00 0. -1.
          2    1    1    2  501    0 -0.13588729134E+02  0.30963446223E+02 -0.34401142872E+03  0.34566928075E+03  0.00000000000E+00 0. -1.
          1    1    1    2  502    0  0.13588729134E+02 -0.30963446223E+02 -0.14475523202E+04  0.14479472049E+04  0.00000000000E+00 0. -1.
</event>
<event>
 4    1  0.7416369E+003  0.2168065E+02  0.7546771E-02  0.1509765E+00
          2   -1    0    0  502    0  0.00000000000E+00  0.00000000000E+00  0.96509043627E+01  0.96509043627E+01  0.00000000000E+00 0. -1.
          1   -1    0    0  501    0 -0.00000000000E+00 -0.00000000000E+00 -0.90029030614E+02  0.90029030614E+02  0.00000000000E+00 0. -1.
          2    1    1    2  501    0 -0.21545633825E+02 -0.24158475998E+01 -0.64225690006E+01  0.22611944833E+02  0.00000000000E+00 0. -1.
          1    1    1    2  502    0  0.21545633825E+02  0.24158475998E+01 -0.73955557251E+02  0.77067990144E+02  0.00000000000E+00 0. -1.
</event>
<event>
 4    1  0.7416369E+003  0.2086347E+02  0.7546771E-02  0.1521223E+00
          2   -1    0    0  502    0  0.00000000000E+00  0.00000000000E+00  0.11060827169E+03  0.11060827169E+03  0.00000000000E+00 0. -1.
          1   -1    0    0  501    0 -0.00000000000E+00 -0.00000000000E+00 -0.16082832511E+02  0.16082832511E+02  0.00000000000E+00 0. -1.
          2    1    1    2  501    0 -0.13806874871E+02 -0.15641443744E+02  0.10231529324E+03  0.10442080150E+03  0.00000000000E+00 0. -1.
          1    1    1    2  502    0  0.13806874871E+02  0.15641443744E+02 -0.77898540588E+01  0.22270302700E+02  0.00000000000E+00 0. -1.
</event>
<event>
 4    1  0.7416369E+003  0.3542313E+02  0.7546771E-02  0.1377613E+00
          2   -1    0    0  502    0  0.00000000000E+00  0.00000000000E+00  0.25649012245E+03  0.25649012245E+03  0.00000000000E+00 0. -1.
          1   -1    0    0  501    0 -0.00000000000E+00 -0.00000000000E+00 -0.46660252311E+03  0.46660252311E+03  0.00000000000E+00 0.  1.
          2    1    1    2  501    0 -0.13934851129E+02  0.32567130229E+02  0.25458977539E+03  0.25704231516E+03  0.00000000000E+00 0. -1.
          1    1    1    2  502    0  0.13934851129E+02 -0.32567130229E+02 -0.46470217605E+03  0.46605033041E+03  0.00000000000E+00 0.  1.
</event>
<event>
 4    1  0.7416369E+003  0.2193204E+02  0.7546771E-02  0.1506362E+00
          2   -1    0    0  502    0  0.00000000000E+00  0.00000000000E+00  0.41501876376E+01  0.41501876376E+01  0.00000000000E+00 0. -1.
          1   -1    0    0  501    0 -0.00000000000E+00 -0.00000000000E+00 -0.11590459445E+03  0.11590459445E+03  0.00000000000E+00 0. -1.
          2    1    1    2  501    0 -0.15314347068E+02 -0.15699830261E+02 -0.56176002504E+02  0.60305531701E+02  0.00000000000E+00 0. -1.
          1    1    1    2  502    0  0.15314347068E+02  0.15699830261E+02 -0.55578404309E+02  0.59749250387E+02  0.00000000000E+00 0. -1.
</event>
<event>
 4    1  0.7416369E+003  0.3043740E+02  0.7546771E-02  0.1415833E+00
          2   -1    0    0  502    0  0.00000000000E+00  0.00000000000E+00  0.53090240754E+01  0.53090240754E+01  0.00000000000E+00 0.  1.
          1   -1    0    0  501    0 -0.00000000000E+00 -0.00000000000E+00 -0.32590033742E+03  0.32590033742E+03  0.00000000000E+00 0.  1.
          2    1    1    2  501    0 -0.25836295524E+02 -0.16091026281E+02 -0.47422476138E+02  0.56350035814E+02  0.00000000000E+00 0.  1.
          1    1    1    2  502    0  0.25836295524E+02  0.16091026281E+02 -0.27316883720E+03  0.27485932568E+03  0.00000000000E+00 0.  1.
</event>
<event>
 4    1  0.7416369E+003  0.2329841E+02  0.7546771E-02  0.1488785E+00
          2   -1    0    0  502    0  0.00000000000E+00  0.00000000000E+00  0.32324572622E+03  0.32324572622E+03  0.00000000000E+00 0. -1.
          1   -1    0    0  501    0 -0.00000000000E+00 -0.00000000000E+00 -0.27619612182E+01  0.27619612182E+01  0.00000000000E+00 0.  1.
          2    1    1    2  501    0 -0.61740771980E+01  0.22465450726E+02  0.26229871259E+03  0.26333140780E+03  0.00000000000E+00 0. -1.
          1    1    1    2  502    0  0.61740771980E+01 -0.22465450726E+02  0.58185052410E+02  0.62676279641E+02  0.00000000000E+00 0.  1.
</event>
<event>
 4    1  0.7416369E+003  0.2098304E+02  0.7546771E-02  0.1519507E+00
          2   -1    0    0  502    0  0.00000000000E+00  0.00000000000E+00  0.13091709526E+04  0.13091709526E+04  0.00000000000E+00 0.  1.
          1   -1    0    0  501    0 -0.00000000000E+00 -0.00000000000E+00 -0.10088965716E+01  0.10088965716E+01  0.00000000000E+00 0.  1.
          2    1    1    2  501    0 -0.12198776911E+02 -0.17072717174E+02  0.11889551149E+04  0.11891402579E+04  0.00000000000E+00 0.  1.
          1    1    1    2  502    0  0.12198776911E+02  0.17072717174E+02  0.11920694108E+03  0.12103959118E+03  0.00000000000E+00 0.  1.
</event>
<event>
 4    1  0.7416369E+003  0.2907055E+02  0.7546771E-02  0.1427849E+00
          2   -1    0    0  502    0  0.00000000000E+00  0.00000000000E+00  0.85794602277E+03  0.85794602277E+03  0.00000000000E+00 0.  1.
          1   -1    0    0  501    0 -0.00000000000E+00 -0.00000000000E+00 -0.12432840988E+01  0.12432840988E+01  0.00000000000E+00 0.  1.
          2    1    1    2  501    0  0.16495692638E+01 -0.29023709515E+02  0.62414698031E+03  0.62482361497E+03  0.00000000000E+00 0.  1.
          1    1    1    2  502    0 -0.16495692638E+01  0.29023709515E+02  0.23255575837E+03  0.23436569190E+03  0.00000000000E+00 0.  1.
</event>
<event>
 4    1  0.7416369E+003  0.2342053E+02  0.7546771E-02  0.1487284E+00
          2   -1    0    0  502    0  0.00000000000E+00  0.00000000000E+00  0.16293190928E+04  0.16293190928E+04  0.00000000000E+00 0. -1.
          1   -1    0    0  501    0 -0.00000000000E+00 -0.00000000000E+00 -0.69680945062E+00  0.69680945062E+00  0.00000000000E+00 0. -1.
          2    1    1    2  501    0  0.16684769682E+02  0.16435922584E+02  0.14002445136E+04  0.14004403661E+04  0.00000000000E+00 0. -1.
          1    1    1    2  502    0 -0.16684769682E+02 -0.16435922584E+02  0.22837776976E+03  0.22957553618E+03  0.00000000000E+00 0. -1.
</event>
<event>
 4    1  0.7416369E+003  0.2153935E+02  0.7546771E-02  0.1511702E+00
          2   -1    0    0  502    0  0.00000000000E+00  0.00000000000E+00  0.31240857954E+02  0.31240857954E+02  0.00000000000E+00 0. -1.
          1   -1    0    0  501    0 -0.00000000000E+00 -0.00000000000E+00 -0.26348569165E+02  0.26348569165E+02  0.00000000000E+00 0. -1.
          2    1    1    2  501    0 -0.20557143540E+02 -0.64302009099E+01  0.21467695711E+02  0.30410616459E+02  0.00000000000E+00 0. -1.
          1    1    1    2  502    0  0.20557143540E+02  0.64302009099E+01 -0.16575406922E+02  0.27178810660E+02  0.00000000000E+00 0. -1.
</event>
<event>
 4    1  0.7416369E+003  0.2110802E+02  0.7546771E-02  0.1517728E+00
          2   -1    0    0  502    0  0.00000000000E+00  0.00000000000E+00  0.29356734760E+01  0.29356734760E+01  0.00000000000E+00 0. -1.
          1   -1    0    0  501    0 -0.00000000000E+00 -0.00000000000E+00 -0.88958474152E+03  0.88958474152E+03  0.00000000000E+00 0. -1.
          2    1    1    2  501    0  0.21975132499E+01 -0.20993321020E+02 -0.36911131626E+02  0.42520350773E+02  0.00000000000E+00 0. -1.
          1    1    1    2  502    0 -0.21975132499E+01  0.20993321020E+02 -0.84973793641E+03  0.85000006422E+03  0.00000000000E+00 0. -1.
</event>
<event>
 4    1  0.7416369E+003  0.2552233E+02  0.7546771E-02  0.1463044E+00
          2   -1    0    0  502    0  0.00000000000E+00  0.00000000000E+00  0.34601268820E+03  0.34601268820E+03  0.00000000000E+00 0. -1.
          1   -1    0    0  501    0 -0.00000000000E+00 -0.00000000000E+00 -0.95892655488E+01  0.95892655488E+01  0.00000000000E+00 0. -1.
          2    1    1    2  501    0  0.24673287718E+02  0.65282719243E+01  0.32760714226E+03  0.32859980085E+03  0.00000000000E+00 0. -1.
          1    1    1    2  502    0 -0.24673287718E+02 -0.65282719243E+01  0.88162803939E+01  0.27002152898E+02  0.00000000000E+00 0. -1.
</event>
<event>
 4    1  0.7416369E+003  0.4270063E+02  0.7546771E-02  0.1333348E+00
          2   -1    0    0  502    0  0.00000000000E+00  0.00000000000E+00  0.10100814351E+02  0.10100814351E+02  0.00000000000E+00 0. -1.
          1   -1    0    0  501    0 -0.00000000000E+00 -0.00000000000E+00 -0.58881419587E+03  0.58881419587E+03  0.00000000000E+00 0.  1.
          2    1    1    2  501    0 -0.10433392852E+02 -0.41406377129E+02 -0.39991644245E+02  0.58503635467E+02  0.00000000000E+00 0. -1.
          1    1    1    2  502    0  0.10433392852E+02  0.41406377129E+02 -0.53872173728E+03  0.54041137476E+03  0.00000000000E+00 0.  1.
</event>
<event>
 4    1  0.7416369E+003  0.2607356E+02  0.7546771E-02  0.1457143E+00
          2   -1    0    0  502    0  0.00000000000E+00  0.00000000000E+00  0.17494741531E+01  0.17494741531E+01  0.00000000000E+00 0.  1.
          1   -1    0    0  501    0 -0.00000000000E+00 -0.00000000000E+00 -0.86209505739E+03  0.86209505739E+03  0.00000000000E+00 0. -1.
          2    1    1    2  501    0  0.45821667010E+01 -0.25667768084E+02 -0.11006982829E+03  0.11311585950E+03  0.00000000000E+00 0.  1.
          1    1    1    2  502    0 -0.45821667010E+01  0.25667768084E+02 -0.75027575495E+03  0.75072867205E+03  0.00000000000E+00 0. -1.
</event>
<event>
 4    1  0.7416369E+003  0.2066769E+02  0.7546771E-02  0.1524063E+00
          2   -1    0    0  502    0  0.00000000000E+00  0.00000000000E+00  0.25560973133E+02  0.25560973133E+02  0.00000000000E+00 0. -1.
          1   -1    0    0  501    0 -0.00000000000E+00 -0.00000000000E+00 -0.54852512826E+03  0.54852512826E+03  0.00000000000E+00 0.  1.
          2    1    1    2  501    0 -0.20202543922E+02  0.43601009789E+01  0.21154683301E+02  0.29574886087E+02  0.00000000000E+00 0. -1.
          1    1    1    2  502    0  0.20202543922E+02 -0.43601009789E+01 -0.54411883843E+03  0.54451121530E+03  0.00000000000E+00 0.  1.
</event>
<event>
 4    1  0.7416369E+003  0.2178666E+02  0.7546771E-02  0.1508323E+00
          2   -1    0    0  502    0  0.00000000000E+00  0.00000000000E+00  0.50663310785E+03  0.50663310785E+03  0.00000000000E+00 0.  1.
          1   -1    0    0  501    0 -0.00000000000E+00 -0.00000000000E+00 -0.27239588474E+01  0.27239588474E+01  0.00000000000E+00 0.  1.
          2    1    1    2  501    0  0.15007304763E+02  0.15793649528E+02  0.45823733494E+03  0.45875496040E+03  0.00000000000E+00 0.  1.
          1    1    1    2  502    0 -0.15007304763E+02 -0.15793649528E+02  0.45671814065E+02  0.50602106297E+02  0.00000000000E+00 0.  1.
</event>
<event>
 4    1  0.7416369E+003  0.2046693E+02  0.7546771E-02  0.1527014E+00
          2   -1    0    0  502    0  0.00000000000E+00  0.00000000000E+00  0.13492411674E+02  0.13492411674E+02  0.00000000000E+00 0.  1.
          1   -1    0    0  501    0 -0.00000000000E+00 -0.00000000000E+00 -0.31135243499E+02  0.31135243499E+02  0.00000000000E+00 0.  1.
          2    1    1    2  501    0 -0.50116404338E+01  0.19843848787E+02 -0.10011350767E+02  0.22784249356E+02  0.00000000000E+00 0.  1.
          1    1    1    2  502    0  0.50116404338E+01 -0.19843848787E+02 -0.76314810579E+01  0.21843405817E+02  0.00000000000E+00 0.  1.
</event>
<event>
 4    1  0.7416369E+003  0.2127213E+02  0.7546771E-02  0.1515415E+00
          2   -1    0    0  502    0  0.00000000000E+00  0.00000000000E+00  0.49316489228E+01  0.49316489228E+01  0.00000000000E+00 0.  1.
          1   -1    0    0  501    0 -0.00000000000E+00 -0.00000000000E+00 -0.43506805063E+03  0.43506805063E+03  0.00000000000E+00 0.  1.
          2    1    1    2  501    0 -0.11364709619E+01 -0.21241745736E+02 -0.19639223244E+02  0.28951725644E+02  0.00000000000E+00 0.  1.
          1    1    1    2  502    0  0.11364709619E+01  0.21241745736E+02 -0.41049717846E+03  0.41104797391E+03  0.00000000000E+00 0.  1.
</event>
<event>
 4    1  0.7416369E+003  0.2255815E+02  0.7546771E-02  0.1498122E+00
          2   -1    0    0  502    0  0.00000000000E+00  0.00000000000E+00  0.14289291496E+04  0.14289291496E+04  0.00000000000E+00 0. -1.
          1   -1    0    0  501    0 -0.00000000000E+00 -0.00000000000E+00 -0.83376565834E+00  0.83376565834E+00  0.00000000000E+00 0. -1.
          2    1    1    2  501    0  0.18687631506E+02 -0.12634976884E+02  0.12551320259E+04  0.12553347253E+04  0.00000000000E+00 0. -1.
          1    1    1    2  502    0 -0.18687631506E+02  0.12634976884E+02  0.17296335806E+03  0.17442818993E+03  0.00000000000E+00 0. -1.
</event>
<event>
 4    1  0.7416369E+003  0.2199490E+02  0.7546771E-02  0.1505520E+00
          2   -1    0    0  502    0  0.00000000000E+00  0.00000000000E+00  0.12182106528E+03  0.12182106528E+03  0.00000000000E+00 0. -1.
          1   -1    0    0  501    0 -0.00000000000E+00 -0.00000000000E+00 -0.10224265786E+04  0.10224265786E+04  0.00000000000E+00 0.  1.
          2    1    1    2  501    0 -0.21677638741E+02  0.37223260629E+01  0.12070889338E+03  0.12269642486E+03  0.00000000000E+00 0. -1.
          1    1    1    2  502    0  0.21677638741E+02 -0.37223260629E+01 -0.10213144068E+04  0.10215512191E+04  0.00000000000E+00 0.  1.
</event>
<event>
 4    1  0.7416369E+003  0.2413015E+02  0.7546771E-02  0.1478774E+00
          2   -1    0    0  502    0  0.00000000000E+00  0.00000000000E+00  0.14697919812E+03  0.14697919812E+03  0.00000000000E+00 0.  1.
          1   -1    0    0  501    0 -0.00000000000E+00 -0.00000000000E+00 -0.92109383816E+03  0.92109383816E+03  0.00000000000E+00 0. -1.
          2    1    1    2  501    0 -0.21644102330E+00 -0.24129177437E+02  0.14582953948E+03  0.14781244412E+03  0.00000000000E+00 0.  1.
          1    1    1    2  502    0  0.21644102330E+00  0.24129177437E+02 -0.91994417952E+03  0.92026059216E+03  0.00000000000E+00 0. -1.
</event>
<event>
 4    1  0.7416369E+003  0.3084698E+02  0.7546771E-02  0.1412376E+00
          2   -1    0    0  502    0  0.00000000000E+00  0.00000000000E+00  0.13697386884E+01  0.13697386884E+01  0.00000000000E+00 0.  1.
          1   -1    0    0  501    0 -0.00000000000E+00 -0.00000000000E+00 -0.78978139906E+03  0.78978139906E+03  0.00000000000E+00 0.  1.
          2    1    1    2  501    0 -0.28277910680E+02 -0.12324618479E+02 -0.25694114240E+03  0.25878618029E+03  0.00000000000E+00 0.  1.
          1    1    1    2  502    0  0.28277910680E+02  0.12324618479E+02 -0.53147051797E+03  0.53236495745E+03  0.00000000000E+00 0.  1.
</event>
<event>
 4    1  0.7416369E+003  0.5007943E+02  0.7546771E-02  0.1297828E+00
          2   -1    0    0  502    0  0.00000000000E+00  0.00000000000E+00  0.14526715872E+03  0.14526715872E+03  0.00000000000E+00 0.  1.
          1   -1    0    0  501    0 -0.00000000000E+00 -0.00000000000E+00 -0.19887300343E+02  0.19887300343E+02  0.00000000000E+00 0.  1.
          2    1    1    2  501    0  0.45797873172E+02 -0.20260844579E+02  0.32700708393E+02  0.59810394912E+02  0.00000000000E+00 0.  1.
          1    1    1    2  502    0 -0.45797873172E+02  0.20260844579E+02  0.92679149983E+02  0.10534406415E+03  0.00000000000E+00 0.  1.
</event>
<event>
 4    1  0.7416369E+003  0.3496544E+02  0.7546771E-02  0.1380806E+00
          2   -1    0    0  502    0  0.00000000000E+00  0.00000000000E+00  0.39758121175E+02  0.39758121175E+02  0.00000000000E+00 0. -1.
          1   -1    0    0  501    0 -0.00000000000E+00 -0.00000000000E+00 -0.33594947452E+02  0.33594947452E+02  0.00000000000E+00 0. -1.
          2    1    1    2  501    0  0.27292517896E+02 -0.21856354100E+02  0.13753713056E+02  0.37573213470E+02  0.00000000000E+00 0. -1.
          1    1    1    2  502    0 -0.27292517896E+02  0.21856354100E+02 -0.75905393333E+01  0.35779855156E+02  0.00000000000E+00 0. -1.
</event>
<event>
 4    1  0.7416369E+003  0.4421361E+02  0.7546771E-02  0.1325419E+00
          2   -1    0    0  502    0  0.00000000000E+00  0.00000000000E+00  0.95121081446E+02  0.95121081446E+02  0.00000000000E+00 0. -1.
          1   -1    0    0  501    0 -0.00000000000E+00 -0.00000000000E+00 -0.24513966716E+02  0.24513966716E+02  0.00000000000E+00 0.  1.
          2    1    1    2  501    0 -0.42476220961E+02 -0.12272477569E+02  0.59354176290E+02  0.74011899691E+02  0.00000000000E+00 0. -1.
          1    1    1    2  502    0  0.42476220961E+02  0.12272477569E+02  0.11252938440E+02  0.45623148470E+02  0.00000000000E+00 0.  1.
</event>
<event>
 4    1  0.7416369E+003  0.2964574E+02  0.7546771E-02  0.1422700E+00
          2   -1    0    0  502    0  0.00000000000E+00  0.00000000000E+00  0.82782655126E+03  0.82782655126E+03  0.00000000000E+00 0.  1.
          1   -1    0    0  501    0 -0.00000000000E+00 -0.00000000000E+00 -0.54970708040E+01  0.54970708040E+01  0.00000000000E+00 0.  1.
          2    1    1    2  501    0  0.47055209085E+01  0.29269916486E+02  0.78543470847E+03  0.78599398930E+03  0.00000000000E+00 0.  1.
          1    1    1    2  502    0 -0.47055209085E+01 -0.29269916486E+02  0.36894771983E+02  0.47329632766E+02  0.00000000000E+00 0.  1.
</event>
<event>
 4    1  0.7416369E+003  0.2148284E+02  0.7546771E-02  0.1512482E+00
          2   -1    0    0  502    0  0.00000000000E+00  0.00000000000E+00  0.39640271422E+01  0.39640271422E+01  0.00000000000E+00 0. -1.
          1   -1    0    0  501    0 -0.00000000000E+00 -0.00000000000E+00 -0.14227174173E+03  0.14227174173E+03  0.00000000000E+00 0. -1.
          2    1    1    2  501    0 -0.20924070967E+02 -0.48678008838E+01 -0.37988909202E+02  0.43642518874E+02  0.00000000000E+00 0. -1.
          1    1    1    2  502    0  0.20924070967E+02  0.48678008838E+01 -0.10031880539E+03  0.10259325000E+03  0.00000000000E+00 0. -1.
</event>
<event>
 4    1  0.7416369E+003  0.3488684E+02  0.7546771E-02  0.1381360E+00
          2   -1    0    0  502    0  0.00000000000E+00  0.00000000000E+00  0.16075349312E+04  0.16075349312E+04  0.00000000000E+00 0. -1.
          1   -1    0    0  501    0 -0.00000000000E+00 -0.00000000000E+00 -0.18471946473E+01  0.18471946473E+01  0.00000000000E+00 0. -1.
          2    1    1    2  501    0  0.34879985065E+02 -0.69151577035E+00  0.14210048983E+04  0.14214330841E+04  0.00000000000E+00 0. -1.
          1    1    1    2  502    0 -0.34879985065E+02  0.69151577035E+00  0.18468283820E+03  0.18794904171E+03  0.00000000000E+00 0. -1.
</event>
<event>
 4    1  0.7416369E+003  0.2892068E+02  0.7546771E-02  0.1429213E+00
          2   -1    0    0  502    0  0.00000000000E+00  0.00000000000E+00  0.12052728875E+02  0.12052728875E+02  0.00000000000E+00 0. -1.
          1   -1    0    0  501    0 -0.00000000000E+00 -0.00000000000E+00 -0.96936234100E+02  0.96936234100E+02  0.00000000000E+00 0.  1.
          2    1    1    2  501    0 -0.54695639511E+01  0.28398757078E+02 -0.13395042133E+02  0.31872130257E+02  0.00000000000E+00 0. -1.
          1    1    1    2  502    0  0.54695639511E+01 -0.28398757078E+02 -0.71488463091E+02  0.77116832719E+02  0.00000000000E+00 0.  1.
</event>
<event>
 4    1  0.7416369E+003  0.3112731E+02  0.7546771E-02  0.1410047E+00
          2   -1    0    0  502    0  0.00000000000E+00  0.00000000000E+00  0.11587826478E+03  0.11587826478E+03  0.00000000000E+00 0. -1.
          1   -1    0    0  501    0 -0.00000000000E+00 -0.00000000000E+00 -0.18513549201E+04  0.18513549201E+04  0.00000000000E+00 0. -1.
          2    1    1    2  501    0 -0.28700081265E+02  0.12050500527E+02  0.11365455314E+03  0.11784000457E+03  0.00000000000E+00 0. -1.
          1    1    1    2  502    0  0.28700081265E+02 -0.12050500527E+02 -0.18491312085E+04  0.18493931803E+04  0.00000000000E+00 0. -1.
</event>
<event>
 4    1  0.7416369E+003  0.2212115E+02  0.7546771E-02  0.1503839E+00
          2   -1    0    0  502    0  0.00000000000E+00  0.00000000000E+00  0.16106157954E+02  0.16106157954E+02  0.00000000000E+00 0.  1.
          1   -1    0    0  501    0 -0.00000000000E+00 -0.00000000000E+00 -0.14721358274E+03  0.14721358274E+03  0.00000000000E+00 0. -1.
          2    1    1    2  501    0 -0.20204263929E+02  0.90073964115E+01  0.71930937698E+01  0.23261256824E+02  0.00000000000E+00 0.  1.
          1    1    1    2  502    0  0.20204263929E+02 -0.90073964115E+01 -0.13830051855E+03  0.14005848387E+03  0.00000000000E+00 0. -1.
</event>
<event>
 4    1  0.7416369E+003  0.3082294E+02  0.7546771E-02  0.1412577E+00
          2   -1    0    0  502    0  0.00000000000E+00  0.00000000000E+00  0.64233945301E+02  0.64233945301E+02  0.00000000000E+00 0. -1.
          1   -1    0    0  501    0 -0.00000000000E+00 -0.00000000000E+00 -0.54056592228E+02  0.54056592228E+02  0.00000000000E+00 0. -1.
          2    1    1    2  501    0  0.24366281867E+01 -0.30726474981E+02  0.55497250415E+02  0.63482267014E+02  0.00000000000E+00 0. -1.
          1    1    1    2  502    0 -0.24366281867E+01  0.30726474981E+02 -0.45319897342E+02  0.54808270514E+02  0.00000000000E+00 0. -1.
</event>
<event>
 4    1  0.7416369E+003  0.2146447E+02  0.7546771E-02  0.1512736E+00
          2   -1    0    0  502    0  0.00000000000E+00  0.00000000000E+00  0.61756326195E+03  0.61756326195E+03  0.00000000000E+00 0. -1.
          1   -1    0    0  501    0 -0.00000000000E+00 -0.00000000000E+00 -0.31579718939E+01  0.31579718939E+01  0.00000000000E+00 0.  1.
          2    1    1    2  501    0 -0.18916819954E+02  0.10142857796E+02  0.57843748326E+03  0.57883559469E+03  0.00000000000E+00 0. -1.
          1    1    1    2  502    0  0.18916819954E+02 -0.10142857796E+02  0.35967806792E+02  0.41885639149E+02  0.00000000000E+00 0.  1.
</event>
<event>
 4    1  0.7416369E+003  0.2051039E+02  0.7546771E-02  0.1526371E+00
          2   -1    0    0  502    0  0.00000000000E+00  0.00000000000E+00  0.10178351967E+02  0.10178351967E+02  0.00000000000E+00 0. -1.
          1   -1    0    0  501    0 -0.00000000000E+00 -0.00000000000E+00 -0.43961313836E+02  0.43961313836E+02  0.00000000000E+00 0. -1.
          2    1    1    2  501    0  0.20077370271E+02  0.41922742177E+01 -0.10269336113E+02  0.22937637724E+02  0.00000000000E+00 0. -1.
          1    1    1    2  502    0 -0.20077370271E+02 -0.41922742177E+01 -0.23513625755E+02  0.31202028080E+02  0.00000000000E+00 0. -1.
</event>
<event>
 4    1  0.7416369E+003  0.2123720E+02  0.7546771E-02  0.1515905E+00
          2   -1    0    0  502    0  0.00000000000E+00  0.00000000000E+00  0.40982390989E+03  0.40982390989E+03  0.00000000000E+00 0. -1.
          1   -1    0    0  501    0 -0.00000000000E+00 -0.00000000000E+00 -0.24900233792E+02  0.24900233792E+02  0.00000000000E+00 0. -1.
          2    1    1    2  501    0 -0.11651724333E+01 -0.21205211475E+02  0.40496624326E+03  0.40552272045E+03  0.00000000000E+00 0. -1.
          1    1    1    2  502    0  0.11651724333E+01  0.21205211475E+02 -0.20042567161E+02  0.29201423234E+02  0.00000000000E+00 0. -1.
</event>
<event>
 4    1  0.7416369E+003  0.3051751E+02  0.7546771E-02  0.1415152E+00
          2   -1    0    0  502    0  0.00000000000E+00  0.00000000000E+00  0.29530597087E+03  0.29530597087E+03  0.00000000000E+00 0. -1.
          1   -1    0    0  501    0 -0.00000000000E+00 -0.00000000000E+00 -0.19586933566E+03  0.19586933566E+03  0.00000000000E+00 0.  1.
          2    1    1    2  501    0  0.28886511066E+02  0.98431637557E+01  0.29332081388E+03  0.29490408313E+03  0.00000000000E+00 0. -1.
          1    1    1    2  502    0 -0.28886511066E+02 -0.98431637557E+01 -0.19388417867E+03  0.19627122339E+03  0.00000000000E+00 0.  1.
</event>
<event>
 4    1  0.7416369E+003  0.2142635E+02  0.7546771E-02  0.1513264E+00
          2   -1    0    0  502    0  0.00000000000E+00  0.00000000000E+00  0.48914215137E+00  0.48914215137E+00  0.00000000000E+00 0. -1.
          1   -1    0    0  501    0 -0.00000000000E+00 -0.00000000000E+00 -0.98977632604E+03  0.98977632604E+03  0.00000000000E+00 0. -1.
          2    1    1    2  501    0  0.32131645612E+01  0.21184056366E+02 -0.38201143351E+03  0.38261184509E+03  0.00000000000E+00 0. -1.
          1    1    1    2  502    0 -0.32131645612E+01 -0.21184056366E+02 -0.60727575037E+03  0.60765362310E+03  0.00000000000E+00 0. -1.
</event>
<event>
 4    1  0.7416369E+003  0.3277674E+02  0.7546771E-02  0.1396905E+00
          2   -1    0    0  502    0  0.00000000000E+00  0.00000000000E+00  0.72532328694E+03  0.72532328694E+03  0.00000000000E+00 0. -1.
          1   -1    0    0  501    0 -0.00000000000E+00 -0.00000000000E+00 -0.14968559456E+01  0.14968559456E+01  0.00000000000E+00 0.  1.
          2    1    1    2  501    0  0.28826574223E+02 -0.15599471101E+02  0.39913483591E+03  0.40047837909E+03  0.00000000000E+00 0. -1.
          1    1    1    2  502    0 -0.28826574223E+02  0.15599471101E+02  0.32469159509E+03  0.32634176380E+03  0.00000000000E+00 0.  1.
</event>
<event>
 4    1  0.7416369E+003  0.2075180E+02  0.7546771E-02  0.1522838E+00
          2   -1    0    0  502    0  0.00000000000E+00  0.00000000000E+00  0.47435571198E+01  0.47435571198E+01  0.00000000000E+00 0. -1.
          1   -1    0    0  501    0 -0.00000000000E+00 -0.00000000000E+00 -0.13878311213E+03  0.13878311213E+03  0.00000000000E+00 0. -1.
          2    1    1    2  501    0 -0.74087375280E+01 -0.19384216547E+02 -0.24815869957E+02  0.32349105778E+02  0.00000000000E+00 0. -1.
          1    1    1    2  502    0  0.74087375280E+01  0.19384216547E+02 -0.10922368505E+03  0.11117756347E+03  0.00000000000E+00 0. -1.
</event>
<event>
 4    1  0.7416369E+003  0.2178059E+02  0.7546771E-02  0.1508405E+00
          2   -1    0    0  502    0  0.00000000000E+00  0.00000000000E+00  0.55960997908E+01  0.55960997908E+01  0.00000000000E+00 0.  1.
          1   -1    0    0  501    0 -0.00000000000E+00 -0.00000000000E+00 -0.14620347337E+03  0.14620347337E+03  0.00000000000E+00 0. -1.
          2    1    1    2  501    0  0.15666660451E+02  0.15131092003E+02 -0.21104701024E+02  0.30328247562E+02  0.00000000000E+00 0.  1.
          1    1    1    2  502    0 -0.15666660451E+02 -0.15131092003E+02 -0.11950267255E+03  0.12147132560E+03  0.00000000000E+00 0. -1.
</event>
<event>
 4    1  0.7416369E+003  0.8327965E+02  0.7546771E-02  0.1196432E+00
          2   -1    0    0  502    0  0.00000000000E+00  0.00000000000E+00  0.70997847634E+03  0.70997847634E+03  0.00000000000E+00 0. -1.
          1   -1    0    0  501    0 -0.00000000000E+00 -0.00000000000E+00 -0.31143944333E+02  0.31143944333E+02  0.00000000000E+00 0.  1.
          2    1    1    2  501    0  0.65023141625E+02 -0.52033558338E+02  0.64641109512E+03  0.65175363753E+03  0.00000000000E+00 0. -1.
          1    1    1    2  502    0 -0.65023141625E+02  0.52033558338E+02  0.32423436879E+02  0.89368783135E+02  0.00000000000E+00 0.  1.
</event>
<event>
 4    1  0.7416369E+003  0.2065038E+02  0.7546771E-02  0.1524315E+00
          2   -1    0    0  502    0  0.00000000000E+00  0.00000000000E+00  0.13171425654E+04  0.13171425654E+04  0.00000000000E+00 0.  1.
          1   -1    0    0  501    0 -0.00000000000E+00 -0.00000000000E+00 -0.26773414347E+01  0.26773414347E+01  0.00000000000E+00 0. -1.
          2    1    1    2  501    0 -0.34639877465E+01  0.20357776225E+02  0.12759572368E+04  0.12761243311E+04  0.00000000000E+00 0.  1.
          1    1    1    2  502    0  0.34639877465E+01 -0.20357776225E+02  0.38507987166E+02  0.43695575742E+02  0.00000000000E+00 0. -1.
</event>
<event>
 4    1  0.7416369E+003  0.2221799E+02  0.7546771E-02  0.1502558E+00
          2   -1    0    0  502    0  0.00000000000E+00  0.00000000000E+00  0.11416792309E+03  0.11416792309E+03  0.00000000000E+00 0.  1.
          1   -1    0    0  501    0 -0.00000000000E+00 -0.00000000000E+00 -0.98120574317E+03  0.98120574317E+03  0.00000000000E+00 0.  1.
          2    1    1    2  501    0  0.17672449940E+02  0.13465640426E+02  0.11295986787E+03  0.11512415346E+03  0.00000000000E+00 0.  1.
          1    1    1    2  502    0 -0.17672449940E+02 -0.13465640426E+02 -0.97999768795E+03  0.98024951280E+03  0.00000000000E+00 0.  1.
</event>
<event>
 4    1  0.7416369E+003  0.2149479E+02  0.7546771E-02  0.1512316E+00
          2   -1    0    0  502    0  0.00000000000E+00  0.00000000000E+00  0.59258121420E+02  0.59258121420E+02  0.00000000000E+00 0. -1.
          1   -1    0    0  501    0 -0.00000000000E+00 -0.00000000000E+00 -0.24204032646E+03  0.24204032646E+03  0.00000000000E+00 0. -1.
          2    1    1    2  501    0 -0.24166344462E+00 -0.21493433341E+02  0.56811829484E+02  0.60742160377E+02  0.00000000000E+00 0. -1.
          1    1    1    2  502    0  0.24166344462E+00  0.21493433341E+02 -0.23959403453E+03  0.24055628751E+03  0.00000000000E+00 0. -1.
</event>
<event>
 4    1  0.7416369E+003  0.5196126E+02  0.7546771E-02  0.1289886E+00
          2   -1    0    0  502    0  0.00000000000E+00  0.00000000000E+00  0.19364036315E+04  0.19364036315E+04  0.00000000000E+00 0. -1.
          1   -1    0    0  501    0 -0.00000000000E+00 -0.00000000000E+00 -0.25454684161E+02  0.25454684161E+02  0.00000000000E+00 0. -1.
          2    1    1    2  501    0  0.51612265984E+02 -0.60121851446E+01  0.19091592664E+04  0.19098662458E+04  0.00000000000E+00 0. -1.
          1    1    1    2  502    0 -0.51612265984E+02  0.60121851446E+01  0.17896809367E+01  0.51992069857E+02  0.00000000000E+00 0. -1.
</event>
<event>
 4    1  0.7416369E+003  0.2668175E+02  0.7546771E-02  0.1450831E+00
          2   -1    0    0  502    0  0.00000000000E+00  0.00000000000E+00  0.37591012404E+01  0.37591012404E+01  0.00000000000E+00 0. -1.
          1   -1    0    0  501    0 -0.00000000000E+00 -0.00000000000E+00 -0.62042004783E+03  0.62042004783E+03  0.00000000000E+00 0. -1.
          2    1    1    2  501    0  0.58485298861E+01 -0.26032877885E+02 -0.48199046140E+02  0.55091415680E+02  0.00000000000E+00 0. -1.
          1    1    1    2  502    0 -0.58485298861E+01  0.26032877885E+02 -0.56846190045E+03  0.56908773339E+03  0.00000000000E+00 0. -1.
</event>
<event>
 4    1  0.7416369E+003  0.2166598E+02  0.7546771E-02  0.1509965E+00
          2   -1    0    0  502    0  0.00000000000E+00  0.00000000000E+00  0.49546257073E+01  0.49546257073E+01  0.00000000000E+00 0. -1.
          1   -1    0    0  501    0 -0.00000000000E+00 -0.00000000000E+00 -0.11110522760E+03  0.11110522760E+03  0.00000000000E+00 0. -1.
          2    1    1    2  501    0  0.21660562942E+02  0.48456120259E+00 -0.30805849621E+02  0.37661852814E+02  0.00000000000E+00 0. -1.
          1    1    1    2  502    0 -0.21660562942E+02 -0.48456120259E+00 -0.75344752276E+02  0.78398000498E+02  0.00000000000E+00 0. -1.
</event>
<event>
 4    1  0.7416369E+003  0.2905164E+02  0.7546771E-02  0.1428020E+00
          2   -1    0    0  502    0  0.00000000000E+00  0.00000000000E+00  0.85835697597E+01  0.85835697597E+01  0.00000000000E+00 0.  1.
          1   -1    0    0  501    0 -0.00000000000E+00 -0.00000000000E+00 -0.18025271861E+03  0.18025271861E+03  0.00000000000E+00 0.  1.
          2    1    1    2  501    0  0.22475523110E+02  0.18407846188E+02 -0.22180781973E+02  0.36551128974E+02  0.00000000000E+00 0.  1.
          1    1    1    2  502    0 -0.22475523110E+02 -0.18407846188E+02 -0.14948836687E+03  0.15228515939E+03  0.00000000000E+00 0.  1.
</event>
<event>
 4    1  0.7416369E+003  0.2066916E+02  0.7546771E-02  0.1524041E+00
          2   -1    0    0  502    0  0.00000000000E+00  0.00000000000E+00  0.15322939504E+04  0.15322939504E+04  0.00000000000E+00 0. -1.
          1   -1    0    0  501    0 -0.00000000000E+00 -0.00000000000E+00 -0.12877521306E+01  0.12877521306E+01  0.00000000000E+00 0. -1.
          2    1    1    2  501    0 -0.18923050324E+02 -0.83145796091E+01  0.14442292587E+04  0.14443771549E+04  0.00000000000E+00 0. -1.
          1    1    1    2  502    0  0.18923050324E+02  0.83145796091E+01  0.86776939637E+02  0.89204547644E+02  0.00000000000E+00 0. -1.
</event>
<event>
 4    1  0.7416369E+003  0.2031519E+02  0.7546771E-02  0.1529271E+00
          2   -1    0    0  502    0  0.00000000000E+00  0.00000000000E+00  0.15031227053E+04  0.15031227053E+04  0.00000000000E+00 0.  1.
          1   -1    0    0  501    0 -0.00000000000E+00 -0.00000000000E+00 -0.54976066295E+00  0.54976066295E+00  0.00000000000E+00 0.  1.
          2    1    1    2  501    0  0.11129723402E+02 -0.16995184940E+02  0.12832184205E+04  0.12833792198E+04  0.00000000000E+00 0.  1.
          1    1    1    2  502    0 -0.11129723402E+02  0.16995184940E+02  0.21935452412E+03  0.22029324617E+03  0.00000000000E+00 0.  1.
</event>
<event>
 4    1  0.7416369E+003  0.2074405E+02  0.7546771E-02  0.1522951E+00
          2   -1    0    0  502    0  0.00000000000E+00  0.00000000000E+00  0.77342438250E+02  0.77342438250E+02  0.00000000000E+00 0. -1.
          1   -1    0    0  501    0 -0.00000000000E+00 -0.00000000000E+00 -0.10692334577E+02  0.10692334577E+02  0.00000000000E+00 0. -1.
          2    1    1    2  501    0  0.19360699945E+02 -0.74484108822E+01  0.63810030981E+02  0.67097209933E+02  0.00000000000E+00 0. -1.
          1    1    1    2  502    0 -0.19360699945E+02  0.74484108822E+01  0.28400726922E+01  0.20937562894E+02  0.00000000000E+00 0. -1.
</event>
<event>
 4    1  0.7416369E+003  0.2316421E+02  0.7546771E-02  0.1490446E+00
          2   -1    0    0  502    0  0.00000000000E+00  0.00000000000E+00  0.52360074861E+03  0.52360074861E+03  0.00000000000E+00 0. -1.
          1   -1    0    0  501    0 -0.00000000000E+00 -0.00000000000E+00 -0.26079257079E+01  0.26079257079E+01  0.00000000000E+00 0.  1.
          2    1    1    2  501    0  0.10462054965E+02  0.20667027248E+02  0.46548964439E+03  0.46606564950E+03  0.00000000000E+00 0. -1.
          1    1    1    2  502    0 -0.10462054965E+02 -0.20667027248E+02  0.55503178516E+02  0.60143024822E+02  0.00000000000E+00 0.  1.
</event>
<event>
 4    1  0.7416369E+003  0.8844356E+02  0.7546771E-02  0.1185496E+00
          2   -1    0    0  502    0  0.00000000000E+00  0.00000000000E+00  0.18385991514E+04  0.18385991514E+04  0.00000000000E+00 0.  1.
          1   -1    0    0  501    0 -0.00000000000E+00 -0.00000000000E+00 -0.22052524851E+02  0.22052524851E+02  0.00000000000E+00 0. -1.
          2    1    1    2  501    0  0.86671073810E+02  0.17617854624E+02  0.17440537484E+04  0.17462948609E+04  0.00000000000E+00 0.  1.
          1    1    1    2  502    0 -0.86671073810E+02 -0.17617854624E+02  0.72492878122E+02  0.11435681534E+03  0.00000000000E+00 0. -1.
</event>
<event>
 4    1  0.7416369E+003  0.2927210E+02  0.7546771E-02  0.1426029E+00
          2   -1    0    0  502    0  0.00000000000E+00  0.00000000000E+00  0.77416662942E+00  0.77416662942E+00  0.00000000000E+00 0. -1.
          1   -1    0    0  501    0 -0.00000000000E+00 -0.00000000000E+00 -0.13024825641E+04  0.13024825641E+04  0.00000000000E+00 0. -1.
          2    1    1    2  501    0  0.13965469934E+02 -0.25725886242E+02 -0.39828598424E+03  0.39936021437E+03  0.00000000000E+00 0. -1.
          1    1    1    2  502    0 -0.13965469934E+02  0.25725886242E+02 -0.90342241318E+03  0.90389651631E+03  0.00000000000E+00 0. -1.
</event>
<event>
 4    1  0.7416369E+003  0.2254706E+02  0.7546771E-02  0.1498265E+00
          2   -1    0    0  502    0  0.00000000000E+00  0.00000000000E+00  0.18389661256E+02  0.18389661256E+02  0.00000000000E+00 0.  1.
          1   -1    0    0  501    0 -0.00000000000E+00 -0.00000000000E+00 -0.14063721461E+03  0.14063721461E+03  0.00000000000E+00 0.  1.
          2    1    1    2  501    0  0.16331496528E+02 -0.15545162588E+02  0.10147731971E+02  0.24725418559E+02  0.00000000000E+00 0.  1.
          1    1    1    2  502    0 -0.16331496528E+02  0.15545162588E+02 -0.13239528532E+03  0.13430145730E+03  0.00000000000E+00 0.  1.
</event>
<event>
 4    1  0.7416369E+003  0.3014705E+02  0.7546771E-02  0.1418323E+00
          2   -1    0    0  502    0  0.00000000000E+00  0.00000000000E+00  0.84791508477E+00  0.84791508477E+00  0.00000000000E+00 0. -1.
          1   -1    0    0  501    0 -0.00000000000E+00 -0.00000000000E+00 -0.12978611863E+04  0.12978611863E+04  0.00000000000E+00 0. -1.
          2    1    1    2  501    0 -0.82780225908E+01  0.28988257435E+02 -0.37753435557E+03  0.37873610122E+03  0.00000000000E+00 0. -1.
          1    1    1    2  502    0  0.82780225908E+01 -0.28988257435E+02 -0.91947891564E+03  0.91997300016E+03  0.00000000000E+00 0. -1.
</event>
<event>
 4    1  0.7416369E+003  0.2365714E+02  0.7546771E-02  0.1484407E+00
          2   -1    0    0  502    0  0.00000000000E+00  0.00000000000E+00  0.77512261398E+02  0.77512261398E+02  0.00000000000E+00 0. -1.
          1   -1    0    0  501    0 -0.00000000000E+00 -0.00000000000E+00 -0.56709107583E+02  0.56709107583E+02  0.00000000000E+00 0. -1.
          2    1    1    2  501    0  0.21032854416E+02  0.10829551356E+02  0.73094547598E+02  0.76827553886E+02  0.00000000000E+00 0. -1.
          1    1    1    2  502    0 -0.21032854416E+02 -0.10829551356E+02 -0.52291393783E+02  0.57393815096E+02  0.00000000000E+00 0. -1.
</event>
<event>
 4    1  0.7416369E+003  0.2036722E+02  0.7546771E-02  0.1528494E+00
          2   -1    0    0  502    0  0.00000000000E+00  0.00000000000E+00  0.15708313320E+02  0.15708313320E+02  0.00000000000E+00 0. -1.
          1   -1    0    0  501    0 -0.00000000000E+00 -0.00000000000E+00 -0.15729202041E+03  0.15729202041E+03  0.00000000000E+00 0.  1.
          2    1    1    2  501    0 -0.93634684948E+01  0.18087263343E+02  0.81136093091E+01  0.21923829354E+02  0.00000000000E+00 0. -1.
          1    1    1    2  502    0  0.93634684948E+01 -0.18087263343E+02 -0.14969731640E+03  0.15107650438E+03  0.00000000000E+00 0.  1.
</event>
<event>
 4    1  0.7416369E+003  0.2844866E+02  0.7546771E-02  0.1433575E+00
          2   -1    0    0  502    0  0.00000000000E+00  0.00000000000E+00  0.32255358923E+01  0.32255358923E+01  0.00000000000E+00 0. -1.
          1   -1    0    0  501    0 -0.00000000000E+00 -0.00000000000E+00 -0.86192562309E+03  0.86192562309E+03  0.00000000000E+00 0.  1.
          2    1    1    2  501    0  0.21880656158E+02 -0.18181398291E+02 -0.65139534906E+02  0.71080836837E+02  0.00000000000E+00 0. -1.
          1    1    1    2  502    0 -0.21880656158E+02  0.18181398291E+02 -0.79356055229E+03  0.79407032214E+03  0.00000000000E+00 0.  1.
</event>
<event>
 4    1  0.7416369E+003  0.2152674E+02  0.7546771E-02  0.1511876E+00
          2   -1    0    0  502    0  0.00000000000E+00  0.00000000000E+00  0.68144986323E+03  0.68144986323E+03  0.00000000000E+00 0.  1.
          1   -1    0    0  501    0 -0.00000000000E+00 -0.00000000000E+00 -0.78558050629E+02  0.78558050629E+02  0.00000000000E+00 0.  1.
          2    1    1    2  501    0  0.15475691600E+02 -0.14963409512E+02  0.67980157534E+03  0.68014232517E+03  0.00000000000E+00 0.  1.
          1    1    1    2  502    0 -0.15475691600E+02  0.14963409512E+02 -0.76909762729E+02  0.79865588696E+02  0.00000000000E+00 0.  1.
</event>
<event>
 4    1  0.7416369E+003  0.2137390E+02  0.7546771E-02  0.1513993E+00
          2   -1    0    0  502    0  0.00000000000E+00  0.00000000000E+00  0.45205190303E+03  0.45205190303E+03  0.00000000000E+00 0. -1.
          1   -1    0    0  501    0 -0.00000000000E+00 -0.00000000000E+00 -0.45423412673E+02  0.45423412673E+02  0.00000000000E+00 0. -1.
          2    1    1    2  501    0  0.20760428804E+02 -0.50841235244E+01  0.44926932636E+03  0.44977746867E+03  0.00000000000E+00 0. -1.
          1    1    1    2  502    0 -0.20760428804E+02  0.50841235244E+01 -0.42640836005E+02  0.47697847030E+02  0.00000000000E+00 0. -1.
</event>
<event>
 4    1  0.7416369E+003  0.2049094E+02  0.7546771E-02  0.1526658E+00
          2   -1    0    0  502    0  0.00000000000E+00  0.00000000000E+00  0.13789121542E+04  0.13789121542E+04  0.00000000000E+00 0.  1.
          1   -1    0    0  501    0 -0.00000000000E+00 -0.00000000000E+00 -0.35736210748E+02  0.35736210748E+02  0.00000000000E+00 0. -1.
          2    1    1    2  501    0 -0.10601304187E+02 -0.17535421982E+02  0.13758922349E+04  0.13760448106E+04  0.00000000000E+00 0.  1.
          1    1    1    2  502    0  0.10601304187E+02  0.17535421982E+02 -0.32716291510E+02  0.38603554302E+02  0.00000000000E+00 0. -1.
</event>
<event>
 4    1  0.7416369E+003  0.2014711E+02  0.7546771E-02  0.1531799E+00
          2   -1    0    0  502    0  0.00000000000E+00  0.00000000000E+00  0.61239296909E+01  0.61239296909E+01  0.00000000000E+00 0. -1.
          1   -1    0    0  501    0 -0.00000000000E+00 -0.00000000000E+00 -0.99731901366E+02  0.99731901366E+02  0.00000000000E+00 0. -1.
          2    1    1    2  501    0  0.60900783568E+01 -0.19204611695E+02 -0.16151527320E+02  0.25822044836E+02  0.00000000000E+00 0. -1.
          1    1    1    2  502    0 -0.60900783568E+01  0.19204611695E+02 -0.77456444355E+02  0.80033786221E+02  0.00000000000E+00 0. -1.
</event>
<event>
 4    1  0.7416369E+003  0.2089578E+02  0.7546771E-02  0.1520758E+00
          2   -1    0    0  502    0  0.00000000000E+00  0.00000000000E+00  0.55843037262E+02  0.55843037262E+02  0.00000000000E+00 0.  1.
          1   -1    0    0  501    0 -0.00000000000E+00 -0.00000000000E+00 -0.47912222703E+02  0.47912222703E+02  0.00000000000E+00 0.  1.
          2    1    1    2  501    0  0.12517171379E+02 -0.16731827206E+02  0.51421584421E+02  0.55505071528E+02  0.00000000000E+00 0.  1.
          1    1    1    2  502    0 -0.12517171379E+02  0.16731827206E+02 -0.43490769862E+02  0.48250188436E+02  0.00000000000E+00 0.  1.
</event>
<event>
 4    1  0.7416369E+003  0.2196058E+02  0.7546771E-02  0.1505980E+00
          2   -1    0    0  502    0  0.00000000000E+00  0.00000000000E+00  0.12191677334E+04  0.12191677334E+04  0.00000000000E+00 0. -1.
          1   -1    0    0  501    0 -0.00000000000E+00 -0.00000000000E+00 -0.99244512320E+02  0.99244512320E+02  0.00000000000E+00 0.  1.
          2    1    1    2  501    0  0.12644628379E+02  0.17954953244E+02  0.12178526836E+04  0.12180506664E+04  0.00000000000E+00 0. -1.
          1    1    1    2  502    0 -0.12644628379E+02 -0.17954953244E+02 -0.97929462522E+02  0.10036157931E+03  0.00000000000E+00 0.  1.
</event>
<event>
 4    1  0.7416369E+003  0.2568723E+02  0.7546771E-02  0.1461260E+00
          2   -1    0    0  502    0  0.00000000000E+00  0.00000000000E+00  0.45068866077E+02  0.45068866077E+02  0.00000000000E+00 0. -1.
          1   -1    0    0  501    0 -0.00000000000E+00 -0.00000000000E+00 -0.54427325722E+03  0.54427325722E+03  0.00000000000E+00 0. -1.
          2    1    1    2  501    0  0.52601441998E+01  0.25142886881E+02  0.41078626816E+02  0.48448812770E+02  0.00000000000E+00 0. -1.
          1    1    1    2  502    0 -0.52601441998E+01 -0.25142886881E+02 -0.54028301796E+03  0.54089331052E+03  0.00000000000E+00 0. -1.
</event>
<event>
 4    1  0.7416369E+003  0.2883532E+02  0.7546771E-02  0.1429995E+00
          2   -1    0    0  502    0  0.00000000000E+00  0.00000000000E+00  0.40776081441E+03  0.40776081441E+03  0.00000000000E+00 0.  1.
          1   -1    0    0  501    0 -0.00000000000E+00 -0.00000000000E+00 -0.90831375030E+01  0.90831375030E+01  0.00000000000E+00 0.  1.
          2    1    1    2  501    0 -0.28811817085E+02 -0.11640666576E+01  0.38288088905E+03  0.38396516907E+03  0.00000000000E+00 0.  1.
          1    1    1    2  502    0  0.28811817085E+02  0.11640666576E+01  0.15796787855E+02  0.32878782847E+02  0.00000000000E+00 0.  1.
</event>
<event>
 4    1  0.7416369E+003  0.2171523E+02  0.7546771E-02  0.1509294E+00
          2   -1    0    0  502    0  0.00000000000E+00  0.00000000000E+00  0.70309003964E+03  0.70309003964E+03  0.00000000000E+00 0. -1.
          1   -1    0    0  501    0 -0.00000000000E+00 -0.00000000000E+00 -0.21566309379E+01  0.21566309379E+01  0.00000000000E+00 0.  1.
          2    1    1    2  501    0  0.25324016953E+01  0.21567057539E+02  0.64316812335E+03  0.64353460352E+03  0.00000000000E+00 0. -1.
          1    1    1    2  502    0 -0.25324016953E+01 -0.21567057539E+02  0.57765285356E+02  0.61712067065E+02  0.00000000000E+00 0.  1.
</event>
<event>
 4    1  0.7416369E+003  0.2143572E+02  0.7546771E-02  0.1513134E+00
          2   -1    0    0  502    0  0.00000000000E+00  0.00000000000E+00  0.37138524658E+01  0.37138524658E+01  0.00000000000E+00 0.  1.
          1   -1    0    0  501    0 -0.00000000000E+00 -0.00000000000E+00 -0.74735860391E+03  0.74735860391E+03  0.00000000000E+00 0. -1.
          2    1    1    2  501    0 -0.13613669633E+01  0.21392449511E+02 -0.28776142918E+02  0.35882539170E+02  0.00000000000E+00 0.  1.
          1    1    1    2  502    0  0.13613669633E+01 -0.21392449511E+02 -0.71486860853E+03  0.71518991721E+03  0.00000000000E+00 0. -1.
</event>
<event>
 4    1  0.7416369E+003  0.2448102E+02  0.7546771E-02  0.1474694E+00
          2   -1    0    0  502    0  0.00000000000E+00  0.00000000000E+00  0.13021685074E+03  0.13021685074E+03  0.00000000000E+00 0.  1.
          1   -1    0    0  501    0 -0.00000000000E+00 -0.00000000000E+00 -0.13790782160E+02  0.13790782160E+02  0.00000000000E+00 0. -1.
          2    1    1    2  501    0  0.97107429632E+01 -0.22472687237E+02  0.11698615439E+03  0.11952020967E+03  0.00000000000E+00 0.  1.
          1    1    1    2  502    0 -0.97107429632E+01  0.22472687237E+02 -0.56008580517E+00  0.24487423235E+02  0.00000000000E+00 0. -1.
</event>
<event>
 4    1  0.7416369E+003  0.2311689E+02  0.7546771E-02  0.1491036E+00
          2   -1    0    0  502    0  0.00000000000E+00  0.00000000000E+00  0.14748541032E+04  0.14748541032E+04  0.00000000000E+00 0. -1.
          1   -1    0    0  501    0 -0.00000000000E+00 -0.00000000000E+00 -0.34596434138E+02  0.34596434138E+02  0.00000000000E+00 0.  1.
          2    1    1    2  501    0 -0.76648194202E+01  0.21809197753E+02  0.14708915156E+04  0.14710731597E+04  0.00000000000E+00 0. -1.
          1    1    1    2  502    0  0.76648194202E+01 -0.21809197753E+02 -0.30633846511E+02  0.38377377652E+02  0.00000000000E+00 0.  1.
</event>
<event>
 4    1  0.7416369E+003  0.4116775E+02  0.7546771E-02  0.1341775E+00
          2   -1    0    0  502    0  0.00000000000E+00  0.00000000000E+00  0.33279520196E+01  0.33279520196E+01  0.00000000000E+00 0.  1.
          1   -1    0    0  501    0 -0.00000000000E+00 -0.00000000000E+00 -0.10503757201E+04  0.10503757201E+04  0.00000000000E+00 0. -1.
          2    1    1    2  501    0  0.46763918012E+01 -0.40901288320E+02 -0.14537545578E+03  0.15109204866E+03  0.00000000000E+00 0.  1.
          1    1    1    2  502    0 -0.46763918012E+01  0.40901288320E+02 -0.90167231231E+03  0.90261162347E+03  0.00000000000E+00 0. -1.
</event>
<event>
 4    1  0.7416369E+003  0.2538174E+02  0.7546771E-02  0.1464578E+00
          2   -1    0    0  502    0  0.00000000000E+00  0.00000000000E+00  0.99691239757E+03  0.99691239757E+03  0.00000000000E+00 0. -1.
          1   -1    0    0  501    0 -0.00000000000E+00 -0.00000000000E+00 -0.53546430944E+01  0.53546430944E+01  0.00000000000E+00 0. -1.
          2    1    1    2  501    0  0.14519030885E+02 -0.20818992615E+02  0.96570064201E+03  0.96603414158E+03  0.00000000000E+00 0. -1.
          1    1    1    2  502    0 -0.14519030885E+02  0.20818992615E+02  0.25857112467E+02  0.36232899091E+02  0.00000000000E+00 0. -1.
</event>
<event>
 4    1  0.7416369E+003  0.2438282E+02  0.7546771E-02  0.1475828E+00
          2   -1    0    0  502    0  0.00000000000E+00  0.00000000000E+00  0.13115964149E+04  0.13115964149E+04  0.00000000000E+00 0. -1.
          1   -1    0    0  501    0 -0.00000000000E+00 -0.00000000000E+00 -0.52352307946E+00  0.52352307946E+00  0.00000000000E+00 0.  1.
          2    1    1    2  501    0  0.19911225805E+02  0.14073557343E+02  0.89584755272E+03  0.89617931222E+03  0.00000000000E+00 0. -1.
          1    1    1    2  502    0 -0.19911225805E+02 -0.14073557343E+02  0.41522533908E+03  0.41594062574E+03  0.00000000000E+00 0.  1.
</event>
<event>
 4    1  0.7416369E+003  0.3344274E+02  0.7546771E-02  0.1391854E+00
          2   -1    0    0  502    0  0.00000000000E+00  0.00000000000E+00  0.53555469739E+02  0.53555469739E+02  0.00000000000E+00 0. -1.
          1   -1    0    0  501    0 -0.00000000000E+00 -0.00000000000E+00 -0.70701299883E+02  0.70701299883E+02  0.00000000000E+00 0. -1.
          2    1    1    2  501    0 -0.70747088341E+01  0.32685861972E+02  0.43578888656E+02  0.54932109139E+02  0.00000000000E+00 0. -1.
          1    1    1    2  502    0  0.70747088341E+01 -0.32685861972E+02 -0.60724718799E+02  0.69324660484E+02  0.00000000000E+00 0. -1.
</event>
<event>
 4    1  0.7416369E+003  0.2118636E+02  0.7546771E-02  0.1516621E+00
          2   -1    0    0  502    0  0.00000000000E+00  0.00000000000E+00  0.10904950308E+04  0.10904950308E+04  0.00000000000E+00 0. -1.
          1   -1    0    0  501    0 -0.00000000000E+00 -0.00000000000E+00 -0.11339683620E+01  0.11339683620E+01  0.00000000000E+00 0. -1.
          2    1    1    2  501    0  0.13700212144E+02  0.16160629844E+02  0.98031285277E+03  0.98054176406E+03  0.00000000000E+00 0. -1.
          1    1    1    2  502    0 -0.13700212144E+02 -0.16160629844E+02  0.10904820969E+03  0.11108723512E+03  0.00000000000E+00 0. -1.
</event>
<event>
 4    1  0.7416369E+003  0.2298011E+02  0.7546771E-02  0.1492748E+00
          2   -1    0    0  502    0  0.00000000000E+00  0.00000000000E+00  0.54730279554E+00  0.54730279554E+00  0.00000000000E+00 0.  1.
          1   -1    0    0  501    0 -0.00000000000E+00 -0.00000000000E+00 -0.17846521813E+04  0.17846521813E+04  0.00000000000E+00 0.  1.
          2    1    1    2  501    0 -0.58553401002E+01  0.22221624955E+02 -0.28709535557E+03  0.28801359137E+03  0.00000000000E+00 0.  1.
          1    1    1    2  502    0  0.58553401002E+01 -0.22221624955E+02 -0.14970095229E+04  0.14971858927E+04  0.00000000000E+00 0.  1.
</event>
<event>
 4    1  0.7416369E+003  0.2006040E+02  0.7546771E-02  0.1533114E+00
          2   -1    0    0  502    0  0.00000000000E+00  0.00000000000E+00  0.17390874915E+01  0.17390874915E+01  0.00000000000E+00 0.  1.
          1   -1    0    0  501    0 -0.00000000000E+00 -0.00000000000E+00 -0.14356384356E+04  0.14356384356E+04  0.00000000000E+00 0.  1.
          2    1    1    2  501    0  0.17089408759E+02  0.10505788037E+02 -0.58723550725E+02  0.62055417844E+02  0.00000000000E+00 0.  1.
          1    1    1    2  502    0 -0.17089408759E+02 -0.10505788037E+02 -0.13751757974E+04  0.13753221053E+04  0.00000000000E+00 0.  1.
</event>
<event>
 4    1  0.7416369E+003  0.2537100E+02  0.7546771E-02  0.1464696E+00
          2   -1    0    0  502    0  0.00000000000E+00  0.00000000000E+00  0.86333332438E+03  0.86333332438E+03  0.00000000000E+00 0.  1.
          1   -1    0    0  501    0 -0.00000000000E+00 -0.00000000000E+00 -0.13465194344E+01  0.13465194344E+01  0.00000000000E+00 0. -1.
          2    1    1    2  501    0  0.18794203368E+02  0.17043045000E+02  0.71981718700E+03  0.72026416693E+03  0.00000000000E+00 0.  1.
          1    1    1    2  502    0 -0.18794203368E+02 -0.17043045000E+02  0.14216961794E+03  0.14441567688E+03  0.00000000000E+00 0. -1.
</event>
<event>
 4    1  0.7416369E+003  0.2099308E+02  0.7546771E-02  0.1519364E+00
          2   -1    0    0  502    0  0.00000000000E+00  0.00000000000E+00  0.17989057424E+03  0.17989057424E+03  0.00000000000E+00 0. -1.
          1   -1    0    0  501    0 -0.00000000000E+00 -0.00000000000E+00 -0.24775871602E+01  0.24775871602E+01  0.00000000000E+00 0. -1.
          2    1    1    2  501    0  0.37199714194E+01  0.20660860754E+02  0.98350169828E+02  0.10056572607E+03  0.00000000000E+00 0. -1.
          1    1    1    2  502    0 -0.37199714194E+01 -0.20660860754E+02  0.79062817251E+02  0.81802435332E+02  0.00000000000E+00 0. -1.
</event>
<event>
 4    1  0.7416369E+003  0.2200327E+02  0.7546771E-02  0.1505408E+00
          2   -1    0    0  502    0  0.00000000000E+00  0.00000000000E+00  0.78425508508E+02  0.78425508508E+02  0.00000000000E+00 0.  1.
          1   -1    0    0  501    0 -0.00000000000E+00 -0.00000000000E+00 -0.36071480125E+02  0.36071480125E+02  0.00000000000E+00 0.  1.
          2    1    1    2  501    0  0.18332637464E+02  0.12167922819E+02  0.73297023836E+02  0.76528410707E+02  0.00000000000E+00 0.  1.
          1    1    1    2  502    0 -0.18332637464E+02 -0.12167922819E+02 -0.30942995453E+02  0.37968577926E+02  0.00000000000E+00 0.  1.
</event>
<event>
 4    1  0.7416369E+003  0.2084543E+02  0.7546771E-02  0.1521483E+00
          2   -1    0    0  502    0  0.00000000000E+00  0.00000000000E+00  0.30111796025E+03  0.30111796025E+03  0.00000000000E+00 0. -1.
          1   -1    0    0  501    0 -0.00000000000E+00 -0.00000000000E+00 -0.54915023967E+01  0.54915023967E+01  0.00000000000E+00 0.  1.
          2    1    1    2  501    0 -0.61996954863E+01  0.19902149771E+02  0.27944291988E+03  0.28021933777E+03  0.00000000000E+00 0. -1.
          1    1    1    2  502    0  0.61996954863E+01 -0.19902149771E+02  0.16183537973E+02  0.26390124875E+02  0.00000000000E+00 0.  1.
</event>
<event>
 4    1  0.7416369E+003  0.2040089E+02  0.7546771E-02  0.1527993E+00
          2   -1    0    0  502    0  0.00000000000E+00  0.00000000000E+00  0.76752765372E+03  0.76752765372E+03  0.00000000000E+00 0.  1.
          1   -1    0    0  501    0 -0.00000000000E+00 -0.00000000000E+00 -0.48854416568E+03  0.48854416568E+03  0.00000000000E+00 0. -1.
          2    1    1    2  501    0  0.46255772477E+01  0.19869579207E+02  0.76717901531E+03  0.76745021837E+03  0.00000000000E+00 0.  1.
          1    1    1    2  502    0 -0.46255772477E+01 -0.19869579207E+02 -0.48819552728E+03  0.48862160103E+03  0.00000000000E+00 0. -1.
</event>
<event>
 4    1  0.7416369E+003  0.2331553E+02  0.7546771E-02  0.1488574E+00
          2   -1    0    0  502    0  0.00000000000E+00  0.00000000000E+00  0.71407961332E+02  0.71407961332E+02  0.00000000000E+00 0.  1.
          1   -1    0    0  501    0 -0.00000000000E+00 -0.00000000000E+00 -0.21710308764E+03  0.21710308764E+03  0.00000000000E+00 0. -1.
          2    1    1    2  501    0  0.14049764931E+01  0.23273161954E+02  0.68856207890E+02  0.72696570698E+02  0.00000000000E+00 0.  1.
          1    1    1    2  502    0 -0.14049764931E+01 -0.23273161954E+02 -0.21455133420E+03  0.21581447827E+03  0.00000000000E+00 0. -1.
</event>
<event>
 4    1  0.7416369E+003  0.3865274E+02  0.7546771E-02  0.1356567E+00
          2   -1    0    0  502    0  0.00000000000E+00  0.00000000000E+00  0.25577495930E+02  0.25577495930E+02  0.00000000000E+00 0. -1.
          1   -1    0    0  501    0 -0.00000000000E+00 -0.00000000000E+00 -0.19993246345E+03  0.19993246345E+03  0.00000000000E+00 0.  1.
          2    1    1    2  501    0 -0.26087531428E+02  0.28521480039E+02  0.76869913183E+01  0.39409693670E+02  0.00000000000E+00 0. -1.
          1    1    1    2  502    0  0.26087531428E+02 -0.28521480039E+02 -0.18204195884E+03  0.18610026571E+03  0.00000000000E+00 0.  1.
</event>
<event>
 4    1  0.7416369E+003  0.2001955E+02  0.7546771E-02  0.1533737E+00
          2   -1    0    0  502    0  0.00000000000E+00  0.00000000000E+00  0.12994199312E+03  0.12994199312E+03  0.00000000000E+00 0. -1.
          1   -1    0    0  501    0 -0.00000000000E+00 -0.00000000000E+00 -0.65786890436E+01  0.65786890436E+01  0.00000000000E+00 0. -1.
          2    1    1    2  501    0 -0.11061081957E+02  0.16686368364E+02  0.11143052952E+03  0.11321459858E+03  0.00000000000E+00 0. -1.
          1    1    1    2  502    0  0.11061081957E+02 -0.16686368364E+02  0.11932774556E+02  0.23306083580E+02  0.00000000000E+00 0. -1.
</event>
<event>
 4    1  0.7416369E+003  0.5045254E+02  0.7546771E-02  0.1296222E+00
          2   -1    0    0  502    0  0.00000000000E+00  0.00000000000E+00  0.10013662160E+04  0.10013662160E+04  0.00000000000E+00 0. -1.
          1   -1    0    0  501    0 -0.00000000000E+00 -0.00000000000E+00 -0.36730754667E+01  0.36730754667E+01  0.00000000000E+00 0. -1.
          2    1    1    2  501    0  0.38614565434E+02  0.32471133718E+02  0.77770677589E+03  0.77934157368E+03  0.00000000000E+00 0. -1.
          1    1    1    2  502    0 -0.38614565434E+02 -0.32471133718E+02  0.21998636463E+03  0.22569771778E+03  0.00000000000E+00 0. -1.
</event>
<event>
 4    1  0.7416369E+003  0.2823655E+02  0.7546771E-02  0.1435567E+00
          2   -1    0    0  502    0  0.00000000000E+00  0.00000000000E+00  0.13677551780E+01  0.13677551780E+01  0.00000000000E+00 0. -1.
          1   -1    0    0  501    0 -0.00000000000E+00 -0.00000000000E+00 -0.13873871569E+04  0.13873871569E+04  0.00000000000E+00 0. -1.
          2    1    1    2  501    0 -0.17675339288E+02 -0.22020107558E+02 -0.16426164442E+03  0.16667090503E+03  0.00000000000E+00 0. -1.
          1    1    1    2  502    0  0.17675339288E+02  0.22020107558E+02 -0.12217577573E+04  0.12220840071E+04  0.00000000000E+00 0. -1.
</event>
<event>
 4    1  0.7416369E+003  0.2161036E+02  0.7546771E-02  0.1510726E+00
          2   -1    0    0  502    0  0.00000000000E+00  0.00000000000E+00  0.15737141306E+03  0.15737141306E+03  0.00000000000E+00 0. -1.
          1   -1    0    0  501    0 -0.00000000000E+00 -0.00000000000E+00 -0.16872704659E+03  0.16872704659E+03  0.00000000000E+00 0. -1.
          2    1    1    2  501    0 -0.19125727564E+02 -0.10060519967E+02  0.15593120786E+03  0.15742156492E+03  0.00000000000E+00 0. -1.
          1    1    1    2  502    0  0.19125727564E+02  0.10060519967E+02 -0.16728684138E+03  0.16867689473E+03  0.00000000000E+00 0. -1.
</event>
<event>
 4    1  0.7416369E+003  0.2703033E+02  0.7546771E-02  0.1447304E+00
          2   -1    0    0  502    0  0.00000000000E+00  0.00000000000E+00  0.11113867954E+04  0.11113867954E+04  0.00000000000E+00 0.  1.
          1   -1    0    0  501    0 -0.00000000000E+00 -0.00000000000E+00 -0.66343069253E+00  0.66343069253E+00  0.00000000000E+00 0. -1.
          2    1    1    2  501    0  0.27029134392E+02  0.25289101492E+00  0.50239793072E+03  0.50312455600E+03  0.00000000000E+00 0.  1.
          1    1    1    2  502    0 -0.27029134392E+02 -0.25289101492E+00  0.60832543394E+03  0.60892567004E+03  0.00000000000E+00 0. -1.
</event>
<event>
 4    1  0.7416369E+003  0.2032247E+02  0.7546771E-02  0.1529162E+00
          2   -1    0    0  502    0  0.00000000000E+00  0.00000000000E+00  0.20478930309E+01  0.20478930309E+01  0.00000000000E+00 0. -1.
          1   -1    0    0  501    0 -0.00000000000E+00 -0.00000000000E+00 -0.97032939392E+03  0.97032939392E+03  0.00000000000E+00 0. -1.
          2    1    1    2  501    0 -0.17425378834E+02 -0.10457477741E+02 -0.51416112590E+02  0.55286700951E+02  0.00000000000E+00 0. -1.
          1    1    1    2  502    0  0.17425378834E+02  0.10457477741E+02 -0.91686538830E+03  0.91709058600E+03  0.00000000000E+00 0. -1.
</event>
<event>
 4    1  0.7416369E+003  0.5228839E+02  0.7546771E-02  0.1288544E+00
          2   -1    0    0  502    0  0.00000000000E+00  0.00000000000E+00  0.11057392420E+04  0.11057392420E+04  0.00000000000E+00 0. -1.
          1   -1    0    0  501    0 -0.00000000000E+00 -0.00000000000E+00 -0.19566736229E+02  0.19566736229E+02  0.00000000000E+00 0. -1.
          2    1    1    2  501    0 -0.52241978509E+02 -0.22026346488E+01  0.10689881379E+04  0.10702661888E+04  0.00000000000E+00 0. -1.
          1    1    1    2  502    0  0.52241978509E+02  0.22026346488E+01  0.17184367826E+02  0.55039789385E+02  0.00000000000E+00 0. -1.
</event>
<event>
 4    1  0.7416369E+003  0.2236879E+02  0.7546771E-02  0.1500580E+00
          2   -1    0    0  502    0  0.00000000000E+00  0.00000000000E+00  0.31180497134E+03  0.31180497134E+03  0.00000000000E+00 0. -1.
          1   -1    0    0  501    0 -0.00000000000E+00 -0.00000000000E+00 -0.76546690240E+01  0.76546690240E+01  0.00000000000E+00 0.  1.
          2    1    1    2  501    0  0.19543376011E+02 -0.10882060946E+02  0.29407840385E+03  0.29492790714E+03  0.00000000000E+00 0. -1.
          1    1    1    2  502    0 -0.19543376011E+02  0.10882060946E+02  0.10071898461E+02  0.24531733224E+02  0.00000000000E+00 0.  1.
</event>
<event>
 4    1  0.7416369E+003  0.2562833E+02  0.7546771E-02  0.1461896E+00
          2   -1    0    0  502    0  0.00000000000E+00  0.00000000000E+00  0.39269381135E+02  0.39269381135E+02  0.00000000000E+00 0.  1.
          1   -1    0    0  501    0 -0.00000000000E+00 -0.00000000000E+00 -0.15260761896E+03  0.15260761896E+03  0.00000000000E+00 0.  1.
          2    1    1    2  501    0 -0.21758682602E+02 -0.13541448250E+02  0.33859422156E+02  0.42464945049E+02  0.00000000000E+00 0.  1.
          1    1    1    2  502    0  0.21758682602E+02  0.13541448250E+02 -0.14719765998E+03  0.14941205505E+03  0.00000000000E+00 0.  1.
</event>
<event>
 4    1  0.7416369E+003  0.2229719E+02  0.7546771E-02  0.1501517E+00
          2   -1    0    0  502    0  0.00000000000E+00  0.00000000000E+00  0.10522780440E+04  0.10522780440E+04  0.00000000000E+00 0. -1.
          1   -1    0    0  501    0 -0.00000000000E+00 -0.00000000000E+00 -0.36825030496E+02  0.36825030496E+02  0.00000000000E+00 0. -1.
          2    1    1    2  501    0  0.15241675297E+02  0.16274391441E+02  0.10487734701E+04  0.10490104652E+04  0.00000000000E+00 0. -1.
          1    1    1    2  502    0 -0.15241675297E+02 -0.16274391441E+02 -0.33320456670E+02  0.40092609236E+02  0.00000000000E+00 0. -1.
</event>
<event>
 4    1  0.7416369E+003  0.6668312E+02  0.7546771E-02  0.1238673E+00
          2   -1    0    0  502    0  0.00000000000E+00  0.00000000000E+00  0.14655657537E+04  0.14655657537E+04  0.00000000000E+00 0. -1.
          1   -1    0    0  501    0 -0.00000000000E+00 -0.00000000000E+00 -0.12072365105E+04  0.12072365105E+04  0.00000000000E+00 0.  1.
          2    1    1    2  501    0  0.48708268553E+02 -0.45542766745E+02  0.14638853479E+04  0.14654033406E+04  0.00000000000E+00 0. -1.
          1    1    1    2  502    0 -0.48708268553E+02  0.45542766745E+02 -0.12055561047E+04  0.12073989236E+04  0.00000000000E+00 0.  1.
</event>
<event>
 4    1  0.7416369E+003  0.2689921E+02  0.7546771E-02  0.1448623E+00
          2   -1    0    0  502    0  0.00000000000E+00  0.00000000000E+00  0.25254208236E+02  0.25254208236E+02  0.00000000000E+00 0. -1.
          1   -1    0    0  501    0 -0.00000000000E+00 -0.00000000000E+00 -0.72376950400E+02  0.72376950400E+02  0.00000000000E+00 0.  1.
          2    1    1    2  501    0 -0.26890637388E+02  0.67917389414E+00  0.14381142701E+02  0.30502211751E+02  0.00000000000E+00 0. -1.
          1    1    1    2  502    0  0.26890637388E+02 -0.67917389414E+00 -0.61503884866E+02  0.67128946885E+02  0.00000000000E+00 0.  1.
</event>
<event>
 4    1  0.7416369E+003  0.3150421E+02  0.7546771E-02  0.1406960E+00
          2   -1    0    0  502    0  0.00000000000E+00  0.00000000000E+00  0.94877551674E+02  0.94877551674E+02  0.00000000000E+00 0. -1.
          1   -1    0    0  501    0 -0.00000000000E+00 -0.00000000000E+00 -0.19726115061E+03  0.19726115061E+03  0.00000000000E+00 0. -1.
          2    1    1    2  501    0 -0.22430622335E+02 -0.22121990611E+02  0.90951671172E+02  0.96253424749E+02  0.00000000000E+00 0. -1.
          1    1    1    2  502    0  0.22430622335E+02  0.22121990611E+02 -0.19333527011E+03  0.19588527754E+03  0.00000000000E+00 0. -1.
</event>
<event>
 4    1  0.7416369E+003  0.2538406E+02  0.7546771E-02  0.1464552E+00
          2   -1    0    0  502    0  0.00000000000E+00  0.00000000000E+00  0.25709678558E+03  0.25709678558E+03  0.00000000000E+00 0. -1.
          1   -1    0    0  501    0 -0.00000000000E+00 -0.00000000000E+00 -0.34629122908E+02  0.34629122908E+02  0.00000000000E+00 0.  1.
          2    1    1    2  501    0 -0.61398162319E+01 -0.24630329412E+02  0.25171930035E+03  0.25299596171E+03  0.00000000000E+00 0. -1.
          1    1    1    2  502    0  0.61398162319E+01  0.24630329412E+02 -0.29251637683E+02  0.38729946778E+02  0.00000000000E+00 0.  1.
</event>
<event>
 4    1  0.7416369E+003  0.2630002E+02  0.7546771E-02  0.1454769E+00
          2   -1    0    0  502    0  0.00000000000E+00  0.00000000000E+00  0.13999895279E+04  0.13999895279E+04  0.00000000000E+00 0.  1.
          1   -1    0    0  501    0 -0.00000000000E+00 -0.00000000000E+00 -0.49227510586E+02  0.49227510586E+02  0.00000000000E+00 0.  1.
          2    1    1    2  501    0  0.17957146213E+02  0.19215406753E+02  0.13963441152E+04  0.13965917725E+04  0.00000000000E+00 0.  1.
          1    1    1    2  502    0 -0.17957146213E+02 -0.19215406753E+02 -0.45582097966E+02  0.52625265907E+02  0.00000000000E+00 0.  1.
</event>
<event>
 4    1  0.7416369E+003  0.1082268E+03  0.7546771E-02  0.1150268E+00
          2   -1    0    0  502    0  0.00000000000E+00  0.00000000000E+00  0.78755699585E+03  0.78755699585E+03  0.00000000000E+00 0. -1.
          1   -1    0    0  501    0 -0.00000000000E+00 -0.00000000000E+00 -0.20308639577E+03  0.20308639577E+03  0.00000000000E+00 0. -1.
          2    1    1    2  501    0  0.78291760328E+02 -0.74722455378E+02  0.76907524071E+03  0.77665292824E+03  0.00000000000E+00 0. -1.
          1    1    1    2  502    0 -0.78291760328E+02  0.74722455378E+02 -0.18460464063E+03  0.21399046338E+03  0.00000000000E+00 0. -1.
</event>
<event>
 4    1  0.7416369E+003  0.3745632E+02  0.7546771E-02  0.1364073E+00
          2   -1    0    0  502    0  0.00000000000E+00  0.00000000000E+00  0.19113607351E+01  0.19113607351E+01  0.00000000000E+00 0.  1.
          1   -1    0    0  501    0 -0.00000000000E+00 -0.00000000000E+00 -0.13063624844E+04  0.13063624844E+04  0.00000000000E+00 0.  1.
          2    1    1    2  501    0  0.93399687205E+01  0.36273144758E+02 -0.21924839306E+03  0.22242489498E+03  0.00000000000E+00 0.  1.
          1    1    1    2  502    0 -0.93399687205E+01 -0.36273144758E+02 -0.10852027306E+04  0.10858489502E+04  0.00000000000E+00 0.  1.
</event>
<event>
 4    1  0.7416369E+003  0.2189167E+02  0.7546771E-02  0.1506905E+00
          2   -1    0    0  502    0  0.00000000000E+00  0.00000000000E+00  0.62300343081E+03  0.62300343081E+03  0.00000000000E+00 0. -1.
          1   -1    0    0  501    0 -0.00000000000E+00 -0.00000000000E+00 -0.29671003626E+02  0.29671003626E+02  0.00000000000E+00 0. -1.
          2    1    1    2  501    0 -0.13162897051E+02  0.17492381808E+02  0.61874534485E+03  0.61913249555E+03  0.00000000000E+00 0. -1.
          1    1    1    2  502    0  0.13162897051E+02 -0.17492381808E+02 -0.25412917661E+02  0.33541938885E+02  0.00000000000E+00 0. -1.
</event>
<event>
 4    1  0.7416369E+003  0.2515693E+02  0.7546771E-02  0.1467055E+00
          2   -1    0    0  502    0  0.00000000000E+00  0.00000000000E+00  0.29801657733E+01  0.29801657733E+01  0.00000000000E+00 0.  1.
          1   -1    0    0  501    0 -0.00000000000E+00 -0.00000000000E+00 -0.21490836281E+03  0.21490836281E+03  0.00000000000E+00 0.  1.
          2    1    1    2  501    0 -0.20891041741E+02 -0.14015525791E+02 -0.11782545691E+03  0.12048115572E+03  0.00000000000E+00 0.  1.
          1    1    1    2  502    0  0.20891041741E+02  0.14015525791E+02 -0.94102740132E+02  0.97407372866E+02  0.00000000000E+00 0.  1.
</event>
<event>
 4    1  0.7416369E+003  0.2436387E+02  0.7546771E-02  0.1476047E+00
          2   -1    0    0  502    0  0.00000000000E+00  0.00000000000E+00  0.88739232259E+02  0.88739232259E+02  0.00000000000E+00 0.  1.
          1   -1    0    0  501    0 -0.00000000000E+00 -0.00000000000E+00 -0.77971811157E+02  0.77971811157E+02  0.00000000000E+00 0.  1.
          2    1    1    2  501    0 -0.23194960827E+02  0.74560046814E+01  0.85083511078E+02  0.88503118990E+02  0.00000000000E+00 0.  1.
          1    1    1    2  502    0  0.23194960827E+02 -0.74560046814E+01 -0.74316089976E+02  0.78207924425E+02  0.00000000000E+00 0.  1.
</event>
<event>
 4    1  0.7416369E+003  0.2224760E+02  0.7546771E-02  0.1502168E+00
          2   -1    0    0  502    0  0.00000000000E+00  0.00000000000E+00  0.13674725364E+02  0.13674725364E+02  0.00000000000E+00 0. -1.
          1   -1    0    0  501    0 -0.00000000000E+00 -0.00000000000E+00 -0.42474824278E+02  0.42474824278E+02  0.00000000000E+00 0.  1.
          2    1    1    2  501    0  0.20687907189E+02  0.81832919790E+01 -0.36049526627E+01  0.22537778399E+02  0.00000000000E+00 0. -1.
          1    1    1    2  502    0 -0.20687907189E+02 -0.81832919790E+01 -0.25195146251E+02  0.33611771243E+02  0.00000000000E+00 0.  1.
</event>
<event>
 4    1  0.7416369E+003  0.2222970E+02  0.7546771E-02  0.1502404E+00
          2   -1    0    0  502    0  0.00000000000E+00  0.00000000000E+00  0.42641397239E+02  0.42641397239E+02  0.00000000000E+00 0. -1.
          1   -1    0    0  501    0 -0.00000000000E+00 -0.00000000000E+00 -0.11272846901E+03  0.11272846901E+03  0.00000000000E+00 0. -1.
          2    1    1    2  501    0 -0.10123199907E+02  0.19790914544E+02  0.38540044289E+02  0.44491510299E+02  0.00000000000E+00 0. -1.
          1    1    1    2  502    0  0.10123199907E+02 -0.19790914544E+02 -0.10862711606E+03  0.11087835595E+03  0.00000000000E+00 0. -1.
</event>
<event>
 4    1  0.7416369E+003  0.2077334E+02  0.7546771E-02  0.1522526E+00
          2   -1    0    0  502    0  0.00000000000E+00  0.00000000000E+00  0.28161555490E+00  0.28161555490E+00  0.00000000000E+00 0. -1.
          1   -1    0    0  501    0 -0.00000000000E+00 -0.00000000000E+00 -0.16525190941E+04  0.16525190941E+04  0.00000000000E+00 0. -1.
          2    1    1    2  501    0 -0.20431032333E+02 -0.37556216445E+01 -0.60326223203E+03  0.60361979123E+03  0.00000000000E+00 0. -1.
          1    1    1    2  502    0  0.20431032333E+02  0.37556216445E+01 -0.10489752465E+04  0.10491809184E+04  0.00000000000E+00 0. -1.
</event>
<event>
 4    1  0.7416369E+003  0.3179359E+02  0.7546771E-02  0.1404625E+00
          2   -1    0    0  502    0  0.00000000000E+00  0.00000000000E+00  0.66109624991E+03  0.66109624991E+03  0.00000000000E+00 0. -1.
          1   -1    0    0  501    0 -0.00000000000E+00 -0.00000000000E+00 -0.20124687807E+02  0.20124687807E+02  0.00000000000E+00 0.  1.
          2    1    1    2  501    0 -0.15549762900E+02 -0.27731521285E+02  0.64790129416E+03  0.64868090721E+03  0.00000000000E+00 0. -1.
          1    1    1    2  502    0  0.15549762900E+02  0.27731521285E+02 -0.69297320595E+01  0.32540030508E+02  0.00000000000E+00 0.  1.
</event>
<event>
 4    1  0.7416369E+003  0.2470461E+02  0.7546771E-02  0.1472135E+00
          2   -1    0    0  502    0  0.00000000000E+00  0.00000000000E+00  0.70439784686E+02  0.70439784686E+02  0.00000000000E+00 0. -1.
          1   -1    0    0  501    0 -0.00000000000E+00 -0.00000000000E+00 -0.11134239899E+02  0.11134239899E+02  0.00000000000E+00 0. -1.
          2    1    1    2  501    0 -0.16124785235E+02  0.18716546003E+02  0.48862749752E+02  0.54752955231E+02  0.00000000000E+00 0. -1.
          1    1    1    2  502    0  0.16124785235E+02 -0.18716546003E+02  0.10442795035E+02  0.26821069354E+02  0.00000000000E+00 0. -1.
</event>
<event>
 4    1  0.7416369E+003  0.2130455E+02  0.7546771E-02  0.1514961E+00
          2   -1    0    0  502    0  0.00000000000E+00  0.00000000000E+00  0.57189537254E+03  0.57189537254E+03  0.00000000000E+00 0.  1.
          1   -1    0    0  501    0 -0.00000000000E+00 -0.00000000000E+00 -0.13054952951E+02  0.13054952951E+02  0.00000000000E+00 0.  1.
          2    1    1    2  501    0 -0.78782761545E+01 -0.19794355980E+02  0.56286578274E+03  0.56326882849E+03  0.00000000000E+00 0.  1.
          1    1    1    2  502    0  0.78782761545E+01  0.19794355980E+02 -0.40253631521E+01  0.21681497004E+02  0.00000000000E+00 0.  1.
</event>
<event>
 4    1  0.7416369E+003  0.5032760E+02  0.7546771E-02  0.1296758E+00
          2   -1    0    0  502    0  0.00000000000E+00  0.00000000000E+00  0.17186930816E+04  0.17186930816E+04  0.00000000000E+00 0. -1.
          1   -1    0    0  501    0 -0.00000000000E+00 -0.00000000000E+00 -0.22351055245E+01  0.22351055245E+01  0.00000000000E+00 0.  1.
          2    1    1    2  501    0  0.21232505705E+02 -0.45629460005E+02  0.13604408294E+04  0.13613714104E+04  0.00000000000E+00 0. -1.
          1    1    1    2  502    0 -0.21232505705E+02  0.45629460005E+02  0.35601714673E+03  0.35955677671E+03  0.00000000000E+00 0.  1.
</event>
<event>
 4    1  0.7416369E+003  0.2788558E+02  0.7546771E-02  0.1438909E+00
          2   -1    0    0  502    0  0.00000000000E+00  0.00000000000E+00  0.15636164984E+04  0.15636164984E+04  0.00000000000E+00 0. -1.
          1   -1    0    0  501    0 -0.00000000000E+00 -0.00000000000E+00 -0.33341996446E+02  0.33341996446E+02  0.00000000000E+00 0.  1.
          2    1    1    2  501    0  0.21653605926E+02 -0.17570633407E+02  0.15576392700E+04  0.15578888603E+04  0.00000000000E+00 0. -1.
          1    1    1    2  502    0 -0.21653605926E+02  0.17570633407E+02 -0.27364768048E+02  0.39069634478E+02  0.00000000000E+00 0.  1.
</event>
<event>
 4    1  0.7416369E+003  0.1508071E+03  0.7546771E-02  0.1096792E+00
          2   -1    0    0  502    0  0.00000000000E+00  0.00000000000E+00  0.17786744619E+03  0.17786744619E+03  0.00000000000E+00 0.  1.
          1   -1    0    0  501    0 -0.00000000000E+00 -0.00000000000E+00 -0.11275401371E+04  0.11275401371E+04  0.00000000000E+00 0.  1.
          2    1    1    2  501    0 -0.20820199589E+02 -0.14936301856E+03  0.13974568151E+03  0.20560069924E+03  0.00000000000E+00 0.  1.
          1    1    1    2  502    0  0.20820199589E+02  0.14936301856E+03 -0.10894183724E+04  0.10998068840E+04  0.00000000000E+00 0.  1.
</event>
<event>
 4    1  0.7416369E+003  0.3260793E+02  0.7546771E-02  0.1398208E+00
          2   -1    0    0  502    0  0.00000000000E+00  0.00000000000E+00  0.64102860659E+01  0.64102860659E+01  0.00000000000E+00 0.  1.
          1   -1    0    0  501    0 -0.00000000000E+00 -0.00000000000E+00 -0.26317728946E+03  0.26317728946E+03  0.00000000000E+00 0.  1.
          2    1    1    2  501    0  0.32371756918E+02 -0.39174196892E+01 -0.46420580300E+02  0.56728714936E+02  0.00000000000E+00 0.  1.
          1    1    1    2  502    0 -0.32371756918E+02  0.39174196892E+01 -0.21034642310E+03  0.21285886059E+03  0.00000000000E+00 0.  1.
</event>
<event>
 4    1  0.7416369E+003  0.2345461E+02  0.7546771E-02  0.1486867E+00
          2   -1    0    0  502    0  0.00000000000E+00  0.00000000000E+00  0.34926478092E+01  0.34926478092E+01  0.00000000000E+00 0.  1.
          1   -1    0    0  501    0 -0.00000000000E+00 -0.00000000000E+00 -0.40132605731E+03  0.40132605731E+03  0.00000000000E+00 0. -1.
          2    1    1    2  501    0  0.16472526244E+02  0.16696542161E+02 -0.41150067446E+02  0.47365036596E+02  0.00000000000E+00 0.  1.
          1    1    1    2  502    0 -0.16472526244E+02 -0.16696542161E+02 -0.35668334206E+03  0.35745366853E+03  0.00000000000E+00 0. -1.
</event>
<event>
 4    1  0.7416369E+003  0.2164507E+02  0.7546771E-02  0.1510251E+00
          2   -1    0    0  502    0  0.00000000000E+00  0.00000000000E+00  0.30373309851E+01  0.30373309851E+01  0.00000000000E+00 0. -1.
          1   -1    0    0  501    0 -0.00000000000E+00 -0.00000000000E+00 -0.33180082278E+03  0.33180082278E+03  0.00000000000E+00 0. -1.
          2    1    1    2  501    0 -0.18203764341E+02 -0.11710339238E+02 -0.41912443100E+02  0.47171622486E+02  0.00000000000E+00 0. -1.
          1    1    1    2  502    0  0.18203764341E+02  0.11710339238E+02 -0.28685104870E+03  0.28766653128E+03  0.00000000000E+00 0. -1.
</event>
<event>
 4    1  0.7416369E+003  0.2974835E+02  0.7546771E-02  0.1421796E+00
          2   -1    0    0  502    0  0.00000000000E+00  0.00000000000E+00  0.47257680525E+03  0.47257680525E+03  0.00000000000E+00 0. -1.
          1   -1    0    0  501    0 -0.00000000000E+00 -0.00000000000E+00 -0.21410093549E+02  0.21410093549E+02  0.00000000000E+00 0.  1.
          2    1    1    2  501    0  0.27306489173E+02 -0.11803391334E+02  0.46152802809E+03  0.46248576747E+03  0.00000000000E+00 0. -1.
          1    1    1    2  502    0 -0.27306489173E+02  0.11803391334E+02 -0.10361316388E+02  0.31501131333E+02  0.00000000000E+00 0.  1.
</event>
<event>
 4    1  0.7416369E+003  0.6034438E+02  0.7546771E-02  0.1258667E+00
          2   -1    0    0  502    0  0.00000000000E+00  0.00000000000E+00  0.49709479574E+03  0.49709479574E+03  0.00000000000E+00 0.  1.
          1   -1    0    0  501    0 -0.00000000000E+00 -0.00000000000E+00 -0.17762166499E+02  0.17762166499E+02  0.00000000000E+00 0. -1.
          2    1    1    2  501    0 -0.34610428526E+02  0.49432397375E+02  0.43699514603E+03  0.44114192878E+03  0.00000000000E+00 0.  1.
          1    1    1    2  502    0  0.34610428526E+02 -0.49432397375E+02  0.42337483205E+02  0.73715033454E+02  0.00000000000E+00 0. -1.
</event>
<event>
 4    1  0.7416369E+003  0.3226089E+02  0.7546771E-02  0.1400915E+00
          2   -1    0    0  502    0  0.00000000000E+00  0.00000000000E+00  0.16119795068E+04  0.16119795068E+04  0.00000000000E+00 0. -1.
          1   -1    0    0  501    0 -0.00000000000E+00 -0.00000000000E+00 -0.64871002941E+00  0.64871002941E+00  0.00000000000E+00 0. -1.
          2    1    1    2  501    0 -0.26336040892E+02 -0.18632678885E+02  0.75022625579E+03  0.75091956870E+03  0.00000000000E+00 0. -1.
          1    1    1    2  502    0  0.26336040892E+02  0.18632678885E+02  0.86110454099E+03  0.86170864814E+03  0.00000000000E+00 0. -1.
</event>
<event>
 4    1  0.7416369E+003  0.2289127E+02  0.7546771E-02  0.1493868E+00
          2   -1    0    0  502    0  0.00000000000E+00  0.00000000000E+00  0.51343271019E+02  0.51343271019E+02  0.00000000000E+00 0. -1.
          1   -1    0    0  501    0 -0.00000000000E+00 -0.00000000000E+00 -0.31126479228E+03  0.31126479228E+03  0.00000000000E+00 0.  1.
          2    1    1    2  501    0 -0.16615359163E+02 -0.15746118046E+02  0.48346121372E+02  0.53491661456E+02  0.00000000000E+00 0. -1.
          1    1    1    2  502    0  0.16615359163E+02  0.15746118046E+02 -0.30826764263E+03  0.30911640184E+03  0.00000000000E+00 0.  1.
</event>
<event>
 4    1  0.7416369E+003  0.7730234E+02  0.7546771E-02  0.1210253E+00
          2   -1    0    0  502    0  0.00000000000E+00  0.00000000000E+00  0.16477741300E+03  0.16477741300E+03  0.00000000000E+00 0.  1.
          1   -1    0    0  501    0 -0.00000000000E+00 -0.00000000000E+00 -0.31638210979E+03  0.31638210979E+03  0.00000000000E+00 0. -1.
          2    1    1    2  501    0  0.49267541334E+02 -0.59568117032E+02  0.15056978158E+03  0.16925398169E+03  0.00000000000E+00 0.  1.
          1    1    1    2  502    0 -0.49267541334E+02  0.59568117032E+02 -0.30217447837E+03  0.31190554110E+03  0.00000000000E+00 0. -1.
</event>
<event>
 4    1  0.7416369E+003  0.2097828E+02  0.7546771E-02  0.1519575E+00
          2   -1    0    0  502    0  0.00000000000E+00  0.00000000000E+00  0.64202824880E+01  0.64202824880E+01  0.00000000000E+00 0. -1.
          1   -1    0    0  501    0 -0.00000000000E+00 -0.00000000000E+00 -0.74074560805E+02  0.74074560805E+02  0.00000000000E+00 0. -1.
          2    1    1    2  501    0 -0.13980815020E+02  0.15640496199E+02 -0.22832338018E+02  0.31006514950E+02  0.00000000000E+00 0. -1.
          1    1    1    2  502    0  0.13980815020E+02 -0.15640496199E+02 -0.44821940299E+02  0.49488328343E+02  0.00000000000E+00 0. -1.
</event>
<event>
 4    1  0.7416369E+003  0.2483461E+02  0.7546771E-02  0.1470662E+00
          2   -1    0    0  502    0  0.00000000000E+00  0.00000000000E+00  0.47029033311E+02  0.47029033311E+02  0.00000000000E+00 0.  1.
          1   -1    0    0  501    0 -0.00000000000E+00 -0.00000000000E+00 -0.19168857185E+02  0.19168857185E+02  0.00000000000E+00 0.  1.
          2    1    1    2  501    0 -0.22379871222E+00  0.24833597401E+02  0.32531828506E+02  0.40927710804E+02  0.00000000000E+00 0.  1.
          1    1    1    2  502    0  0.22379871222E+00 -0.24833597401E+02 -0.46716523805E+01  0.25270179692E+02  0.00000000000E+00 0.  1.
</event>
<event>
 4    1  0.7416369E+003  0.2096168E+02  0.7546771E-02  0.1519813E+00
          2   -1    0    0  502    0  0.00000000000E+00  0.00000000000E+00  0.85210961023E+02  0.85210961023E+02  0.00000000000E+00 0. -1.
          1   -1    0    0  501    0 -0.00000000000E+00 -0.00000000000E+00 -0.21312991139E+03  0.21312991139E+03  0.00000000000E+00 0. -1.
          2    1    1    2  501    0  0.12009555886E+02  0.17180299020E+02  0.83395377785E+02  0.85989424599E+02  0.00000000000E+00 0. -1.
          1    1    1    2  502    0 -0.12009555886E+02 -0.17180299020E+02 -0.21131432815E+03  0.21235144781E+03  0.00000000000E+00 0. -1.
</event>
<event>
 4    1  0.7416369E+003  0.2672986E+02  0.7546771E-02  0.1450341E+00
          2   -1    0    0  502    0  0.00000000000E+00  0.00000000000E+00  0.61073823880E+03  0.61073823880E+03  0.00000000000E+00 0. -1.
          1   -1    0    0  501    0 -0.00000000000E+00 -0.00000000000E+00 -0.28742930518E+02  0.28742930518E+02  0.00000000000E+00 0. -1.
          2    1    1    2  501    0  0.26710558816E+02  0.10157017912E+01  0.60416373188E+03  0.60475474411E+03  0.00000000000E+00 0. -1.
          1    1    1    2  502    0 -0.26710558816E+02 -0.10157017912E+01 -0.22168423604E+02  0.34726425204E+02  0.00000000000E+00 0. -1.
</event>
<event>
 4    1  0.7416369E+003  0.2352910E+02  0.7546771E-02  0.1485959E+00
          2   -1    0    0  502    0  0.00000000000E+00  0.00000000000E+00  0.34806801354E+03  0.34806801354E+03  0.00000000000E+00 0. -1.
          1   -1    0    0  501    0 -0.00000000000E+00 -0.00000000000E+00 -0.12273441027E+02  0.12273441027E+02  0.00000000000E+00 0.  1.
          2    1    1    2  501    0 -0.23371699377E+02 -0.27170640043E+01  0.33598869155E+03  0.33681154912E+03  0.00000000000E+00 0. -1.
          1    1    1    2  502    0  0.23371699377E+02  0.27170640043E+01 -0.19411903290E+00  0.23529905456E+02  0.00000000000E+00 0.  1.
</event>
<event>
 4    1  0.7416369E+003  0.2806342E+02  0.7546771E-02  0.1437209E+00
          2   -1    0    0  502    0  0.00000000000E+00  0.00000000000E+00  0.10457470012E+02  0.10457470012E+02  0.00000000000E+00 0. -1.
          1   -1    0    0  501    0 -0.00000000000E+00 -0.00000000000E+00 -0.20555879083E+03  0.20555879083E+03  0.00000000000E+00 0.  1.
          2    1    1    2  501    0  0.19648486651E+02  0.20037274616E+02 -0.11575154527E+02  0.30356870788E+02  0.00000000000E+00 0. -1.
          1    1    1    2  502    0 -0.19648486651E+02 -0.20037274616E+02 -0.18352616629E+03  0.18565939006E+03  0.00000000000E+00 0.  1.
</event>
<event>
 4    1  0.7416369E+003  0.3732832E+02  0.7546771E-02  0.1364895E+00
          2   -1    0    0  502    0  0.00000000000E+00  0.00000000000E+00  0.10575597307E+04  0.10575597307E+04  0.00000000000E+00 0.  1.
          1   -1    0    0  501    0 -0.00000000000E+00 -0.00000000000E+00 -0.70767789198E+01  0.70767789198E+01  0.00000000000E+00 0.  1.
          2    1    1    2  501    0 -0.37191250253E+02 -0.31959810461E+01  0.10054558563E+04  0.10061485389E+04  0.00000000000E+00 0.  1.
          1    1    1    2  502    0  0.37191250253E+02  0.31959810461E+01  0.45027095492E+02  0.58487970718E+02  0.00000000000E+00 0.  1.
</event>
<event>
 4    1  0.7416369E+003  0.4825064E+02  0.7546771E-02  0.1305941E+00
          2   -1    0    0  502    0  0.00000000000E+00  0.00000000000E+00  0.38390676857E+03  0.38390676857E+03  0.00000000000E+00 0. -1.
          1   -1    0    0  501    0 -0.00000000000E+00 -0.00000000000E+00 -0.92251341903E+01  0.92251341903E+01  0.00000000000E+00 0. -1.
          2    1    1    2  501    0  0.45388516551E+02  0.16370925526E+02  0.30240045825E+03  0.30622567134E+03  0.00000000000E+00 0. -1.
          1    1    1    2  502    0 -0.45388516551E+02 -0.16370925526E+02  0.72281176134E+02  0.86906231425E+02  0.00000000000E+00 0. -1.
</event>
<event>
 4    1  0.7416369E+003  0.2506706E+02  0.7546771E-02  0.1468055E+00
          2   -1    0    0  502    0  0.00000000000E+00  0.00000000000E+00  0.29742680251E+02  0.29742680251E+02  0.00000000000E+00 0.  1.
          1   -1    0    0  501    0 -0.00000000000E+00 -0.00000000000E+00 -0.83854405796E+02  0.83854405796E+02  0.00000000000E+00 0.  1.
          2    1    1    2  501    0 -0.24180843909E+02 -0.66063675803E+01  0.22069391724E+02  0.33397834598E+02  0.00000000000E+00 0.  1.
          1    1    1    2  502    0  0.24180843909E+02  0.66063675803E+01 -0.76181117269E+02  0.80199251449E+02  0.00000000000E+00 0.  1.
</event>
<event>
 4    1  0.7416369E+003  0.4048520E+02  0.7546771E-02  0.1345666E+00
          2   -1    0    0  502    0  0.00000000000E+00  0.00000000000E+00  0.57665271552E+03  0.57665271552E+03  0.00000000000E+00 0. -1.
          1   -1    0    0  501    0 -0.00000000000E+00 -0.00000000000E+00 -0.41955788665E+03  0.41955788665E+03  0.00000000000E+00 0. -1.
          2    1    1    2  501    0 -0.38571562480E+02 -0.12299840109E+02  0.57496260557E+03  0.57638619805E+03  0.00000000000E+00 0. -1.
          1    1    1    2  502    0  0.38571562480E+02  0.12299840109E+02 -0.41786777670E+03  0.41982440413E+03  0.00000000000E+00 0. -1.
</event>
<event>
 4    1  0.7416369E+003  0.2415497E+02  0.7546771E-02  0.1478483E+00
          2   -1    0    0  502    0  0.00000000000E+00  0.00000000000E+00  0.92987322137E+02  0.92987322137E+02  0.00000000000E+00 0. -1.
          1   -1    0    0  501    0 -0.00000000000E+00 -0.00000000000E+00 -0.52052489618E+03  0.52052489618E+03  0.00000000000E+00 0. -1.
          2    1    1    2  501    0 -0.12605303806E+02  0.20605069377E+02  0.91132826869E+02  0.94279662182E+02  0.00000000000E+00 0. -1.
          1    1    1    2  502    0  0.12605303806E+02 -0.20605069377E+02 -0.51867040091E+03  0.51923255613E+03  0.00000000000E+00 0. -1.
</event>
<event>
 4    1  0.7416369E+003  0.2216225E+02  0.7546771E-02  0.1503294E+00
          2   -1    0    0  502    0  0.00000000000E+00  0.00000000000E+00  0.15665234179E+03  0.15665234179E+03  0.00000000000E+00 0.  1.
          1   -1    0    0  501    0 -0.00000000000E+00 -0.00000000000E+00 -0.40574931078E+02  0.40574931078E+02  0.00000000000E+00 0. -1.
          2    1    1    2  501    0  0.21305800422E+02  0.61015087152E+01  0.15276561317E+03  0.15436482147E+03  0.00000000000E+00 0.  1.
          1    1    1    2  502    0 -0.21305800422E+02 -0.61015087152E+01 -0.36688202458E+02  0.42862451398E+02  0.00000000000E+00 0. -1.
</event>
<event>
 4    1  0.7416369E+003  0.2528855E+02  0.7546771E-02  0.1465601E+00
          2   -1    0    0  502    0  0.00000000000E+00  0.00000000000E+00  0.68512477921E+03  0.68512477921E+03  0.00000000000E+00 0.  1.
          1   -1    0    0  501    0 -0.00000000000E+00 -0.00000000000E+00 -0.24342605042E+03  0.24342605042E+03  0.00000000000E+00 0.  1.
          2    1    1    2  501    0  0.24973496098E+02  0.39793476147E+01  0.68423378739E+03  0.68470094678E+03  0.00000000000E+00 0.  1.
          1    1    1    2  502    0 -0.24973496098E+02 -0.39793476147E+01 -0.24253505860E+03  0.24384988285E+03  0.00000000000E+00 0.  1.
</event>
<event>
 4    1  0.9110845E+003  0.2096137E+02  0.7546771E-02  0.1519817E+00
          2   -1    0    0  502    0  0.00000000000E+00  0.00000000000E+00  0.82540861849E+03  0.82540861849E+03  0.00000000000E+00 0.  1.
          1   -1    0    0  501    0 -0.00000000000E+00 -0.00000000000E+00 -0.41549844847E+03  0.41549844847E+03  0.00000000000E+00 0. -1.
          2    1    1    2  501    0  0.19274923350E+02  0.82374967019E+01  0.82501104324E+03  0.82527728703E+03  0.00000000000E+00 0.  1.
          1    1    1    2  502    0 -0.19274923350E+02 -0.82374967019E+01 -0.41510087322E+03  0.41562977993E+03  0.00000000000E+00 0. -1.
</event>
<event>
 4    1  0.7416369E+003  0.2264879E+02  0.7546771E-02  0.1496956E+00
          2   -1    0    0  502    0  0.00000000000E+00  0.00000000000E+00  0.47239410441E+02  0.47239410441E+02  0.00000000000E+00 0. -1.
          1   -1    0    0  501    0 -0.00000000000E+00 -0.00000000000E+00 -0.36974651158E+02  0.36974651158E+02  0.00000000000E+00 0. -1.
          2    1    1    2  501    0 -0.22313290564E+02  0.38839316169E+01  0.40520204303E+02  0.46420413800E+02  0.00000000000E+00 0. -1.
          1    1    1    2  502    0  0.22313290564E+02 -0.38839316169E+01 -0.30255445020E+02  0.37793647799E+02  0.00000000000E+00 0. -1.
</event>
<event>
 4    1  0.7416369E+003  0.2026841E+02  0.7546771E-02  0.1529971E+00
          2   -1    0    0  502    0  0.00000000000E+00  0.00000000000E+00  0.20720190605E+01  0.20720190605E+01  0.00000000000E+00 0. -1.
          1   -1    0    0  501    0 -0.00000000000E+00 -0.00000000000E+00 -0.33960954664E+03  0.33960954664E+03  0.00000000000E+00 0.  1.
          2    1    1    2  501    0  0.45252903292E+01 -0.19756778262E+02 -0.58553594247E+02  0.61962342912E+02  0.00000000000E+00 0. -1.
          1    1    1    2  502    0 -0.45252903292E+01  0.19756778262E+02 -0.27898393333E+03  0.27971922279E+03  0.00000000000E+00 0.  1.
</event>
<event>
 4    1  0.7416369E+003  0.3026173E+02  0.7546771E-02  0.1417335E+00
          2   -1    0    0  502    0  0.00000000000E+00  0.00000000000E+00  0.38746944228E+02  0.38746944228E+02  0.00000000000E+00 0. -1.
          1   -1    0    0  501    0 -0.00000000000E+00 -0.00000000000E+00 -0.65499742390E+02  0.65499742390E+02  0.00000000000E+00 0.  1.
          2    1    1    2  501    0  0.29189384752E+02 -0.79845069081E+01  0.28295013153E+02  0.41429220390E+02  0.00000000000E+00 0. -1.
          1    1    1    2  502    0 -0.29189384752E+02  0.79845069081E+01 -0.55047811315E+02  0.62817466229E+02  0.00000000000E+00 0.  1.
</event>
<event>
 4    1  0.7416369E+003  0.2881835E+02  0.7546771E-02  0.1430151E+00
          2   -1    0    0  502    0  0.00000000000E+00  0.00000000000E+00  0.18897863458E+04  0.18897863458E+04  0.00000000000E+00 0.  1.
          1   -1    0    0  501    0 -0.00000000000E+00 -0.00000000000E+00 -0.19573229907E+02  0.19573229907E+02  0.00000000000E+00 0.  1.
          2    1    1    2  501    0 -0.28649484755E+02 -0.31151505375E+01  0.18790080724E+04  0.18792290529E+04  0.00000000000E+00 0.  1.
          1    1    1    2  502    0  0.28649484755E+02  0.31151505375E+01 -0.87949565677E+01  0.30130522740E+02  0.00000000000E+00 0.  1.
</event>
<event>
 4    1  0.7416369E+003  0.2019114E+02  0.7546771E-02  0.1531134E+00
          2   -1    0    0  502    0  0.00000000000E+00  0.00000000000E+00  0.61907066590E+01  0.61907066590E+01  0.00000000000E+00 0.  1.
          1   -1    0    0  501    0 -0.00000000000E+00 -0.00000000000E+00 -0.17455216662E+03  0.17455216662E+03  0.00000000000E+00 0.  1.
          2    1    1    2  501    0  0.17919399606E+02 -0.93046639068E+01 -0.15549559146E+03  0.15680102237E+03  0.00000000000E+00 0.  1.
          1    1    1    2  502    0 -0.17919399606E+02  0.93046639068E+01 -0.12865868500E+02  0.23941850909E+02  0.00000000000E+00 0.  1.
</event>
<event>
 4    1  0.7416369E+003  0.2615042E+02  0.7546771E-02  0.1456334E+00
          2   -1    0    0  502    0  0.00000000000E+00  0.00000000000E+00  0.31564543900E+03  0.31564543900E+03  0.00000000000E+00 0. -1.
          1   -1    0    0  501    0 -0.00000000000E+00 -0.00000000000E+00 -0.45398505849E+01  0.45398505849E+01  0.00000000000E+00 0. -1.
          2    1    1    2  501    0  0.22724560063E+02  0.12939786010E+02  0.39799816717E+02  0.47622149287E+02  0.00000000000E+00 0. -1.
          1    1    1    2  502    0 -0.22724560063E+02 -0.12939786010E+02  0.27130577169E+03  0.27256314029E+03  0.00000000000E+00 0. -1.
</event>
<event>
 4    1  0.7416369E+003  0.2136772E+02  0.7546771E-02  0.1514079E+00
          2   -1    0    0  502    0  0.00000000000E+00  0.00000000000E+00  0.62690975584E+03  0.62690975584E+03  0.00000000000E+00 0. -1.
          1   -1    0    0  501    0 -0.00000000000E+00 -0.00000000000E+00 -0.25214544104E+02  0.25214544104E+02  0.00000000000E+00 0.  1.
          2    1    1    2  501    0 -0.75143092380E+01  0.20002869995E+02  0.62216622878E+03  0.62253304803E+03  0.00000000000E+00 0. -1.
          1    1    1    2  502    0  0.75143092380E+01 -0.20002869995E+02 -0.20471017042E+02  0.29591251918E+02  0.00000000000E+00 0.  1.
</event>
<event>
 4    1  0.7416369E+003  0.2208985E+02  0.7546771E-02  0.1504254E+00
          2   -1    0    0  502    0  0.00000000000E+00  0.00000000000E+00  0.13424841305E+03  0.13424841305E+03  0.00000000000E+00 0.  1.
          1   -1    0    0  501    0 -0.00000000000E+00 -0.00000000000E+00 -0.17552624032E+03  0.17552624032E+03  0.00000000000E+00 0.  1.
          2    1    1    2  501    0  0.45710579670E+01 -0.21611730627E+02  0.13263633452E+03  0.13446322436E+03  0.00000000000E+00 0.  1.
          1    1    1    2  502    0 -0.45710579670E+01  0.21611730627E+02 -0.17391416179E+03  0.17531142901E+03  0.00000000000E+00 0.  1.
</event>
<event>
 4    1  0.9114716E+003  0.2399587E+02  0.7546771E-02  0.1480358E+00
          2   -1    0    0  502    0  0.00000000000E+00  0.00000000000E+00  0.13348244445E+04  0.13348244445E+04  0.00000000000E+00 0. -1.
          1   -1    0    0  501    0 -0.00000000000E+00 -0.00000000000E+00 -0.18611702828E+03  0.18611702828E+03  0.00000000000E+00 0. -1.
          2    1    1    2  501    0  0.20294995260E+02 -0.12802926660E+02  0.13339426505E+04  0.13341584601E+04  0.00000000000E+00 0. -1.
          1    1    1    2  502    0 -0.20294995260E+02  0.12802926660E+02 -0.18523523435E+03  0.18678301263E+03  0.00000000000E+00 0. -1.
</event>
<event>
 4    1  0.1165856E+004  0.2218150E+02  0.7546771E-02  0.1503040E+00
          2   -1    0    0  502    0  0.00000000000E+00  0.00000000000E+00  0.51164687973E+03  0.51164687973E+03  0.00000000000E+00 0. -1.
          1   -1    0    0  501    0 -0.00000000000E+00 -0.00000000000E+00 -0.76301456150E+03  0.76301456150E+03  0.00000000000E+00 0. -1.
          2    1    1    2  501    0  0.10567527332E+02  0.19502464711E+02  0.51124513492E+03  0.51172610520E+03  0.00000000000E+00 0. -1.
          1    1    1    2  502    0 -0.10567527332E+02 -0.19502464711E+02 -0.76261281670E+03  0.76293533603E+03  0.00000000000E+00 0. -1.
</event>
<event>
 4    1  0.7416369E+003  0.2644285E+02  0.7546771E-02  0.1453286E+00
          2   -1    0    0  502    0  0.00000000000E+00  0.00000000000E+00  0.14479317216E+03  0.14479317216E+03  0.00000000000E+00 0.  1.
          1   -1    0    0  501    0 -0.00000000000E+00 -0.00000000000E+00 -0.24369424753E+02  0.24369424753E+02  0.00000000000E+00 0. -1.
          2    1    1    2  501    0  0.25984017055E+02 -0.49046196845E+01  0.13595048042E+03  0.13849822223E+03  0.00000000000E+00 0.  1.
          1    1    1    2  502    0 -0.25984017055E+02  0.49046196845E+01 -0.15526733009E+02  0.30664374680E+02  0.00000000000E+00 0. -1.
</event>
<event>
 4    1  0.7416369E+003  0.3071257E+02  0.7546771E-02  0.1413503E+00
          2   -1    0    0  502    0  0.00000000000E+00  0.00000000000E+00  0.10444423945E+04  0.10444423945E+04  0.00000000000E+00 0.  1.
          1   -1    0    0  501    0 -0.00000000000E+00 -0.00000000000E+00 -0.99213038751E+01  0.99213038751E+01  0.00000000000E+00 0. -1.
          2    1    1    2  501    0  0.75345145417E+01 -0.29774029482E+02  0.10198756116E+04  0.10203379464E+04  0.00000000000E+00 0.  1.
          1    1    1    2  502    0 -0.75345145417E+01  0.29774029482E+02  0.14645479020E+02  0.34025751964E+02  0.00000000000E+00 0. -1.
</event>
<event>
 4    1  0.7416369E+003  0.2897067E+02  0.7546771E-02  0.1428757E+00
          2   -1    0    0  502    0  0.00000000000E+00  0.00000000000E+00  0.68813198091E+03  0.68813198091E+03  0.00000000000E+00 0.  1.
          1   -1    0    0  501    0 -0.00000000000E+00 -0.00000000000E+00 -0.34644905321E+01  0.34644905321E+01  0.00000000000E+00 0. -1.
          2    1    1    2  501    0 -0.51269863708E+01  0.28513393349E+02  0.62068494753E+03  0.62136068727E+03  0.00000000000E+00 0.  1.
          1    1    1    2  502    0  0.51269863708E+01 -0.28513393349E+02  0.63982542848E+02  0.70235784176E+02  0.00000000000E+00 0. -1.
</event>
<event>
 4    1  0.7416369E+003  0.2959627E+02  0.7546771E-02  0.1423138E+00
          2   -1    0    0  502    0  0.00000000000E+00  0.00000000000E+00  0.21384939108E+02  0.21384939108E+02  0.00000000000E+00 0.  1.
          1   -1    0    0  501    0 -0.00000000000E+00 -0.00000000000E+00 -0.70448587632E+02  0.70448587632E+02  0.00000000000E+00 0.  1.
          2    1    1    2  501    0 -0.65028807873E+01 -0.28873026968E+02  0.51751187215E+01  0.30045315752E+02  0.00000000000E+00 0.  1.
          1    1    1    2  502    0  0.65028807873E+01  0.28873026968E+02 -0.54238767245E+02  0.61788210988E+02  0.00000000000E+00 0.  1.
</event>
<event>
 4    1  0.7416369E+003  0.2044680E+02  0.7546771E-02  0.1527312E+00
          2   -1    0    0  502    0  0.00000000000E+00  0.00000000000E+00  0.66011751710E+03  0.66011751710E+03  0.00000000000E+00 0. -1.
          1   -1    0    0  501    0 -0.00000000000E+00 -0.00000000000E+00 -0.14409716996E+01  0.14409716996E+01  0.00000000000E+00 0. -1.
          2    1    1    2  501    0 -0.17765664177E+01 -0.20369475306E+02  0.57697787719E+03  0.57734005792E+03  0.00000000000E+00 0. -1.
          1    1    1    2  502    0  0.17765664177E+01  0.20369475306E+02  0.81698668214E+02  0.84218430883E+02  0.00000000000E+00 0. -1.
</event>
<event>
 4    1  0.7416369E+003  0.3268988E+02  0.7546771E-02  0.1397574E+00
          2   -1    0    0  502    0  0.00000000000E+00  0.00000000000E+00  0.63358241008E+03  0.63358241008E+03  0.00000000000E+00 0.  1.
          1   -1    0    0  501    0 -0.00000000000E+00 -0.00000000000E+00 -0.12397155365E+02  0.12397155365E+02  0.00000000000E+00 0.  1.
          2    1    1    2  501    0  0.14176924568E+02 -0.29455776786E+02  0.61080795759E+03  0.61168209802E+03  0.00000000000E+00 0.  1.
          1    1    1    2  502    0 -0.14176924568E+02  0.29455776786E+02  0.10377297121E+02  0.34297467426E+02  0.00000000000E+00 0.  1.
</event>
<event>
 4    1  0.7416369E+003  0.2692254E+02  0.7546771E-02  0.1448388E+00
          2   -1    0    0  502    0  0.00000000000E+00  0.00000000000E+00  0.15081158868E+04  0.15081158868E+04  0.00000000000E+00 0.  1.
          1   -1    0    0  501    0 -0.00000000000E+00 -0.00000000000E+00 -0.70831626612E+00  0.70831626612E+00  0.00000000000E+00 0.  1.
          2    1    1    2  501    0 -0.11483617326E+02 -0.24350562413E+02  0.11814415640E+04  0.11817482780E+04  0.00000000000E+00 0.  1.
          1    1    1    2  502    0  0.11483617326E+02  0.24350562413E+02  0.32596600653E+03  0.32707592508E+03  0.00000000000E+00 0.  1.
</event>
<event>
 4    1  0.7416369E+003  0.2115423E+02  0.7546771E-02  0.1517074E+00
          2   -1    0    0  502    0  0.00000000000E+00  0.00000000000E+00  0.95739712396E+02  0.95739712396E+02  0.00000000000E+00 0.  1.
          1   -1    0    0  501    0 -0.00000000000E+00 -0.00000000000E+00 -0.41790023576E+02  0.41790023576E+02  0.00000000000E+00 0.  1.
          2    1    1    2  501    0  0.15539435082E+02 -0.14353657409E+02  0.91780090530E+02  0.94186445635E+02  0.00000000000E+00 0.  1.
          1    1    1    2  502    0 -0.15539435082E+02  0.14353657409E+02 -0.37830401710E+02  0.43343290337E+02  0.00000000000E+00 0.  1.
</event>
<event>
 4    1  0.7416369E+003  0.2346949E+02  0.7546771E-02  0.1486685E+00
          2   -1    0    0  502    0  0.00000000000E+00  0.00000000000E+00  0.53180580935E+03  0.53180580935E+03  0.00000000000E+00 0.  1.
          1   -1    0    0  501    0 -0.00000000000E+00 -0.00000000000E+00 -0.82059646819E+02  0.82059646819E+02  0.00000000000E+00 0.  1.
          2    1    1    2  501    0 -0.17372779627E+02  0.15779846601E+02  0.52986262153E+03  0.53038214028E+03  0.00000000000E+00 0.  1.
          1    1    1    2  502    0  0.17372779627E+02 -0.15779846601E+02 -0.80116458996E+02  0.83483315895E+02  0.00000000000E+00 0.  1.
</event>
<event>
 4    1  0.7416369E+003  0.4812661E+02  0.7546771E-02  0.1306506E+00
          2   -1    0    0  502    0  0.00000000000E+00  0.00000000000E+00  0.36809594285E+03  0.36809594285E+03  0.00000000000E+00 0. -1.
          1   -1    0    0  501    0 -0.00000000000E+00 -0.00000000000E+00 -0.31114650542E+02  0.31114650542E+02  0.00000000000E+00 0. -1.
          2    1    1    2  501    0  0.42311245317E+02 -0.22933152268E+02  0.34677409616E+03  0.35009776452E+03  0.00000000000E+00 0. -1.
          1    1    1    2  502    0 -0.42311245317E+02  0.22933152268E+02 -0.97928038470E+01  0.49112828878E+02  0.00000000000E+00 0. -1.
</event>
<event>
 4    1  0.7416369E+003  0.4033049E+02  0.7546771E-02  0.1346560E+00
          2   -1    0    0  502    0  0.00000000000E+00  0.00000000000E+00  0.20156211348E+04  0.20156211348E+04  0.00000000000E+00 0. -1.
          1   -1    0    0  501    0 -0.00000000000E+00 -0.00000000000E+00 -0.28253064047E+01  0.28253064047E+01  0.00000000000E+00 0. -1.
          2    1    1    2  501    0 -0.31615111645E+02 -0.25040621782E+02  0.18594020068E+04  0.18598393401E+04  0.00000000000E+00 0. -1.
          1    1    1    2  502    0  0.31615111645E+02  0.25040621782E+02  0.15339382165E+03  0.15860710117E+03  0.00000000000E+00 0. -1.
</event>
<event>
 4    1  0.7416369E+003  0.2074182E+02  0.7546771E-02  0.1522983E+00
          2   -1    0    0  502    0  0.00000000000E+00  0.00000000000E+00  0.67624491738E+01  0.67624491738E+01  0.00000000000E+00 0. -1.
          1   -1    0    0  501    0 -0.00000000000E+00 -0.00000000000E+00 -0.68531001698E+03  0.68531001698E+03  0.00000000000E+00 0.  1.
          2    1    1    2  501    0 -0.17843759407E+02  0.10574646137E+02 -0.96904855809E+01  0.22893850735E+02  0.00000000000E+00 0. -1.
          1    1    1    2  502    0  0.17843759407E+02 -0.10574646137E+02 -0.66885708223E+03  0.66917861542E+03  0.00000000000E+00 0.  1.
</event>
<event>
 4    1  0.7416369E+003  0.2838548E+02  0.7546771E-02  0.1434166E+00
          2   -1    0    0  502    0  0.00000000000E+00  0.00000000000E+00  0.15183733957E+04  0.15183733957E+04  0.00000000000E+00 0. -1.
          1   -1    0    0  501    0 -0.00000000000E+00 -0.00000000000E+00 -0.27080231220E+02  0.27080231220E+02  0.00000000000E+00 0.  1.
          2    1    1    2  501    0 -0.24794196453E+02 -0.13819665281E+02  0.15107648645E+04  0.15110315057E+04  0.00000000000E+00 0. -1.
          1    1    1    2  502    0  0.24794196453E+02  0.13819665281E+02 -0.19471700050E+02  0.34422121217E+02  0.00000000000E+00 0.  1.
</event>
<event>
 4    1  0.7416369E+003  0.2381178E+02  0.7546771E-02  0.1482549E+00
          2   -1    0    0  502    0  0.00000000000E+00  0.00000000000E+00  0.19289194039E+02  0.19289194039E+02  0.00000000000E+00 0. -1.
          1   -1    0    0  501    0 -0.00000000000E+00 -0.00000000000E+00 -0.65880503625E+02  0.65880503625E+02  0.00000000000E+00 0. -1.
          2    1    1    2  501    0  0.75613929000E+01  0.22579335856E+02  0.83955175224E+01  0.25248480840E+02  0.00000000000E+00 0. -1.
          1    1    1    2  502    0 -0.75613929000E+01 -0.22579335856E+02 -0.54986827108E+02  0.59921216825E+02  0.00000000000E+00 0. -1.
</event>
<event>
 4    1  0.7416369E+003  0.2374436E+02  0.7546771E-02  0.1483357E+00
          2   -1    0    0  502    0  0.00000000000E+00  0.00000000000E+00  0.21454517760E+03  0.21454517760E+03  0.00000000000E+00 0. -1.
          1   -1    0    0  501    0 -0.00000000000E+00 -0.00000000000E+00 -0.31420881075E+02  0.31420881075E+02  0.00000000000E+00 0. -1.
          2    1    1    2  501    0 -0.21043469551E+02 -0.10998511437E+02  0.20929010821E+03  0.21063272362E+03  0.00000000000E+00 0. -1.
          1    1    1    2  502    0  0.21043469551E+02  0.10998511437E+02 -0.26165811689E+02  0.35333335052E+02  0.00000000000E+00 0. -1.
</event>
<event>
 4    1  0.7416369E+003  0.2422848E+02  0.7546771E-02  0.1477623E+00
          2   -1    0    0  502    0  0.00000000000E+00  0.00000000000E+00  0.58861187998E+03  0.58861187998E+03  0.00000000000E+00 0. -1.
          1   -1    0    0  501    0 -0.00000000000E+00 -0.00000000000E+00 -0.66337453106E+01  0.66337453106E+01  0.00000000000E+00 0.  1.
          2    1    1    2  501    0 -0.23650398366E+02  0.52609638396E+01  0.56532942502E+03  0.56584837004E+03  0.00000000000E+00 0. -1.
          1    1    1    2  502    0  0.23650398366E+02 -0.52609638396E+01  0.16648709654E+02  0.29397255255E+02  0.00000000000E+00 0.  1.
</event>
<event>
 4    1  0.7416369E+003  0.2350173E+02  0.7546771E-02  0.1486292E+00
          2   -1    0    0  502    0  0.00000000000E+00  0.00000000000E+00  0.31276216526E+02  0.31276216526E+02  0.00000000000E+00 0. -1.
          1   -1    0    0  501    0 -0.00000000000E+00 -0.00000000000E+00 -0.42832878151E+02  0.42832878151E+02  0.00000000000E+00 0.  1.
          2    1    1    2  501    0 -0.14212516267E+02  0.18717255452E+02  0.22628394506E+02  0.32624768324E+02  0.00000000000E+00 0. -1.
          1    1    1    2  502    0  0.14212516267E+02 -0.18717255452E+02 -0.34185056131E+02  0.41484326353E+02  0.00000000000E+00 0.  1.
</event>
<event>
 4    1  0.7416369E+003  0.2092774E+02  0.7546771E-02  0.1520299E+00
          2   -1    0    0  502    0  0.00000000000E+00  0.00000000000E+00  0.58407816304E+02  0.58407816304E+02  0.00000000000E+00 0.  1.
          1   -1    0    0  501    0 -0.00000000000E+00 -0.00000000000E+00 -0.38350189670E+02  0.38350189670E+02  0.00000000000E+00 0.  1.
          2    1    1    2  501    0  0.30099874460E+01 -0.20710150942E+02  0.53421117215E+02  0.57374089457E+02  0.00000000000E+00 0.  1.
          1    1    1    2  502    0 -0.30099874460E+01  0.20710150942E+02 -0.33363490581E+02  0.39383916517E+02  0.00000000000E+00 0.  1.
</event>
<event>
 4    1  0.7416369E+003  0.2230973E+02  0.7546771E-02  0.1501353E+00
          2   -1    0    0  502    0  0.00000000000E+00  0.00000000000E+00  0.60957463374E+01  0.60957463374E+01  0.00000000000E+00 0.  1.
          1   -1    0    0  501    0 -0.00000000000E+00 -0.00000000000E+00 -0.37649834289E+03  0.37649834289E+03  0.00000000000E+00 0. -1.
          2    1    1    2  501    0 -0.15672969986E+02 -0.15877096341E+02 -0.15913643772E+02  0.27403799636E+02  0.00000000000E+00 0.  1.
          1    1    1    2  502    0  0.15672969986E+02  0.15877096341E+02 -0.35448895279E+03  0.35519028960E+03  0.00000000000E+00 0. -1.
</event>
<event>
 4    1  0.7416369E+003  0.9475035E+02  0.7546771E-02  0.1173229E+00
          2   -1    0    0  502    0  0.00000000000E+00  0.00000000000E+00  0.15519114105E+03  0.15519114105E+03  0.00000000000E+00 0. -1.
          1   -1    0    0  501    0 -0.00000000000E+00 -0.00000000000E+00 -0.20330431796E+03  0.20330431796E+03  0.00000000000E+00 0.  1.
          2    1    1    2  501    0 -0.51433494466E+02  0.79575276881E+02  0.12755953482E+03  0.15889954049E+03  0.00000000000E+00 0. -1.
          1    1    1    2  502    0  0.51433494466E+02 -0.79575276881E+02 -0.17567271173E+03  0.19959591852E+03  0.00000000000E+00 0.  1.
</event>
<event>
 4    1  0.7416369E+003  0.4016663E+02  0.7546771E-02  0.1347512E+00
          2   -1    0    0  502    0  0.00000000000E+00  0.00000000000E+00  0.31902857211E+03  0.31902857211E+03  0.00000000000E+00 0.  1.
          1   -1    0    0  501    0 -0.00000000000E+00 -0.00000000000E+00 -0.60415289580E+02  0.60415289580E+02  0.00000000000E+00 0. -1.
          2    1    1    2  501    0  0.19718564171E+02 -0.34993370951E+02  0.31091467831E+03  0.31349847683E+03  0.00000000000E+00 0.  1.
          1    1    1    2  502    0 -0.19718564171E+02  0.34993370951E+02 -0.52301395784E+02  0.65945384860E+02  0.00000000000E+00 0. -1.
</event>
<event>
 4    1  0.7416369E+003  0.6669928E+02  0.7546771E-02  0.1238626E+00
          2   -1    0    0  502    0  0.00000000000E+00  0.00000000000E+00  0.42876481837E+04  0.42876481837E+04  0.00000000000E+00 0. -1.
          1   -1    0    0  501    0 -0.00000000000E+00 -0.00000000000E+00 -0.13945094769E+01  0.13945094769E+01  0.00000000000E+00 0.  1.
          2    1    1    2  501    0 -0.63946547454E+02  0.18963998474E+02  0.32280739098E+04  0.32287629150E+04  0.00000000000E+00 0. -1.
          1    1    1    2  502    0  0.63946547454E+02 -0.18963998474E+02  0.10581797644E+04  0.10602797782E+04  0.00000000000E+00 0.  1.
</event>
<event>
 4    1  0.7416369E+003  0.2038595E+02  0.7546771E-02  0.1528215E+00
          2   -1    0    0  502    0  0.00000000000E+00  0.00000000000E+00  0.83223756232E+01  0.83223756232E+01  0.00000000000E+00 0.  1.
          1   -1    0    0  501    0 -0.00000000000E+00 -0.00000000000E+00 -0.11351525255E+03  0.11351525255E+03  0.00000000000E+00 0.  1.
          2    1    1    2  501    0 -0.16625001405E+02  0.11798154244E+02 -0.70051734232E+01  0.21555963675E+02  0.00000000000E+00 0.  1.
          1    1    1    2  502    0  0.16625001405E+02 -0.11798154244E+02 -0.98187703504E+02  0.10028166450E+03  0.00000000000E+00 0.  1.
</event>
<event>
 4    1  0.7416369E+003  0.3437207E+02  0.7546771E-02  0.1385032E+00
          2   -1    0    0  502    0  0.00000000000E+00  0.00000000000E+00  0.19834819927E+03  0.19834819927E+03  0.00000000000E+00 0.  1.
          1   -1    0    0  501    0 -0.00000000000E+00 -0.00000000000E+00 -0.19071121311E+02  0.19071121311E+02  0.00000000000E+00 0. -1.
          2    1    1    2  501    0 -0.30441103187E+01 -0.34237004170E+02  0.17978729475E+03  0.18304346592E+03  0.00000000000E+00 0.  1.
          1    1    1    2  502    0  0.30441103187E+01  0.34237004170E+02 -0.51021679787E+00  0.34375854656E+02  0.00000000000E+00 0. -1.
</event>
<event>
 4    1  0.7416369E+003  0.3685202E+02  0.7546771E-02  0.1367990E+00
          2   -1    0    0  502    0  0.00000000000E+00  0.00000000000E+00  0.64357610182E+02  0.64357610182E+02  0.00000000000E+00 0.  1.
          1   -1    0    0  501    0 -0.00000000000E+00 -0.00000000000E+00 -0.13875588340E+03  0.13875588340E+03  0.00000000000E+00 0. -1.
          2    1    1    2  501    0  0.24020772238E+02 -0.27947699196E+02  0.56316943336E+02  0.67302819376E+02  0.00000000000E+00 0.  1.
          1    1    1    2  502    0 -0.24020772238E+02  0.27947699196E+02 -0.13071521655E+03  0.13581067420E+03  0.00000000000E+00 0. -1.
</event>
<event>
 4    1  0.7416369E+003  0.2681021E+02  0.7546771E-02  0.1449524E+00
          2   -1    0    0  502    0  0.00000000000E+00  0.00000000000E+00  0.11344022372E+04  0.11344022372E+04  0.00000000000E+00 0.  1.
          1   -1    0    0  501    0 -0.00000000000E+00 -0.00000000000E+00 -0.55399773432E+02  0.55399773432E+02  0.00000000000E+00 0.  1.
          2    1    1    2  501    0  0.67321820806E+01  0.25951206631E+02  0.11309904082E+04  0.11313081326E+04  0.00000000000E+00 0.  1.
          1    1    1    2  502    0 -0.67321820806E+01 -0.25951206631E+02 -0.51987944441E+02  0.58493878042E+02  0.00000000000E+00 0.  1.
</event>
<event>
 4    1  0.7416369E+003  0.3221406E+02  0.7546771E-02  0.1401284E+00
          2   -1    0    0  502    0  0.00000000000E+00  0.00000000000E+00  0.39638464365E+02  0.39638464365E+02  0.00000000000E+00 0. -1.
          1   -1    0    0  501    0 -0.00000000000E+00 -0.00000000000E+00 -0.53796365744E+02  0.53796365744E+02  0.00000000000E+00 0. -1.
          2    1    1    2  501    0 -0.26724349197E+02  0.17987626763E+02  0.26393191215E+02  0.41645481136E+02  0.00000000000E+00 0. -1.
          1    1    1    2  502    0  0.26724349197E+02 -0.17987626763E+02 -0.40551092593E+02  0.51789348973E+02  0.00000000000E+00 0. -1.
</event>
<event>
 4    1  0.7416369E+003  0.4423422E+02  0.7546771E-02  0.1325313E+00
          2   -1    0    0  502    0  0.00000000000E+00  0.00000000000E+00  0.18201901124E+04  0.18201901124E+04  0.00000000000E+00 0. -1.
          1   -1    0    0  501    0 -0.00000000000E+00 -0.00000000000E+00 -0.27245813184E+02  0.27245813184E+02  0.00000000000E+00 0. -1.
          2    1    1    2  501    0 -0.15453168093E+01  0.44207218340E+02  0.18017841656E+04  0.18023270640E+04  0.00000000000E+00 0. -1.
          1    1    1    2  502    0  0.15453168093E+01 -0.44207218340E+02 -0.88398663828E+01  0.45108861602E+02  0.00000000000E+00 0. -1.
</event>
<event>
 4    1  0.7416369E+003  0.4262118E+02  0.7546771E-02  0.1333774E+00
          2   -1    0    0  502    0  0.00000000000E+00  0.00000000000E+00  0.16255324982E+04  0.16255324982E+04  0.00000000000E+00 0. -1.
          1   -1    0    0  501    0 -0.00000000000E+00 -0.00000000000E+00 -0.11992300975E+02  0.11992300975E+02  0.00000000000E+00 0. -1.
          2    1    1    2  501    0 -0.32510527981E+02 -0.27561397288E+02  0.15864509891E+04  0.15870234106E+04  0.00000000000E+00 0. -1.
          1    1    1    2  502    0  0.32510527981E+02  0.27561397288E+02  0.27089208151E+02  0.50501388578E+02  0.00000000000E+00 0. -1.
</event>
<event>
 4    1  0.7416369E+003  0.2450054E+02  0.7546771E-02  0.1474469E+00
          2   -1    0    0  502    0  0.00000000000E+00  0.00000000000E+00  0.54236273683E+01  0.54236273683E+01  0.00000000000E+00 0. -1.
          1   -1    0    0  501    0 -0.00000000000E+00 -0.00000000000E+00 -0.11678336610E+03  0.11678336610E+03  0.00000000000E+00 0.  1.
          2    1    1    2  501    0  0.14521021708E+02  0.19733620267E+02 -0.69651078056E+02  0.73834602421E+02  0.00000000000E+00 0. -1.
          1    1    1    2  502    0 -0.14521021708E+02 -0.19733620267E+02 -0.41708660676E+02  0.48372391048E+02  0.00000000000E+00 0.  1.
</event>
<event>
 4    1  0.7416369E+003  0.2393771E+02  0.7546771E-02  0.1481047E+00
          2   -1    0    0  502    0  0.00000000000E+00  0.00000000000E+00  0.58262500511E+03  0.58262500511E+03  0.00000000000E+00 0. -1.
          1   -1    0    0  501    0 -0.00000000000E+00 -0.00000000000E+00 -0.80658010938E+02  0.80658010938E+02  0.00000000000E+00 0.  1.
          2    1    1    2  501    0 -0.22881636041E+02  0.70316945943E+01  0.58059686723E+03  0.58109012746E+03  0.00000000000E+00 0. -1.
          1    1    1    2  502    0  0.22881636041E+02 -0.70316945943E+01 -0.78629873058E+02  0.82192888585E+02  0.00000000000E+00 0.  1.
</event>
<event>
 4    1  0.7416369E+003  0.2652898E+02  0.7546771E-02  0.1452398E+00
          2   -1    0    0  502    0  0.00000000000E+00  0.00000000000E+00  0.17387962761E+04  0.17387962761E+04  0.00000000000E+00 0. -1.
          1   -1    0    0  501    0 -0.00000000000E+00 -0.00000000000E+00 -0.30642917236E+02  0.30642917236E+02  0.00000000000E+00 0.  1.
          2    1    1    2  501    0  0.26243661428E+02 -0.38803348217E+01  0.17329338252E+04  0.17331368756E+04  0.00000000000E+00 0. -1.
          1    1    1    2  502    0 -0.26243661428E+02  0.38803348217E+01 -0.24780466365E+02  0.36302317788E+02  0.00000000000E+00 0.  1.
</event>
<event>
 4    1  0.7416369E+003  0.2598839E+02  0.7546771E-02  0.1458043E+00
          2   -1    0    0  502    0  0.00000000000E+00  0.00000000000E+00  0.15417879100E+04  0.15417879100E+04  0.00000000000E+00 0.  1.
          1   -1    0    0  501    0 -0.00000000000E+00 -0.00000000000E+00 -0.97477642828E+00  0.97477642828E+00  0.00000000000E+00 0.  1.
          2    1    1    2  501    0  0.22037381037E+02 -0.13774985362E+02  0.13427923825E+04  0.13430438484E+04  0.00000000000E+00 0.  1.
          1    1    1    2  502    0 -0.22037381037E+02  0.13774985362E+02  0.19802075108E+03  0.19971883798E+03  0.00000000000E+00 0.  1.
</event>
<event>
 4    1  0.7416369E+003  0.2362699E+02  0.7546771E-02  0.1484772E+00
          2   -1    0    0  502    0  0.00000000000E+00  0.00000000000E+00  0.87226423852E+02  0.87226423852E+02  0.00000000000E+00 0. -1.
          1   -1    0    0  501    0 -0.00000000000E+00 -0.00000000000E+00 -0.10014710320E+04  0.10014710320E+04  0.00000000000E+00 0.  1.
          2    1    1    2  501    0 -0.54440680034E+00  0.23620719729E+02  0.85484323577E+02  0.88689370032E+02  0.00000000000E+00 0. -1.
          1    1    1    2  502    0  0.54440680034E+00 -0.23620719729E+02 -0.99972893168E+03  0.10000080858E+04  0.00000000000E+00 0.  1.
</event>
<event>
 4    1  0.7416369E+003  0.2172487E+02  0.7546771E-02  0.1509162E+00
          2   -1    0    0  502    0  0.00000000000E+00  0.00000000000E+00  0.87251925731E+02  0.87251925731E+02  0.00000000000E+00 0.  1.
          1   -1    0    0  501    0 -0.00000000000E+00 -0.00000000000E+00 -0.21210743329E+02  0.21210743329E+02  0.00000000000E+00 0.  1.
          2    1    1    2  501    0  0.20940607239E+02 -0.57845535954E+01  0.79828690025E+02  0.82732036376E+02  0.00000000000E+00 0.  1.
          1    1    1    2  502    0 -0.20940607239E+02  0.57845535954E+01 -0.13787507623E+02  0.25730632684E+02  0.00000000000E+00 0.  1.
</event>
<event>
 4    1  0.7416369E+003  0.2348763E+02  0.7546771E-02  0.1486464E+00
          2   -1    0    0  502    0  0.00000000000E+00  0.00000000000E+00  0.69905629523E+02  0.69905629523E+02  0.00000000000E+00 0. -1.
          1   -1    0    0  501    0 -0.00000000000E+00 -0.00000000000E+00 -0.75057653689E+02  0.75057653689E+02  0.00000000000E+00 0.  1.
          2    1    1    2  501    0  0.78877416089E+01 -0.22123571282E+02  0.65989444223E+02  0.70044811534E+02  0.00000000000E+00 0. -1.
          1    1    1    2  502    0 -0.78877416089E+01  0.22123571282E+02 -0.71141468389E+02  0.74918471678E+02  0.00000000000E+00 0.  1.
</event>
<event>
 4    1  0.7416369E+003  0.2285423E+02  0.7546771E-02  0.1494337E+00
          2   -1    0    0  502    0  0.00000000000E+00  0.00000000000E+00  0.20875317596E+02  0.20875317596E+02  0.00000000000E+00 0. -1.
          1   -1    0    0  501    0 -0.00000000000E+00 -0.00000000000E+00 -0.36751520604E+02  0.36751520604E+02  0.00000000000E+00 0. -1.
          2    1    1    2  501    0  0.21701922456E+02  0.71653520762E+01  0.83406375055E+01  0.24328623937E+02  0.00000000000E+00 0. -1.
          1    1    1    2  502    0 -0.21701922456E+02 -0.71653520762E+01 -0.24216840513E+02  0.33298214263E+02  0.00000000000E+00 0. -1.
</event>
<event>
 4    1  0.7416369E+003  0.2350839E+02  0.7546771E-02  0.1486211E+00
          2   -1    0    0  502    0  0.00000000000E+00  0.00000000000E+00  0.72422666500E+01  0.72422666500E+01  0.00000000000E+00 0. -1.
          1   -1    0    0  501    0 -0.00000000000E+00 -0.00000000000E+00 -0.12610701254E+03  0.12610701254E+03  0.00000000000E+00 0. -1.
          2    1    1    2  501    0  0.20047704648E+02  0.12277372206E+02 -0.17533672498E+02  0.29327018280E+02  0.00000000000E+00 0. -1.
          1    1    1    2  502    0 -0.20047704648E+02 -0.12277372206E+02 -0.10133107339E+03  0.10402226091E+03  0.00000000000E+00 0. -1.
</event>
<event>
 4    1  0.7416369E+003  0.2063653E+02  0.7546771E-02  0.1524518E+00
          2   -1    0    0  502    0  0.00000000000E+00  0.00000000000E+00  0.28972955247E+02  0.28972955247E+02  0.00000000000E+00 0. -1.
          1   -1    0    0  501    0 -0.00000000000E+00 -0.00000000000E+00 -0.62888515315E+02  0.62888515315E+02  0.00000000000E+00 0. -1.
          2    1    1    2  501    0  0.18675330774E+02 -0.87805763170E+01  0.23248610794E+02  0.31086402233E+02  0.00000000000E+00 0. -1.
          1    1    1    2  502    0 -0.18675330774E+02  0.87805763170E+01 -0.57164170862E+02  0.60775068328E+02  0.00000000000E+00 0. -1.
</event>
<event>
 4    1  0.7416369E+003  0.2168493E+02  0.7546771E-02  0.1509706E+00
          2   -1    0    0  502    0  0.00000000000E+00  0.00000000000E+00  0.60600466929E+01  0.60600466929E+01  0.00000000000E+00 0.  1.
          1   -1    0    0  501    0 -0.00000000000E+00 -0.00000000000E+00 -0.28345388623E+03  0.28345388623E+03  0.00000000000E+00 0. -1.
          2    1    1    2  501    0  0.11104842622E+01  0.21656477034E+02 -0.15334783156E+02  0.26559212098E+02  0.00000000000E+00 0.  1.
          1    1    1    2  502    0 -0.11104842622E+01 -0.21656477034E+02 -0.26205905638E+03  0.26295472083E+03  0.00000000000E+00 0. -1.
</event>
<event>
 4    1  0.7416369E+003  0.3482885E+02  0.7546771E-02  0.1381770E+00
          2   -1    0    0  502    0  0.00000000000E+00  0.00000000000E+00  0.13073729666E+04  0.13073729666E+04  0.00000000000E+00 0. -1.
          1   -1    0    0  501    0 -0.00000000000E+00 -0.00000000000E+00 -0.39990625079E+02  0.39990625079E+02  0.00000000000E+00 0. -1.
          2    1    1    2  501    0  0.21349075397E+02  0.27518464043E+02  0.12995118050E+04  0.12999784537E+04  0.00000000000E+00 0. -1.
          1    1    1    2  502    0 -0.21349075397E+02 -0.27518464043E+02 -0.32129463412E+02  0.47385137995E+02  0.00000000000E+00 0. -1.
</event>
<event>
 4    1  0.7416369E+003  0.2610633E+02  0.7546771E-02  0.1456798E+00
          2   -1    0    0  502    0  0.00000000000E+00  0.00000000000E+00  0.33415183687E+03  0.33415183687E+03  0.00000000000E+00 0.  1.
          1   -1    0    0  501    0 -0.00000000000E+00 -0.00000000000E+00 -0.55388500337E+01  0.55388500337E+01  0.00000000000E+00 0.  1.
          2    1    1    2  501    0  0.11308390726E+01 -0.26081823354E+02  0.29930549149E+03  0.30044187049E+03  0.00000000000E+00 0.  1.
          1    1    1    2  502    0 -0.11308390726E+01  0.26081823354E+02  0.29307495344E+02  0.39248816413E+02  0.00000000000E+00 0.  1.
</event>
<event>
 4    1  0.7416369E+003  0.2746718E+02  0.7546771E-02  0.1442971E+00
          2   -1    0    0  502    0  0.00000000000E+00  0.00000000000E+00  0.41783045861E+02  0.41783045861E+02  0.00000000000E+00 0.  1.
          1   -1    0    0  501    0 -0.00000000000E+00 -0.00000000000E+00 -0.89007660832E+02  0.89007660832E+02  0.00000000000E+00 0.  1.
          2    1    1    2  501    0  0.22563069161E+02  0.15663769022E+02  0.34774357414E+02  0.44313673775E+02  0.00000000000E+00 0.  1.
          1    1    1    2  502    0 -0.22563069161E+02 -0.15663769022E+02 -0.81998972385E+02  0.86477032917E+02  0.00000000000E+00 0.  1.
</event>
<event>
 4    1  0.7416369E+003  0.2114919E+02  0.7546771E-02  0.1517145E+00
          2   -1    0    0  502    0  0.00000000000E+00  0.00000000000E+00  0.30634820764E+03  0.30634820764E+03  0.00000000000E+00 0. -1.
          1   -1    0    0  501    0 -0.00000000000E+00 -0.00000000000E+00 -0.86803377852E+01  0.86803377852E+01  0.00000000000E+00 0. -1.
          2    1    1    2  501    0 -0.20999969744E+02  0.25078768888E+01  0.29249147124E+03  0.29325509190E+03  0.00000000000E+00 0. -1.
          1    1    1    2  502    0  0.20999969744E+02 -0.25078768888E+01  0.51763986106E+01  0.21773453523E+02  0.00000000000E+00 0. -1.
</event>
<event>
 4    1  0.7416369E+003  0.2302109E+02  0.7546771E-02  0.1492233E+00
          2   -1    0    0  502    0  0.00000000000E+00  0.00000000000E+00  0.62725503965E+03  0.62725503965E+03  0.00000000000E+00 0. -1.
          1   -1    0    0  501    0 -0.00000000000E+00 -0.00000000000E+00 -0.91273744401E+00  0.91273744401E+00  0.00000000000E+00 0.  1.
          2    1    1    2  501    0 -0.20889567200E+02  0.96745360800E+01  0.39879460640E+03  0.39945851945E+03  0.00000000000E+00 0. -1.
          1    1    1    2  502    0  0.20889567200E+02 -0.96745360800E+01  0.22754769581E+03  0.22870925765E+03  0.00000000000E+00 0.  1.
</event>
<event>
 4    1  0.7416369E+003  0.3470538E+02  0.7546771E-02  0.1382646E+00
          2   -1    0    0  502    0  0.00000000000E+00  0.00000000000E+00  0.95386208139E+03  0.95386208139E+03  0.00000000000E+00 0. -1.
          1   -1    0    0  501    0 -0.00000000000E+00 -0.00000000000E+00 -0.73135900416E+02  0.73135900416E+02  0.00000000000E+00 0. -1.
          2    1    1    2  501    0  0.15822728562E+02 -0.30888582825E+02  0.94940989033E+03  0.95004400064E+03  0.00000000000E+00 0. -1.
          1    1    1    2  502    0 -0.15822728562E+02  0.30888582825E+02 -0.68683709352E+02  0.76953981173E+02  0.00000000000E+00 0. -1.
</event>
<event>
 4    1  0.7416369E+003  0.2578337E+02  0.7546771E-02  0.1460228E+00
          2   -1    0    0  502    0  0.00000000000E+00  0.00000000000E+00  0.15669895163E+04  0.15669895163E+04  0.00000000000E+00 0.  1.
          1   -1    0    0  501    0 -0.00000000000E+00 -0.00000000000E+00 -0.11139080865E+01  0.11139080865E+01  0.00000000000E+00 0.  1.
          2    1    1    2  501    0  0.62658794646E+01 -0.25010420974E+02  0.13998729862E+04  0.14001104099E+04  0.00000000000E+00 0.  1.
          1    1    1    2  502    0 -0.62658794646E+01  0.25010420974E+02  0.16600262203E+03  0.16799301451E+03  0.00000000000E+00 0.  1.
</event>
<event>
 4    1  0.7416369E+003  0.3436425E+02  0.7546771E-02  0.1385089E+00
          2   -1    0    0  502    0  0.00000000000E+00  0.00000000000E+00  0.54230300133E+01  0.54230300133E+01  0.00000000000E+00 0. -1.
          1   -1    0    0  501    0 -0.00000000000E+00 -0.00000000000E+00 -0.23309468911E+03  0.23309468911E+03  0.00000000000E+00 0. -1.
          2    1    1    2  501    0 -0.27043459742E+02 -0.21202671715E+02 -0.83243935248E+02  0.90058063261E+02  0.00000000000E+00 0. -1.
          1    1    1    2  502    0  0.27043459742E+02  0.21202671715E+02 -0.14442772385E+03  0.14845965586E+03  0.00000000000E+00 0. -1.
</event>
<event>
 4    1  0.7416369E+003  0.2473172E+02  0.7546771E-02  0.1471827E+00
          2   -1    0    0  502    0  0.00000000000E+00  0.00000000000E+00  0.45117016633E+03  0.45117016633E+03  0.00000000000E+00 0. -1.
          1   -1    0    0  501    0 -0.00000000000E+00 -0.00000000000E+00 -0.48588402007E+01  0.48588402007E+01  0.00000000000E+00 0. -1.
          2    1    1    2  501    0 -0.24731380778E+02  0.13015791524E+00  0.41676397441E+03  0.41749714789E+03  0.00000000000E+00 0. -1.
          1    1    1    2  502    0  0.24731380778E+02 -0.13015791524E+00  0.29547351728E+02  0.38531858642E+02  0.00000000000E+00 0. -1.
</event>
<event>
 4    1  0.7416369E+003  0.2469354E+02  0.7546771E-02  0.1472261E+00
          2   -1    0    0  502    0  0.00000000000E+00  0.00000000000E+00  0.15794412390E+01  0.15794412390E+01  0.00000000000E+00 0. -1.
          1   -1    0    0  501    0 -0.00000000000E+00 -0.00000000000E+00 -0.40461486893E+03  0.40461486893E+03  0.00000000000E+00 0. -1.
          2    1    1    2  501    0  0.13853852486E+02 -0.20441175662E+02 -0.15803422638E+03  0.15995182900E+03  0.00000000000E+00 0. -1.
          1    1    1    2  502    0 -0.13853852486E+02  0.20441175662E+02 -0.24500120131E+03  0.24624248117E+03  0.00000000000E+00 0. -1.
</event>
<event>
 4    1  0.7416369E+003  0.2692691E+02  0.7546771E-02  0.1448344E+00
          2   -1    0    0  502    0  0.00000000000E+00  0.00000000000E+00  0.97054160792E+02  0.97054160792E+02  0.00000000000E+00 0.  1.
          1   -1    0    0  501    0 -0.00000000000E+00 -0.00000000000E+00 -0.13936238678E+03  0.13936238678E+03  0.00000000000E+00 0.  1.
          2    1    1    2  501    0  0.25439397670E+02 -0.88258436908E+01  0.93842187075E+02  0.97628963662E+02  0.00000000000E+00 0.  1.
          1    1    1    2  502    0 -0.25439397670E+02  0.88258436908E+01 -0.13615041306E+03  0.13878758391E+03  0.00000000000E+00 0.  1.
</event>
<event>
 4    1  0.7416369E+003  0.3735927E+02  0.7546771E-02  0.1364696E+00
          2   -1    0    0  502    0  0.00000000000E+00  0.00000000000E+00  0.73322002667E+02  0.73322002667E+02  0.00000000000E+00 0.  1.
          1   -1    0    0  501    0 -0.00000000000E+00 -0.00000000000E+00 -0.20492943413E+03  0.20492943413E+03  0.00000000000E+00 0. -1.
          2    1    1    2  501    0 -0.34782540164E+02 -0.13634136622E+02  0.66703020667E+02  0.76452650365E+02  0.00000000000E+00 0.  1.
          1    1    1    2  502    0  0.34782540164E+02  0.13634136622E+02 -0.19831045213E+03  0.20179878643E+03  0.00000000000E+00 0. -1.
</event>
<event>
 4    1  0.7416369E+003  0.3171146E+02  0.7546771E-02  0.1405285E+00
          2   -1    0    0  502    0  0.00000000000E+00  0.00000000000E+00  0.37311838010E+02  0.37311838010E+02  0.00000000000E+00 0. -1.
          1   -1    0    0  501    0 -0.00000000000E+00 -0.00000000000E+00 -0.48638139729E+02  0.48638139729E+02  0.00000000000E+00 0.  1.
          2    1    1    2  501    0  0.30559785987E+02 -0.84685357297E+01  0.23032868198E+02  0.39193489694E+02  0.00000000000E+00 0. -1.
          1    1    1    2  502    0 -0.30559785987E+02  0.84685357297E+01 -0.34359169916E+02  0.46756488045E+02  0.00000000000E+00 0.  1.
</event>
<event>
 4    1  0.7416369E+003  0.2877191E+02  0.7546771E-02  0.1430577E+00
          2   -1    0    0  502    0  0.00000000000E+00  0.00000000000E+00  0.18037651873E+02  0.18037651873E+02  0.00000000000E+00 0. -1.
          1   -1    0    0  501    0 -0.00000000000E+00 -0.00000000000E+00 -0.56774051470E+02  0.56774051470E+02  0.00000000000E+00 0.  1.
          2    1    1    2  501    0 -0.24667309592E+02  0.14810356229E+02 -0.29933637843E+01  0.28927202438E+02  0.00000000000E+00 0. -1.
          1    1    1    2  502    0  0.24667309592E+02 -0.14810356229E+02 -0.35743035813E+02  0.45884500904E+02  0.00000000000E+00 0.  1.
</event>
<event>
 4    1  0.7416369E+003  0.5635822E+02  0.7546771E-02  0.1272735E+00
          2   -1    0    0  502    0  0.00000000000E+00  0.00000000000E+00  0.16430512575E+02  0.16430512575E+02  0.00000000000E+00 0.  1.
          1   -1    0    0  501    0 -0.00000000000E+00 -0.00000000000E+00 -0.21176278593E+03  0.21176278593E+03  0.00000000000E+00 0.  1.
          2    1    1    2  501    0 -0.55612663156E+02  0.91367899955E+01 -0.63989310287E+02  0.85269461507E+02  0.00000000000E+00 0.  1.
          1    1    1    2  502    0  0.55612663156E+02 -0.91367899955E+01 -0.13134296306E+03  0.14292383699E+03  0.00000000000E+00 0.  1.
</event>
<event>
 4    1  0.7416369E+003  0.2473132E+02  0.7546771E-02  0.1471832E+00
          2   -1    0    0  502    0  0.00000000000E+00  0.00000000000E+00  0.19839740220E+03  0.19839740220E+03  0.00000000000E+00 0.  1.
          1   -1    0    0  501    0 -0.00000000000E+00 -0.00000000000E+00 -0.72195129620E+01  0.72195129620E+01  0.00000000000E+00 0. -1.
          2    1    1    2  501    0  0.22284208835E+02 -0.10726231780E+02  0.17341010317E+03  0.17516478497E+03  0.00000000000E+00 0.  1.
          1    1    1    2  502    0 -0.22284208835E+02  0.10726231780E+02  0.17767786069E+02  0.30452130195E+02  0.00000000000E+00 0. -1.
</event>
<event>
 4    1  0.7416369E+003  0.2049031E+02  0.7546771E-02  0.1526668E+00
          2   -1    0    0  502    0  0.00000000000E+00  0.00000000000E+00  0.78751535897E+03  0.78751535897E+03  0.00000000000E+00 0.  1.
          1   -1    0    0  501    0 -0.00000000000E+00 -0.00000000000E+00 -0.17315741665E+02  0.17315741665E+02  0.00000000000E+00 0. -1.
          2    1    1    2  501    0 -0.29093777317E+01  0.20282706813E+02  0.78127192238E+03  0.78154057436E+03  0.00000000000E+00 0.  1.
          1    1    1    2  502    0  0.29093777317E+01 -0.20282706813E+02 -0.11072305074E+02  0.23290526273E+02  0.00000000000E+00 0. -1.
</event>
<event>
 4    1  0.7416369E+003  0.4777429E+02  0.7546771E-02  0.1308122E+00
          2   -1    0    0  502    0  0.00000000000E+00  0.00000000000E+00  0.35157687623E+03  0.35157687623E+03  0.00000000000E+00 0.  1.
          1   -1    0    0  501    0 -0.00000000000E+00 -0.00000000000E+00 -0.48734587296E+02  0.48734587296E+02  0.00000000000E+00 0. -1.
          2    1    1    2  501    0  0.44065521359E+02  0.18455700293E+02  0.33776944231E+03  0.34113132252E+03  0.00000000000E+00 0.  1.
          1    1    1    2  502    0 -0.44065521359E+02 -0.18455700293E+02 -0.34927153379E+02  0.59180141002E+02  0.00000000000E+00 0. -1.
</event>
<event>
 4    1  0.7416369E+003  0.2809373E+02  0.7546771E-02  0.1436920E+00
          2   -1    0    0  502    0  0.00000000000E+00  0.00000000000E+00  0.12484151789E+03  0.12484151789E+03  0.00000000000E+00 0.  1.
          1   -1    0    0  501    0 -0.00000000000E+00 -0.00000000000E+00 -0.97863683108E+01  0.97863683108E+01  0.00000000000E+00 0. -1.
          2    1    1    2  501    0  0.17185167584E+02 -0.22224482628E+02  0.97577480087E+02  0.10154123415E+03  0.00000000000E+00 0.  1.
          1    1    1    2  502    0 -0.17185167584E+02  0.22224482628E+02  0.17477669493E+02  0.33086652049E+02  0.00000000000E+00 0. -1.
</event>
<event>
 4    1  0.7416369E+003  0.2385312E+02  0.7546771E-02  0.1482055E+00
          2   -1    0    0  502    0  0.00000000000E+00  0.00000000000E+00  0.90972108965E+01  0.90972108965E+01  0.00000000000E+00 0. -1.
          1   -1    0    0  501    0 -0.00000000000E+00 -0.00000000000E+00 -0.83923270569E+02  0.83923270569E+02  0.00000000000E+00 0. -1.
          2    1    1    2  501    0  0.79337100419E+01 -0.22495061548E+02 -0.13937859523E+02  0.27626716728E+02  0.00000000000E+00 0. -1.
          1    1    1    2  502    0 -0.79337100419E+01  0.22495061548E+02 -0.60888200150E+02  0.65393764738E+02  0.00000000000E+00 0. -1.
</event>
<event>
 4    1  0.7416369E+003  0.2520123E+02  0.7546771E-02  0.1466565E+00
          2   -1    0    0  502    0  0.00000000000E+00  0.00000000000E+00  0.12413271523E+04  0.12413271523E+04  0.00000000000E+00 0. -1.
          1   -1    0    0  501    0 -0.00000000000E+00 -0.00000000000E+00 -0.10130239380E+02  0.10130239380E+02  0.00000000000E+00 0. -1.
          2    1    1    2  501    0  0.23995562004E+02  0.77016257562E+01  0.12253211071E+04  0.12255802371E+04  0.00000000000E+00 0. -1.
          1    1    1    2  502    0 -0.23995562004E+02 -0.77016257562E+01  0.58758058048E+01  0.25877154577E+02  0.00000000000E+00 0. -1.
</event>
<event>
 4    1  0.7416369E+003  0.2299094E+02  0.7546771E-02  0.1492612E+00
          2   -1    0    0  502    0  0.00000000000E+00  0.00000000000E+00  0.85909759126E+02  0.85909759126E+02  0.00000000000E+00 0. -1.
          1   -1    0    0  501    0 -0.00000000000E+00 -0.00000000000E+00 -0.15283053275E+02  0.15283053275E+02  0.00000000000E+00 0. -1.
          2    1    1    2  501    0 -0.12667820184E+02  0.19186179172E+02  0.74420550128E+02  0.77890958530E+02  0.00000000000E+00 0. -1.
          1    1    1    2  502    0  0.12667820184E+02 -0.19186179172E+02 -0.37938442773E+01  0.23301853871E+02  0.00000000000E+00 0. -1.
</event>
<event>
 4    1  0.1473147E+004  0.2145464E+02  0.7546771E-02  0.1512872E+00
          2   -1    0    0  502    0  0.00000000000E+00  0.00000000000E+00  0.10327104385E+04  0.10327104385E+04  0.00000000000E+00 0.  1.
          1   -1    0    0  501    0 -0.00000000000E+00 -0.00000000000E+00 -0.59614902159E+03  0.59614902159E+03  0.00000000000E+00 0. -1.
          2    1    1    2  501    0 -0.38863404057E+01 -0.21099710254E+02  0.10324059200E+04  0.10326288225E+04  0.00000000000E+00 0.  1.
          1    1    1    2  502    0  0.38863404057E+01  0.21099710254E+02 -0.59584450306E+03  0.59623063762E+03  0.00000000000E+00 0. -1.
</event>
<event>
 4    1  0.7416369E+003  0.2352799E+02  0.7546771E-02  0.1485972E+00
          2   -1    0    0  502    0  0.00000000000E+00  0.00000000000E+00  0.14878565003E+02  0.14878565003E+02  0.00000000000E+00 0.  1.
          1   -1    0    0  501    0 -0.00000000000E+00 -0.00000000000E+00 -0.75165075909E+03  0.75165075909E+03  0.00000000000E+00 0.  1.
          2    1    1    2  501    0 -0.18211649172E+01  0.23457405297E+02  0.52726603757E+01  0.24111562628E+02  0.00000000000E+00 0.  1.
          1    1    1    2  502    0  0.18211649172E+01 -0.23457405297E+02 -0.74204485446E+03  0.74241776146E+03  0.00000000000E+00 0.  1.
</event>
<event>
 4    1  0.7416369E+003  0.3029686E+02  0.7546771E-02  0.1417034E+00
          2   -1    0    0  502    0  0.00000000000E+00  0.00000000000E+00  0.19401885616E+02  0.19401885616E+02  0.00000000000E+00 0. -1.
          1   -1    0    0  501    0 -0.00000000000E+00 -0.00000000000E+00 -0.40321690262E+03  0.40321690262E+03  0.00000000000E+00 0.  1.
          2    1    1    2  501    0 -0.28882026843E+02  0.91503123772E+01  0.66186578873E+01  0.31011390220E+02  0.00000000000E+00 0. -1.
          1    1    1    2  502    0  0.28882026843E+02 -0.91503123772E+01 -0.39043367489E+03  0.39160739801E+03  0.00000000000E+00 0.  1.
</event>
<event>
 4    1  0.7416369E+003  0.2713698E+02  0.7546771E-02  0.1446237E+00
          2   -1    0    0  502    0  0.00000000000E+00  0.00000000000E+00  0.51228695406E+03  0.51228695406E+03  0.00000000000E+00 0. -1.
          1   -1    0    0  501    0 -0.00000000000E+00 -0.00000000000E+00 -0.32381963945E+02  0.32381963945E+02  0.00000000000E+00 0. -1.
          2    1    1    2  501    0 -0.17412128237E+02 -0.20814259886E+02  0.50617357663E+03  0.50690048856E+03  0.00000000000E+00 0. -1.
          1    1    1    2  502    0  0.17412128237E+02  0.20814259886E+02 -0.26268586521E+02  0.37768429438E+02  0.00000000000E+00 0. -1.
</event>
<event>
 4    1  0.7416369E+003  0.2064837E+02  0.7546771E-02  0.1524345E+00
          2   -1    0    0  502    0  0.00000000000E+00  0.00000000000E+00  0.16078848934E+03  0.16078848934E+03  0.00000000000E+00 0. -1.
          1   -1    0    0  501    0 -0.00000000000E+00 -0.00000000000E+00 -0.13837027902E+02  0.13837027902E+02  0.00000000000E+00 0. -1.
          2    1    1    2  501    0  0.12580815757E+02  0.16373101662E+02  0.15197788258E+03  0.15337415746E+03  0.00000000000E+00 0. -1.
          1    1    1    2  502    0 -0.12580815757E+02 -0.16373101662E+02 -0.50264211413E+01  0.21251359783E+02  0.00000000000E+00 0. -1.
</event>
<event>
 4    1  0.7416369E+003  0.2704871E+02  0.7546771E-02  0.1447119E+00
          2   -1    0    0  502    0  0.00000000000E+00  0.00000000000E+00  0.25107948256E+02  0.25107948256E+02  0.00000000000E+00 0. -1.
          1   -1    0    0  501    0 -0.00000000000E+00 -0.00000000000E+00 -0.34836430963E+02  0.34836430963E+02  0.00000000000E+00 0.  1.
          2    1    1    2  501    0  0.25613976478E+02  0.86923509302E+01  0.72563157394E+01  0.28005122278E+02  0.00000000000E+00 0. -1.
          1    1    1    2  502    0 -0.25613976478E+02 -0.86923509302E+01 -0.16984798447E+02  0.31939256941E+02  0.00000000000E+00 0.  1.
</event>
<event>
 4    1  0.7416369E+003  0.2001812E+02  0.7546771E-02  0.1533759E+00
          2   -1    0    0  502    0  0.00000000000E+00  0.00000000000E+00  0.11953226039E+04  0.11953226039E+04  0.00000000000E+00 0.  1.
          1   -1    0    0  501    0 -0.00000000000E+00 -0.00000000000E+00 -0.35107235712E+02  0.35107235712E+02  0.00000000000E+00 0.  1.
          2    1    1    2  501    0 -0.16015719740E+02 -0.12009237035E+02  0.11923781679E+04  0.11925461922E+04  0.00000000000E+00 0.  1.
          1    1    1    2  502    0  0.16015719740E+02  0.12009237035E+02 -0.32162799777E+02  0.37883647428E+02  0.00000000000E+00 0.  1.
</event>
<event>
 4    1  0.7416369E+003  0.2566324E+02  0.7546771E-02  0.1461519E+00
          2   -1    0    0  502    0  0.00000000000E+00  0.00000000000E+00  0.13154860269E+04  0.13154860269E+04  0.00000000000E+00 0. -1.
          1   -1    0    0  501    0 -0.00000000000E+00 -0.00000000000E+00 -0.15418278261E+01  0.15418278261E+01  0.00000000000E+00 0. -1.
          2    1    1    2  501    0  0.20614576568E+02 -0.15285315791E+02  0.11981111991E+04  0.11983860175E+04  0.00000000000E+00 0. -1.
          1    1    1    2  502    0 -0.20614576568E+02  0.15285315791E+02  0.11583299995E+03  0.11864183716E+03  0.00000000000E+00 0. -1.
</event>
<event>
 4    1  0.7416369E+003  0.2019710E+02  0.7546771E-02  0.1531044E+00
          2   -1    0    0  502    0  0.00000000000E+00  0.00000000000E+00  0.38671315075E+03  0.38671315075E+03  0.00000000000E+00 0.  1.
          1   -1    0    0  501    0 -0.00000000000E+00 -0.00000000000E+00 -0.17291574503E+01  0.17291574503E+01  0.00000000000E+00 0.  1.
          2    1    1    2  501    0 -0.33143306785E+01  0.19923303434E+02  0.31377767962E+03  0.31442702656E+03  0.00000000000E+00 0.  1.
          1    1    1    2  502    0  0.33143306785E+01 -0.19923303434E+02  0.71206313686E+02  0.74015281641E+02  0.00000000000E+00 0.  1.
</event>
<event>
 4    1  0.7416369E+003  0.2086881E+02  0.7546771E-02  0.1521146E+00
          2   -1    0    0  502    0  0.00000000000E+00  0.00000000000E+00  0.54711974151E+00  0.54711974151E+00  0.00000000000E+00 0.  1.
          1   -1    0    0  501    0 -0.00000000000E+00 -0.00000000000E+00 -0.94699382091E+03  0.94699382091E+03  0.00000000000E+00 0.  1.
          2    1    1    2  501    0  0.20412084364E+02 -0.43421362150E+01 -0.28404390497E+03  0.28480949297E+03  0.00000000000E+00 0.  1.
          1    1    1    2  502    0 -0.20412084364E+02  0.43421362150E+01 -0.66240279620E+03  0.66273144768E+03  0.00000000000E+00 0.  1.
</event>
<event>
 4    1  0.7416369E+003  0.2393622E+02  0.7546771E-02  0.1481065E+00
          2   -1    0    0  502    0  0.00000000000E+00  0.00000000000E+00  0.86837651341E+02  0.86837651341E+02  0.00000000000E+00 0. -1.
          1   -1    0    0  501    0 -0.00000000000E+00 -0.00000000000E+00 -0.15988403492E+03  0.15988403492E+03  0.00000000000E+00 0.  1.
          2    1    1    2  501    0  0.19844463059E+02 -0.13384320144E+02  0.84265498261E+02  0.87599183427E+02  0.00000000000E+00 0. -1.
          1    1    1    2  502    0 -0.19844463059E+02  0.13384320144E+02 -0.15731188184E+03  0.15912250283E+03  0.00000000000E+00 0.  1.
</event>
<event>
 4    1  0.7416369E+003  0.2171370E+02  0.7546771E-02  0.1509314E+00
          2   -1    0    0  502    0  0.00000000000E+00  0.00000000000E+00  0.23945643420E+02  0.23945643420E+02  0.00000000000E+00 0.  1.
          1   -1    0    0  501    0 -0.00000000000E+00 -0.00000000000E+00 -0.14705105979E+04  0.14705105979E+04  0.00000000000E+00 0.  1.
          2    1    1    2  501    0 -0.13697842325E+02 -0.16847966487E+02  0.18926178508E+02  0.28804254755E+02  0.00000000000E+00 0.  1.
          1    1    1    2  502    0  0.13697842325E+02  0.16847966487E+02 -0.14654911330E+04  0.14656519865E+04  0.00000000000E+00 0.  1.
</event>
<event>
 4    1  0.7416369E+003  0.3227858E+02  0.7546771E-02  0.1400776E+00
          2   -1    0    0  502    0  0.00000000000E+00  0.00000000000E+00  0.82289472920E+03  0.82289472920E+03  0.00000000000E+00 0.  1.
          1   -1    0    0  501    0 -0.00000000000E+00 -0.00000000000E+00 -0.11860698854E+02  0.11860698854E+02  0.00000000000E+00 0.  1.
          2    1    1    2  501    0 -0.15413912804E+02 -0.28360497477E+02  0.79998829691E+03  0.80063923319E+03  0.00000000000E+00 0.  1.
          1    1    1    2  502    0  0.15413912804E+02  0.28360497477E+02  0.11045733435E+02  0.34116194867E+02  0.00000000000E+00 0.  1.
</event>
<event>
 4    1  0.7416369E+003  0.2196686E+02  0.7546771E-02  0.1505895E+00
          2   -1    0    0  502    0  0.00000000000E+00  0.00000000000E+00  0.27264441986E+03  0.27264441986E+03  0.00000000000E+00 0.  1.
          1   -1    0    0  501    0 -0.00000000000E+00 -0.00000000000E+00 -0.13484318390E+03  0.13484318390E+03  0.00000000000E+00 0.  1.
          2    1    1    2  501    0 -0.21688762695E+02 -0.34843480927E+01  0.27130290018E+03  0.27219075435E+03  0.00000000000E+00 0.  1.
          1    1    1    2  502    0  0.21688762695E+02  0.34843480927E+01 -0.13350166423E+03  0.13529684941E+03  0.00000000000E+00 0.  1.
</event>
<event>
 4    1  0.7416369E+003  0.2857390E+02  0.7546771E-02  0.1432408E+00
          2   -1    0    0  502    0  0.00000000000E+00  0.00000000000E+00  0.33768625667E+03  0.33768625667E+03  0.00000000000E+00 0. -1.
          1   -1    0    0  501    0 -0.00000000000E+00 -0.00000000000E+00 -0.49991360521E+02  0.49991360521E+02  0.00000000000E+00 0. -1.
          2    1    1    2  501    0 -0.25058465301E+02 -0.13731023235E+02  0.33294066428E+03  0.33416456068E+03  0.00000000000E+00 0. -1.
          1    1    1    2  502    0  0.25058465301E+02  0.13731023235E+02 -0.45245768137E+02  0.53513056506E+02  0.00000000000E+00 0. -1.
</event>
<event>
 4    1  0.7416369E+003  0.2516892E+02  0.7546771E-02  0.1466923E+00
          2   -1    0    0  502    0  0.00000000000E+00  0.00000000000E+00  0.63845446799E+03  0.63845446799E+03  0.00000000000E+00 0.  1.
          1   -1    0    0  501    0 -0.00000000000E+00 -0.00000000000E+00 -0.18786691047E+02  0.18786691047E+02  0.00000000000E+00 0.  1.
          2    1    1    2  501    0 -0.21122371285E+02 -0.13686481569E+02  0.62965888171E+03  0.63016171072E+03  0.00000000000E+00 0.  1.
          1    1    1    2  502    0  0.21122371285E+02  0.13686481569E+02 -0.99911047675E+01  0.27079448313E+02  0.00000000000E+00 0.  1.
</event>
<event>
 4    1  0.7416369E+003  0.2539974E+02  0.7546771E-02  0.1464381E+00
          2   -1    0    0  502    0  0.00000000000E+00  0.00000000000E+00  0.10803806681E+04  0.10803806681E+04  0.00000000000E+00 0.  1.
          1   -1    0    0  501    0 -0.00000000000E+00 -0.00000000000E+00 -0.30170290293E+02  0.30170290293E+02  0.00000000000E+00 0. -1.
          2    1    1    2  501    0  0.22188168284E+02 -0.12362515789E+02  0.10748580412E+04  0.10751581072E+04  0.00000000000E+00 0.  1.
          1    1    1    2  502    0 -0.22188168284E+02  0.12362515789E+02 -0.24647663401E+02  0.35392851249E+02  0.00000000000E+00 0. -1.
</event>
<event>
 4    1  0.7416369E+003  0.2877757E+02  0.7546771E-02  0.1430525E+00
          2   -1    0    0  502    0  0.00000000000E+00  0.00000000000E+00  0.81167983035E+00  0.81167983035E+00  0.00000000000E+00 0. -1.
          1   -1    0    0  501    0 -0.00000000000E+00 -0.00000000000E+00 -0.14420886458E+04  0.14420886458E+04  0.00000000000E+00 0.  1.
          2    1    1    2  501    0  0.10823092973E+02 -0.26664756083E+02 -0.33046018521E+03  0.33171084180E+03  0.00000000000E+00 0. -1.
          1    1    1    2  502    0 -0.10823092973E+02  0.26664756083E+02 -0.11108167808E+04  0.11111894839E+04  0.00000000000E+00 0.  1.
</event>
<event>
 4    1  0.7416369E+003  0.3433869E+02  0.7546771E-02  0.1385273E+00
          2   -1    0    0  502    0  0.00000000000E+00  0.00000000000E+00  0.30050155173E+02  0.30050155173E+02  0.00000000000E+00 0.  1.
          1   -1    0    0  501    0 -0.00000000000E+00 -0.00000000000E+00 -0.22333556007E+03  0.22333556007E+03  0.00000000000E+00 0.  1.
          2    1    1    2  501    0 -0.15158473357E+02 -0.30811784470E+02  0.18383224488E+02  0.38949817963E+02  0.00000000000E+00 0.  1.
          1    1    1    2  502    0  0.15158473357E+02  0.30811784470E+02 -0.21166862938E+03  0.21443589728E+03  0.00000000000E+00 0.  1.
</event>
<event>
 4    1  0.7416369E+003  0.2784416E+02  0.7546771E-02  0.1439308E+00
          2   -1    0    0  502    0  0.00000000000E+00  0.00000000000E+00  0.63817188010E+01  0.63817188010E+01  0.00000000000E+00 0. -1.
          1   -1    0    0  501    0 -0.00000000000E+00 -0.00000000000E+00 -0.13289609074E+04  0.13289609074E+04  0.00000000000E+00 0.  1.
          2    1    1    2  501    0 -0.19681974169E+02  0.19695613600E+02 -0.24867203091E+02  0.37331958050E+02  0.00000000000E+00 0. -1.
          1    1    1    2  502    0  0.19681974169E+02 -0.19695613600E+02 -0.12977119855E+04  0.12980106681E+04  0.00000000000E+00 0.  1.
</event>
<event>
 4    1  0.7416369E+003  0.2519697E+02  0.7546771E-02  0.1466612E+00
          2   -1    0    0  502    0  0.00000000000E+00  0.00000000000E+00  0.11323291939E+04  0.11323291939E+04  0.00000000000E+00 0.  1.
          1   -1    0    0  501    0 -0.00000000000E+00 -0.00000000000E+00 -0.61490055123E+00  0.61490055123E+00  0.00000000000E+00 0.  1.
          2    1    1    2  501    0 -0.34583516501E+00 -0.25194594031E+02  0.73405195908E+03  0.73448428560E+03  0.00000000000E+00 0.  1.
          1    1    1    2  502    0  0.34583516501E+00  0.25194594031E+02  0.39766233431E+03  0.39845980889E+03  0.00000000000E+00 0.  1.
</event>
<event>
 4    1  0.7416369E+003  0.2876062E+02  0.7546771E-02  0.1430681E+00
          2   -1    0    0  502    0  0.00000000000E+00  0.00000000000E+00  0.49209366664E+00  0.49209366664E+00  0.00000000000E+00 0. -1.
          1   -1    0    0  501    0 -0.00000000000E+00 -0.00000000000E+00 -0.20531080418E+04  0.20531080418E+04  0.00000000000E+00 0. -1.
          2    1    1    2  501    0 -0.23451992772E+01  0.28664843584E+02 -0.58913079657E+03  0.58983240729E+03  0.00000000000E+00 0. -1.
          1    1    1    2  502    0  0.23451992772E+01 -0.28664843584E+02 -0.14634851515E+04  0.14637677282E+04  0.00000000000E+00 0. -1.
</event>
<event>
 4    1  0.7416369E+003  0.2546938E+02  0.7546771E-02  0.1463620E+00
          2   -1    0    0  502    0  0.00000000000E+00  0.00000000000E+00  0.69259183634E+01  0.69259183634E+01  0.00000000000E+00 0. -1.
          1   -1    0    0  501    0 -0.00000000000E+00 -0.00000000000E+00 -0.15778450894E+03  0.15778450894E+03  0.00000000000E+00 0.  1.
          2    1    1    2  501    0  0.19726726434E+02  0.16110410542E+02 -0.22928334440E+02  0.34269484732E+02  0.00000000000E+00 0. -1.
          1    1    1    2  502    0 -0.19726726434E+02 -0.16110410542E+02 -0.12793025613E+03  0.13044094257E+03  0.00000000000E+00 0.  1.
</event>
<event>
 4    1  0.7416369E+003  0.2070081E+02  0.7546771E-02  0.1523580E+00
          2   -1    0    0  502    0  0.00000000000E+00  0.00000000000E+00  0.48484454729E+01  0.48484454729E+01  0.00000000000E+00 0.  1.
          1   -1    0    0  501    0 -0.00000000000E+00 -0.00000000000E+00 -0.55198944219E+03  0.55198944219E+03  0.00000000000E+00 0. -1.
          2    1    1    2  501    0 -0.20072478041E+02  0.50615171804E+01 -0.18413302591E+02  0.27705108612E+02  0.00000000000E+00 0.  1.
          1    1    1    2  502    0  0.20072478041E+02 -0.50615171804E+01 -0.52872769412E+03  0.52913277905E+03  0.00000000000E+00 0. -1.
</event>
<event>
 4    1  0.7958900E+003  0.2087246E+02  0.7546771E-02  0.1521094E+00
          2   -1    0    0  502    0  0.00000000000E+00  0.00000000000E+00  0.73590268547E+03  0.73590268547E+03  0.00000000000E+00 0.  1.
          1   -1    0    0  501    0 -0.00000000000E+00 -0.00000000000E+00 -0.35156301159E+03  0.35156301159E+03  0.00000000000E+00 0. -1.
          2    1    1    2  501    0 -0.13815401096E+02  0.15645908246E+02  0.73544468872E+03  0.73574081708E+03  0.00000000000E+00 0.  1.
          1    1    1    2  502    0  0.13815401096E+02 -0.15645908246E+02 -0.35110501484E+03  0.35172487998E+03  0.00000000000E+00 0. -1.
</event>
<event>
 4    1  0.7416369E+003  0.2072930E+02  0.7546771E-02  0.1523165E+00
          2   -1    0    0  502    0  0.00000000000E+00  0.00000000000E+00  0.85961769184E+03  0.85961769184E+03  0.00000000000E+00 0. -1.
          1   -1    0    0  501    0 -0.00000000000E+00 -0.00000000000E+00 -0.35164995548E+02  0.35164995548E+02  0.00000000000E+00 0. -1.
          2    1    1    2  501    0 -0.10168188596E+02  0.18064104103E+02  0.85642642830E+03  0.85667726187E+03  0.00000000000E+00 0. -1.
          1    1    1    2  502    0  0.10168188596E+02 -0.18064104103E+02 -0.31973732000E+02  0.38105425524E+02  0.00000000000E+00 0. -1.
</event>
<event>
 4    1  0.7416369E+003  0.2905402E+02  0.7546771E-02  0.1427999E+00
          2   -1    0    0  502    0  0.00000000000E+00  0.00000000000E+00  0.13852199999E+02  0.13852199999E+02  0.00000000000E+00 0.  1.
          1   -1    0    0  501    0 -0.00000000000E+00 -0.00000000000E+00 -0.15834343927E+04  0.15834343927E+04  0.00000000000E+00 0.  1.
          2    1    1    2  501    0  0.22334271536E+02  0.18582695465E+02 -0.16665481586E+01  0.29101780677E+02  0.00000000000E+00 0.  1.
          1    1    1    2  502    0 -0.22334271536E+02 -0.18582695465E+02 -0.15679156445E+04  0.15681848120E+04  0.00000000000E+00 0.  1.
</event>
<event>
 4    1  0.7416369E+003  0.3072432E+02  0.7546771E-02  0.1413404E+00
          2   -1    0    0  502    0  0.00000000000E+00  0.00000000000E+00  0.13829363128E+04  0.13829363128E+04  0.00000000000E+00 0.  1.
          1   -1    0    0  501    0 -0.00000000000E+00 -0.00000000000E+00 -0.11539017081E+01  0.11539017081E+01  0.00000000000E+00 0. -1.
          2    1    1    2  501    0  0.16188310416E+02 -0.26113642129E+02  0.11331763737E+04  0.11335928183E+04  0.00000000000E+00 0.  1.
          1    1    1    2  502    0 -0.16188310416E+02  0.26113642129E+02  0.24860603742E+03  0.25049739627E+03  0.00000000000E+00 0. -1.
</event>
<event>
 4    1  0.7416369E+003  0.2254733E+02  0.7546771E-02  0.1498262E+00
          2   -1    0    0  502    0  0.00000000000E+00  0.00000000000E+00  0.57663656503E+02  0.57663656503E+02  0.00000000000E+00 0.  1.
          1   -1    0    0  501    0 -0.00000000000E+00 -0.00000000000E+00 -0.14276614704E+02  0.14276614704E+02  0.00000000000E+00 0.  1.
          2    1    1    2  501    0  0.18973110705E+02 -0.12182077111E+02  0.43938757287E+02  0.49386195688E+02  0.00000000000E+00 0.  1.
          1    1    1    2  502    0 -0.18973110705E+02  0.12182077111E+02 -0.55171548832E+00  0.22554075520E+02  0.00000000000E+00 0.  1.
</event>
<event>
 4    1  0.7416369E+003  0.4655451E+02  0.7546771E-02  0.1313844E+00
          2   -1    0    0  502    0  0.00000000000E+00  0.00000000000E+00  0.27877243250E+03  0.27877243250E+03  0.00000000000E+00 0.  1.
          1   -1    0    0  501    0 -0.00000000000E+00 -0.00000000000E+00 -0.26129306932E+03  0.26129306932E+03  0.00000000000E+00 0. -1.
          2    1    1    2  501    0 -0.37494672843E+02 -0.27594785810E+02  0.27472481500E+03  0.27864143028E+03  0.00000000000E+00 0.  1.
          1    1    1    2  502    0  0.37494672843E+02  0.27594785810E+02 -0.25724545182E+03  0.26142407153E+03  0.00000000000E+00 0. -1.
</event>
<event>
 4    1  0.7416369E+003  0.2376495E+02  0.7546771E-02  0.1483110E+00
          2   -1    0    0  502    0  0.00000000000E+00  0.00000000000E+00  0.32499185222E+04  0.32499185222E+04  0.00000000000E+00 0.  1.
          1   -1    0    0  501    0 -0.00000000000E+00 -0.00000000000E+00 -0.17422528687E+00  0.17422528687E+00  0.00000000000E+00 0.  1.
          2    1    1    2  501    0  0.21655181932E+02  0.97890793477E+01  0.17069656977E+04  0.17071311216E+04  0.00000000000E+00 0.  1.
          1    1    1    2  502    0 -0.21655181932E+02 -0.97890793477E+01  0.15427785992E+04  0.15429616260E+04  0.00000000000E+00 0.  1.
</event>
<event>
 4    1  0.7416369E+003  0.2009775E+02  0.7546771E-02  0.1532547E+00
          2   -1    0    0  502    0  0.00000000000E+00  0.00000000000E+00  0.53266249784E+02  0.53266249784E+02  0.00000000000E+00 0. -1.
          1   -1    0    0  501    0 -0.00000000000E+00 -0.00000000000E+00 -0.99932097008E+03  0.99932097008E+03  0.00000000000E+00 0. -1.
          2    1    1    2  501    0  0.12134142632E+02  0.16021301867E+02  0.51265641498E+02  0.55064376226E+02  0.00000000000E+00 0. -1.
          1    1    1    2  502    0 -0.12134142632E+02 -0.16021301867E+02 -0.99732036179E+03  0.99752284364E+03  0.00000000000E+00 0. -1.
</event>
<event>
 4    1  0.7416369E+003  0.2826023E+02  0.7546771E-02  0.1435344E+00
          2   -1    0    0  502    0  0.00000000000E+00  0.00000000000E+00  0.15928319018E+03  0.15928319018E+03  0.00000000000E+00 0. -1.
          1   -1    0    0  501    0 -0.00000000000E+00 -0.00000000000E+00 -0.72520052858E+01  0.72520052858E+01  0.00000000000E+00 0.  1.
          2    1    1    2  501    0 -0.23163245451E+02 -0.16189654540E+02  0.12227292833E+03  0.12549625436E+03  0.00000000000E+00 0. -1.
          1    1    1    2  502    0  0.23163245451E+02  0.16189654540E+02  0.29758256560E+02  0.41038941110E+02  0.00000000000E+00 0.  1.
</event>
<event>
 4    1  0.7416369E+003  0.5451393E+02  0.7546771E-02  0.1279705E+00
          2   -1    0    0  502    0  0.00000000000E+00  0.00000000000E+00  0.18598924876E+04  0.18598924876E+04  0.00000000000E+00 0.  1.
          1   -1    0    0  501    0 -0.00000000000E+00 -0.00000000000E+00 -0.23019424990E+03  0.23019424990E+03  0.00000000000E+00 0.  1.
          2    1    1    2  501    0  0.45139351287E+02  0.30564803100E+02  0.18562592606E+04  0.18570595604E+04  0.00000000000E+00 0.  1.
          1    1    1    2  502    0 -0.45139351287E+02 -0.30564803100E+02 -0.22656102285E+03  0.23302717716E+03  0.00000000000E+00 0.  1.
</event>
<event>
 4    1  0.7416369E+003  0.6514081E+02  0.7546771E-02  0.1243300E+00
          2   -1    0    0  502    0  0.00000000000E+00  0.00000000000E+00  0.31607804024E+01  0.31607804024E+01  0.00000000000E+00 0.  1.
          1   -1    0    0  501    0 -0.00000000000E+00 -0.00000000000E+00 -0.13539551294E+04  0.13539551294E+04  0.00000000000E+00 0.  1.
          2    1    1    2  501    0 -0.62053474503E+02 -0.19816345137E+02 -0.73783437598E+03  0.74070431862E+03  0.00000000000E+00 0.  1.
          1    1    1    2  502    0  0.62053474503E+02  0.19816345137E+02 -0.61295997302E+03  0.61641159119E+03  0.00000000000E+00 0.  1.
</event>
<event>
 4    1  0.7416369E+003  0.9427248E+02  0.7546771E-02  0.1174121E+00
          2   -1    0    0  502    0  0.00000000000E+00  0.00000000000E+00  0.20140263101E+03  0.20140263101E+03  0.00000000000E+00 0.  1.
          1   -1    0    0  501    0 -0.00000000000E+00 -0.00000000000E+00 -0.47519644803E+02  0.47519644803E+02  0.00000000000E+00 0.  1.
          2    1    1    2  501    0  0.44355122222E+02  0.83186026831E+02  0.43685723907E+02  0.10390252355E+03  0.00000000000E+00 0.  1.
          1    1    1    2  502    0 -0.44355122222E+02 -0.83186026831E+02  0.11019726230E+03  0.14501975226E+03  0.00000000000E+00 0.  1.
</event>
<event>
 4    1  0.7416369E+003  0.2260539E+02  0.7546771E-02  0.1497514E+00
          2   -1    0    0  502    0  0.00000000000E+00  0.00000000000E+00  0.12736735372E+03  0.12736735372E+03  0.00000000000E+00 0. -1.
          1   -1    0    0  501    0 -0.00000000000E+00 -0.00000000000E+00 -0.17447347521E+02  0.17447347521E+02  0.00000000000E+00 0. -1.
          2    1    1    2  501    0 -0.18112931752E+02 -0.13524985006E+02  0.11849919411E+03  0.12063607470E+03  0.00000000000E+00 0. -1.
          1    1    1    2  502    0  0.18112931752E+02  0.13524985006E+02 -0.85791879069E+01  0.24178626537E+02  0.00000000000E+00 0. -1.
</event>
<event>
 4    1  0.7416369E+003  0.3086282E+02  0.7546771E-02  0.1412244E+00
          2   -1    0    0  502    0  0.00000000000E+00  0.00000000000E+00  0.18162227866E+04  0.18162227866E+04  0.00000000000E+00 0. -1.
          1   -1    0    0  501    0 -0.00000000000E+00 -0.00000000000E+00 -0.18403359833E+03  0.18403359833E+03  0.00000000000E+00 0. -1.
          2    1    1    2  501    0 -0.24131431108E+02  0.19240266715E+02  0.18147967178E+04  0.18150591287E+04  0.00000000000E+00 0. -1.
          1    1    1    2  502    0  0.24131431108E+02 -0.19240266715E+02 -0.18260752957E+03  0.18519725616E+03  0.00000000000E+00 0. -1.
</event>
<event>
 4    1  0.7416369E+003  0.2408274E+02  0.7546771E-02  0.1479332E+00
          2   -1    0    0  502    0  0.00000000000E+00  0.00000000000E+00  0.17634327514E+04  0.17634327514E+04  0.00000000000E+00 0. -1.
          1   -1    0    0  501    0 -0.00000000000E+00 -0.00000000000E+00 -0.85638721405E+00  0.85638721405E+00  0.00000000000E+00 0.  1.
          2    1    1    2  501    0  0.73566955169E+01  0.22931581301E+02  0.15736196380E+04  0.15738039089E+04  0.00000000000E+00 0. -1.
          1    1    1    2  502    0 -0.73566955169E+01 -0.22931581301E+02  0.18895672613E+03  0.19048522971E+03  0.00000000000E+00 0.  1.
</event>
<event>
 4    1  0.7416369E+003  0.4496294E+02  0.7546771E-02  0.1321625E+00
          2   -1    0    0  502    0  0.00000000000E+00  0.00000000000E+00  0.69757637809E+03  0.69757637809E+03  0.00000000000E+00 0. -1.
          1   -1    0    0  501    0 -0.00000000000E+00 -0.00000000000E+00 -0.62257664555E+03  0.62257664555E+03  0.00000000000E+00 0.  1.
          2    1    1    2  501    0 -0.44897021861E+02  0.24337202172E+01  0.69603824007E+03  0.69748899433E+03  0.00000000000E+00 0. -1.
          1    1    1    2  502    0  0.44897021861E+02 -0.24337202172E+01 -0.62103850753E+03  0.62266402931E+03  0.00000000000E+00 0.  1.
</event>
<event>
 4    1  0.7416369E+003  0.4914885E+02  0.7546771E-02  0.1301906E+00
          2   -1    0    0  502    0  0.00000000000E+00  0.00000000000E+00  0.13880178053E+04  0.13880178053E+04  0.00000000000E+00 0. -1.
          1   -1    0    0  501    0 -0.00000000000E+00 -0.00000000000E+00 -0.32921953392E+01  0.32921953392E+01  0.00000000000E+00 0. -1.
          2    1    1    2  501    0  0.47093986651E+02 -0.14062922448E+02  0.11699779567E+04  0.11710098328E+04  0.00000000000E+00 0. -1.
          1    1    1    2  502    0 -0.47093986651E+02  0.14062922448E+02  0.21474765331E+03  0.22030016788E+03  0.00000000000E+00 0. -1.
</event>
<event>
 4    1  0.7416369E+003  0.2097910E+02  0.7546771E-02  0.1519563E+00
          2   -1    0    0  502    0  0.00000000000E+00  0.00000000000E+00  0.11726999786E+02  0.11726999786E+02  0.00000000000E+00 0.  1.
          1   -1    0    0  501    0 -0.00000000000E+00 -0.00000000000E+00 -0.99730718422E+02  0.99730718422E+02  0.00000000000E+00 0.  1.
          2    1    1    2  501    0 -0.15700926957E+01  0.20920263335E+02  0.91071655804E-02  0.20979101315E+02  0.00000000000E+00 0.  1.
          1    1    1    2  502    0  0.15700926957E+01 -0.20920263335E+02 -0.88012825802E+02  0.90478616892E+02  0.00000000000E+00 0.  1.
</event>
<event>
 4    1  0.7416369E+003  0.3955271E+02  0.7546771E-02  0.1351127E+00
          2   -1    0    0  502    0  0.00000000000E+00  0.00000000000E+00  0.19037184870E+04  0.19037184870E+04  0.00000000000E+00 0.  1.
          1   -1    0    0  501    0 -0.00000000000E+00 -0.00000000000E+00 -0.22414697902E+02  0.22414697902E+02  0.00000000000E+00 0.  1.
          2    1    1    2  501    0 -0.20958849063E+02 -0.33543157674E+02  0.18858996411E+04  0.18863143622E+04  0.00000000000E+00 0.  1.
          1    1    1    2  502    0  0.20958849063E+02  0.33543157674E+02 -0.45958520477E+01  0.39818822645E+02  0.00000000000E+00 0.  1.
</event>
<event>
 4    1  0.7416369E+003  0.2094754E+02  0.7546771E-02  0.1520015E+00
          2   -1    0    0  502    0  0.00000000000E+00  0.00000000000E+00  0.73273049690E+00  0.73273049690E+00  0.00000000000E+00 0.  1.
          1   -1    0    0  501    0 -0.00000000000E+00 -0.00000000000E+00 -0.10697947951E+04  0.10697947951E+04  0.00000000000E+00 0. -1.
          2    1    1    2  501    0  0.20803909433E+02 -0.24487908207E+01 -0.17939040366E+03  0.18060929143E+03  0.00000000000E+00 0.  1.
          1    1    1    2  502    0 -0.20803909433E+02  0.24487908207E+01 -0.88967166089E+03  0.88991823412E+03  0.00000000000E+00 0. -1.
</event>
<event>
 4    1  0.7416369E+003  0.2302309E+02  0.7546771E-02  0.1492208E+00
          2   -1    0    0  502    0  0.00000000000E+00  0.00000000000E+00  0.51341988723E+01  0.51341988723E+01  0.00000000000E+00 0.  1.
          1   -1    0    0  501    0 -0.00000000000E+00 -0.00000000000E+00 -0.16628398496E+03  0.16628398496E+03  0.00000000000E+00 0.  1.
          2    1    1    2  501    0 -0.44540905013E+00  0.23018768102E+02 -0.13334871622E+03  0.13532162499E+03  0.00000000000E+00 0.  1.
          1    1    1    2  502    0  0.44540905013E+00 -0.23018768102E+02 -0.27801069876E+02  0.36096558844E+02  0.00000000000E+00 0.  1.
</event>
<event>
 4    1  0.7416369E+003  0.2138565E+02  0.7546771E-02  0.1513829E+00
          2   -1    0    0  502    0  0.00000000000E+00  0.00000000000E+00  0.11657892097E+03  0.11657892097E+03  0.00000000000E+00 0. -1.
          1   -1    0    0  501    0 -0.00000000000E+00 -0.00000000000E+00 -0.50962201445E+01  0.50962201445E+01  0.00000000000E+00 0.  1.
          2    1    1    2  501    0  0.43252650576E+01 -0.20943693289E+02  0.84930823589E+02  0.87581910243E+02  0.00000000000E+00 0. -1.
          1    1    1    2  502    0 -0.43252650576E+01  0.20943693289E+02  0.26551877235E+02  0.34093230869E+02  0.00000000000E+00 0.  1.
</event>
<event>
 4    1  0.7416369E+003  0.3087098E+02  0.7546771E-02  0.1412175E+00
          2   -1    0    0  502    0  0.00000000000E+00  0.00000000000E+00  0.72227929705E+03  0.72227929705E+03  0.00000000000E+00 0. -1.
          1   -1    0    0  501    0 -0.00000000000E+00 -0.00000000000E+00 -0.14101656363E+02  0.14101656363E+02  0.00000000000E+00 0. -1.
          2    1    1    2  501    0 -0.30630346195E+02  0.38470155286E+01  0.70463097654E+03  0.70530690535E+03  0.00000000000E+00 0. -1.
          1    1    1    2  502    0  0.30630346195E+02 -0.38470155286E+01  0.35466641490E+01  0.31074048064E+02  0.00000000000E+00 0. -1.
</event>
<event>
 4    1  0.7416369E+003  0.2063035E+02  0.7546771E-02  0.1524608E+00
          2   -1    0    0  502    0  0.00000000000E+00  0.00000000000E+00  0.13550734099E+04  0.13550734099E+04  0.00000000000E+00 0. -1.
          1   -1    0    0  501    0 -0.00000000000E+00 -0.00000000000E+00 -0.59768073203E+00  0.59768073203E+00  0.00000000000E+00 0. -1.
          2    1    1    2  501    0 -0.95968569027E+01  0.18262305131E+02  0.11441527697E+04  0.11443387487E+04  0.00000000000E+00 0. -1.
          1    1    1    2  502    0  0.95968569027E+01 -0.18262305131E+02  0.21032295951E+03  0.21133234193E+03  0.00000000000E+00 0. -1.
</event>
<event>
 4    1  0.7416369E+003  0.2009473E+02  0.7546771E-02  0.1532593E+00
          2   -1    0    0  502    0  0.00000000000E+00  0.00000000000E+00  0.97206319089E+02  0.97206319089E+02  0.00000000000E+00 0. -1.
          1   -1    0    0  501    0 -0.00000000000E+00 -0.00000000000E+00 -0.78829272716E+01  0.78829272716E+01  0.00000000000E+00 0.  1.
          2    1    1    2  501    0 -0.17770686749E+02  0.93808766138E+01  0.80800570083E+02  0.83261817656E+02  0.00000000000E+00 0. -1.
          1    1    1    2  502    0  0.17770686749E+02 -0.93808766138E+01  0.85228217345E+01  0.21827428705E+02  0.00000000000E+00 0.  1.
</event>
<event>
 4    1  0.7416369E+003  0.2008707E+02  0.7546771E-02  0.1532709E+00
          2   -1    0    0  502    0  0.00000000000E+00  0.00000000000E+00  0.41510148625E+02  0.41510148625E+02  0.00000000000E+00 0.  1.
          1   -1    0    0  501    0 -0.00000000000E+00 -0.00000000000E+00 -0.27949940170E+03  0.27949940170E+03  0.00000000000E+00 0.  1.
          2    1    1    2  501    0  0.68312613021E+01 -0.18889791735E+02  0.38694476440E+02  0.43597624588E+02  0.00000000000E+00 0.  1.
          1    1    1    2  502    0 -0.68312613021E+01  0.18889791735E+02 -0.27668372952E+03  0.27741192574E+03  0.00000000000E+00 0.  1.
</event>
<event>
 4    1  0.7416369E+003  0.2947511E+02  0.7546771E-02  0.1424213E+00
          2   -1    0    0  502    0  0.00000000000E+00  0.00000000000E+00  0.27092351429E+02  0.27092351429E+02  0.00000000000E+00 0. -1.
          1   -1    0    0  501    0 -0.00000000000E+00 -0.00000000000E+00 -0.34228244628E+02  0.34228244628E+02  0.00000000000E+00 0.  1.
          2    1    1    2  501    0  0.29189608695E+02  0.40925042908E+01  0.41356527676E+01  0.29763828231E+02  0.00000000000E+00 0. -1.
          1    1    1    2  502    0 -0.29189608695E+02 -0.40925042908E+01 -0.11271545967E+02  0.31556767826E+02  0.00000000000E+00 0.  1.
</event>
<event>
 4    1  0.7416369E+003  0.2370110E+02  0.7546771E-02  0.1483877E+00
          2   -1    0    0  502    0  0.00000000000E+00  0.00000000000E+00  0.16210140468E+04  0.16210140468E+04  0.00000000000E+00 0.  1.
          1   -1    0    0  501    0 -0.00000000000E+00 -0.00000000000E+00 -0.59728674634E+00  0.59728674634E+00  0.00000000000E+00 0.  1.
          2    1    1    2  501    0  0.11564979361E+02  0.20688000989E+02  0.13355540616E+04  0.13357643481E+04  0.00000000000E+00 0.  1.
          1    1    1    2  502    0 -0.11564979361E+02 -0.20688000989E+02  0.28486269840E+03  0.28584698542E+03  0.00000000000E+00 0.  1.
</event>
<event>
 4    1  0.7416369E+003  0.3230965E+02  0.7546771E-02  0.1400532E+00
          2   -1    0    0  502    0  0.00000000000E+00  0.00000000000E+00  0.20520439618E+03  0.20520439618E+03  0.00000000000E+00 0. -1.
          1   -1    0    0  501    0 -0.00000000000E+00 -0.00000000000E+00 -0.24387863260E+02  0.24387863260E+02  0.00000000000E+00 0.  1.
          2    1    1    2  501    0 -0.10177333642E+02 -0.30664891454E+02  0.19253198113E+03  0.19522417229E+03  0.00000000000E+00 0. -1.
          1    1    1    2  502    0  0.10177333642E+02  0.30664891454E+02 -0.11715448207E+02  0.34368087154E+02  0.00000000000E+00 0.  1.
</event>
<event>
 4    1  0.7416369E+003  0.2636977E+02  0.7546771E-02  0.1454044E+00
          2   -1    0    0  502    0  0.00000000000E+00  0.00000000000E+00  0.42612445203E+00  0.42612445203E+00  0.00000000000E+00 0.  1.
          1   -1    0    0  501    0 -0.00000000000E+00 -0.00000000000E+00 -0.23402491861E+04  0.23402491861E+04  0.00000000000E+00 0.  1.
          2    1    1    2  501    0  0.21750560521E+01  0.26279902063E+02 -0.18138201473E+04  0.18140118221E+04  0.00000000000E+00 0.  1.
          1    1    1    2  502    0 -0.21750560521E+01 -0.26279902063E+02 -0.52600291442E+03  0.52666348848E+03  0.00000000000E+00 0.  1.
</event>
<event>
 4    1  0.7416369E+003  0.2782558E+02  0.7546771E-02  0.1439487E+00
          2   -1    0    0  502    0  0.00000000000E+00  0.00000000000E+00  0.50195755068E+02  0.50195755068E+02  0.00000000000E+00 0. -1.
          1   -1    0    0  501    0 -0.00000000000E+00 -0.00000000000E+00 -0.76329504733E+02  0.76329504733E+02  0.00000000000E+00 0.  1.
          2    1    1    2  501    0 -0.24450825357E+02 -0.13282326125E+02  0.43443239719E+02  0.51590484832E+02  0.00000000000E+00 0. -1.
          1    1    1    2  502    0  0.24450825357E+02  0.13282326125E+02 -0.69576989383E+02  0.74934774969E+02  0.00000000000E+00 0.  1.
</event>
<event>
 4    1  0.7416369E+003  0.2117845E+02  0.7546771E-02  0.1516732E+00
          2   -1    0    0  502    0  0.00000000000E+00  0.00000000000E+00  0.48557647685E+01  0.48557647685E+01  0.00000000000E+00 0.  1.
          1   -1    0    0  501    0 -0.00000000000E+00 -0.00000000000E+00 -0.19635624188E+03  0.19635624188E+03  0.00000000000E+00 0.  1.
          2    1    1    2  501    0 -0.19089106540E+02  0.91724010476E+01 -0.22537018391E+02  0.30926430888E+02  0.00000000000E+00 0.  1.
          1    1    1    2  502    0  0.19089106540E+02 -0.91724010476E+01 -0.16896345872E+03  0.17028557576E+03  0.00000000000E+00 0.  1.
</event>
<event>
 4    1  0.7416369E+003  0.3088786E+02  0.7546771E-02  0.1412034E+00
          2   -1    0    0  502    0  0.00000000000E+00  0.00000000000E+00  0.84578573309E+01  0.84578573309E+01  0.00000000000E+00 0. -1.
          1   -1    0    0  501    0 -0.00000000000E+00 -0.00000000000E+00 -0.11230328214E+04  0.11230328214E+04  0.00000000000E+00 0. -1.
          2    1    1    2  501    0 -0.57447216014E+01  0.30348937156E+02 -0.20706650380E+02  0.37186357481E+02  0.00000000000E+00 0. -1.
          1    1    1    2  502    0  0.57447216014E+01 -0.30348937156E+02 -0.10938683137E+04  0.10943043213E+04  0.00000000000E+00 0. -1.
</event>
<event>
 4    1  0.7416369E+003  0.3562135E+02  0.7546771E-02  0.1376247E+00
          2   -1    0    0  502    0  0.00000000000E+00  0.00000000000E+00  0.13445416010E+03  0.13445416010E+03  0.00000000000E+00 0.  1.
          1   -1    0    0  501    0 -0.00000000000E+00 -0.00000000000E+00 -0.10737732940E+02  0.10737732940E+02  0.00000000000E+00 0.  1.
          2    1    1    2  501    0 -0.24514400274E+02  0.25844238870E+02  0.87122364119E+02  0.94123253414E+02  0.00000000000E+00 0.  1.
          1    1    1    2  502    0  0.24514400274E+02 -0.25844238870E+02  0.36594063046E+02  0.51068639631E+02  0.00000000000E+00 0.  1.
</event>
<event>
 4    1  0.7416369E+003  0.2470441E+02  0.7546771E-02  0.1472137E+00
          2   -1    0    0  502    0  0.00000000000E+00  0.00000000000E+00  0.18538445806E+02  0.18538445806E+02  0.00000000000E+00 0. -1.
          1   -1    0    0  501    0 -0.00000000000E+00 -0.00000000000E+00 -0.18810184418E+03  0.18810184418E+03  0.00000000000E+00 0. -1.
          2    1    1    2  501    0 -0.22059975809E+02 -0.11120497716E+02  0.90624597461E+01  0.26314182084E+02  0.00000000000E+00 0. -1.
          1    1    1    2  502    0  0.22059975809E+02  0.11120497716E+02 -0.17862585812E+03  0.18032610790E+03  0.00000000000E+00 0. -1.
</event>
<event>
 4    1  0.7416369E+003  0.2541114E+02  0.7546771E-02  0.1464256E+00
          2   -1    0    0  502    0  0.00000000000E+00  0.00000000000E+00  0.49731825172E+01  0.49731825172E+01  0.00000000000E+00 0. -1.
          1   -1    0    0  501    0 -0.00000000000E+00 -0.00000000000E+00 -0.65465330366E+03  0.65465330366E+03  0.00000000000E+00 0.  1.
          2    1    1    2  501    0  0.24021036876E+02 -0.82894978069E+01 -0.29539573763E+02  0.38965528414E+02  0.00000000000E+00 0. -1.
          1    1    1    2  502    0 -0.24021036876E+02  0.82894978069E+01 -0.62014054738E+03  0.62066095776E+03  0.00000000000E+00 0.  1.
</event>
<event>
 4    1  0.7416369E+003  0.2052942E+02  0.7546771E-02  0.1526091E+00
          2   -1    0    0  502    0  0.00000000000E+00  0.00000000000E+00  0.36465755028E+02  0.36465755028E+02  0.00000000000E+00 0. -1.
          1   -1    0    0  501    0 -0.00000000000E+00 -0.00000000000E+00 -0.23456075799E+02  0.23456075799E+02  0.00000000000E+00 0.  1.
          2    1    1    2  501    0 -0.52410626446E+01  0.19849135724E+02  0.27843782832E+02  0.34593831373E+02  0.00000000000E+00 0. -1.
          1    1    1    2  502    0  0.52410626446E+01 -0.19849135724E+02 -0.14834103602E+02  0.25327999454E+02  0.00000000000E+00 0.  1.
</event>
<event>
 4    1  0.7416369E+003  0.2524543E+02  0.7546771E-02  0.1466076E+00
          2   -1    0    0  502    0  0.00000000000E+00  0.00000000000E+00  0.34543465191E+03  0.34543465191E+03  0.00000000000E+00 0.  1.
          1   -1    0    0  501    0 -0.00000000000E+00 -0.00000000000E+00 -0.58547883459E+02  0.58547883459E+02  0.00000000000E+00 0. -1.
          2    1    1    2  501    0  0.18331578752E+02  0.17357557145E+02  0.34222651012E+03  0.34315640137E+03  0.00000000000E+00 0.  1.
          1    1    1    2  502    0 -0.18331578752E+02 -0.17357557145E+02 -0.55339741670E+02  0.60826134002E+02  0.00000000000E+00 0. -1.
</event>
<event>
 4    1  0.7416369E+003  0.2046404E+02  0.7546771E-02  0.1527056E+00
          2   -1    0    0  502    0  0.00000000000E+00  0.00000000000E+00  0.54730553295E+03  0.54730553295E+03  0.00000000000E+00 0.  1.
          1   -1    0    0  501    0 -0.00000000000E+00 -0.00000000000E+00 -0.49018587976E+02  0.49018587976E+02  0.00000000000E+00 0.  1.
          2    1    1    2  501    0 -0.54510587137E+01  0.19724672616E+02  0.54496928404E+03  0.54535336920E+03  0.00000000000E+00 0.  1.
          1    1    1    2  502    0  0.54510587137E+01 -0.19724672616E+02 -0.46682339065E+02  0.50970751726E+02  0.00000000000E+00 0.  1.
</event>
<event>
 4    1  0.7416369E+003  0.2075447E+02  0.7546771E-02  0.1522799E+00
          2   -1    0    0  502    0  0.00000000000E+00  0.00000000000E+00  0.47569281777E+02  0.47569281777E+02  0.00000000000E+00 0. -1.
          1   -1    0    0  501    0 -0.00000000000E+00 -0.00000000000E+00 -0.11585904078E+02  0.11585904078E+02  0.00000000000E+00 0. -1.
          2    1    1    2  501    0  0.30865171512E+01 -0.20523681433E+02  0.31815278750E+02  0.37986313978E+02  0.00000000000E+00 0. -1.
          1    1    1    2  502    0 -0.30865171512E+01  0.20523681433E+02  0.41680989492E+01  0.21168871877E+02  0.00000000000E+00 0. -1.
</event>
<event>
 4    1  0.7416369E+003  0.3029475E+02  0.7546771E-02  0.1417052E+00
          2   -1    0    0  502    0  0.00000000000E+00  0.00000000000E+00  0.14883703233E+03  0.14883703233E+03  0.00000000000E+00 0.  1.
          1   -1    0    0  501    0 -0.00000000000E+00 -0.00000000000E+00 -0.10441632000E+02  0.10441632000E+02  0.00000000000E+00 0. -1.
          2    1    1    2  501    0  0.16685125282E+02 -0.25285928796E+02  0.12015766136E+03  0.12391785660E+03  0.00000000000E+00 0.  1.
          1    1    1    2  502    0 -0.16685125282E+02  0.25285928796E+02  0.18237738977E+02  0.35360807736E+02  0.00000000000E+00 0. -1.
</event>
<event>
 4    1  0.7416369E+003  0.2290592E+02  0.7546771E-02  0.1493683E+00
          2   -1    0    0  502    0  0.00000000000E+00  0.00000000000E+00  0.67565824675E+03  0.67565824675E+03  0.00000000000E+00 0.  1.
          1   -1    0    0  501    0 -0.00000000000E+00 -0.00000000000E+00 -0.87409711646E+01  0.87409711646E+01  0.00000000000E+00 0.  1.
          2    1    1    2  501    0  0.16307900564E+02  0.16085197792E+02  0.66010424536E+03  0.66050154879E+03  0.00000000000E+00 0.  1.
          1    1    1    2  502    0 -0.16307900564E+02 -0.16085197792E+02  0.68130302242E+01  0.23897669126E+02  0.00000000000E+00 0.  1.
</event>
<event>
 4    1  0.7416369E+003  0.4677247E+02  0.7546771E-02  0.1312807E+00
          2   -1    0    0  502    0  0.00000000000E+00  0.00000000000E+00  0.13296707611E+03  0.13296707611E+03  0.00000000000E+00 0. -1.
          1   -1    0    0  501    0 -0.00000000000E+00 -0.00000000000E+00 -0.90220682036E+02  0.90220682036E+02  0.00000000000E+00 0. -1.
          2    1    1    2  501    0  0.46646227346E+02 -0.34341733482E+01  0.12228020916E+03  0.13092025674E+03  0.00000000000E+00 0. -1.
          1    1    1    2  502    0 -0.46646227346E+02  0.34341733482E+01 -0.79533815091E+02  0.92267501403E+02  0.00000000000E+00 0. -1.
</event>
<event>
 4    1  0.7416369E+003  0.2269879E+02  0.7546771E-02  0.1496315E+00
          2   -1    0    0  502    0  0.00000000000E+00  0.00000000000E+00  0.15982273373E+02  0.15982273373E+02  0.00000000000E+00 0.  1.
          1   -1    0    0  501    0 -0.00000000000E+00 -0.00000000000E+00 -0.76891889975E+02  0.76891889975E+02  0.00000000000E+00 0.  1.
          2    1    1    2  501    0 -0.20911242465E+02 -0.88292209644E+01  0.49330844936E+01  0.23228657450E+02  0.00000000000E+00 0.  1.
          1    1    1    2  502    0  0.20911242465E+02  0.88292209644E+01 -0.65842701096E+02  0.69645505899E+02  0.00000000000E+00 0.  1.
</event>
<event>
 4    1  0.7416369E+003  0.4034604E+02  0.7546771E-02  0.1346470E+00
          2   -1    0    0  502    0  0.00000000000E+00  0.00000000000E+00  0.10541533830E+04  0.10541533830E+04  0.00000000000E+00 0. -1.
          1   -1    0    0  501    0 -0.00000000000E+00 -0.00000000000E+00 -0.61454170523E+01  0.61454170523E+01  0.00000000000E+00 0.  1.
          2    1    1    2  501    0  0.37673007614E+02 -0.14441170669E+02  0.98273687662E+03  0.98356472669E+03  0.00000000000E+00 0. -1.
          1    1    1    2  502    0 -0.37673007614E+02  0.14441170669E+02  0.65271089313E+02  0.76734073351E+02  0.00000000000E+00 0.  1.
</event>
<event>
 4    1  0.7416369E+003  0.2151079E+02  0.7546771E-02  0.1512095E+00
          2   -1    0    0  502    0  0.00000000000E+00  0.00000000000E+00  0.16058366934E+04  0.16058366934E+04  0.00000000000E+00 0.  1.
          1   -1    0    0  501    0 -0.00000000000E+00 -0.00000000000E+00 -0.43734115761E+01  0.43734115761E+01  0.00000000000E+00 0. -1.
          2    1    1    2  501    0  0.21347612175E+02 -0.26445558215E+01  0.15788623657E+04  0.15790088929E+04  0.00000000000E+00 0.  1.
          1    1    1    2  502    0 -0.21347612175E+02  0.26445558215E+01  0.22600916090E+02  0.31201211982E+02  0.00000000000E+00 0. -1.
</event>
<event>
 4    1  0.7416369E+003  0.2337404E+02  0.7546771E-02  0.1487854E+00
          2   -1    0    0  502    0  0.00000000000E+00  0.00000000000E+00  0.24203831181E+03  0.24203831181E+03  0.00000000000E+00 0.  1.
          1   -1    0    0  501    0 -0.00000000000E+00 -0.00000000000E+00 -0.34356411573E+01  0.34356411573E+01  0.00000000000E+00 0.  1.
          2    1    1    2  501    0 -0.97127731200E+01  0.21260474954E+02  0.19118208904E+03  0.19260565133E+03  0.00000000000E+00 0.  1.
          1    1    1    2  502    0  0.97127731200E+01 -0.21260474954E+02  0.47420581619E+02  0.52868301638E+02  0.00000000000E+00 0.  1.
</event>
<event>
 4    1  0.7416369E+003  0.4145985E+02  0.7546771E-02  0.1340137E+00
          2   -1    0    0  502    0  0.00000000000E+00  0.00000000000E+00  0.53324195983E+03  0.53324195983E+03  0.00000000000E+00 0. -1.
          1   -1    0    0  501    0 -0.00000000000E+00 -0.00000000000E+00 -0.10854709389E+03  0.10854709389E+03  0.00000000000E+00 0.  1.
          2    1    1    2  501    0  0.11784875415E+02  0.39749664124E+02  0.52844124337E+03  0.53006515334E+03  0.00000000000E+00 0. -1.
          1    1    1    2  502    0 -0.11784875415E+02 -0.39749664124E+02 -0.10374637743E+03  0.11172390038E+03  0.00000000000E+00 0.  1.
</event>
<event>
 4    1  0.7416369E+003  0.8611757E+02  0.7546771E-02  0.1190315E+00
          2   -1    0    0  502    0  0.00000000000E+00  0.00000000000E+00  0.12125218765E+03  0.12125218765E+03  0.00000000000E+00 0.  1.
          1   -1    0    0  501    0 -0.00000000000E+00 -0.00000000000E+00 -0.10239386439E+03  0.10239386439E+03  0.00000000000E+00 0. -1.
          2    1    1    2  501    0  0.56183208947E+02  0.65266243467E+02  0.80387211808E+02  0.11780636369E+03  0.00000000000E+00 0.  1.
          1    1    1    2  502    0 -0.56183208947E+02 -0.65266243467E+02 -0.61528888545E+02  0.10583968835E+03  0.00000000000E+00 0. -1.
</event>
<event>
 4    1  0.7416369E+003  0.2064286E+02  0.7546771E-02  0.1524425E+00
          2   -1    0    0  502    0  0.00000000000E+00  0.00000000000E+00  0.37766823645E+03  0.37766823645E+03  0.00000000000E+00 0. -1.
          1   -1    0    0  501    0 -0.00000000000E+00 -0.00000000000E+00 -0.78753081196E+01  0.78753081196E+01  0.00000000000E+00 0.  1.
          2    1    1    2  501    0  0.19074360537E+02  0.78928066638E+01  0.36332523803E+03  0.36391119276E+03  0.00000000000E+00 0. -1.
          1    1    1    2  502    0 -0.19074360537E+02 -0.78928066638E+01  0.64676902992E+01  0.21632351808E+02  0.00000000000E+00 0.  1.
</event>
<event>
 4    1  0.7416369E+003  0.2852768E+02  0.7546771E-02  0.1432838E+00
          2   -1    0    0  502    0  0.00000000000E+00  0.00000000000E+00  0.65661186575E+03  0.65661186575E+03  0.00000000000E+00 0.  1.
          1   -1    0    0  501    0 -0.00000000000E+00 -0.00000000000E+00 -0.40102090811E+01  0.40102090811E+01  0.00000000000E+00 0. -1.
          2    1    1    2  501    0  0.26675151859E+02  0.10112595079E+02  0.60086259910E+03  0.60153943454E+03  0.00000000000E+00 0.  1.
          1    1    1    2  502    0 -0.26675151859E+02 -0.10112595079E+02  0.51739057563E+02  0.59082640288E+02  0.00000000000E+00 0. -1.
</event>
<event>
 4    1  0.7416369E+003  0.2649142E+02  0.7546771E-02  0.1452785E+00
          2   -1    0    0  502    0  0.00000000000E+00  0.00000000000E+00  0.85799892474E+01  0.85799892474E+01  0.00000000000E+00 0. -1.
          1   -1    0    0  501    0 -0.00000000000E+00 -0.00000000000E+00 -0.75335944520E+03  0.75335944520E+03  0.00000000000E+00 0. -1.
          2    1    1    2  501    0 -0.97953224008E+01  0.24613959728E+02 -0.12695583677E+02  0.29376405487E+02  0.00000000000E+00 0. -1.
          1    1    1    2  502    0  0.97953224008E+01 -0.24613959728E+02 -0.73208387228E+03  0.73256302897E+03  0.00000000000E+00 0. -1.
</event>
<event>
 4    1  0.7416369E+003  0.2868317E+02  0.7546771E-02  0.1431396E+00
          2   -1    0    0  502    0  0.00000000000E+00  0.00000000000E+00  0.58034201340E+03  0.58034201340E+03  0.00000000000E+00 0.  1.
          1   -1    0    0  501    0 -0.00000000000E+00 -0.00000000000E+00 -0.25826574275E+01  0.25826574275E+01  0.00000000000E+00 0.  1.
          2    1    1    2  501    0 -0.68571995001E+01 -0.27851443735E+02  0.48463458789E+03  0.48548265457E+03  0.00000000000E+00 0.  1.
          1    1    1    2  502    0  0.68571995001E+01  0.27851443735E+02  0.93124768083E+02  0.97442016264E+02  0.00000000000E+00 0.  1.
</event>
<event>
 4    1  0.7416369E+003  0.2666382E+02  0.7546771E-02  0.1451015E+00
          2   -1    0    0  502    0  0.00000000000E+00  0.00000000000E+00  0.99502889478E+02  0.99502889478E+02  0.00000000000E+00 0. -1.
          1   -1    0    0  501    0 -0.00000000000E+00 -0.00000000000E+00 -0.83497638966E+01  0.83497638966E+01  0.00000000000E+00 0. -1.
          2    1    1    2  501    0  0.14761841739E+02  0.22204674107E+02  0.66059588071E+02  0.71237831942E+02  0.00000000000E+00 0. -1.
          1    1    1    2  502    0 -0.14761841739E+02 -0.22204674107E+02  0.25093537510E+02  0.36614821432E+02  0.00000000000E+00 0. -1.
</event>
<event>
 4    1  0.7416369E+003  0.2177230E+02  0.7546771E-02  0.1508518E+00
          2   -1    0    0  502    0  0.00000000000E+00  0.00000000000E+00  0.34686909644E+02  0.34686909644E+02  0.00000000000E+00 0.  1.
          1   -1    0    0  501    0 -0.00000000000E+00 -0.00000000000E+00 -0.11520113025E+03  0.11520113025E+03  0.00000000000E+00 0.  1.
          2    1    1    2  501    0  0.15370151671E+02  0.15420490406E+02  0.30101405584E+02  0.37150070052E+02  0.00000000000E+00 0.  1.
          1    1    1    2  502    0 -0.15370151671E+02 -0.15420490406E+02 -0.11061562619E+03  0.11273796984E+03  0.00000000000E+00 0.  1.
</event>
<event>
 4    1  0.7416369E+003  0.2257566E+02  0.7546771E-02  0.1497896E+00
          2   -1    0    0  502    0  0.00000000000E+00  0.00000000000E+00  0.34003645178E+03  0.34003645178E+03  0.00000000000E+00 0.  1.
          1   -1    0    0  501    0 -0.00000000000E+00 -0.00000000000E+00 -0.11017718504E+02  0.11017718504E+02  0.00000000000E+00 0. -1.
          2    1    1    2  501    0  0.20012592193E+02 -0.10447808910E+02  0.32766090570E+03  0.32843771051E+03  0.00000000000E+00 0.  1.
          1    1    1    2  502    0 -0.20012592193E+02  0.10447808910E+02  0.13578275769E+01  0.22616459781E+02  0.00000000000E+00 0. -1.
</event>
<event>
 4    1  0.7416369E+003  0.2255354E+02  0.7546771E-02  0.1498182E+00
          2   -1    0    0  502    0  0.00000000000E+00  0.00000000000E+00  0.75049050406E+02  0.75049050406E+02  0.00000000000E+00 0. -1.
          1   -1    0    0  501    0 -0.00000000000E+00 -0.00000000000E+00 -0.28804637532E+02  0.28804637532E+02  0.00000000000E+00 0.  1.
          2    1    1    2  501    0  0.19897239242E+02 -0.10618949610E+02  0.68530740544E+02  0.72146549604E+02  0.00000000000E+00 0. -1.
          1    1    1    2  502    0 -0.19897239242E+02  0.10618949610E+02 -0.22286327670E+02  0.31707138334E+02  0.00000000000E+00 0.  1.
</event>
<event>
 4    1  0.7416369E+003  0.2858080E+02  0.7546771E-02  0.1432344E+00
          2   -1    0    0  502    0  0.00000000000E+00  0.00000000000E+00  0.28712640474E+01  0.28712640474E+01  0.00000000000E+00 0. -1.
          1   -1    0    0  501    0 -0.00000000000E+00 -0.00000000000E+00 -0.94951771898E+03  0.94951771898E+03  0.00000000000E+00 0.  1.
          2    1    1    2  501    0  0.16717464415E+02 -0.23181640483E+02 -0.74802544263E+02  0.80076730079E+02  0.00000000000E+00 0. -1.
          1    1    1    2  502    0 -0.16717464415E+02  0.23181640483E+02 -0.87184391067E+03  0.87231225295E+03  0.00000000000E+00 0.  1.
</event>
<event>
 4    1  0.7416369E+003  0.2121021E+02  0.7546771E-02  0.1516285E+00
          2   -1    0    0  502    0  0.00000000000E+00  0.00000000000E+00  0.48814235004E+02  0.48814235004E+02  0.00000000000E+00 0.  1.
          1   -1    0    0  501    0 -0.00000000000E+00 -0.00000000000E+00 -0.33835985555E+03  0.33835985555E+03  0.00000000000E+00 0. -1.
          2    1    1    2  501    0 -0.12836659097E+02 -0.16884703087E+02  0.46159636486E+02  0.50799459206E+02  0.00000000000E+00 0.  1.
          1    1    1    2  502    0  0.12836659097E+02  0.16884703087E+02 -0.33570525704E+03  0.33637463135E+03  0.00000000000E+00 0. -1.
</event>
<event>
 4    1  0.7416369E+003  0.2009819E+02  0.7546771E-02  0.1532540E+00
          2   -1    0    0  502    0  0.00000000000E+00  0.00000000000E+00  0.10462139612E+02  0.10462139612E+02  0.00000000000E+00 0.  1.
          1   -1    0    0  501    0 -0.00000000000E+00 -0.00000000000E+00 -0.16154297217E+03  0.16154297217E+03  0.00000000000E+00 0.  1.
          2    1    1    2  501    0 -0.19384999767E+02 -0.53064892630E+01 -0.51601201519E+00  0.20104808197E+02  0.00000000000E+00 0.  1.
          1    1    1    2  502    0  0.19384999767E+02  0.53064892630E+01 -0.15056482054E+03  0.15190030358E+03  0.00000000000E+00 0.  1.
</event>
<event>
 4    1  0.7416369E+003  0.2074169E+02  0.7546771E-02  0.1522985E+00
          2   -1    0    0  502    0  0.00000000000E+00  0.00000000000E+00  0.85769543136E+02  0.85769543136E+02  0.00000000000E+00 0.  1.
          1   -1    0    0  501    0 -0.00000000000E+00 -0.00000000000E+00 -0.11930500916E+03  0.11930500916E+03  0.00000000000E+00 0. -1.
          2    1    1    2  501    0 -0.13010139808E+02  0.16154074350E+02  0.83590895840E+02  0.86125813339E+02  0.00000000000E+00 0.  1.
          1    1    1    2  502    0  0.13010139808E+02 -0.16154074350E+02 -0.11712636187E+03  0.11894873896E+03  0.00000000000E+00 0. -1.
</event>
<event>
 4    1  0.7416369E+003  0.3564751E+02  0.7546771E-02  0.1376067E+00
          2   -1    0    0  502    0  0.00000000000E+00  0.00000000000E+00  0.37372891289E+03  0.37372891289E+03  0.00000000000E+00 0.  1.
          1   -1    0    0  501    0 -0.00000000000E+00 -0.00000000000E+00 -0.22188056858E+03  0.22188056858E+03  0.00000000000E+00 0.  1.
          2    1    1    2  501    0 -0.10166868711E+01  0.35633012937E+02  0.37143826884E+03  0.37314492201E+03  0.00000000000E+00 0.  1.
          1    1    1    2  502    0  0.10166868711E+01 -0.35633012937E+02 -0.21958992453E+03  0.22246455947E+03  0.00000000000E+00 0.  1.
</event>
<event>
 4    1  0.7416369E+003  0.2095134E+02  0.7546771E-02  0.1519961E+00
          2   -1    0    0  502    0  0.00000000000E+00  0.00000000000E+00  0.26596562297E+01  0.26596562297E+01  0.00000000000E+00 0. -1.
          1   -1    0    0  501    0 -0.00000000000E+00 -0.00000000000E+00 -0.65946878640E+03  0.65946878640E+03  0.00000000000E+00 0. -1.
          2    1    1    2  501    0 -0.18086825106E+02 -0.10574751910E+02 -0.41745604936E+02  0.46708180781E+02  0.00000000000E+00 0. -1.
          1    1    1    2  502    0  0.18086825106E+02  0.10574751910E+02 -0.61506352523E+03  0.61542026185E+03  0.00000000000E+00 0. -1.
</event>
<event>
 4    1  0.7416369E+003  0.2116000E+02  0.7546771E-02  0.1516993E+00
          2   -1    0    0  502    0  0.00000000000E+00  0.00000000000E+00  0.15212539105E+03  0.15212539105E+03  0.00000000000E+00 0. -1.
          1   -1    0    0  501    0 -0.00000000000E+00 -0.00000000000E+00 -0.96355995152E+02  0.96355995152E+02  0.00000000000E+00 0.  1.
          2    1    1    2  501    0  0.10699990708E+02 -0.18255294007E+02  0.15021316241E+03  0.15169620866E+03  0.00000000000E+00 0. -1.
          1    1    1    2  502    0 -0.10699990708E+02  0.18255294007E+02 -0.94443766508E+02  0.96785177546E+02  0.00000000000E+00 0.  1.
</event>
<event>
 4    1  0.7416369E+003  0.3217433E+02  0.7546771E-02  0.1401597E+00
          2   -1    0    0  502    0  0.00000000000E+00  0.00000000000E+00  0.41513701709E+01  0.41513701709E+01  0.00000000000E+00 0. -1.
          1   -1    0    0  501    0 -0.00000000000E+00 -0.00000000000E+00 -0.47183985043E+03  0.47183985043E+03  0.00000000000E+00 0. -1.
          2    1    1    2  501    0  0.19075532558E+02 -0.25909675187E+02 -0.70419946395E+02  0.77421935270E+02  0.00000000000E+00 0. -1.
          1    1    1    2  502    0 -0.19075532558E+02  0.25909675187E+02 -0.39726853387E+03  0.39856928533E+03  0.00000000000E+00 0. -1.
</event>
<event>
 4    1  0.7416369E+003  0.2346654E+02  0.7546771E-02  0.1486721E+00
          2   -1    0    0  502    0  0.00000000000E+00  0.00000000000E+00  0.24065124243E+03  0.24065124243E+03  0.00000000000E+00 0. -1.
          1   -1    0    0  501    0 -0.00000000000E+00 -0.00000000000E+00 -0.11098106176E+02  0.11098106176E+02  0.00000000000E+00 0.  1.
          2    1    1    2  501    0 -0.16473658680E+02  0.16712180427E+02  0.22692610683E+03  0.22813622326E+03  0.00000000000E+00 0. -1.
          1    1    1    2  502    0  0.16473658680E+02 -0.16712180427E+02  0.26270294276E+01  0.23613125344E+02  0.00000000000E+00 0.  1.
</event>
<event>
 4    1  0.7416369E+003  0.2304194E+02  0.7546771E-02  0.1491972E+00
          2   -1    0    0  502    0  0.00000000000E+00  0.00000000000E+00  0.13854340501E+04  0.13854340501E+04  0.00000000000E+00 0.  1.
          1   -1    0    0  501    0 -0.00000000000E+00 -0.00000000000E+00 -0.10272313563E+01  0.10272313563E+01  0.00000000000E+00 0. -1.
          2    1    1    2  501    0  0.26288940435E+01  0.22891484004E+02  0.12410982405E+04  0.12413121178E+04  0.00000000000E+00 0.  1.
          1    1    1    2  502    0 -0.26288940435E+01 -0.22891484004E+02  0.14330857826E+03  0.14514916372E+03  0.00000000000E+00 0. -1.
</event>
<event>
 4    1  0.7416369E+003  0.2516917E+02  0.7546771E-02  0.1466920E+00
          2   -1    0    0  502    0  0.00000000000E+00  0.00000000000E+00  0.14362093615E+04  0.14362093615E+04  0.00000000000E+00 0.  1.
          1   -1    0    0  501    0 -0.00000000000E+00 -0.00000000000E+00 -0.15684053763E+01  0.15684053763E+01  0.00000000000E+00 0. -1.
          2    1    1    2  501    0  0.12363748159E+02  0.21923152300E+02  0.13267966889E+04  0.13270353953E+04  0.00000000000E+00 0.  1.
          1    1    1    2  502    0 -0.12363748159E+02 -0.21923152300E+02  0.10784426728E+03  0.11074237157E+03  0.00000000000E+00 0. -1.
</event>
<event>
 4    1  0.7416369E+003  0.4305647E+02  0.7546771E-02  0.1331449E+00
          2   -1    0    0  502    0  0.00000000000E+00  0.00000000000E+00  0.35735449067E+03  0.35735449067E+03  0.00000000000E+00 0. -1.
          1   -1    0    0  501    0 -0.00000000000E+00 -0.00000000000E+00 -0.83145999115E+03  0.83145999115E+03  0.00000000000E+00 0.  1.
          2    1    1    2  501    0  0.18521983384E+02 -0.38868961442E+02  0.35549724459E+03  0.35809517023E+03  0.00000000000E+00 0. -1.
          1    1    1    2  502    0 -0.18521983384E+02  0.38868961442E+02 -0.82960274507E+03  0.83071931160E+03  0.00000000000E+00 0.  1.
</event>
<event>
 4    1  0.7416369E+003  0.3884650E+02  0.7546771E-02  0.1355381E+00
          2   -1    0    0  502    0  0.00000000000E+00  0.00000000000E+00  0.17906239841E+04  0.17906239841E+04  0.00000000000E+00 0.  1.
          1   -1    0    0  501    0 -0.00000000000E+00 -0.00000000000E+00 -0.16823335120E+03  0.16823335120E+03  0.00000000000E+00 0.  1.
          2    1    1    2  501    0  0.24184479482E+02 -0.30400022359E+02  0.17881677204E+04  0.17885896250E+04  0.00000000000E+00 0.  1.
          1    1    1    2  502    0 -0.24184479482E+02  0.30400022359E+02 -0.16577708753E+03  0.17026771026E+03  0.00000000000E+00 0.  1.
</event>
<event>
 4    1  0.7416369E+003  0.3206080E+02  0.7546771E-02  0.1402495E+00
          2   -1    0    0  502    0  0.00000000000E+00  0.00000000000E+00  0.35624849282E+03  0.35624849282E+03  0.00000000000E+00 0.  1.
          1   -1    0    0  501    0 -0.00000000000E+00 -0.00000000000E+00 -0.68617395823E+01  0.68617395823E+01  0.00000000000E+00 0. -1.
          2    1    1    2  501    0  0.15562855342E+02 -0.28030210541E+02  0.31290253541E+03  0.31454076339E+03  0.00000000000E+00 0.  1.
          1    1    1    2  502    0 -0.15562855342E+02  0.28030210541E+02  0.36484217825E+02  0.48569469007E+02  0.00000000000E+00 0. -1.
</event>
<event>
 4    1  0.7416369E+003  0.2353096E+02  0.7546771E-02  0.1485936E+00
          2   -1    0    0  502    0  0.00000000000E+00  0.00000000000E+00  0.21432506912E+04  0.21432506912E+04  0.00000000000E+00 0.  1.
          1   -1    0    0  501    0 -0.00000000000E+00 -0.00000000000E+00 -0.34497094829E+00  0.34497094829E+00  0.00000000000E+00 0.  1.
          2    1    1    2  501    0 -0.11508542008E+02 -0.20524612564E+02  0.16085292601E+04  0.16087013666E+04  0.00000000000E+00 0.  1.
          1    1    1    2  502    0  0.11508542008E+02  0.20524612564E+02  0.53437646016E+03  0.53489429557E+03  0.00000000000E+00 0.  1.
</event>
<event>
 4    1  0.7416369E+003  0.3051196E+02  0.7546771E-02  0.1415199E+00
          2   -1    0    0  502    0  0.00000000000E+00  0.00000000000E+00  0.18148485067E+02  0.18148485067E+02  0.00000000000E+00 0. -1.
          1   -1    0    0  501    0 -0.00000000000E+00 -0.00000000000E+00 -0.89290731252E+03  0.89290731252E+03  0.00000000000E+00 0.  1.
          2    1    1    2  501    0  0.88905871713E+01  0.29187966382E+02  0.48698025666E+01  0.30898137465E+02  0.00000000000E+00 0. -1.
          1    1    1    2  502    0 -0.88905871713E+01 -0.29187966382E+02 -0.87962863002E+03  0.88015766012E+03  0.00000000000E+00 0.  1.
</event>
<event>
 4    1  0.7416369E+003  0.5277702E+02  0.7546771E-02  0.1286561E+00
          2   -1    0    0  502    0  0.00000000000E+00  0.00000000000E+00  0.65119132904E+03  0.65119132904E+03  0.00000000000E+00 0. -1.
          1   -1    0    0  501    0 -0.00000000000E+00 -0.00000000000E+00 -0.93521508281E+01  0.93521508281E+01  0.00000000000E+00 0.  1.
          2    1    1    2  501    0 -0.37517542078E+02 -0.37119373427E+02  0.56420860148E+03  0.56667165081E+03  0.00000000000E+00 0. -1.
          1    1    1    2  502    0  0.37517542078E+02  0.37119373427E+02  0.77630576735E+02  0.93871829061E+02  0.00000000000E+00 0.  1.
</event>
<event>
 4    1  0.7416369E+003  0.2134619E+02  0.7546771E-02  0.1514379E+00
          2   -1    0    0  502    0  0.00000000000E+00  0.00000000000E+00  0.44302700488E+03  0.44302700488E+03  0.00000000000E+00 0.  1.
          1   -1    0    0  501    0 -0.00000000000E+00 -0.00000000000E+00 -0.24991896908E+02  0.24991896908E+02  0.00000000000E+00 0.  1.
          2    1    1    2  501    0 -0.16106740441E+02  0.14008311085E+02  0.43816121254E+03  0.43868087267E+03  0.00000000000E+00 0.  1.
          1    1    1    2  502    0  0.16106740441E+02 -0.14008311085E+02 -0.20126104574E+02  0.29338029116E+02  0.00000000000E+00 0.  1.
</event>
<event>
 4    1  0.7416369E+003  0.2595358E+02  0.7546771E-02  0.1458412E+00
          2   -1    0    0  502    0  0.00000000000E+00  0.00000000000E+00  0.38157166194E+01  0.38157166194E+01  0.00000000000E+00 0. -1.
          1   -1    0    0  501    0 -0.00000000000E+00 -0.00000000000E+00 -0.44406141343E+03  0.44406141343E+03  0.00000000000E+00 0. -1.
          2    1    1    2  501    0  0.15400132371E+02 -0.20890768394E+02 -0.46304827207E+02  0.53082250364E+02  0.00000000000E+00 0. -1.
          1    1    1    2  502    0 -0.15400132371E+02  0.20890768394E+02 -0.39394086960E+03  0.39479487968E+03  0.00000000000E+00 0. -1.
</event>
<event>
 4    1  0.7416369E+003  0.2671227E+02  0.7546771E-02  0.1450520E+00
          2   -1    0    0  502    0  0.00000000000E+00  0.00000000000E+00  0.71090534508E+00  0.71090534508E+00  0.00000000000E+00 0. -1.
          1   -1    0    0  501    0 -0.00000000000E+00 -0.00000000000E+00 -0.11132666481E+04  0.11132666481E+04  0.00000000000E+00 0. -1.
          2    1    1    2  501    0  0.21185682496E+02  0.16269983621E+02 -0.38155141513E+03  0.38248533030E+03  0.00000000000E+00 0. -1.
          1    1    1    2  502    0 -0.21185682496E+02 -0.16269983621E+02 -0.73100432761E+03  0.73149222313E+03  0.00000000000E+00 0. -1.
</event>
<event>
 4    1  0.7416369E+003  0.2917094E+02  0.7546771E-02  0.1426940E+00
          2   -1    0    0  502    0  0.00000000000E+00  0.00000000000E+00  0.92105608090E+02  0.92105608090E+02  0.00000000000E+00 0. -1.
          1   -1    0    0  501    0 -0.00000000000E+00 -0.00000000000E+00 -0.19088869959E+02  0.19088869959E+02  0.00000000000E+00 0.  1.
          2    1    1    2  501    0  0.28057051750E+02 -0.79840932823E+01  0.76446074208E+02  0.81822650655E+02  0.00000000000E+00 0. -1.
          1    1    1    2  502    0 -0.28057051750E+02  0.79840932823E+01 -0.34293360771E+01  0.29371827393E+02  0.00000000000E+00 0.  1.
</event>
<event>
 4    1  0.7416369E+003  0.2443007E+02  0.7546771E-02  0.1475281E+00
          2   -1    0    0  502    0  0.00000000000E+00  0.00000000000E+00  0.69964996877E+02  0.69964996877E+02  0.00000000000E+00 0. -1.
          1   -1    0    0  501    0 -0.00000000000E+00 -0.00000000000E+00 -0.17999250840E+03  0.17999250840E+03  0.00000000000E+00 0.  1.
          2    1    1    2  501    0 -0.19234018746E+02 -0.15062566701E+02  0.66967491419E+02  0.71284453422E+02  0.00000000000E+00 0. -1.
          1    1    1    2  502    0  0.19234018746E+02  0.15062566701E+02 -0.17699500294E+03  0.17867305186E+03  0.00000000000E+00 0.  1.
</event>
<event>
 4    1  0.9893595E+003  0.2466421E+02  0.7546771E-02  0.1472595E+00
          2   -1    0    0  502    0  0.00000000000E+00  0.00000000000E+00  0.16125157532E+04  0.16125157532E+04  0.00000000000E+00 0. -1.
          1   -1    0    0  501    0 -0.00000000000E+00 -0.00000000000E+00 -0.22860545701E+03  0.22860545701E+03  0.00000000000E+00 0.  1.
          2    1    1    2  501    0  0.21254037706E+02 -0.12513551831E+02  0.16117558725E+04  0.16119445759E+04  0.00000000000E+00 0. -1.
          1    1    1    2  502    0 -0.21254037706E+02  0.12513551831E+02 -0.22784557630E+03  0.22917663436E+03  0.00000000000E+00 0.  1.
</event>
<event>
 4    1  0.7416369E+003  0.2564892E+02  0.7546771E-02  0.1461673E+00
          2   -1    0    0  502    0  0.00000000000E+00  0.00000000000E+00  0.32324288128E+03  0.32324288128E+03  0.00000000000E+00 0. -1.
          1   -1    0    0  501    0 -0.00000000000E+00 -0.00000000000E+00 -0.96582308087E+02  0.96582308087E+02  0.00000000000E+00 0.  1.
          2    1    1    2  501    0 -0.18819719139E+02 -0.17426568800E+02  0.32101943661E+03  0.32204245964E+03  0.00000000000E+00 0. -1.
          1    1    1    2  502    0  0.18819719139E+02  0.17426568800E+02 -0.94358863415E+02  0.97782729730E+02  0.00000000000E+00 0.  1.
</event>
<event>
 4    1  0.7416369E+003  0.3223583E+02  0.7546771E-02  0.1401112E+00
          2   -1    0    0  502    0  0.00000000000E+00  0.00000000000E+00  0.45697181217E+01  0.45697181217E+01  0.00000000000E+00 0.  1.
          1   -1    0    0  501    0 -0.00000000000E+00 -0.00000000000E+00 -0.44071203545E+03  0.44071203545E+03  0.00000000000E+00 0.  1.
          2    1    1    2  501    0  0.30991613127E+02 -0.88695286114E+01 -0.63176549180E+02  0.70925488989E+02  0.00000000000E+00 0.  1.
          1    1    1    2  502    0 -0.30991613127E+02  0.88695286114E+01 -0.37296576814E+03  0.37435626458E+03  0.00000000000E+00 0.  1.
</event>
<event>
 4    1  0.7416369E+003  0.6070337E+02  0.7546771E-02  0.1257461E+00
          2   -1    0    0  502    0  0.00000000000E+00  0.00000000000E+00  0.18612149477E+03  0.18612149477E+03  0.00000000000E+00 0.  1.
          1   -1    0    0  501    0 -0.00000000000E+00 -0.00000000000E+00 -0.19868605589E+02  0.19868605589E+02  0.00000000000E+00 0. -1.
          2    1    1    2  501    0  0.33950631821E+02 -0.50321472732E+02  0.77001329852E+02  0.98051521243E+02  0.00000000000E+00 0.  1.
          1    1    1    2  502    0 -0.33950631821E+02  0.50321472732E+02  0.89251559329E+02  0.10793857912E+03  0.00000000000E+00 0. -1.
</event>
<event>
 4    1  0.7416369E+003  0.3948916E+02  0.7546771E-02  0.1351506E+00
          2   -1    0    0  502    0  0.00000000000E+00  0.00000000000E+00  0.43282372013E+03  0.43282372013E+03  0.00000000000E+00 0. -1.
          1   -1    0    0  501    0 -0.00000000000E+00 -0.00000000000E+00 -0.12693416065E+03  0.12693416065E+03  0.00000000000E+00 0. -1.
          2    1    1    2  501    0 -0.32893046351E+02  0.21850426855E+02  0.42882315406E+03  0.43063754029E+03  0.00000000000E+00 0. -1.
          1    1    1    2  502    0  0.32893046351E+02 -0.21850426855E+02 -0.12293359458E+03  0.12912034049E+03  0.00000000000E+00 0. -1.
</event>
<event>
 4    1  0.7416369E+003  0.2598163E+02  0.7546771E-02  0.1458115E+00
          2   -1    0    0  502    0  0.00000000000E+00  0.00000000000E+00  0.42068419463E+02  0.42068419463E+02  0.00000000000E+00 0.  1.
          1   -1    0    0  501    0 -0.00000000000E+00 -0.00000000000E+00 -0.60459337636E+03  0.60459337636E+03  0.00000000000E+00 0.  1.
          2    1    1    2  501    0  0.20217822150E+02  0.16318227710E+02  0.37748844453E+02  0.45825976756E+02  0.00000000000E+00 0.  1.
          1    1    1    2  502    0 -0.20217822150E+02 -0.16318227710E+02 -0.60027380135E+03  0.60083581907E+03  0.00000000000E+00 0.  1.
</event>
<event>
 4    1  0.7416369E+003  0.2998950E+02  0.7546771E-02  0.1419688E+00
          2   -1    0    0  502    0  0.00000000000E+00  0.00000000000E+00  0.99799262347E+02  0.99799262347E+02  0.00000000000E+00 0.  1.
          1   -1    0    0  501    0 -0.00000000000E+00 -0.00000000000E+00 -0.10079287977E+03  0.10079287977E+03  0.00000000000E+00 0.  1.
          2    1    1    2  501    0  0.27926273156E+02 -0.10931310581E+02  0.95210607503E+02  0.99821991888E+02  0.00000000000E+00 0.  1.
          1    1    1    2  502    0 -0.27926273156E+02  0.10931310581E+02 -0.96204224922E+02  0.10077015022E+03  0.00000000000E+00 0.  1.
</event>
<event>
 4    1  0.7416369E+003  0.2392937E+02  0.7546771E-02  0.1481146E+00
          2   -1    0    0  502    0  0.00000000000E+00  0.00000000000E+00  0.19206942737E+03  0.19206942737E+03  0.00000000000E+00 0.  1.
          1   -1    0    0  501    0 -0.00000000000E+00 -0.00000000000E+00 -0.47889664585E+01  0.47889664585E+01  0.00000000000E+00 0.  1.
          2    1    1    2  501    0 -0.11671807557E+02 -0.20889799717E+02  0.15411347840E+03  0.15596018418E+03  0.00000000000E+00 0.  1.
          1    1    1    2  502    0  0.11671807557E+02  0.20889799717E+02  0.33166982516E+02  0.40898209657E+02  0.00000000000E+00 0.  1.
</event>
<event>
 4    1  0.7416369E+003  0.2326533E+02  0.7546771E-02  0.1489193E+00
          2   -1    0    0  502    0  0.00000000000E+00  0.00000000000E+00  0.95480429592E+03  0.95480429592E+03  0.00000000000E+00 0. -1.
          1   -1    0    0  501    0 -0.00000000000E+00 -0.00000000000E+00 -0.41308992248E+01  0.41308992248E+01  0.00000000000E+00 0. -1.
          2    1    1    2  501    0  0.10427574888E+02 -0.20797622451E+02  0.92069131984E+03  0.92098522347E+03  0.00000000000E+00 0. -1.
          1    1    1    2  502    0 -0.10427574888E+02  0.20797622451E+02  0.29982076851E+02  0.37949971673E+02  0.00000000000E+00 0. -1.
</event>
<event>
 4    1  0.7416369E+003  0.3226506E+02  0.7546771E-02  0.1400883E+00
          2   -1    0    0  502    0  0.00000000000E+00  0.00000000000E+00  0.89788951816E+02  0.89788951816E+02  0.00000000000E+00 0.  1.
          1   -1    0    0  501    0 -0.00000000000E+00 -0.00000000000E+00 -0.13794948027E+02  0.13794948027E+02  0.00000000000E+00 0.  1.
          2    1    1    2  501    0  0.26906940496E+02 -0.17805913338E+02  0.58683366112E+02  0.66968436259E+02  0.00000000000E+00 0.  1.
          1    1    1    2  502    0 -0.26906940496E+02  0.17805913338E+02  0.17310637676E+02  0.36615463584E+02  0.00000000000E+00 0.  1.
</event>
<event>
 4    1  0.7416369E+003  0.3966303E+02  0.7546771E-02  0.1350472E+00
          2   -1    0    0  502    0  0.00000000000E+00  0.00000000000E+00  0.37882655825E+02  0.37882655825E+02  0.00000000000E+00 0. -1.
          1   -1    0    0  501    0 -0.00000000000E+00 -0.00000000000E+00 -0.22198174459E+03  0.22198174459E+03  0.00000000000E+00 0. -1.
          2    1    1    2  501    0 -0.38705731268E+02 -0.86615222067E+01  0.25100439737E+02  0.46938126026E+02  0.00000000000E+00 0. -1.
          1    1    1    2  502    0  0.38705731268E+02  0.86615222067E+01 -0.20919952850E+03  0.21292627438E+03  0.00000000000E+00 0. -1.
</event>
<event>
 4    1  0.7416369E+003  0.4299174E+02  0.7546771E-02  0.1331793E+00
          2   -1    0    0  502    0  0.00000000000E+00  0.00000000000E+00  0.10503552223E+03  0.10503552223E+03  0.00000000000E+00 0. -1.
          1   -1    0    0  501    0 -0.00000000000E+00 -0.00000000000E+00 -0.19849489955E+02  0.19849489955E+02  0.00000000000E+00 0.  1.
          2    1    1    2  501    0  0.13327921232E+02  0.40873641128E+02  0.21557298737E+02  0.48093712190E+02  0.00000000000E+00 0. -1.
          1    1    1    2  502    0 -0.13327921232E+02 -0.40873641128E+02  0.63628733539E+02  0.76791299997E+02  0.00000000000E+00 0.  1.
</event>
<event>
 4    1  0.7416369E+003  0.2777848E+02  0.7546771E-02  0.1439941E+00
          2   -1    0    0  502    0  0.00000000000E+00  0.00000000000E+00  0.11352951645E+04  0.11352951645E+04  0.00000000000E+00 0. -1.
          1   -1    0    0  501    0 -0.00000000000E+00 -0.00000000000E+00 -0.46849024015E+02  0.46849024015E+02  0.00000000000E+00 0. -1.
          2    1    1    2  501    0  0.25380575286E+02  0.11290272668E+02  0.11309918622E+04  0.11313329467E+04  0.00000000000E+00 0. -1.
          1    1    1    2  502    0 -0.25380575286E+02 -0.11290272668E+02 -0.42545721730E+02  0.50811241830E+02  0.00000000000E+00 0. -1.
</event>
<event>
 4    1  0.7416369E+003  0.2014855E+02  0.7546771E-02  0.1531777E+00
          2   -1    0    0  502    0  0.00000000000E+00  0.00000000000E+00  0.54978299247E+03  0.54978299247E+03  0.00000000000E+00 0.  1.
          1   -1    0    0  501    0 -0.00000000000E+00 -0.00000000000E+00 -0.12387270154E+02  0.12387270154E+02  0.00000000000E+00 0. -1.
          2    1    1    2  501    0  0.18060166025E+02  0.89327766736E+01  0.54127650330E+03  0.54165137969E+03  0.00000000000E+00 0.  1.
          1    1    1    2  502    0 -0.18060166025E+02 -0.89327766736E+01 -0.38807809803E+01  0.20518882937E+02  0.00000000000E+00 0. -1.
</event>
<event>
 4    1  0.7416369E+003  0.3772700E+02  0.7546771E-02  0.1362346E+00
          2   -1    0    0  502    0  0.00000000000E+00  0.00000000000E+00  0.42363940349E+02  0.42363940349E+02  0.00000000000E+00 0.  1.
          1   -1    0    0  501    0 -0.00000000000E+00 -0.00000000000E+00 -0.23251840711E+03  0.23251840711E+03  0.00000000000E+00 0.  1.
          2    1    1    2  501    0 -0.37726575304E+02  0.17956475501E+00  0.32046983910E+02  0.49500867723E+02  0.00000000000E+00 0.  1.
          1    1    1    2  502    0  0.37726575304E+02 -0.17956475501E+00 -0.22220145067E+03  0.22538147973E+03  0.00000000000E+00 0.  1.
</event>
<event>
 4    1  0.7416369E+003  0.2676604E+02  0.7546771E-02  0.1449973E+00
          2   -1    0    0  502    0  0.00000000000E+00  0.00000000000E+00  0.32372243758E+03  0.32372243758E+03  0.00000000000E+00 0.  1.
          1   -1    0    0  501    0 -0.00000000000E+00 -0.00000000000E+00 -0.55076530769E+03  0.55076530769E+03  0.00000000000E+00 0. -1.
          2    1    1    2  501    0 -0.61261622498E+01  0.26055534173E+02  0.32284309232E+03  0.32395074160E+03  0.00000000000E+00 0.  1.
          1    1    1    2  502    0  0.61261622498E+01 -0.26055534173E+02 -0.54988596243E+03  0.55053700367E+03  0.00000000000E+00 0. -1.
</event>
<event>
 4    1  0.7416369E+003  0.2314662E+02  0.7546771E-02  0.1490665E+00
          2   -1    0    0  502    0  0.00000000000E+00  0.00000000000E+00  0.15541855748E+04  0.15541855748E+04  0.00000000000E+00 0. -1.
          1   -1    0    0  501    0 -0.00000000000E+00 -0.00000000000E+00 -0.12906738902E+01  0.12906738902E+01  0.00000000000E+00 0. -1.
          2    1    1    2  501    0  0.40933202796E+00 -0.23143001127E+02  0.14422708381E+04  0.14424565631E+04  0.00000000000E+00 0. -1.
          1    1    1    2  502    0 -0.40933202796E+00  0.23143001127E+02  0.11062406281E+03  0.11301968557E+03  0.00000000000E+00 0. -1.
</event>
<event>
 4    1  0.7416369E+003  0.2854133E+02  0.7546771E-02  0.1432711E+00
          2   -1    0    0  502    0  0.00000000000E+00  0.00000000000E+00  0.13185921102E+02  0.13185921102E+02  0.00000000000E+00 0.  1.
          1   -1    0    0  501    0 -0.00000000000E+00 -0.00000000000E+00 -0.69079090711E+02  0.69079090711E+02  0.00000000000E+00 0.  1.
          2    1    1    2  501    0 -0.26014259027E+02 -0.11741622396E+02 -0.14574819743E+02  0.32047351525E+02  0.00000000000E+00 0.  1.
          1    1    1    2  502    0  0.26014259027E+02  0.11741622396E+02 -0.41318349866E+02  0.50217660288E+02  0.00000000000E+00 0.  1.
</event>
<event>
 4    1  0.7416369E+003  0.2054451E+02  0.7546771E-02  0.1525868E+00
          2   -1    0    0  502    0  0.00000000000E+00  0.00000000000E+00  0.12756249093E+04  0.12756249093E+04  0.00000000000E+00 0. -1.
          1   -1    0    0  501    0 -0.00000000000E+00 -0.00000000000E+00 -0.51000560096E+02  0.51000560096E+02  0.00000000000E+00 0. -1.
          2    1    1    2  501    0 -0.18693229520E+02  0.85229110557E+01  0.12734697070E+04  0.12736354154E+04  0.00000000000E+00 0. -1.
          1    1    1    2  502    0  0.18693229520E+02 -0.85229110557E+01 -0.48845357778E+02  0.52990053965E+02  0.00000000000E+00 0. -1.
</event>
<event>
 4    1  0.7416369E+003  0.2237682E+02  0.7546771E-02  0.1500475E+00
          2   -1    0    0  502    0  0.00000000000E+00  0.00000000000E+00  0.40856019599E+03  0.40856019599E+03  0.00000000000E+00 0.  1.
          1   -1    0    0  501    0 -0.00000000000E+00 -0.00000000000E+00 -0.32378217720E+01  0.32378217720E+01  0.00000000000E+00 0.  1.
          2    1    1    2  501    0  0.10372534231E+02 -0.19827572244E+02  0.36497973987E+03  0.36566505522E+03  0.00000000000E+00 0.  1.
          1    1    1    2  502    0 -0.10372534231E+02  0.19827572244E+02  0.40342634344E+02  0.46132962546E+02  0.00000000000E+00 0.  1.
</event>
<event>
 4    1  0.7416369E+003  0.2042750E+02  0.7546771E-02  0.1527598E+00
          2   -1    0    0  502    0  0.00000000000E+00  0.00000000000E+00  0.38745135945E+03  0.38745135945E+03  0.00000000000E+00 0.  1.
          1   -1    0    0  501    0 -0.00000000000E+00 -0.00000000000E+00 -0.24990414794E+01  0.24990414794E+01  0.00000000000E+00 0.  1.
          2    1    1    2  501    0  0.10060174108E+02 -0.17778516143E+02  0.33955483487E+03  0.34016873552E+03  0.00000000000E+00 0.  1.
          1    1    1    2  502    0 -0.10060174108E+02  0.17778516143E+02  0.45397483093E+02  0.49781665405E+02  0.00000000000E+00 0.  1.
</event>
<event>
 4    1  0.7416369E+003  0.2612468E+02  0.7546771E-02  0.1456605E+00
          2   -1    0    0  502    0  0.00000000000E+00  0.00000000000E+00  0.18465812461E+04  0.18465812461E+04  0.00000000000E+00 0. -1.
          1   -1    0    0  501    0 -0.00000000000E+00 -0.00000000000E+00 -0.14651274730E+01  0.14651274730E+01  0.00000000000E+00 0. -1.
          2    1    1    2  501    0  0.20166012907E+02 -0.16608154986E+02  0.17215760089E+04  0.17217742167E+04  0.00000000000E+00 0. -1.
          1    1    1    2  502    0 -0.20166012907E+02  0.16608154986E+02  0.12354010969E+03  0.12627215683E+03  0.00000000000E+00 0. -1.
</event>
<event>
 4    1  0.7416369E+003  0.2023769E+02  0.7546771E-02  0.1530433E+00
          2   -1    0    0  502    0  0.00000000000E+00  0.00000000000E+00  0.26303223323E+01  0.26303223323E+01  0.00000000000E+00 0.  1.
          1   -1    0    0  501    0 -0.00000000000E+00 -0.00000000000E+00 -0.60097819392E+03  0.60097819392E+03  0.00000000000E+00 0.  1.
          2    1    1    2  501    0  0.11354220429E+02 -0.16752485997E+02 -0.39392884616E+02  0.44287283356E+02  0.00000000000E+00 0.  1.
          1    1    1    2  502    0 -0.11354220429E+02  0.16752485997E+02 -0.55895498697E+03  0.55932123289E+03  0.00000000000E+00 0.  1.
</event>
<event>
 4    1  0.7416369E+003  0.2079566E+02  0.7546771E-02  0.1522202E+00
          2   -1    0    0  502    0  0.00000000000E+00  0.00000000000E+00  0.66055002369E+00  0.66055002369E+00  0.00000000000E+00 0.  1.
          1   -1    0    0  501    0 -0.00000000000E+00 -0.00000000000E+00 -0.65931464223E+03  0.65931464223E+03  0.00000000000E+00 0.  1.
          2    1    1    2  501    0 -0.67779728435E+00  0.20784611051E+02 -0.30170804985E+03  0.30242388598E+03  0.00000000000E+00 0.  1.
          1    1    1    2  502    0  0.67779728435E+00 -0.20784611051E+02 -0.35694604236E+03  0.35755130628E+03  0.00000000000E+00 0.  1.
</event>
<event>
 4    1  0.7416369E+003  0.3801925E+02  0.7546771E-02  0.1360501E+00
          2   -1    0    0  502    0  0.00000000000E+00  0.00000000000E+00  0.26877132068E+02  0.26877132068E+02  0.00000000000E+00 0.  1.
          1   -1    0    0  501    0 -0.00000000000E+00 -0.00000000000E+00 -0.56561354660E+03  0.56561354660E+03  0.00000000000E+00 0. -1.
          2    1    1    2  501    0  0.34796657469E+02  0.15318493620E+02  0.12441415149E+02  0.40003155234E+02  0.00000000000E+00 0.  1.
          1    1    1    2  502    0 -0.34796657469E+02 -0.15318493620E+02 -0.55117782968E+03  0.55248752343E+03  0.00000000000E+00 0. -1.
</event>
<event>
 4    1  0.7416369E+003  0.2092231E+02  0.7546771E-02  0.1520377E+00
          2   -1    0    0  502    0  0.00000000000E+00  0.00000000000E+00  0.12343313137E+03  0.12343313137E+03  0.00000000000E+00 0.  1.
          1   -1    0    0  501    0 -0.00000000000E+00 -0.00000000000E+00 -0.64245625936E+01  0.64245625936E+01  0.00000000000E+00 0.  1.
          2    1    1    2  501    0 -0.11446357238E+02 -0.17513539293E+02  0.10196267453E+03  0.10408712769E+03  0.00000000000E+00 0.  1.
          1    1    1    2  502    0  0.11446357238E+02  0.17513539293E+02  0.15045894244E+02  0.25770566276E+02  0.00000000000E+00 0.  1.
</event>
<event>
 4    1  0.7416369E+003  0.3351587E+02  0.7546771E-02  0.1391308E+00
          2   -1    0    0  502    0  0.00000000000E+00  0.00000000000E+00  0.22623413145E+02  0.22623413145E+02  0.00000000000E+00 0. -1.
          1   -1    0    0  501    0 -0.00000000000E+00 -0.00000000000E+00 -0.37546963940E+03  0.37546963940E+03  0.00000000000E+00 0.  1.
          2    1    1    2  501    0  0.69657948059E+01 -0.32784011171E+02  0.89957934644E+01  0.34702132295E+02  0.00000000000E+00 0. -1.
          1    1    1    2  502    0 -0.69657948059E+01  0.32784011171E+02 -0.36184201971E+03  0.36339092025E+03  0.00000000000E+00 0.  1.
</event>
<event>
 4    1  0.7416369E+003  0.2060096E+02  0.7546771E-02  0.1525039E+00
          2   -1    0    0  502    0  0.00000000000E+00  0.00000000000E+00  0.17564339775E+03  0.17564339775E+03  0.00000000000E+00 0.  1.
          1   -1    0    0  501    0 -0.00000000000E+00 -0.00000000000E+00 -0.40589652968E+01  0.40589652968E+01  0.00000000000E+00 0.  1.
          2    1    1    2  501    0  0.18731368761E+02  0.85752865202E+01  0.14295274719E+03  0.14442952483E+03  0.00000000000E+00 0.  1.
          1    1    1    2  502    0 -0.18731368761E+02 -0.85752865202E+01  0.28631685261E+02  0.35272838211E+02  0.00000000000E+00 0.  1.
</event>
<event>
 4    1  0.7416369E+003  0.2857653E+02  0.7546771E-02  0.1432383E+00
          2   -1    0    0  502    0  0.00000000000E+00  0.00000000000E+00  0.21165970420E+03  0.21165970420E+03  0.00000000000E+00 0.  1.
          1   -1    0    0  501    0 -0.00000000000E+00 -0.00000000000E+00 -0.17808076587E+03  0.17808076587E+03  0.00000000000E+00 0. -1.
          2    1    1    2  501    0 -0.27938720242E+02  0.60038312260E+01  0.20953718844E+03  0.21147683424E+03  0.00000000000E+00 0.  1.
          1    1    1    2  502    0  0.27938720242E+02 -0.60038312260E+01 -0.17595825011E+03  0.17826363584E+03  0.00000000000E+00 0. -1.
</event>
<event>
 4    1  0.7416369E+003  0.3494637E+02  0.7546771E-02  0.1380941E+00
          2   -1    0    0  502    0  0.00000000000E+00  0.00000000000E+00  0.17160864860E+04  0.17160864860E+04  0.00000000000E+00 0.  1.
          1   -1    0    0  501    0 -0.00000000000E+00 -0.00000000000E+00 -0.11840937182E+02  0.11840937182E+02  0.00000000000E+00 0.  1.
          2    1    1    2  501    0  0.27496834849E+02  0.21567863255E+02  0.16897218442E+04  0.16900831812E+04  0.00000000000E+00 0.  1.
          1    1    1    2  502    0 -0.27496834849E+02 -0.21567863255E+02  0.14523704569E+02  0.37844241920E+02  0.00000000000E+00 0.  1.
</event>
<event>
 4    1  0.7416369E+003  0.3174315E+02  0.7546771E-02  0.1405030E+00
          2   -1    0    0  502    0  0.00000000000E+00  0.00000000000E+00  0.22006674692E+03  0.22006674692E+03  0.00000000000E+00 0.  1.
          1   -1    0    0  501    0 -0.00000000000E+00 -0.00000000000E+00 -0.27288630912E+02  0.27288630912E+02  0.00000000000E+00 0. -1.
          2    1    1    2  501    0 -0.59286481874E+01 -0.31184589455E+02  0.20921476197E+03  0.21160917777E+03  0.00000000000E+00 0.  1.
          1    1    1    2  502    0  0.59286481874E+01  0.31184589455E+02 -0.16436645960E+02  0.35746200067E+02  0.00000000000E+00 0. -1.
</event>
<event>
 4    1  0.7416369E+003  0.2437956E+02  0.7546771E-02  0.1475865E+00
          2   -1    0    0  502    0  0.00000000000E+00  0.00000000000E+00  0.43118659554E+01  0.43118659554E+01  0.00000000000E+00 0. -1.
          1   -1    0    0  501    0 -0.00000000000E+00 -0.00000000000E+00 -0.88798574695E+03  0.88798574695E+03  0.00000000000E+00 0. -1.
          2    1    1    2  501    0 -0.20776234051E+02  0.12755816494E+02 -0.31775865006E+02  0.40050822122E+02  0.00000000000E+00 0. -1.
          1    1    1    2  502    0  0.20776234051E+02 -0.12755816494E+02 -0.85189801599E+03  0.85224679079E+03  0.00000000000E+00 0. -1.
</event>
<event>
 4    1  0.7416369E+003  0.2572768E+02  0.7546771E-02  0.1460825E+00
          2   -1    0    0  502    0  0.00000000000E+00  0.00000000000E+00  0.80010832033E+02  0.80010832033E+02  0.00000000000E+00 0.  1.
          1   -1    0    0  501    0 -0.00000000000E+00 -0.00000000000E+00 -0.32166683723E+02  0.32166683723E+02  0.00000000000E+00 0.  1.
          2    1    1    2  501    0 -0.21963887790E+02  0.13397794458E+02  0.72263125388E+02  0.76706404909E+02  0.00000000000E+00 0.  1.
          1    1    1    2  502    0  0.21963887790E+02 -0.13397794458E+02 -0.24418977079E+02  0.35471110847E+02  0.00000000000E+00 0.  1.
</event>
<event>
 4    1  0.7416369E+003  0.2264079E+02  0.7546771E-02  0.1497059E+00
          2   -1    0    0  502    0  0.00000000000E+00  0.00000000000E+00  0.10997179113E+02  0.10997179113E+02  0.00000000000E+00 0. -1.
          1   -1    0    0  501    0 -0.00000000000E+00 -0.00000000000E+00 -0.26218541259E+03  0.26218541259E+03  0.00000000000E+00 0.  1.
          2    1    1    2  501    0 -0.31832770692E+01 -0.22415886717E+02 -0.17384364394E+01  0.22707430314E+02  0.00000000000E+00 0. -1.
          1    1    1    2  502    0  0.31832770692E+01  0.22415886717E+02 -0.24944979703E+03  0.25047516138E+03  0.00000000000E+00 0.  1.
</event>
<event>
 4    1  0.7416369E+003  0.2537068E+02  0.7546771E-02  0.1464699E+00
          2   -1    0    0  502    0  0.00000000000E+00  0.00000000000E+00  0.64030552685E+03  0.64030552685E+03  0.00000000000E+00 0.  1.
          1   -1    0    0  501    0 -0.00000000000E+00 -0.00000000000E+00 -0.10587092218E+02  0.10587092218E+02  0.00000000000E+00 0. -1.
          2    1    1    2  501    0  0.11026824206E+02 -0.22849081348E+02  0.62446948913E+03  0.62498465119E+03  0.00000000000E+00 0.  1.
          1    1    1    2  502    0 -0.11026824206E+02  0.22849081348E+02  0.52489454997E+01  0.25907967875E+02  0.00000000000E+00 0. -1.
</event>
<event>
 4    1  0.7416369E+003  0.3017116E+02  0.7546771E-02  0.1418115E+00
          2   -1    0    0  502    0  0.00000000000E+00  0.00000000000E+00  0.71671826640E+03  0.71671826640E+03  0.00000000000E+00 0.  1.
          1   -1    0    0  501    0 -0.00000000000E+00 -0.00000000000E+00 -0.24925873157E+03  0.24925873157E+03  0.00000000000E+00 0. -1.
          2    1    1    2  501    0 -0.68449744936E+01  0.29384437560E+02  0.71548616564E+03  0.71612202317E+03  0.00000000000E+00 0.  1.
          1    1    1    2  502    0  0.68449744936E+01 -0.29384437560E+02 -0.24802663080E+03  0.24985497480E+03  0.00000000000E+00 0. -1.
</event>
<event>
 4    1  0.7416369E+003  0.4929259E+02  0.7546771E-02  0.1301269E+00
          2   -1    0    0  502    0  0.00000000000E+00  0.00000000000E+00  0.31882093867E+03  0.31882093867E+03  0.00000000000E+00 0.  1.
          1   -1    0    0  501    0 -0.00000000000E+00 -0.00000000000E+00 -0.88645413934E+01  0.88645413934E+01  0.00000000000E+00 0.  1.
          2    1    1    2  501    0  0.10671926196E+02  0.48123478671E+02  0.21634247071E+03  0.22188696185E+03  0.00000000000E+00 0.  1.
          1    1    1    2  502    0 -0.10671926196E+02 -0.48123478671E+02  0.93613926573E+02  0.10579851822E+03  0.00000000000E+00 0.  1.
</event>
<event>
 4    1  0.7416369E+003  0.2079876E+02  0.7546771E-02  0.1522158E+00
          2   -1    0    0  502    0  0.00000000000E+00  0.00000000000E+00  0.96183754954E+01  0.96183754954E+01  0.00000000000E+00 0. -1.
          1   -1    0    0  501    0 -0.00000000000E+00 -0.00000000000E+00 -0.27607308230E+03  0.27607308230E+03  0.00000000000E+00 0.  1.
          2    1    1    2  501    0 -0.18642492017E+02 -0.92220230984E+01 -0.25340834195E+01  0.20952560641E+02  0.00000000000E+00 0. -1.
          1    1    1    2  502    0  0.18642492017E+02  0.92220230984E+01 -0.26392062339E+03  0.26473889716E+03  0.00000000000E+00 0.  1.
</event>
<event>
 4    1  0.7416369E+003  0.2624132E+02  0.7546771E-02  0.1455382E+00
          2   -1    0    0  502    0  0.00000000000E+00  0.00000000000E+00  0.62648336776E+02  0.62648336776E+02  0.00000000000E+00 0.  1.
          1   -1    0    0  501    0 -0.00000000000E+00 -0.00000000000E+00 -0.66248509169E+02  0.66248509169E+02  0.00000000000E+00 0.  1.
          2    1    1    2  501    0  0.15357371887E+01 -0.26196344792E+02  0.57059531864E+02  0.62804435717E+02  0.00000000000E+00 0.  1.
          1    1    1    2  502    0 -0.15357371887E+01  0.26196344792E+02 -0.60659704257E+02  0.66092410228E+02  0.00000000000E+00 0.  1.
</event>
<event>
 4    1  0.7416369E+003  0.2382030E+02  0.7546771E-02  0.1482447E+00
          2   -1    0    0  502    0  0.00000000000E+00  0.00000000000E+00  0.36506432926E+02  0.36506432926E+02  0.00000000000E+00 0.  1.
          1   -1    0    0  501    0 -0.00000000000E+00 -0.00000000000E+00 -0.11560297084E+04  0.11560297084E+04  0.00000000000E+00 0.  1.
          2    1    1    2  501    0 -0.63323107281E+00 -0.23811886499E+02  0.32484498697E+02  0.40282124768E+02  0.00000000000E+00 0.  1.
          1    1    1    2  502    0  0.63323107281E+00  0.23811886499E+02 -0.11520077742E+04  0.11522540166E+04  0.00000000000E+00 0.  1.
</event>
<event>
 4    1  0.7416369E+003  0.5709811E+02  0.7546771E-02  0.1270024E+00
          2   -1    0    0  502    0  0.00000000000E+00  0.00000000000E+00  0.11413060632E+03  0.11413060632E+03  0.00000000000E+00 0. -1.
          1   -1    0    0  501    0 -0.00000000000E+00 -0.00000000000E+00 -0.26121875875E+03  0.26121875875E+03  0.00000000000E+00 0.  1.
          2    1    1    2  501    0  0.37038418379E+02 -0.43455152113E+02  0.10357204999E+03  0.11826818770E+03  0.00000000000E+00 0. -1.
          1    1    1    2  502    0 -0.37038418379E+02  0.43455152113E+02 -0.25066020243E+03  0.25708117738E+03  0.00000000000E+00 0.  1.
</event>
<event>
 4    1  0.7416369E+003  0.2808224E+02  0.7546771E-02  0.1437030E+00
          2   -1    0    0  502    0  0.00000000000E+00  0.00000000000E+00  0.11075232886E+04  0.11075232886E+04  0.00000000000E+00 0. -1.
          1   -1    0    0  501    0 -0.00000000000E+00 -0.00000000000E+00 -0.72067926114E+01  0.72067926114E+01  0.00000000000E+00 0. -1.
          2    1    1    2  501    0  0.23967749652E+02 -0.14634180985E+02  0.10792727629E+04  0.10796380453E+04  0.00000000000E+00 0. -1.
          1    1    1    2  502    0 -0.23967749652E+02  0.14634180985E+02  0.21043733068E+02  0.35092035819E+02  0.00000000000E+00 0. -1.
</event>
<event>
 4    1  0.7416369E+003  0.2229546E+02  0.7546771E-02  0.1501540E+00
          2   -1    0    0  502    0  0.00000000000E+00  0.00000000000E+00  0.30489899404E+03  0.30489899404E+03  0.00000000000E+00 0. -1.
          1   -1    0    0  501    0 -0.00000000000E+00 -0.00000000000E+00 -0.26289031253E+03  0.26289031253E+03  0.00000000000E+00 0. -1.
          2    1    1    2  501    0  0.19594215363E+02  0.10637404499E+02  0.30401732718E+03  0.30483376269E+03  0.00000000000E+00 0. -1.
          1    1    1    2  502    0 -0.19594215363E+02 -0.10637404499E+02 -0.26200864567E+03  0.26295554387E+03  0.00000000000E+00 0. -1.
</event>
<event>
 4    1  0.7416369E+003  0.2703314E+02  0.7546771E-02  0.1447275E+00
          2   -1    0    0  502    0  0.00000000000E+00  0.00000000000E+00  0.58779082555E+01  0.58779082555E+01  0.00000000000E+00 0. -1.
          1   -1    0    0  501    0 -0.00000000000E+00 -0.00000000000E+00 -0.12443737313E+03  0.12443737313E+03  0.00000000000E+00 0. -1.
          2    1    1    2  501    0 -0.10585579528E+02  0.24874396598E+02 -0.61209168511E+02  0.66913021228E+02  0.00000000000E+00 0. -1.
          1    1    1    2  502    0  0.10585579528E+02 -0.24874396598E+02 -0.57350296365E+02  0.63402260159E+02  0.00000000000E+00 0. -1.
</event>
<event>
 4    1  0.7416369E+003  0.2137589E+02  0.7546771E-02  0.1513965E+00
          2   -1    0    0  502    0  0.00000000000E+00  0.00000000000E+00  0.19892833808E+02  0.19892833808E+02  0.00000000000E+00 0.  1.
          1   -1    0    0  501    0 -0.00000000000E+00 -0.00000000000E+00 -0.51686423890E+03  0.51686423890E+03  0.00000000000E+00 0.  1.
          2    1    1    2  501    0 -0.16286141467E+02 -0.13845226868E+02  0.13861677659E+02  0.25476946804E+02  0.00000000000E+00 0.  1.
          1    1    1    2  502    0  0.16286141467E+02  0.13845226868E+02 -0.51083308276E+03  0.51128012591E+03  0.00000000000E+00 0.  1.
</event>
<event>
 4    1  0.7416369E+003  0.3164118E+02  0.7546771E-02  0.1405851E+00
          2   -1    0    0  502    0  0.00000000000E+00  0.00000000000E+00  0.16172168709E+01  0.16172168709E+01  0.00000000000E+00 0.  1.
          1   -1    0    0  501    0 -0.00000000000E+00 -0.00000000000E+00 -0.72127545745E+03  0.72127545745E+03  0.00000000000E+00 0.  1.
          2    1    1    2  501    0  0.18353113478E+02 -0.25774551265E+02 -0.22376663047E+03  0.22599263081E+03  0.00000000000E+00 0.  1.
          1    1    1    2  502    0 -0.18353113478E+02  0.25774551265E+02 -0.49589161011E+03  0.49690004351E+03  0.00000000000E+00 0.  1.
</event>
<event>
 4    1  0.7416369E+003  0.2904658E+02  0.7546771E-02  0.1428066E+00
          2   -1    0    0  502    0  0.00000000000E+00  0.00000000000E+00  0.19467611986E+03  0.19467611986E+03  0.00000000000E+00 0. -1.
          1   -1    0    0  501    0 -0.00000000000E+00 -0.00000000000E+00 -0.59124558336E+01  0.59124558336E+01  0.00000000000E+00 0. -1.
          2    1    1    2  501    0 -0.28936093736E+02 -0.25310128833E+01  0.14620506965E+03  0.14906249005E+03  0.00000000000E+00 0. -1.
          1    1    1    2  502    0  0.28936093736E+02  0.25310128833E+01  0.42558594371E+02  0.51526085644E+02  0.00000000000E+00 0. -1.
</event>
<event>
 4    1  0.7416369E+003  0.2291248E+02  0.7546771E-02  0.1493600E+00
          2   -1    0    0  502    0  0.00000000000E+00  0.00000000000E+00  0.99041280640E+03  0.99041280640E+03  0.00000000000E+00 0.  1.
          1   -1    0    0  501    0 -0.00000000000E+00 -0.00000000000E+00 -0.72952939689E+00  0.72952939689E+00  0.00000000000E+00 0.  1.
          2    1    1    2  501    0 -0.17969356173E+02 -0.14215624921E+02  0.75397234437E+03  0.75432040794E+03  0.00000000000E+00 0.  1.
          1    1    1    2  502    0  0.17969356173E+02  0.14215624921E+02  0.23571093262E+03  0.23682192785E+03  0.00000000000E+00 0.  1.
</event>
<event>
 4    1  0.7416369E+003  0.2349925E+02  0.7546771E-02  0.1486322E+00
          2   -1    0    0  502    0  0.00000000000E+00  0.00000000000E+00  0.50278459828E+02  0.50278459828E+02  0.00000000000E+00 0. -1.
          1   -1    0    0  501    0 -0.00000000000E+00 -0.00000000000E+00 -0.20470729122E+02  0.20470729122E+02  0.00000000000E+00 0.  1.
          2    1    1    2  501    0  0.77005234956E-01  0.23499126092E+02  0.38986443537E+02  0.45520958212E+02  0.00000000000E+00 0. -1.
          1    1    1    2  502    0 -0.77005234956E-01 -0.23499126092E+02 -0.91787128313E+01  0.25228230737E+02  0.00000000000E+00 0.  1.
</event>
<event>
 4    1  0.7416369E+003  0.2602343E+02  0.7546771E-02  0.1457672E+00
          2   -1    0    0  502    0  0.00000000000E+00  0.00000000000E+00  0.14818591309E+03  0.14818591309E+03  0.00000000000E+00 0. -1.
          1   -1    0    0  501    0 -0.00000000000E+00 -0.00000000000E+00 -0.43248242010E+03  0.43248242010E+03  0.00000000000E+00 0.  1.
          2    1    1    2  501    0 -0.91539382585E+01 -0.24360297063E+02  0.14664785208E+03  0.14893895118E+03  0.00000000000E+00 0. -1.
          1    1    1    2  502    0  0.91539382585E+01  0.24360297063E+02 -0.43094435909E+03  0.43172938201E+03  0.00000000000E+00 0.  1.
</event>
<event>
 4    1  0.7416369E+003  0.2848813E+02  0.7546771E-02  0.1433206E+00
          2   -1    0    0  502    0  0.00000000000E+00  0.00000000000E+00  0.12079572750E+03  0.12079572750E+03  0.00000000000E+00 0.  1.
          1   -1    0    0  501    0 -0.00000000000E+00 -0.00000000000E+00 -0.21066390573E+03  0.21066390573E+03  0.00000000000E+00 0.  1.
          2    1    1    2  501    0  0.28053171031E+02 -0.49591356178E+01  0.11813155957E+03  0.12151805955E+03  0.00000000000E+00 0.  1.
          1    1    1    2  502    0 -0.28053171031E+02  0.49591356178E+01 -0.20799973780E+03  0.20994157368E+03  0.00000000000E+00 0.  1.
</event>
<event>
 4    1  0.7416369E+003  0.2318434E+02  0.7546771E-02  0.1490196E+00
          2   -1    0    0  502    0  0.00000000000E+00  0.00000000000E+00  0.44161003313E+01  0.44161003313E+01  0.00000000000E+00 0. -1.
          1   -1    0    0  501    0 -0.00000000000E+00 -0.00000000000E+00 -0.55342183594E+03  0.55342183594E+03  0.00000000000E+00 0. -1.
          2    1    1    2  501    0 -0.23149464969E+02 -0.12711312490E+01 -0.28158026010E+02  0.36474483297E+02  0.00000000000E+00 0. -1.
          1    1    1    2  502    0  0.23149464969E+02  0.12711312490E+01 -0.52084770960E+03  0.52136345298E+03  0.00000000000E+00 0. -1.
</event>
<event>
 4    1  0.7416369E+003  0.2722215E+02  0.7546771E-02  0.1445389E+00
          2   -1    0    0  502    0  0.00000000000E+00  0.00000000000E+00  0.60388075669E+02  0.60388075669E+02  0.00000000000E+00 0.  1.
          1   -1    0    0  501    0 -0.00000000000E+00 -0.00000000000E+00 -0.70458209179E+02  0.70458209179E+02  0.00000000000E+00 0.  1.
          2    1    1    2  501    0  0.25997006556E+02  0.80747236944E+01  0.54418500225E+02  0.60847503476E+02  0.00000000000E+00 0.  1.
          1    1    1    2  502    0 -0.25997006556E+02 -0.80747236944E+01 -0.64488633735E+02  0.69998781372E+02  0.00000000000E+00 0.  1.
</event>
<event>
 4    1  0.7416369E+003  0.2013823E+02  0.7546771E-02  0.1531933E+00
          2   -1    0    0  502    0  0.00000000000E+00  0.00000000000E+00  0.18951173508E+03  0.18951173508E+03  0.00000000000E+00 0.  1.
          1   -1    0    0  501    0 -0.00000000000E+00 -0.00000000000E+00 -0.78353104729E+02  0.78353104729E+02  0.00000000000E+00 0.  1.
          2    1    1    2  501    0 -0.56286452288E+01 -0.19335629150E+02  0.18767010643E+03  0.18874749548E+03  0.00000000000E+00 0.  1.
          1    1    1    2  502    0  0.56286452288E+01  0.19335629150E+02 -0.76511476081E+02  0.79117344330E+02  0.00000000000E+00 0.  1.
</event>
<event>
 4    1  0.7416369E+003  0.3108525E+02  0.7546771E-02  0.1410394E+00
          2   -1    0    0  502    0  0.00000000000E+00  0.00000000000E+00  0.74075489846E+00  0.74075489846E+00  0.00000000000E+00 0. -1.
          1   -1    0    0  501    0 -0.00000000000E+00 -0.00000000000E+00 -0.15811220227E+04  0.15811220227E+04  0.00000000000E+00 0. -1.
          2    1    1    2  501    0 -0.14705822903E+02 -0.27386683301E+02 -0.11210351866E+04  0.11214660856E+04  0.00000000000E+00 0. -1.
          1    1    1    2  502    0  0.14705822903E+02  0.27386683301E+02 -0.45934608123E+03  0.46039669199E+03  0.00000000000E+00 0. -1.
</event>
<event>
 4    1  0.7416369E+003  0.2479899E+02  0.7546771E-02  0.1471065E+00
          2   -1    0    0  502    0  0.00000000000E+00  0.00000000000E+00  0.30179984450E+02  0.30179984450E+02  0.00000000000E+00 0. -1.
          1   -1    0    0  501    0 -0.00000000000E+00 -0.00000000000E+00 -0.20809142146E+03  0.20809142146E+03  0.00000000000E+00 0.  1.
          2    1    1    2  501    0  0.58233916197E+01 -0.24105555423E+02  0.24196532286E+02  0.34647681984E+02  0.00000000000E+00 0. -1.
          1    1    1    2  502    0 -0.58233916197E+01  0.24105555423E+02 -0.20210796929E+03  0.20362372392E+03  0.00000000000E+00 0.  1.
</event>
<event>
 4    1  0.7416369E+003  0.2010267E+02  0.7546771E-02  0.1532472E+00
          2   -1    0    0  502    0  0.00000000000E+00  0.00000000000E+00  0.72574278510E+00  0.72574278510E+00  0.00000000000E+00 0.  1.
          1   -1    0    0  501    0 -0.00000000000E+00 -0.00000000000E+00 -0.58522694715E+03  0.58522694715E+03  0.00000000000E+00 0.  1.
          2    1    1    2  501    0  0.17965020914E+02 -0.90208059478E+01 -0.35678477882E+03  0.35735066156E+03  0.00000000000E+00 0.  1.
          1    1    1    2  502    0 -0.17965020914E+02  0.90208059478E+01 -0.22771642555E+03  0.22860202838E+03  0.00000000000E+00 0.  1.
</event>
<event>
 4    1  0.7416369E+003  0.2137277E+02  0.7546771E-02  0.1514009E+00
          2   -1    0    0  502    0  0.00000000000E+00  0.00000000000E+00  0.14561793014E+02  0.14561793014E+02  0.00000000000E+00 0.  1.
          1   -1    0    0  501    0 -0.00000000000E+00 -0.00000000000E+00 -0.42406354643E+03  0.42406354643E+03  0.00000000000E+00 0.  1.
          2    1    1    2  501    0 -0.21370824820E+02  0.28826928095E+00  0.62943064371E+01  0.22280339903E+02  0.00000000000E+00 0.  1.
          1    1    1    2  502    0  0.21370824820E+02 -0.28826928095E+00 -0.41579605985E+03  0.41634499954E+03  0.00000000000E+00 0.  1.
</event>
<event>
 4    1  0.7416369E+003  0.2420799E+02  0.7546771E-02  0.1477862E+00
          2   -1    0    0  502    0  0.00000000000E+00  0.00000000000E+00  0.29790052615E+02  0.29790052615E+02  0.00000000000E+00 0. -1.
          1   -1    0    0  501    0 -0.00000000000E+00 -0.00000000000E+00 -0.36325255053E+02  0.36325255053E+02  0.00000000000E+00 0. -1.
          2    1    1    2  501    0  0.17502521458E+02  0.16723889293E+02  0.19115417202E+02  0.30845192579E+02  0.00000000000E+00 0. -1.
          1    1    1    2  502    0 -0.17502521458E+02 -0.16723889293E+02 -0.25650619640E+02  0.35270115089E+02  0.00000000000E+00 0. -1.
</event>
<event>
 4    1  0.7416369E+003  0.1121944E+03  0.7546771E-02  0.1144205E+00
          2   -1    0    0  502    0  0.00000000000E+00  0.00000000000E+00  0.99150021032E+03  0.99150021032E+03  0.00000000000E+00 0.  1.
          1   -1    0    0  501    0 -0.00000000000E+00 -0.00000000000E+00 -0.11884967933E+03  0.11884967933E+03  0.00000000000E+00 0.  1.
          2    1    1    2  501    0  0.10126280256E+03  0.48305645824E+02  0.96101117361E+03  0.96753814726E+03  0.00000000000E+00 0.  1.
          1    1    1    2  502    0 -0.10126280256E+03 -0.48305645824E+02 -0.88360642624E+02  0.14281174239E+03  0.00000000000E+00 0.  1.
</event>
<event>
 4    1  0.7416369E+003  0.2025361E+02  0.7546771E-02  0.1530194E+00
          2   -1    0    0  502    0  0.00000000000E+00  0.00000000000E+00  0.38352062973E+02  0.38352062973E+02  0.00000000000E+00 0. -1.
          1   -1    0    0  501    0 -0.00000000000E+00 -0.00000000000E+00 -0.13446473925E+04  0.13446473925E+04  0.00000000000E+00 0.  1.
          2    1    1    2  501    0 -0.17586579544E+02  0.10045939465E+02  0.35596337532E+02  0.40954949951E+02  0.00000000000E+00 0. -1.
          1    1    1    2  502    0  0.17586579544E+02 -0.10045939465E+02 -0.13418916670E+04  0.13420445055E+04  0.00000000000E+00 0.  1.
</event>
<event>
 4    1  0.7416369E+003  0.2216446E+02  0.7546771E-02  0.1503265E+00
          2   -1    0    0  502    0  0.00000000000E+00  0.00000000000E+00  0.23991055643E+02  0.23991055643E+02  0.00000000000E+00 0.  1.
          1   -1    0    0  501    0 -0.00000000000E+00 -0.00000000000E+00 -0.21514942350E+02  0.21514942350E+02  0.00000000000E+00 0.  1.
          2    1    1    2  501    0  0.18811943756E+02  0.11720639280E+02 -0.37596947096E+01  0.22481056855E+02  0.00000000000E+00 0.  1.
          1    1    1    2  502    0 -0.18811943756E+02 -0.11720639280E+02  0.62358080022E+01  0.23024941139E+02  0.00000000000E+00 0.  1.
</event>
<event>
 4    1  0.7416369E+003  0.2908025E+02  0.7546771E-02  0.1427761E+00
          2   -1    0    0  502    0  0.00000000000E+00  0.00000000000E+00  0.27098784238E+03  0.27098784238E+03  0.00000000000E+00 0. -1.
          1   -1    0    0  501    0 -0.00000000000E+00 -0.00000000000E+00 -0.31450876069E+01  0.31450876069E+01  0.00000000000E+00 0. -1.
          2    1    1    2  501    0 -0.54622523504E+01  0.28562630878E+02  0.12184093754E+03  0.12526321944E+03  0.00000000000E+00 0. -1.
          1    1    1    2  502    0  0.54622523504E+01 -0.28562630878E+02  0.14600181723E+03  0.14886971055E+03  0.00000000000E+00 0. -1.
</event>
<event>
 4    1  0.7416369E+003  0.3751138E+02  0.7546771E-02  0.1363720E+00
          2   -1    0    0  502    0  0.00000000000E+00  0.00000000000E+00  0.20986974607E+02  0.20986974607E+02  0.00000000000E+00 0.  1.
          1   -1    0    0  501    0 -0.00000000000E+00 -0.00000000000E+00 -0.78502352217E+03  0.78502352217E+03  0.00000000000E+00 0.  1.
          2    1    1    2  501    0 -0.26479672829E+02 -0.26569355017E+02  0.33931937491E+01  0.37664538534E+02  0.00000000000E+00 0.  1.
          1    1    1    2  502    0  0.26479672829E+02  0.26569355017E+02 -0.76742974131E+03  0.76834595824E+03  0.00000000000E+00 0.  1.
</event>
<event>
 4    1  0.7416369E+003  0.2920967E+02  0.7546771E-02  0.1426591E+00
          2   -1    0    0  502    0  0.00000000000E+00  0.00000000000E+00  0.11117575360E+02  0.11117575360E+02  0.00000000000E+00 0. -1.
          1   -1    0    0  501    0 -0.00000000000E+00 -0.00000000000E+00 -0.21042458730E+03  0.21042458730E+03  0.00000000000E+00 0. -1.
          2    1    1    2  501    0  0.17522276855E+02  0.23370382523E+02 -0.11363275065E+02  0.31342127969E+02  0.00000000000E+00 0. -1.
          1    1    1    2  502    0 -0.17522276855E+02 -0.23370382523E+02 -0.18794373687E+03  0.19020003469E+03  0.00000000000E+00 0. -1.
</event>
<event>
 4    1  0.7416369E+003  0.2857642E+02  0.7546771E-02  0.1432384E+00
          2   -1    0    0  502    0  0.00000000000E+00  0.00000000000E+00  0.16213651058E+04  0.16213651058E+04  0.00000000000E+00 0.  1.
          1   -1    0    0  501    0 -0.00000000000E+00 -0.00000000000E+00 -0.10654791637E+01  0.10654791637E+01  0.00000000000E+00 0. -1.
          2    1    1    2  501    0 -0.65306500279E+01 -0.27820180687E+02  0.13992146412E+04  0.13995064215E+04  0.00000000000E+00 0.  1.
          1    1    1    2  502    0  0.65306500279E+01  0.27820180687E+02  0.22108498545E+03  0.22292416341E+03  0.00000000000E+00 0. -1.
</event>
<event>
 4    1  0.7416369E+003  0.3138531E+02  0.7546771E-02  0.1407928E+00
          2   -1    0    0  502    0  0.00000000000E+00  0.00000000000E+00  0.31505755467E+03  0.31505755467E+03  0.00000000000E+00 0.  1.
          1   -1    0    0  501    0 -0.00000000000E+00 -0.00000000000E+00 -0.52992279753E+01  0.52992279753E+01  0.00000000000E+00 0. -1.
          2    1    1    2  501    0  0.17743979076E+02 -0.25888009150E+02  0.25744365117E+03  0.25934970858E+03  0.00000000000E+00 0.  1.
          1    1    1    2  502    0 -0.17743979076E+02  0.25888009150E+02  0.52314675530E+02  0.61007074074E+02  0.00000000000E+00 0. -1.
</event>
<event>
 4    1  0.7416369E+003  0.2666581E+02  0.7546771E-02  0.1450994E+00
          2   -1    0    0  502    0  0.00000000000E+00  0.00000000000E+00  0.63070718290E+01  0.63070718290E+01  0.00000000000E+00 0.  1.
          1   -1    0    0  501    0 -0.00000000000E+00 -0.00000000000E+00 -0.15098668335E+03  0.15098668335E+03  0.00000000000E+00 0. -1.
          2    1    1    2  501    0  0.25027628970E+02 -0.92023398511E+01 -0.32757265876E+02  0.42238652183E+02  0.00000000000E+00 0.  1.
          1    1    1    2  502    0 -0.25027628970E+02  0.92023398511E+01 -0.11192234564E+03  0.11505510299E+03  0.00000000000E+00 0. -1.
</event>
<event>
 4    1  0.7416369E+003  0.2264029E+02  0.7546771E-02  0.1497065E+00
          2   -1    0    0  502    0  0.00000000000E+00  0.00000000000E+00  0.64797555555E+02  0.64797555555E+02  0.00000000000E+00 0.  1.
          1   -1    0    0  501    0 -0.00000000000E+00 -0.00000000000E+00 -0.72797503025E+02  0.72797503025E+02  0.00000000000E+00 0. -1.
          2    1    1    2  501    0  0.18312163785E+02 -0.13313434162E+02  0.60952151329E+02  0.65021132129E+02  0.00000000000E+00 0.  1.
          1    1    1    2  502    0 -0.18312163785E+02  0.13313434162E+02 -0.68952098799E+02  0.72573926451E+02  0.00000000000E+00 0. -1.
</event>
<event>
 4    1  0.7416369E+003  0.2365491E+02  0.7546771E-02  0.1484434E+00
          2   -1    0    0  502    0  0.00000000000E+00  0.00000000000E+00  0.16037277772E+02  0.16037277772E+02  0.00000000000E+00 0. -1.
          1   -1    0    0  501    0 -0.00000000000E+00 -0.00000000000E+00 -0.41602140538E+02  0.41602140538E+02  0.00000000000E+00 0.  1.
          2    1    1    2  501    0  0.17576581415E+02 -0.15830933016E+02 -0.12070857963E+01  0.23685685772E+02  0.00000000000E+00 0. -1.
          1    1    1    2  502    0 -0.17576581415E+02  0.15830933016E+02 -0.24357776970E+02  0.33953732538E+02  0.00000000000E+00 0.  1.
</event>
<event>
 4    1  0.7416369E+003  0.3164965E+02  0.7546771E-02  0.1405783E+00
          2   -1    0    0  502    0  0.00000000000E+00  0.00000000000E+00  0.10629042953E+03  0.10629042953E+03  0.00000000000E+00 0. -1.
          1   -1    0    0  501    0 -0.00000000000E+00 -0.00000000000E+00 -0.11614978222E+02  0.11614978222E+02  0.00000000000E+00 0.  1.
          2    1    1    2  501    0  0.12729796649E+02  0.28976758432E+02  0.72941006176E+02  0.79511575472E+02  0.00000000000E+00 0. -1.
          1    1    1    2  502    0 -0.12729796649E+02 -0.28976758432E+02  0.21734445132E+02  0.38393832280E+02  0.00000000000E+00 0.  1.
</event>
<event>
 4    1  0.7416369E+003  0.2002782E+02  0.7546771E-02  0.1533611E+00
          2   -1    0    0  502    0  0.00000000000E+00  0.00000000000E+00  0.54310372609E+03  0.54310372609E+03  0.00000000000E+00 0. -1.
          1   -1    0    0  501    0 -0.00000000000E+00 -0.00000000000E+00 -0.96117710926E+00  0.96117710926E+00  0.00000000000E+00 0. -1.
          2    1    1    2  501    0  0.18310941013E+02  0.81131496148E+01  0.40198945065E+03  0.40248805223E+03  0.00000000000E+00 0. -1.
          1    1    1    2  502    0 -0.18310941013E+02 -0.81131496148E+01  0.14015309834E+03  0.14157685097E+03  0.00000000000E+00 0. -1.
</event>
<event>
 4    1  0.7416369E+003  0.2401009E+02  0.7546771E-02  0.1480190E+00
          2   -1    0    0  502    0  0.00000000000E+00  0.00000000000E+00  0.14372405470E+04  0.14372405470E+04  0.00000000000E+00 0. -1.
          1   -1    0    0  501    0 -0.00000000000E+00 -0.00000000000E+00 -0.11224940992E+01  0.11224940992E+01  0.00000000000E+00 0.  1.
          2    1    1    2  501    0  0.66264143705E+01  0.23077584338E+02  0.12946014849E+04  0.12948241151E+04  0.00000000000E+00 0. -1.
          1    1    1    2  502    0 -0.66264143705E+01 -0.23077584338E+02  0.14151656798E+03  0.14353892601E+03  0.00000000000E+00 0.  1.
</event>
<event>
 4    1  0.7416369E+003  0.3299245E+02  0.7546771E-02  0.1395254E+00
          2   -1    0    0  502    0  0.00000000000E+00  0.00000000000E+00  0.28669531547E+04  0.28669531547E+04  0.00000000000E+00 0. -1.
          1   -1    0    0  501    0 -0.00000000000E+00 -0.00000000000E+00 -0.55581707798E+00  0.55581707798E+00  0.00000000000E+00 0. -1.
          2    1    1    2  501    0 -0.27303918650E+02  0.18520197056E+02  0.22403299397E+04  0.22405728599E+04  0.00000000000E+00 0. -1.
          1    1    1    2  502    0  0.27303918650E+02 -0.18520197056E+02  0.62606739793E+03  0.62693611191E+03  0.00000000000E+00 0. -1.
</event>
<event>
 4    1  0.7416369E+003  0.2871207E+02  0.7546771E-02  0.1431129E+00
          2   -1    0    0  502    0  0.00000000000E+00  0.00000000000E+00  0.15404284351E+01  0.15404284351E+01  0.00000000000E+00 0. -1.
          1   -1    0    0  501    0 -0.00000000000E+00 -0.00000000000E+00 -0.96951062173E+03  0.96951062173E+03  0.00000000000E+00 0.  1.
          2    1    1    2  501    0  0.28187592563E+02  0.54628531617E+01 -0.15900737904E+03  0.16157886535E+03  0.00000000000E+00 0. -1.
          1    1    1    2  502    0 -0.28187592563E+02 -0.54628531617E+01 -0.80896281426E+03  0.80947218481E+03  0.00000000000E+00 0.  1.
</event>
<event>
 4    1  0.7416369E+003  0.2534222E+02  0.7546771E-02  0.1465011E+00
          2   -1    0    0  502    0  0.00000000000E+00  0.00000000000E+00  0.87184087043E+01  0.87184087043E+01  0.00000000000E+00 0.  1.
          1   -1    0    0  501    0 -0.00000000000E+00 -0.00000000000E+00 -0.26700750909E+03  0.26700750909E+03  0.00000000000E+00 0. -1.
          2    1    1    2  501    0 -0.19303620968E+02 -0.16419455942E+02 -0.11830172493E+02  0.27967504306E+02  0.00000000000E+00 0.  1.
          1    1    1    2  502    0  0.19303620968E+02  0.16419455942E+02 -0.24645892789E+03  0.24775841348E+03  0.00000000000E+00 0. -1.
</event>
<event>
 4    1  0.7416369E+003  0.3896092E+02  0.7546771E-02  0.1354685E+00
          2   -1    0    0  502    0  0.00000000000E+00  0.00000000000E+00  0.37303218965E+03  0.37303218965E+03  0.00000000000E+00 0.  1.
          1   -1    0    0  501    0 -0.00000000000E+00 -0.00000000000E+00 -0.44802991480E+01  0.44802991480E+01  0.00000000000E+00 0.  1.
          2    1    1    2  501    0  0.17271430057E+01 -0.38922604034E+02  0.12710075762E+03  0.13293816125E+03  0.00000000000E+00 0.  1.
          1    1    1    2  502    0 -0.17271430057E+01  0.38922604034E+02  0.24145113288E+03  0.24457432755E+03  0.00000000000E+00 0.  1.
</event>
<event>
 4    1  0.7416369E+003  0.2054084E+02  0.7546771E-02  0.1525923E+00
          2   -1    0    0  502    0  0.00000000000E+00  0.00000000000E+00  0.71914760246E+03  0.71914760246E+03  0.00000000000E+00 0. -1.
          1   -1    0    0  501    0 -0.00000000000E+00 -0.00000000000E+00 -0.48008136077E+01  0.48008136077E+01  0.00000000000E+00 0.  1.
          2    1    1    2  501    0 -0.56071607066E+01  0.19760714528E+02  0.69630882707E+03  0.69661173457E+03  0.00000000000E+00 0. -1.
          1    1    1    2  502    0  0.56071607066E+01 -0.19760714528E+02  0.18037961781E+02  0.27336681493E+02  0.00000000000E+00 0.  1.
</event>
<event>
 4    1  0.7416369E+003  0.2062578E+02  0.7546771E-02  0.1524675E+00
          2   -1    0    0  502    0  0.00000000000E+00  0.00000000000E+00  0.11622119711E+03  0.11622119711E+03  0.00000000000E+00 0. -1.
          1   -1    0    0  501    0 -0.00000000000E+00 -0.00000000000E+00 -0.20093820559E+02  0.20093820559E+02  0.00000000000E+00 0.  1.
          2    1    1    2  501    0 -0.20625761703E+02 -0.24423432698E-01  0.10970128347E+03  0.11162344842E+03  0.00000000000E+00 0. -1.
          1    1    1    2  502    0  0.20625761703E+02  0.24423432698E-01 -0.13573906927E+02  0.24691569241E+02  0.00000000000E+00 0.  1.
</event>
<event>
 4    1  0.7416369E+003  0.2355487E+02  0.7546771E-02  0.1485646E+00
          2   -1    0    0  502    0  0.00000000000E+00  0.00000000000E+00  0.98081346011E+01  0.98081346011E+01  0.00000000000E+00 0. -1.
          1   -1    0    0  501    0 -0.00000000000E+00 -0.00000000000E+00 -0.16557945490E+03  0.16557945490E+03  0.00000000000E+00 0.  1.
          2    1    1    2  501    0  0.23244022112E+02 -0.38140832866E+01 -0.67314431930E+01  0.24497839143E+02  0.00000000000E+00 0. -1.
          1    1    1    2  502    0 -0.23244022112E+02  0.38140832866E+01 -0.14903987711E+03  0.15088975036E+03  0.00000000000E+00 0.  1.
</event>
<event>
 4    1  0.7416369E+003  0.2363055E+02  0.7546771E-02  0.1484729E+00
          2   -1    0    0  502    0  0.00000000000E+00  0.00000000000E+00  0.21394754166E+02  0.21394754166E+02  0.00000000000E+00 0.  1.
          1   -1    0    0  501    0 -0.00000000000E+00 -0.00000000000E+00 -0.20385858186E+03  0.20385858186E+03  0.00000000000E+00 0.  1.
          2    1    1    2  501    0 -0.56758213803E-01  0.23630481244E+02  0.13938125770E+02  0.27434908699E+02  0.00000000000E+00 0.  1.
          1    1    1    2  502    0  0.56758213803E-01 -0.23630481244E+02 -0.19640195346E+03  0.19781842733E+03  0.00000000000E+00 0.  1.
</event>
<event>
 4    1  0.7416369E+003  0.2173633E+02  0.7546771E-02  0.1509006E+00
          2   -1    0    0  502    0  0.00000000000E+00  0.00000000000E+00  0.44281929865E+03  0.44281929865E+03  0.00000000000E+00 0. -1.
          1   -1    0    0  501    0 -0.00000000000E+00 -0.00000000000E+00 -0.52830421803E+01  0.52830421803E+01  0.00000000000E+00 0. -1.
          2    1    1    2  501    0 -0.99619037094E+01  0.19319121727E+02  0.41892015915E+03  0.41948369185E+03  0.00000000000E+00 0. -1.
          1    1    1    2  502    0  0.99619037094E+01 -0.19319121727E+02  0.18616097323E+02  0.28618648979E+02  0.00000000000E+00 0. -1.
</event>
<event>
 4    1  0.7416369E+003  0.3596300E+02  0.7546771E-02  0.1373917E+00
          2   -1    0    0  502    0  0.00000000000E+00  0.00000000000E+00  0.84007556646E+03  0.84007556646E+03  0.00000000000E+00 0.  1.
          1   -1    0    0  501    0 -0.00000000000E+00 -0.00000000000E+00 -0.22523249124E+02  0.22523249124E+02  0.00000000000E+00 0. -1.
          2    1    1    2  501    0 -0.31967728986E+02  0.16474275808E+02  0.82507420967E+03  0.82585760814E+03  0.00000000000E+00 0.  1.
          1    1    1    2  502    0  0.31967728986E+02 -0.16474275808E+02 -0.75218923366E+01  0.36741207441E+02  0.00000000000E+00 0. -1.
</event>
<event>
 4    1  0.7416369E+003  0.3294921E+02  0.7546771E-02  0.1395584E+00
          2   -1    0    0  502    0  0.00000000000E+00  0.00000000000E+00  0.29516566495E+03  0.29516566495E+03  0.00000000000E+00 0.  1.
          1   -1    0    0  501    0 -0.00000000000E+00 -0.00000000000E+00 -0.15757566434E+02  0.15757566434E+02  0.00000000000E+00 0. -1.
          2    1    1    2  501    0 -0.32449756315E+02  0.57152404077E+01  0.27581791487E+03  0.27777899996E+03  0.00000000000E+00 0.  1.
          1    1    1    2  502    0  0.32449756315E+02 -0.57152404077E+01  0.35901836467E+01  0.33144231420E+02  0.00000000000E+00 0. -1.
</event>
<event>
 4    1  0.7416369E+003  0.2557963E+02  0.7546771E-02  0.1462422E+00
          2   -1    0    0  502    0  0.00000000000E+00  0.00000000000E+00  0.44607862049E+03  0.44607862049E+03  0.00000000000E+00 0. -1.
          1   -1    0    0  501    0 -0.00000000000E+00 -0.00000000000E+00 -0.57976667568E+01  0.57976667568E+01  0.00000000000E+00 0.  1.
          2    1    1    2  501    0 -0.24326914535E+01 -0.25463691142E+02  0.41541666212E+03  0.41620346073E+03  0.00000000000E+00 0. -1.
          1    1    1    2  502    0  0.24326914535E+01  0.25463691142E+02  0.24864291605E+02  0.35672826511E+02  0.00000000000E+00 0.  1.
</event>
<event>
 4    1  0.7416369E+003  0.4465469E+02  0.7546771E-02  0.1323175E+00
          2   -1    0    0  502    0  0.00000000000E+00  0.00000000000E+00  0.84542359079E+03  0.84542359079E+03  0.00000000000E+00 0.  1.
          1   -1    0    0  501    0 -0.00000000000E+00 -0.00000000000E+00 -0.20893739939E+02  0.20893739939E+02  0.00000000000E+00 0.  1.
          2    1    1    2  501    0 -0.87850852354E-01  0.44654601152E+02  0.82024269764E+03  0.82145731730E+03  0.00000000000E+00 0.  1.
          1    1    1    2  502    0  0.87850852354E-01 -0.44654601152E+02  0.42871532115E+01  0.44860013425E+02  0.00000000000E+00 0.  1.
</event>
<event>
 4    1  0.7416369E+003  0.2507193E+02  0.7546771E-02  0.1468000E+00
          2   -1    0    0  502    0  0.00000000000E+00  0.00000000000E+00  0.60051191849E+03  0.60051191849E+03  0.00000000000E+00 0.  1.
          1   -1    0    0  501    0 -0.00000000000E+00 -0.00000000000E+00 -0.40933069105E+02  0.40933069105E+02  0.00000000000E+00 0. -1.
          2    1    1    2  501    0 -0.71630154331E+01  0.24026918653E+02  0.59638446180E+03  0.59691123954E+03  0.00000000000E+00 0.  1.
          1    1    1    2  502    0  0.71630154331E+01 -0.24026918653E+02 -0.36805612419E+02  0.44533748052E+02  0.00000000000E+00 0. -1.
</event>
<event>
 4    1  0.7416369E+003  0.2096263E+02  0.7546771E-02  0.1519799E+00
          2   -1    0    0  502    0  0.00000000000E+00  0.00000000000E+00  0.11460203462E+01  0.11460203462E+01  0.00000000000E+00 0. -1.
          1   -1    0    0  501    0 -0.00000000000E+00 -0.00000000000E+00 -0.11911630514E+04  0.11911630514E+04  0.00000000000E+00 0. -1.
          2    1    1    2  501    0 -0.15874009084E+02 -0.13691152785E+02 -0.10409604424E+03  0.10618577238E+03  0.00000000000E+00 0. -1.
          1    1    1    2  502    0  0.15874009084E+02  0.13691152785E+02 -0.10859209868E+04  0.10861232994E+04  0.00000000000E+00 0. -1.
</event>
<event>
 4    1  0.7416369E+003  0.2626496E+02  0.7546771E-02  0.1455135E+00
          2   -1    0    0  502    0  0.00000000000E+00  0.00000000000E+00  0.11751580609E+02  0.11751580609E+02  0.00000000000E+00 0.  1.
          1   -1    0    0  501    0 -0.00000000000E+00 -0.00000000000E+00 -0.28084685378E+03  0.28084685378E+03  0.00000000000E+00 0.  1.
          2    1    1    2  501    0  0.60353974670E+01 -0.25562119211E+02 -0.44334072019E+01  0.26636498655E+02  0.00000000000E+00 0.  1.
          1    1    1    2  502    0 -0.60353974670E+01  0.25562119211E+02 -0.26466186597E+03  0.26596193573E+03  0.00000000000E+00 0.  1.
</event>
<event>
 4    1  0.7416369E+003  0.2315926E+02  0.7546771E-02  0.1490508E+00
          2   -1    0    0  502    0  0.00000000000E+00  0.00000000000E+00  0.44831049121E+03  0.44831049121E+03  0.00000000000E+00 0. -1.
          1   -1    0    0  501    0 -0.00000000000E+00 -0.00000000000E+00 -0.13746194892E+01  0.13746194892E+01  0.00000000000E+00 0. -1.
          2    1    1    2  501    0 -0.19499466665E+02  0.12494859678E+02  0.14250495764E+03  0.14437456033E+03  0.00000000000E+00 0. -1.
          1    1    1    2  502    0  0.19499466665E+02 -0.12494859678E+02  0.30443091408E+03  0.30531055037E+03  0.00000000000E+00 0. -1.
</event>
<event>
 4    1  0.7416369E+003  0.2517318E+02  0.7546771E-02  0.1466875E+00
          2   -1    0    0  502    0  0.00000000000E+00  0.00000000000E+00  0.12606867282E+04  0.12606867282E+04  0.00000000000E+00 0. -1.
          1   -1    0    0  501    0 -0.00000000000E+00 -0.00000000000E+00 -0.64462280798E+01  0.64462280798E+01  0.00000000000E+00 0.  1.
          2    1    1    2  501    0 -0.22068931108E+02 -0.12109969066E+02  0.12354838225E+04  0.12357402497E+04  0.00000000000E+00 0. -1.
          1    1    1    2  502    0  0.22068931108E+02  0.12109969066E+02  0.18756677620E+02  0.31392706579E+02  0.00000000000E+00 0.  1.
</event>
<event>
 4    1  0.7416369E+003  0.2914876E+02  0.7546771E-02  0.1427141E+00
          2   -1    0    0  502    0  0.00000000000E+00  0.00000000000E+00  0.71838682884E+02  0.71838682884E+02  0.00000000000E+00 0.  1.
          1   -1    0    0  501    0 -0.00000000000E+00 -0.00000000000E+00 -0.27906232808E+02  0.27906232808E+02  0.00000000000E+00 0.  1.
          2    1    1    2  501    0 -0.14218411800E+01 -0.29114062532E+02  0.59822699304E+02  0.66546266774E+02  0.00000000000E+00 0.  1.
          1    1    1    2  502    0  0.14218411800E+01  0.29114062532E+02 -0.15890249228E+02  0.33198648918E+02  0.00000000000E+00 0.  1.
</event>
<event>
 4    1  0.7416369E+003  0.2957746E+02  0.7546771E-02  0.1423304E+00
          2   -1    0    0  502    0  0.00000000000E+00  0.00000000000E+00  0.34656435320E+01  0.34656435320E+01  0.00000000000E+00 0.  1.
          1   -1    0    0  501    0 -0.00000000000E+00 -0.00000000000E+00 -0.64381049823E+03  0.64381049823E+03  0.00000000000E+00 0. -1.
          2    1    1    2  501    0  0.12375520514E+02  0.26863970244E+02 -0.67835316200E+02  0.74003084593E+02  0.00000000000E+00 0.  1.
          1    1    1    2  502    0 -0.12375520514E+02 -0.26863970244E+02 -0.57250953850E+03  0.57327305717E+03  0.00000000000E+00 0. -1.
</event>
<event>
 4    1  0.7416369E+003  0.2204388E+02  0.7546771E-02  0.1504866E+00
          2   -1    0    0  502    0  0.00000000000E+00  0.00000000000E+00  0.25576127871E+01  0.25576127871E+01  0.00000000000E+00 0.  1.
          1   -1    0    0  501    0 -0.00000000000E+00 -0.00000000000E+00 -0.19345369668E+03  0.19345369668E+03  0.00000000000E+00 0.  1.
          2    1    1    2  501    0 -0.14274615544E+02 -0.16797860149E+02 -0.82342933213E+02  0.85242544569E+02  0.00000000000E+00 0.  1.
          1    1    1    2  502    0  0.14274615544E+02  0.16797860149E+02 -0.10855315068E+03  0.11076876490E+03  0.00000000000E+00 0.  1.
</event>
<event>
 4    1  0.7416369E+003  0.2351863E+02  0.7546771E-02  0.1486086E+00
          2   -1    0    0  502    0  0.00000000000E+00  0.00000000000E+00  0.62298056990E+03  0.62298056990E+03  0.00000000000E+00 0.  1.
          1   -1    0    0  501    0 -0.00000000000E+00 -0.00000000000E+00 -0.23348157022E+01  0.23348157022E+01  0.00000000000E+00 0. -1.
          2    1    1    2  501    0  0.13553436584E+02 -0.19220572643E+02  0.55645531964E+03  0.55695210639E+03  0.00000000000E+00 0.  1.
          1    1    1    2  502    0 -0.13553436584E+02  0.19220572643E+02  0.64190434552E+02  0.68363279207E+02  0.00000000000E+00 0. -1.
</event>
<event>
 4    1  0.7416369E+003  0.2125557E+02  0.7546771E-02  0.1515647E+00
          2   -1    0    0  502    0  0.00000000000E+00  0.00000000000E+00  0.30013311562E+02  0.30013311562E+02  0.00000000000E+00 0. -1.
          1   -1    0    0  501    0 -0.00000000000E+00 -0.00000000000E+00 -0.36499258440E+03  0.36499258440E+03  0.00000000000E+00 0.  1.
          2    1    1    2  501    0 -0.12403168985E+02  0.17261535215E+02  0.25897648196E+02  0.33503542812E+02  0.00000000000E+00 0. -1.
          1    1    1    2  502    0  0.12403168985E+02 -0.17261535215E+02 -0.36087692103E+03  0.36150235315E+03  0.00000000000E+00 0.  1.
</event>
<event>
 4    1  0.7416369E+003  0.2992121E+02  0.7546771E-02  0.1420283E+00
          2   -1    0    0  502    0  0.00000000000E+00  0.00000000000E+00  0.12989440539E+02  0.12989440539E+02  0.00000000000E+00 0.  1.
          1   -1    0    0  501    0 -0.00000000000E+00 -0.00000000000E+00 -0.28432141121E+03  0.28432141121E+03  0.00000000000E+00 0.  1.
          2    1    1    2  501    0 -0.20730770402E+02 -0.21575766120E+02 -0.62771920632E+01  0.30572563931E+02  0.00000000000E+00 0.  1.
          1    1    1    2  502    0  0.20730770402E+02  0.21575766120E+02 -0.26505477860E+03  0.26673828781E+03  0.00000000000E+00 0.  1.
</event>
<event>
 4    1  0.7416369E+003  0.2476727E+02  0.7546771E-02  0.1471424E+00
          2   -1    0    0  502    0  0.00000000000E+00  0.00000000000E+00  0.91773876407E+02  0.91773876407E+02  0.00000000000E+00 0. -1.
          1   -1    0    0  501    0 -0.00000000000E+00 -0.00000000000E+00 -0.78727445105E+02  0.78727445105E+02  0.00000000000E+00 0. -1.
          2    1    1    2  501    0 -0.22448119506E+02 -0.10464208958E+02  0.88074700608E+02  0.91490822631E+02  0.00000000000E+00 0. -1.
          1    1    1    2  502    0  0.22448119506E+02  0.10464208958E+02 -0.75028269306E+02  0.79010498882E+02  0.00000000000E+00 0. -1.
</event>
<event>
 4    1  0.7416369E+003  0.3778185E+02  0.7546771E-02  0.1361998E+00
          2   -1    0    0  502    0  0.00000000000E+00  0.00000000000E+00  0.30436296858E+02  0.30436296858E+02  0.00000000000E+00 0. -1.
          1   -1    0    0  501    0 -0.00000000000E+00 -0.00000000000E+00 -0.16938583046E+04  0.16938583046E+04  0.00000000000E+00 0. -1.
          2    1    1    2  501    0 -0.29775415768E+02  0.23257095949E+02  0.18416783954E+02  0.42031486143E+02  0.00000000000E+00 0. -1.
          1    1    1    2  502    0  0.29775415768E+02 -0.23257095949E+02 -0.16818387917E+04  0.16822631153E+04  0.00000000000E+00 0. -1.
</event>
<event>
 4    1  0.7416369E+003  0.2775789E+02  0.7546771E-02  0.1440140E+00
          2   -1    0    0  502    0  0.00000000000E+00  0.00000000000E+00  0.26340232446E+03  0.26340232446E+03  0.00000000000E+00 0.  1.
          1   -1    0    0  501    0 -0.00000000000E+00 -0.00000000000E+00 -0.78398480618E+01  0.78398480618E+01  0.00000000000E+00 0.  1.
          2    1    1    2  501    0  0.13765790971E+02  0.24104009689E+02  0.23516047453E+03  0.23679305114E+03  0.00000000000E+00 0.  1.
          1    1    1    2  502    0 -0.13765790971E+02 -0.24104009689E+02  0.20402001866E+02  0.34449121386E+02  0.00000000000E+00 0.  1.
</event>
<event>
 4    1  0.7416369E+003  0.2303210E+02  0.7546771E-02  0.1492095E+00
          2   -1    0    0  502    0  0.00000000000E+00  0.00000000000E+00  0.19404559479E+03  0.19404559479E+03  0.00000000000E+00 0. -1.
          1   -1    0    0  501    0 -0.00000000000E+00 -0.00000000000E+00 -0.27374302343E+01  0.27374302343E+01  0.00000000000E+00 0. -1.
          2    1    1    2  501    0  0.12480600727E+02  0.19357471477E+02  0.92058966122E+02  0.94896419005E+02  0.00000000000E+00 0. -1.
          1    1    1    2  502    0 -0.12480600727E+02 -0.19357471477E+02  0.99249198437E+02  0.10188660602E+03  0.00000000000E+00 0. -1.
</event>
<event>
 4    1  0.7416369E+003  0.2064932E+02  0.7546771E-02  0.1524331E+00
          2   -1    0    0  502    0  0.00000000000E+00  0.00000000000E+00  0.20224326843E+01  0.20224326843E+01  0.00000000000E+00 0.  1.
          1   -1    0    0  501    0 -0.00000000000E+00 -0.00000000000E+00 -0.27200854277E+03  0.27200854277E+03  0.00000000000E+00 0. -1.
          2    1    1    2  501    0  0.20606746730E+02  0.13252571521E+01 -0.70014586944E+02  0.72996141694E+02  0.00000000000E+00 0.  1.
          1    1    1    2  502    0 -0.20606746730E+02 -0.13252571521E+01 -0.19997152314E+03  0.20103483376E+03  0.00000000000E+00 0. -1.
</event>
<event>
 4    1  0.7416369E+003  0.5273656E+02  0.7546771E-02  0.1286725E+00
          2   -1    0    0  502    0  0.00000000000E+00  0.00000000000E+00  0.13365863617E+04  0.13365863617E+04  0.00000000000E+00 0. -1.
          1   -1    0    0  501    0 -0.00000000000E+00 -0.00000000000E+00 -0.25325185675E+02  0.25325185675E+02  0.00000000000E+00 0.  1.
          2    1    1    2  501    0 -0.45021267588E+02  0.27463245503E+02  0.13080123256E+04  0.13090750125E+04  0.00000000000E+00 0. -1.
          1    1    1    2  502    0  0.45021267588E+02 -0.27463245503E+02  0.32488504101E+01  0.52836534877E+02  0.00000000000E+00 0.  1.
</event>
<event>
 4    1  0.7416369E+003  0.3144594E+02  0.7546771E-02  0.1407434E+00
          2   -1    0    0  502    0  0.00000000000E+00  0.00000000000E+00  0.85697350924E+02  0.85697350924E+02  0.00000000000E+00 0.  1.
          1   -1    0    0  501    0 -0.00000000000E+00 -0.00000000000E+00 -0.10745442207E+04  0.10745442207E+04  0.00000000000E+00 0.  1.
          2    1    1    2  501    0 -0.58858165535E+01  0.30890194463E+02  0.82574175031E+02  0.88359161000E+02  0.00000000000E+00 0.  1.
          1    1    1    2  502    0  0.58858165535E+01 -0.30890194463E+02 -0.10714210448E+04  0.10718824106E+04  0.00000000000E+00 0.  1.
</event>
<event>
 4    1  0.7416369E+003  0.3484184E+02  0.7546771E-02  0.1381679E+00
          2   -1    0    0  502    0  0.00000000000E+00  0.00000000000E+00  0.16364959143E+04  0.16364959143E+04  0.00000000000E+00 0. -1.
          1   -1    0    0  501    0 -0.00000000000E+00 -0.00000000000E+00 -0.30295806208E+01  0.30295806208E+01  0.00000000000E+00 0. -1.
          2    1    1    2  501    0  0.20780659983E+02  0.27966369305E+02  0.15291005948E+04  0.15294974936E+04  0.00000000000E+00 0. -1.
          1    1    1    2  502    0 -0.20780659983E+02 -0.27966369305E+02  0.10436573881E+03  0.11002800134E+03  0.00000000000E+00 0. -1.
</event>
<event>
 4    1  0.7416369E+003  0.2455137E+02  0.7546771E-02  0.1473885E+00
          2   -1    0    0  502    0  0.00000000000E+00  0.00000000000E+00  0.40851995513E+03  0.40851995513E+03  0.00000000000E+00 0.  1.
          1   -1    0    0  501    0 -0.00000000000E+00 -0.00000000000E+00 -0.42395354358E+01  0.42395354358E+01  0.00000000000E+00 0.  1.
          2    1    1    2  501    0 -0.22960554930E+02 -0.86938353295E+01  0.36878049417E+03  0.36959683810E+03  0.00000000000E+00 0.  1.
          1    1    1    2  502    0  0.22960554930E+02  0.86938353295E+01  0.35499925525E+02  0.43162652464E+02  0.00000000000E+00 0.  1.
</event>
<event>
 4    1  0.7416369E+003  0.2080707E+02  0.7546771E-02  0.1522037E+00
          2   -1    0    0  502    0  0.00000000000E+00  0.00000000000E+00  0.12035068215E+03  0.12035068215E+03  0.00000000000E+00 0.  1.
          1   -1    0    0  501    0 -0.00000000000E+00 -0.00000000000E+00 -0.25498847723E+03  0.25498847723E+03  0.00000000000E+00 0.  1.
          2    1    1    2  501    0 -0.18791774754E+02 -0.89332673471E+01  0.11902219790E+03  0.12082722233E+03  0.00000000000E+00 0.  1.
          1    1    1    2  502    0  0.18791774754E+02  0.89332673471E+01 -0.25365999298E+03  0.25451193705E+03  0.00000000000E+00 0.  1.
</event>
<event>
 4    1  0.7416369E+003  0.2188259E+02  0.7546771E-02  0.1507027E+00
          2   -1    0    0  502    0  0.00000000000E+00  0.00000000000E+00  0.10810096362E+04  0.10810096362E+04  0.00000000000E+00 0.  1.
          1   -1    0    0  501    0 -0.00000000000E+00 -0.00000000000E+00 -0.13235069397E+03  0.13235069397E+03  0.00000000000E+00 0.  1.
          2    1    1    2  501    0  0.10096968737E+02  0.19413885936E+02  0.10799935388E+04  0.10802152062E+04  0.00000000000E+00 0.  1.
          1    1    1    2  502    0 -0.10096968737E+02 -0.19413885936E+02 -0.13133459666E+03  0.13314512393E+03  0.00000000000E+00 0.  1.
</event>
<event>
 4    1  0.7416369E+003  0.2181198E+02  0.7546771E-02  0.1507980E+00
          2   -1    0    0  502    0  0.00000000000E+00  0.00000000000E+00  0.13068015677E+01  0.13068015677E+01  0.00000000000E+00 0.  1.
          1   -1    0    0  501    0 -0.00000000000E+00 -0.00000000000E+00 -0.37463197735E+03  0.37463197735E+03  0.00000000000E+00 0. -1.
          2    1    1    2  501    0  0.13677939765E+02 -0.16990476742E+02 -0.15509549650E+03  0.15662175894E+03  0.00000000000E+00 0.  1.
          1    1    1    2  502    0 -0.13677939765E+02  0.16990476742E+02 -0.21822967928E+03  0.21931701998E+03  0.00000000000E+00 0. -1.
</event>
<event>
 4    1  0.7416369E+003  0.2338598E+02  0.7546771E-02  0.1487707E+00
          2   -1    0    0  502    0  0.00000000000E+00  0.00000000000E+00  0.31008491780E+03  0.31008491780E+03  0.00000000000E+00 0.  1.
          1   -1    0    0  501    0 -0.00000000000E+00 -0.00000000000E+00 -0.57766840176E+02  0.57766840176E+02  0.00000000000E+00 0. -1.
          2    1    1    2  501    0 -0.54176647407E+01 -0.22749787293E+02  0.30725536258E+03  0.30814406005E+03  0.00000000000E+00 0.  1.
          1    1    1    2  502    0  0.54176647407E+01  0.22749787293E+02 -0.54937284954E+02  0.59707697923E+02  0.00000000000E+00 0. -1.
</event>
<event>
 4    1  0.7416369E+003  0.2437618E+02  0.7546771E-02  0.1475904E+00
          2   -1    0    0  502    0  0.00000000000E+00  0.00000000000E+00  0.18462252821E+04  0.18462252821E+04  0.00000000000E+00 0.  1.
          1   -1    0    0  501    0 -0.00000000000E+00 -0.00000000000E+00 -0.22682804706E+01  0.22682804706E+01  0.00000000000E+00 0.  1.
          2    1    1    2  501    0 -0.12405442503E+01  0.24344590669E+02  0.17781476905E+04  0.17783147660E+04  0.00000000000E+00 0.  1.
          1    1    1    2  502    0  0.12405442503E+01 -0.24344590669E+02  0.65809311134E+02  0.70178796490E+02  0.00000000000E+00 0.  1.
</event>
<event>
 4    1  0.7416369E+003  0.2024534E+02  0.7546771E-02  0.1530318E+00
          2   -1    0    0  502    0  0.00000000000E+00  0.00000000000E+00  0.76923305932E+03  0.76923305932E+03  0.00000000000E+00 0. -1.
          1   -1    0    0  501    0 -0.00000000000E+00 -0.00000000000E+00 -0.55810316391E+00  0.55810316391E+00  0.00000000000E+00 0. -1.
          2    1    1    2  501    0  0.20130963996E+02  0.21488661606E+01  0.30243760096E+03  0.30311445992E+03  0.00000000000E+00 0. -1.
          1    1    1    2  502    0 -0.20130963996E+02 -0.21488661606E+01  0.46623735519E+03  0.46667670256E+03  0.00000000000E+00 0. -1.
</event>
<event>
 4    1  0.7416369E+003  0.2038431E+02  0.7546771E-02  0.1528240E+00
          2   -1    0    0  502    0  0.00000000000E+00  0.00000000000E+00  0.75778928458E+03  0.75778928458E+03  0.00000000000E+00 0.  1.
          1   -1    0    0  501    0 -0.00000000000E+00 -0.00000000000E+00 -0.46931556197E+01  0.46931556197E+01  0.00000000000E+00 0.  1.
          2    1    1    2  501    0 -0.18717047232E+01  0.20298198293E+02  0.73482627714E+03  0.73510895635E+03  0.00000000000E+00 0.  1.
          1    1    1    2  502    0  0.18717047232E+01 -0.20298198293E+02  0.18269851823E+02  0.27373483851E+02  0.00000000000E+00 0.  1.
</event>
<event>
 4    1  0.7416369E+003  0.2129139E+02  0.7546771E-02  0.1515145E+00
          2   -1    0    0  502    0  0.00000000000E+00  0.00000000000E+00  0.13016783699E+02  0.13016783699E+02  0.00000000000E+00 0. -1.
          1   -1    0    0  501    0 -0.00000000000E+00 -0.00000000000E+00 -0.16026486579E+03  0.16026486579E+03  0.00000000000E+00 0. -1.
          2    1    1    2  501    0 -0.14782848304E+02 -0.15322878938E+02  0.30272333809E+01  0.21505519405E+02  0.00000000000E+00 0. -1.
          1    1    1    2  502    0  0.14782848304E+02  0.15322878938E+02 -0.15027531547E+03  0.15177613008E+03  0.00000000000E+00 0. -1.
</event>
<event>
 4    1  0.7416369E+003  0.2836092E+02  0.7546771E-02  0.1434396E+00
          2   -1    0    0  502    0  0.00000000000E+00  0.00000000000E+00  0.62022301564E+02  0.62022301564E+02  0.00000000000E+00 0. -1.
          1   -1    0    0  501    0 -0.00000000000E+00 -0.00000000000E+00 -0.19048544699E+03  0.19048544699E+03  0.00000000000E+00 0. -1.
          2    1    1    2  501    0 -0.26142330709E+02 -0.10996380964E+02  0.57648754706E+02  0.64247340555E+02  0.00000000000E+00 0. -1.
          1    1    1    2  502    0  0.26142330709E+02  0.10996380964E+02 -0.18611190013E+03  0.18826040800E+03  0.00000000000E+00 0. -1.
</event>
<event>
 4    1  0.7416369E+003  0.2097893E+02  0.7546771E-02  0.1519566E+00
          2   -1    0    0  502    0  0.00000000000E+00  0.00000000000E+00  0.72794351510E+02  0.72794351510E+02  0.00000000000E+00 0.  1.
          1   -1    0    0  501    0 -0.00000000000E+00 -0.00000000000E+00 -0.11199290230E+03  0.11199290230E+03  0.00000000000E+00 0. -1.
          2    1    1    2  501    0 -0.67809396497E+01  0.19852821712E+02  0.70265784617E+02  0.73330731350E+02  0.00000000000E+00 0.  1.
          1    1    1    2  502    0  0.67809396497E+01 -0.19852821712E+02 -0.10946433541E+03  0.11145652246E+03  0.00000000000E+00 0. -1.
</event>
<event>
 4    1  0.7416369E+003  0.3484323E+02  0.7546771E-02  0.1381669E+00
          2   -1    0    0  502    0  0.00000000000E+00  0.00000000000E+00  0.16824426886E+03  0.16824426886E+03  0.00000000000E+00 0.  1.
          1   -1    0    0  501    0 -0.00000000000E+00 -0.00000000000E+00 -0.11905925501E+02  0.11905925501E+02  0.00000000000E+00 0.  1.
          2    1    1    2  501    0  0.32917994852E+02  0.11421759906E+02  0.13470269300E+03  0.13913614371E+03  0.00000000000E+00 0.  1.
          1    1    1    2  502    0 -0.32917994852E+02 -0.11421759906E+02  0.21635650353E+02  0.41014050649E+02  0.00000000000E+00 0.  1.
</event>
<event>
 4    1  0.1879348E+004  0.2283520E+02  0.7546771E-02  0.1494578E+00
          2   -1    0    0  502    0  0.00000000000E+00  0.00000000000E+00  0.87767469671E+03  0.87767469671E+03  0.00000000000E+00 0.  1.
          1   -1    0    0  501    0 -0.00000000000E+00 -0.00000000000E+00 -0.11289699910E+04  0.11289699910E+04  0.00000000000E+00 0.  1.
          2    1    1    2  501    0 -0.16986021347E+01 -0.22771941455E+02  0.87741066173E+03  0.87770776223E+03  0.00000000000E+00 0.  1.
          1    1    1    2  502    0  0.16986021347E+01  0.22771941455E+02 -0.11287059560E+04  0.11289369254E+04  0.00000000000E+00 0.  1.
</event>
<event>
 4    1  0.7416369E+003  0.2824236E+02  0.7546771E-02  0.1435512E+00
          2   -1    0    0  502    0  0.00000000000E+00  0.00000000000E+00  0.60339425505E+02  0.60339425505E+02  0.00000000000E+00 0.  1.
          1   -1    0    0  501    0 -0.00000000000E+00 -0.00000000000E+00 -0.53377410989E+02  0.53377410989E+02  0.00000000000E+00 0. -1.
          2    1    1    2  501    0  0.25641346554E+01 -0.28125719294E+02  0.52798833063E+02  0.59877772546E+02  0.00000000000E+00 0.  1.
          1    1    1    2  502    0 -0.25641346554E+01  0.28125719294E+02 -0.45836818546E+02  0.53839063948E+02  0.00000000000E+00 0. -1.
</event>
<event>
 4    1  0.7416369E+003  0.2317940E+02  0.7546771E-02  0.1490258E+00
          2   -1    0    0  502    0  0.00000000000E+00  0.00000000000E+00  0.15875341571E+04  0.15875341571E+04  0.00000000000E+00 0. -1.
          1   -1    0    0  501    0 -0.00000000000E+00 -0.00000000000E+00 -0.43191843445E+01  0.43191843445E+01  0.00000000000E+00 0. -1.
          2    1    1    2  501    0 -0.21100072360E+02 -0.95953992066E+01  0.15557147744E+04  0.15558874458E+04  0.00000000000E+00 0. -1.
          1    1    1    2  502    0  0.21100072360E+02  0.95953992066E+01  0.27500198372E+02  0.35965895652E+02  0.00000000000E+00 0. -1.
</event>
<event>
 4    1  0.7416369E+003  0.2136332E+02  0.7546771E-02  0.1514140E+00
          2   -1    0    0  502    0  0.00000000000E+00  0.00000000000E+00  0.59108639756E+02  0.59108639756E+02  0.00000000000E+00 0.  1.
          1   -1    0    0  501    0 -0.00000000000E+00 -0.00000000000E+00 -0.22408728880E+02  0.22408728880E+02  0.00000000000E+00 0.  1.
          2    1    1    2  501    0  0.17285429679E+02 -0.12554104892E+02  0.51347787824E+02  0.55614628860E+02  0.00000000000E+00 0.  1.
          1    1    1    2  502    0 -0.17285429679E+02  0.12554104892E+02 -0.14647876947E+02  0.25902739776E+02  0.00000000000E+00 0.  1.
</event>
<event>
 4    1  0.7416369E+003  0.2020127E+02  0.7546771E-02  0.1530981E+00
          2   -1    0    0  502    0  0.00000000000E+00  0.00000000000E+00  0.10429638896E+04  0.10429638896E+04  0.00000000000E+00 0. -1.
          1   -1    0    0  501    0 -0.00000000000E+00 -0.00000000000E+00 -0.40153428002E+00  0.40153428002E+00  0.00000000000E+00 0.  1.
          2    1    1    2  501    0 -0.11227404834E+01 -0.20170043763E+02  0.60464768530E+03  0.60498505316E+03  0.00000000000E+00 0. -1.
          1    1    1    2  502    0  0.11227404834E+01  0.20170043763E+02  0.43791467006E+03  0.43838037076E+03  0.00000000000E+00 0.  1.
</event>
<event>
 4    1  0.7416369E+003  0.5121649E+02  0.7546771E-02  0.1292983E+00
          2   -1    0    0  502    0  0.00000000000E+00  0.00000000000E+00  0.58377185790E+03  0.58377185790E+03  0.00000000000E+00 0. -1.
          1   -1    0    0  501    0 -0.00000000000E+00 -0.00000000000E+00 -0.64829626058E+02  0.64829626058E+02  0.00000000000E+00 0.  1.
          2    1    1    2  501    0 -0.49136173412E+02 -0.14448714988E+02  0.57233123274E+03  0.57461828101E+03  0.00000000000E+00 0. -1.
          1    1    1    2  502    0  0.49136173412E+02  0.14448714988E+02 -0.53389000894E+02  0.73983202951E+02  0.00000000000E+00 0.  1.
</event>
<event>
 4    1  0.7416369E+003  0.3609695E+02  0.7546771E-02  0.1373011E+00
          2   -1    0    0  502    0  0.00000000000E+00  0.00000000000E+00  0.99338434481E+02  0.99338434481E+02  0.00000000000E+00 0.  1.
          1   -1    0    0  501    0 -0.00000000000E+00 -0.00000000000E+00 -0.15363218833E+03  0.15363218833E+03  0.00000000000E+00 0.  1.
          2    1    1    2  501    0  0.35670839888E+02 -0.55300189000E+01  0.93818511312E+02  0.10052314655E+03  0.00000000000E+00 0.  1.
          1    1    1    2  502    0 -0.35670839888E+02  0.55300189000E+01 -0.14811226516E+03  0.15244747626E+03  0.00000000000E+00 0.  1.
</event>
<event>
 4    1  0.7416369E+003  0.2117022E+02  0.7546771E-02  0.1516848E+00
          2   -1    0    0  502    0  0.00000000000E+00  0.00000000000E+00  0.13269348121E+02  0.13269348121E+02  0.00000000000E+00 0.  1.
          1   -1    0    0  501    0 -0.00000000000E+00 -0.00000000000E+00 -0.50613330206E+03  0.50613330206E+03  0.00000000000E+00 0.  1.
          2    1    1    2  501    0  0.10226223366E+02  0.18536520372E+02  0.44545140573E+01  0.21633791330E+02  0.00000000000E+00 0.  1.
          1    1    1    2  502    0 -0.10226223366E+02 -0.18536520372E+02 -0.49731846799E+03  0.49776885885E+03  0.00000000000E+00 0.  1.
</event>
<event>
 4    1  0.7416369E+003  0.2930718E+02  0.7546771E-02  0.1425714E+00
          2   -1    0    0  502    0  0.00000000000E+00  0.00000000000E+00  0.20356407725E+03  0.20356407725E+03  0.00000000000E+00 0.  1.
          1   -1    0    0  501    0 -0.00000000000E+00 -0.00000000000E+00 -0.95783140702E+01  0.95783140702E+01  0.00000000000E+00 0. -1.
          2    1    1    2  501    0 -0.19965047050E+02  0.21454789221E+02  0.17670697811E+03  0.17912081732E+03  0.00000000000E+00 0.  1.
          1    1    1    2  502    0  0.19965047050E+02 -0.21454789221E+02  0.17278785075E+02  0.34021574007E+02  0.00000000000E+00 0. -1.
</event>
<event>
 4    1  0.7416369E+003  0.2106796E+02  0.7546771E-02  0.1518297E+00
          2   -1    0    0  502    0  0.00000000000E+00  0.00000000000E+00  0.10876804665E+04  0.10876804665E+04  0.00000000000E+00 0.  1.
          1   -1    0    0  501    0 -0.00000000000E+00 -0.00000000000E+00 -0.11890440864E+01  0.11890440864E+01  0.00000000000E+00 0. -1.
          2    1    1    2  501    0  0.18374517733E+02 -0.10307079890E+02  0.98447350993E+03  0.98469891365E+03  0.00000000000E+00 0.  1.
          1    1    1    2  502    0 -0.18374517733E+02  0.10307079890E+02  0.10201791249E+03  0.10417059694E+03  0.00000000000E+00 0. -1.
</event>
<event>
 4    1  0.7416369E+003  0.3292434E+02  0.7546771E-02  0.1395774E+00
          2   -1    0    0  502    0  0.00000000000E+00  0.00000000000E+00  0.38092738710E+01  0.38092738710E+01  0.00000000000E+00 0.  1.
          1   -1    0    0  501    0 -0.00000000000E+00 -0.00000000000E+00 -0.76313204181E+03  0.76313204181E+03  0.00000000000E+00 0. -1.
          2    1    1    2  501    0  0.83824067520E+01  0.31839396539E+02 -0.75992283814E+02  0.82818108613E+02  0.00000000000E+00 0.  1.
          1    1    1    2  502    0 -0.83824067520E+01 -0.31839396539E+02 -0.68333048412E+03  0.68412320706E+03  0.00000000000E+00 0. -1.
</event>
<event>
 4    1  0.7416369E+003  0.3362717E+02  0.7546771E-02  0.1390480E+00
          2   -1    0    0  502    0  0.00000000000E+00  0.00000000000E+00  0.22489961310E+02  0.22489961310E+02  0.00000000000E+00 0.  1.
          1   -1    0    0  501    0 -0.00000000000E+00 -0.00000000000E+00 -0.11856815265E+03  0.11856815265E+03  0.00000000000E+00 0.  1.
          2    1    1    2  501    0 -0.31479939039E+02  0.11823695925E+02  0.54860665159E+01  0.34071737160E+02  0.00000000000E+00 0.  1.
          1    1    1    2  502    0  0.31479939039E+02 -0.11823695925E+02 -0.10156425786E+03  0.10698637681E+03  0.00000000000E+00 0.  1.
</event>
<event>
 4    1  0.7416369E+003  0.2283352E+02  0.7546771E-02  0.1494599E+00
          2   -1    0    0  502    0  0.00000000000E+00  0.00000000000E+00  0.11939462002E+02  0.11939462002E+02  0.00000000000E+00 0. -1.
          1   -1    0    0  501    0 -0.00000000000E+00 -0.00000000000E+00 -0.60446535867E+03  0.60446535867E+03  0.00000000000E+00 0.  1.
          2    1    1    2  501    0 -0.21397789253E+02  0.79689471313E+01  0.59822314122E+00  0.22841352285E+02  0.00000000000E+00 0. -1.
          1    1    1    2  502    0  0.21397789253E+02 -0.79689471313E+01 -0.59312411981E+03  0.59356346838E+03  0.00000000000E+00 0.  1.
</event>
<event>
 4    1  0.7416369E+003  0.4510008E+02  0.7546771E-02  0.1320940E+00
          2   -1    0    0  502    0  0.00000000000E+00  0.00000000000E+00  0.27352165621E+03  0.27352165621E+03  0.00000000000E+00 0. -1.
          1   -1    0    0  501    0 -0.00000000000E+00 -0.00000000000E+00 -0.12163504764E+02  0.12163504764E+02  0.00000000000E+00 0.  1.
          2    1    1    2  501    0  0.30333010692E+02 -0.33375520874E+02  0.21972742114E+03  0.22430817313E+03  0.00000000000E+00 0. -1.
          1    1    1    2  502    0 -0.30333010692E+02  0.33375520874E+02  0.41630730308E+02  0.61376987848E+02  0.00000000000E+00 0.  1.
</event>
<event>
 4    1  0.7416369E+003  0.2299740E+02  0.7546771E-02  0.1492531E+00
          2   -1    0    0  502    0  0.00000000000E+00  0.00000000000E+00  0.78289690309E+01  0.78289690309E+01  0.00000000000E+00 0.  1.
          1   -1    0    0  501    0 -0.00000000000E+00 -0.00000000000E+00 -0.16428185881E+03  0.16428185881E+03  0.00000000000E+00 0. -1.
          2    1    1    2  501    0  0.18205788927E+01  0.22925221837E+02 -0.12193818669E+02  0.26030165530E+02  0.00000000000E+00 0.  1.
          1    1    1    2  502    0 -0.18205788927E+01 -0.22925221837E+02 -0.14425907111E+03  0.14608066231E+03  0.00000000000E+00 0. -1.
</event>
<event>
 4    1  0.7416369E+003  0.6273462E+02  0.7546771E-02  0.1250814E+00
          2   -1    0    0  502    0  0.00000000000E+00  0.00000000000E+00  0.95299214353E+03  0.95299214353E+03  0.00000000000E+00 0.  1.
          1   -1    0    0  501    0 -0.00000000000E+00 -0.00000000000E+00 -0.10326942453E+02  0.10326942453E+02  0.00000000000E+00 0. -1.
          2    1    1    2  501    0 -0.39657716622E+02  0.48609654399E+02  0.84445496370E+03  0.84678203731E+03  0.00000000000E+00 0.  1.
          1    1    1    2  502    0  0.39657716622E+02 -0.48609654399E+02  0.98210237377E+02  0.11653704868E+03  0.00000000000E+00 0. -1.
</event>
<event>
 4    1  0.7416369E+003  0.2221807E+02  0.7546771E-02  0.1502557E+00
          2   -1    0    0  502    0  0.00000000000E+00  0.00000000000E+00  0.20867980595E+03  0.20867980595E+03  0.00000000000E+00 0. -1.
          1   -1    0    0  501    0 -0.00000000000E+00 -0.00000000000E+00 -0.69618860464E+01  0.69618860464E+01  0.00000000000E+00 0. -1.
          2    1    1    2  501    0 -0.43025039812E+01 -0.21797497394E+02  0.18846724622E+03  0.18977235134E+03  0.00000000000E+00 0. -1.
          1    1    1    2  502    0  0.43025039812E+01  0.21797497394E+02  0.13250673681E+02  0.25869340659E+02  0.00000000000E+00 0. -1.
</event>
<event>
 4    1  0.7416369E+003  0.2238960E+02  0.7546771E-02  0.1500309E+00
          2   -1    0    0  502    0  0.00000000000E+00  0.00000000000E+00  0.69744323517E+03  0.69744323517E+03  0.00000000000E+00 0.  1.
          1   -1    0    0  501    0 -0.00000000000E+00 -0.00000000000E+00 -0.37949722468E+02  0.37949722468E+02  0.00000000000E+00 0.  1.
          2    1    1    2  501    0 -0.51705495103E+01  0.21784385350E+02  0.69394454362E+03  0.69430564137E+03  0.00000000000E+00 0.  1.
          1    1    1    2  502    0  0.51705495103E+01 -0.21784385350E+02 -0.34451030911E+02  0.41087316268E+02  0.00000000000E+00 0.  1.
</event>
<event>
 4    1  0.7416369E+003  0.2294524E+02  0.7546771E-02  0.1493187E+00
          2   -1    0    0  502    0  0.00000000000E+00  0.00000000000E+00  0.64138413220E+03  0.64138413220E+03  0.00000000000E+00 0. -1.
          1   -1    0    0  501    0 -0.00000000000E+00 -0.00000000000E+00 -0.12812662985E+01  0.12812662985E+01  0.00000000000E+00 0. -1.
          2    1    1    2  501    0  0.11746573658E+02 -0.19710454686E+02  0.51267425131E+03  0.51318746279E+03  0.00000000000E+00 0. -1.
          1    1    1    2  502    0 -0.11746573658E+02  0.19710454686E+02  0.12742861460E+03  0.12947793571E+03  0.00000000000E+00 0. -1.
</event>
<event>
 4    1  0.7416369E+003  0.2487189E+02  0.7546771E-02  0.1470242E+00
          2   -1    0    0  502    0  0.00000000000E+00  0.00000000000E+00  0.54391818420E+03  0.54391818420E+03  0.00000000000E+00 0. -1.
          1   -1    0    0  501    0 -0.00000000000E+00 -0.00000000000E+00 -0.11742949920E+01  0.11742949920E+01  0.00000000000E+00 0. -1.
          2    1    1    2  501    0  0.24872619026E+01 -0.24747200528E+02  0.22301144579E+03  0.22439410723E+03  0.00000000000E+00 0. -1.
          1    1    1    2  502    0 -0.24872619026E+01  0.24747200528E+02  0.31973244342E+03  0.32069837196E+03  0.00000000000E+00 0. -1.
</event>
<event>
 4    1  0.7416369E+003  0.2874330E+02  0.7546771E-02  0.1430841E+00
          2   -1    0    0  502    0  0.00000000000E+00  0.00000000000E+00  0.69316547334E+03  0.69316547334E+03  0.00000000000E+00 0.  1.
          1   -1    0    0  501    0 -0.00000000000E+00 -0.00000000000E+00 -0.77130949364E+01  0.77130949364E+01  0.00000000000E+00 0.  1.
          2    1    1    2  501    0 -0.33414979021E+01  0.28548412863E+02  0.66495350002E+03  0.66557443962E+03  0.00000000000E+00 0.  1.
          1    1    1    2  502    0  0.33414979021E+01 -0.28548412863E+02  0.20498878381E+02  0.35304128655E+02  0.00000000000E+00 0.  1.
</event>
<event>
 4    1  0.7416369E+003  0.2247206E+02  0.7546771E-02  0.1499236E+00
          2   -1    0    0  502    0  0.00000000000E+00  0.00000000000E+00  0.15660540394E+04  0.15660540394E+04  0.00000000000E+00 0.  1.
          1   -1    0    0  501    0 -0.00000000000E+00 -0.00000000000E+00 -0.51547744014E+01  0.51547744014E+01  0.00000000000E+00 0. -1.
          2    1    1    2  501    0  0.21106920311E+02  0.77130560167E+01  0.15410850952E+04  0.15412489299E+04  0.00000000000E+00 0.  1.
          1    1    1    2  502    0 -0.21106920311E+02 -0.77130560167E+01  0.19814169823E+02  0.29959883910E+02  0.00000000000E+00 0. -1.
</event>
<event>
 4    1  0.7416369E+003  0.3760527E+02  0.7546771E-02  0.1363121E+00
          2   -1    0    0  502    0  0.00000000000E+00  0.00000000000E+00  0.12114988091E+01  0.12114988091E+01  0.00000000000E+00 0. -1.
          1   -1    0    0  501    0 -0.00000000000E+00 -0.00000000000E+00 -0.11780979750E+04  0.11780979750E+04  0.00000000000E+00 0. -1.
          2    1    1    2  501    0 -0.24990993654E+02  0.28099912947E+02 -0.64495480766E+03  0.64605019836E+03  0.00000000000E+00 0. -1.
          1    1    1    2  502    0  0.24990993654E+02 -0.28099912947E+02 -0.53193166856E+03  0.53325927548E+03  0.00000000000E+00 0. -1.
</event>
<event>
 4    1  0.7416369E+003  0.2365323E+02  0.7546771E-02  0.1484454E+00
          2   -1    0    0  502    0  0.00000000000E+00  0.00000000000E+00  0.34573397774E+01  0.34573397774E+01  0.00000000000E+00 0. -1.
          1   -1    0    0  501    0 -0.00000000000E+00 -0.00000000000E+00 -0.17663128346E+03  0.17663128346E+03  0.00000000000E+00 0. -1.
          2    1    1    2  501    0 -0.12014052799E+02  0.20374935847E+02 -0.60514530584E+02  0.64972947349E+02  0.00000000000E+00 0. -1.
          1    1    1    2  502    0  0.12014052799E+02 -0.20374935847E+02 -0.11265941309E+03  0.11511567588E+03  0.00000000000E+00 0. -1.
</event>
<event>
 4    1  0.7416369E+003  0.3309468E+02  0.7546771E-02  0.1394477E+00
          2   -1    0    0  502    0  0.00000000000E+00  0.00000000000E+00  0.86011643181E+03  0.86011643181E+03  0.00000000000E+00 0.  1.
          1   -1    0    0  501    0 -0.00000000000E+00 -0.00000000000E+00 -0.18853648155E+01  0.18853648155E+01  0.00000000000E+00 0.  1.
          2    1    1    2  501    0 -0.27755224444E+02 -0.18025124048E+02  0.67467108690E+03  0.67548229665E+03  0.00000000000E+00 0.  1.
          1    1    1    2  502    0  0.27755224444E+02  0.18025124048E+02  0.18355998009E+03  0.18651949997E+03  0.00000000000E+00 0.  1.
</event>
<event>
 4    1  0.7416369E+003  0.2454362E+02  0.7546771E-02  0.1473974E+00
          2   -1    0    0  502    0  0.00000000000E+00  0.00000000000E+00  0.73794363108E+00  0.73794363108E+00  0.00000000000E+00 0. -1.
          1   -1    0    0  501    0 -0.00000000000E+00 -0.00000000000E+00 -0.81698678211E+03  0.81698678211E+03  0.00000000000E+00 0. -1.
          2    1    1    2  501    0  0.20213711302E+01  0.24460229567E+02 -0.41991565207E+03  0.42063231406E+03  0.00000000000E+00 0. -1.
          1    1    1    2  502    0 -0.20213711302E+01 -0.24460229567E+02 -0.39633318641E+03  0.39709241169E+03  0.00000000000E+00 0. -1.
</event>
<event>
 4    1  0.7416369E+003  0.3167120E+02  0.7546771E-02  0.1405609E+00
          2   -1    0    0  502    0  0.00000000000E+00  0.00000000000E+00  0.25960815471E+03  0.25960815471E+03  0.00000000000E+00 0.  1.
          1   -1    0    0  501    0 -0.00000000000E+00 -0.00000000000E+00 -0.84700077910E+02  0.84700077910E+02  0.00000000000E+00 0.  1.
          2    1    1    2  501    0  0.24657958316E+02  0.19875865733E+02  0.25563574466E+03  0.25759017624E+03  0.00000000000E+00 0.  1.
          1    1    1    2  502    0 -0.24657958316E+02 -0.19875865733E+02 -0.80727667852E+02  0.86718056388E+02  0.00000000000E+00 0.  1.
</event>
<event>
 4    1  0.7416369E+003  0.2006519E+02  0.7546771E-02  0.1533041E+00
          2   -1    0    0  502    0  0.00000000000E+00  0.00000000000E+00  0.23428326321E+02  0.23428326321E+02  0.00000000000E+00 0.  1.
          1   -1    0    0  501    0 -0.00000000000E+00 -0.00000000000E+00 -0.67964481589E+02  0.67964481589E+02  0.00000000000E+00 0.  1.
          2    1    1    2  501    0  0.11626306635E+02  0.16353617719E+02  0.17230901981E+02  0.26448361037E+02  0.00000000000E+00 0.  1.
          1    1    1    2  502    0 -0.11626306635E+02 -0.16353617719E+02 -0.61767057249E+02  0.64944446873E+02  0.00000000000E+00 0.  1.
</event>
<event>
 4    1  0.7416369E+003  0.6394005E+02  0.7546771E-02  0.1247003E+00
          2   -1    0    0  502    0  0.00000000000E+00  0.00000000000E+00  0.47623605516E+03  0.47623605516E+03  0.00000000000E+00 0.  1.
          1   -1    0    0  501    0 -0.00000000000E+00 -0.00000000000E+00 -0.60815012212E+02  0.60815012212E+02  0.00000000000E+00 0.  1.
          2    1    1    2  501    0 -0.49825265373E+02  0.40072090264E+02  0.45656280137E+03  0.46101835222E+03  0.00000000000E+00 0.  1.
          1    1    1    2  502    0  0.49825265373E+02 -0.40072090264E+02 -0.41141758421E+02  0.76032715154E+02  0.00000000000E+00 0.  1.
</event>
<event>
 4    1  0.7416369E+003  0.3604566E+02  0.7546771E-02  0.1373357E+00
          2   -1    0    0  502    0  0.00000000000E+00  0.00000000000E+00  0.34775252710E+01  0.34775252710E+01  0.00000000000E+00 0. -1.
          1   -1    0    0  501    0 -0.00000000000E+00 -0.00000000000E+00 -0.40879983738E+03  0.40879983738E+03  0.00000000000E+00 0. -1.
          2    1    1    2  501    0 -0.13395258975E+02 -0.33464258380E+02 -0.14219370603E+03  0.14669130713E+03  0.00000000000E+00 0. -1.
          1    1    1    2  502    0  0.13395258975E+02  0.33464258380E+02 -0.26312860607E+03  0.26558605552E+03  0.00000000000E+00 0. -1.
</event>
<event>
 4    1  0.7416369E+003  0.3004740E+02  0.7546771E-02  0.1419185E+00
          2   -1    0    0  502    0  0.00000000000E+00  0.00000000000E+00  0.11230064219E+01  0.11230064219E+01  0.00000000000E+00 0.  1.
          1   -1    0    0  501    0 -0.00000000000E+00 -0.00000000000E+00 -0.21800373294E+04  0.21800373294E+04  0.00000000000E+00 0. -1.
          2    1    1    2  501    0  0.21576750804E+02  0.20911479182E+02 -0.22299837780E+03  0.22501360545E+03  0.00000000000E+00 0.  1.
          1    1    1    2  502    0 -0.21576750804E+02 -0.20911479182E+02 -0.19559159451E+04  0.19561467303E+04  0.00000000000E+00 0. -1.
</event>
<event>
 4    1  0.7416369E+003  0.3440695E+02  0.7546771E-02  0.1384781E+00
          2   -1    0    0  502    0  0.00000000000E+00  0.00000000000E+00  0.84567723189E+02  0.84567723189E+02  0.00000000000E+00 0. -1.
          1   -1    0    0  501    0 -0.00000000000E+00 -0.00000000000E+00 -0.80350742462E+03  0.80350742462E+03  0.00000000000E+00 0. -1.
          2    1    1    2  501    0  0.23269743966E+02  0.25344768457E+02  0.80682717874E+02  0.87712822529E+02  0.00000000000E+00 0. -1.
          1    1    1    2  502    0 -0.23269743966E+02 -0.25344768457E+02 -0.79962241931E+03  0.80036232528E+03  0.00000000000E+00 0. -1.
</event>
<event>
 4    1  0.7416369E+003  0.2052840E+02  0.7546771E-02  0.1526106E+00
          2   -1    0    0  502    0  0.00000000000E+00  0.00000000000E+00  0.31975522503E+02  0.31975522503E+02  0.00000000000E+00 0. -1.
          1   -1    0    0  501    0 -0.00000000000E+00 -0.00000000000E+00 -0.44212748062E+02  0.44212748062E+02  0.00000000000E+00 0. -1.
          2    1    1    2  501    0  0.14373595600E+02 -0.14656567485E+02  0.25796716784E+02  0.32967951373E+02  0.00000000000E+00 0. -1.
          1    1    1    2  502    0 -0.14373595600E+02  0.14656567485E+02 -0.38033942343E+02  0.43220319192E+02  0.00000000000E+00 0. -1.
</event>
<event>
 4    1  0.7416369E+003  0.2480044E+02  0.7546771E-02  0.1471048E+00
          2   -1    0    0  502    0  0.00000000000E+00  0.00000000000E+00  0.79323083126E+03  0.79323083126E+03  0.00000000000E+00 0. -1.
          1   -1    0    0  501    0 -0.00000000000E+00 -0.00000000000E+00 -0.97343260274E+00  0.97343260274E+00  0.00000000000E+00 0.  1.
          2    1    1    2  501    0  0.20936754205E+02 -0.13293379762E+02  0.57524323991E+03  0.57577760176E+03  0.00000000000E+00 0. -1.
          1    1    1    2  502    0 -0.20936754205E+02  0.13293379762E+02  0.21701415874E+03  0.21842666210E+03  0.00000000000E+00 0.  1.
</event>
<event>
 4    1  0.7416369E+003  0.6583330E+02  0.7546771E-02  0.1241205E+00
          2   -1    0    0  502    0  0.00000000000E+00  0.00000000000E+00  0.11387648772E+04  0.11387648772E+04  0.00000000000E+00 0.  1.
          1   -1    0    0  501    0 -0.00000000000E+00 -0.00000000000E+00 -0.39031943795E+01  0.39031943795E+01  0.00000000000E+00 0.  1.
          2    1    1    2  501    0  0.63390580536E+02  0.17766747065E+02  0.65763535759E+03  0.66092229994E+03  0.00000000000E+00 0.  1.
          1    1    1    2  502    0 -0.63390580536E+02 -0.17766747065E+02  0.47722632522E+03  0.48174577163E+03  0.00000000000E+00 0.  1.
</event>
<event>
 4    1  0.7416369E+003  0.2163636E+02  0.7546771E-02  0.1510370E+00
          2   -1    0    0  502    0  0.00000000000E+00  0.00000000000E+00  0.28272567782E+03  0.28272567782E+03  0.00000000000E+00 0.  1.
          1   -1    0    0  501    0 -0.00000000000E+00 -0.00000000000E+00 -0.14034137374E+03  0.14034137374E+03  0.00000000000E+00 0. -1.
          2    1    1    2  501    0  0.32134985747E+01 -0.21396388804E+02  0.28147411321E+03  0.28230446053E+03  0.00000000000E+00 0.  1.
          1    1    1    2  502    0 -0.32134985747E+01  0.21396388804E+02 -0.13908980913E+03  0.14076259102E+03  0.00000000000E+00 0. -1.
</event>
<event>
 4    1  0.7416369E+003  0.2133765E+02  0.7546771E-02  0.1514498E+00
          2   -1    0    0  502    0  0.00000000000E+00  0.00000000000E+00  0.49152011320E+03  0.49152011320E+03  0.00000000000E+00 0.  1.
          1   -1    0    0  501    0 -0.00000000000E+00 -0.00000000000E+00 -0.72514042230E+01  0.72514042230E+01  0.00000000000E+00 0. -1.
          2    1    1    2  501    0 -0.21320610437E+02  0.85248403356E+00  0.47504772991E+03  0.47552669836E+03  0.00000000000E+00 0.  1.
          1    1    1    2  502    0  0.21320610437E+02 -0.85248403356E+00  0.92209790674E+01  0.23244819066E+02  0.00000000000E+00 0. -1.
</event>
<event>
 4    1  0.7416369E+003  0.2699880E+02  0.7546771E-02  0.1447620E+00
          2   -1    0    0  502    0  0.00000000000E+00  0.00000000000E+00  0.10337651398E+04  0.10337651398E+04  0.00000000000E+00 0. -1.
          1   -1    0    0  501    0 -0.00000000000E+00 -0.00000000000E+00 -0.51830052394E+02  0.51830052394E+02  0.00000000000E+00 0. -1.
          2    1    1    2  501    0 -0.26836872558E+02 -0.29524947236E+01  0.10300602281E+04  0.10304139986E+04  0.00000000000E+00 0. -1.
          1    1    1    2  502    0  0.26836872558E+02  0.29524947236E+01 -0.48125140734E+02  0.55181193575E+02  0.00000000000E+00 0. -1.
</event>
<event>
 4    1  0.7416369E+003  0.3928348E+02  0.7546771E-02  0.1352736E+00
          2   -1    0    0  502    0  0.00000000000E+00  0.00000000000E+00  0.11016641665E+03  0.11016641665E+03  0.00000000000E+00 0.  1.
          1   -1    0    0  501    0 -0.00000000000E+00 -0.00000000000E+00 -0.43473124706E+02  0.43473124706E+02  0.00000000000E+00 0. -1.
          2    1    1    2  501    0 -0.38766818571E+02 -0.63502422415E+01  0.96590454495E+02  0.10427323577E+03  0.00000000000E+00 0.  1.
          1    1    1    2  502    0  0.38766818571E+02  0.63502422415E+01 -0.29897162550E+02  0.49366305586E+02  0.00000000000E+00 0. -1.
</event>
<event>
 4    1  0.7416369E+003  0.2503315E+02  0.7546771E-02  0.1468433E+00
          2   -1    0    0  502    0  0.00000000000E+00  0.00000000000E+00  0.50926547532E+02  0.50926547532E+02  0.00000000000E+00 0. -1.
          1   -1    0    0  501    0 -0.00000000000E+00 -0.00000000000E+00 -0.12161791570E+03  0.12161791570E+03  0.00000000000E+00 0.  1.
          2    1    1    2  501    0  0.20420572416E+02 -0.14479594887E+02  0.46445728608E+02  0.52762336489E+02  0.00000000000E+00 0. -1.
          1    1    1    2  502    0 -0.20420572416E+02  0.14479594887E+02 -0.11713709677E+03  0.11978212674E+03  0.00000000000E+00 0.  1.
</event>
<event>
 4    1  0.7416369E+003  0.2660899E+02  0.7546771E-02  0.1451576E+00
          2   -1    0    0  502    0  0.00000000000E+00  0.00000000000E+00  0.24604186110E+03  0.24604186110E+03  0.00000000000E+00 0. -1.
          1   -1    0    0  501    0 -0.00000000000E+00 -0.00000000000E+00 -0.22388559845E+02  0.22388559845E+02  0.00000000000E+00 0. -1.
          2    1    1    2  501    0 -0.17608975308E+02  0.19948993721E+02  0.23711961800E+03  0.23860794538E+03  0.00000000000E+00 0. -1.
          1    1    1    2  502    0  0.17608975308E+02 -0.19948993721E+02 -0.13466316742E+02  0.29822475559E+02  0.00000000000E+00 0. -1.
</event>
<event>
 4    1  0.7416369E+003  0.3495439E+02  0.7546771E-02  0.1380884E+00
          2   -1    0    0  502    0  0.00000000000E+00  0.00000000000E+00  0.15567961061E+03  0.15567961061E+03  0.00000000000E+00 0. -1.
          1   -1    0    0  501    0 -0.00000000000E+00 -0.00000000000E+00 -0.13888790408E+02  0.13888790408E+02  0.00000000000E+00 0. -1.
          2    1    1    2  501    0  0.33875006683E+02  0.86193403411E+01  0.12680951783E+03  0.13153882665E+03  0.00000000000E+00 0. -1.
          1    1    1    2  502    0 -0.33875006683E+02 -0.86193403411E+01  0.14981302378E+02  0.38029574368E+02  0.00000000000E+00 0. -1.
</event>
<event>
 4    1  0.7416369E+003  0.4397899E+02  0.7546771E-02  0.1326624E+00
          2   -1    0    0  502    0  0.00000000000E+00  0.00000000000E+00  0.52380822734E+03  0.52380822734E+03  0.00000000000E+00 0.  1.
          1   -1    0    0  501    0 -0.00000000000E+00 -0.00000000000E+00 -0.55085280628E+01  0.55085280628E+01  0.00000000000E+00 0. -1.
          2    1    1    2  501    0 -0.23849426310E+02  0.36950724844E+02  0.41111065201E+03  0.41345630894E+03  0.00000000000E+00 0.  1.
          1    1    1    2  502    0  0.23849426310E+02 -0.36950724844E+02  0.10718904727E+03  0.11586044647E+03  0.00000000000E+00 0. -1.
</event>
<event>
 4    1  0.7416369E+003  0.2413393E+02  0.7546771E-02  0.1478730E+00
          2   -1    0    0  502    0  0.00000000000E+00  0.00000000000E+00  0.26793883829E+02  0.26793883829E+02  0.00000000000E+00 0.  1.
          1   -1    0    0  501    0 -0.00000000000E+00 -0.00000000000E+00 -0.31650055985E+02  0.31650055985E+02  0.00000000000E+00 0.  1.
          2    1    1    2  501    0 -0.59185210203E+01  0.23396961741E+02  0.13925126729E+02  0.27863163212E+02  0.00000000000E+00 0.  1.
          1    1    1    2  502    0  0.59185210203E+01 -0.23396961741E+02 -0.18781298885E+02  0.30580776602E+02  0.00000000000E+00 0.  1.
</event>
<event>
 4    1  0.7416369E+003  0.2893317E+02  0.7546771E-02  0.1429099E+00
          2   -1    0    0  502    0  0.00000000000E+00  0.00000000000E+00  0.10732421420E+02  0.10732421420E+02  0.00000000000E+00 0.  1.
          1   -1    0    0  501    0 -0.00000000000E+00 -0.00000000000E+00 -0.12564433445E+03  0.12564433445E+03  0.00000000000E+00 0. -1.
          2    1    1    2  501    0 -0.28376999605E+02 -0.56457025294E+01 -0.15466052726E+02  0.32807420663E+02  0.00000000000E+00 0.  1.
          1    1    1    2  502    0  0.28376999605E+02  0.56457025294E+01 -0.99445860308E+02  0.10356933521E+03  0.00000000000E+00 0. -1.
</event>
<event>
 4    1  0.7416369E+003  0.3775768E+02  0.7546771E-02  0.1362151E+00
          2   -1    0    0  502    0  0.00000000000E+00  0.00000000000E+00  0.20100301439E+04  0.20100301439E+04  0.00000000000E+00 0.  1.
          1   -1    0    0  501    0 -0.00000000000E+00 -0.00000000000E+00 -0.26126480197E+01  0.26126480197E+01  0.00000000000E+00 0.  1.
          2    1    1    2  501    0 -0.16880049453E+02  0.33774346684E+02  0.18626420330E+04  0.18630246874E+04  0.00000000000E+00 0.  1.
          1    1    1    2  502    0  0.16880049453E+02 -0.33774346684E+02  0.14477546283E+03  0.14961810452E+03  0.00000000000E+00 0.  1.
</event>
<event>
 4    1  0.7416369E+003  0.3098258E+02  0.7546771E-02  0.1411246E+00
          2   -1    0    0  502    0  0.00000000000E+00  0.00000000000E+00  0.46290561824E+03  0.46290561824E+03  0.00000000000E+00 0. -1.
          1   -1    0    0  501    0 -0.00000000000E+00 -0.00000000000E+00 -0.77642769258E+01  0.77642769258E+01  0.00000000000E+00 0. -1.
          2    1    1    2  501    0  0.14187117892E+01  0.30950077766E+02  0.42904265778E+03  0.43015987987E+03  0.00000000000E+00 0. -1.
          1    1    1    2  502    0 -0.14187117892E+01 -0.30950077766E+02  0.26098683534E+02  0.40510015293E+02  0.00000000000E+00 0. -1.
</event>
<event>
 4    1  0.7416369E+003  0.2088158E+02  0.7546771E-02  0.1520962E+00
          2   -1    0    0  502    0  0.00000000000E+00  0.00000000000E+00  0.58330552052E+03  0.58330552052E+03  0.00000000000E+00 0.  1.
          1   -1    0    0  501    0 -0.00000000000E+00 -0.00000000000E+00 -0.67778953813E+01  0.67778953813E+01  0.00000000000E+00 0.  1.
          2    1    1    2  501    0 -0.55467603561E+00 -0.20874210459E+02  0.56656026862E+03  0.56694495174E+03  0.00000000000E+00 0.  1.
          1    1    1    2  502    0  0.55467603561E+00  0.20874210459E+02  0.99673565249E+01  0.23138464165E+02  0.00000000000E+00 0.  1.
</event>
<event>
 4    1  0.7416369E+003  0.3886479E+02  0.7546771E-02  0.1355270E+00
          2   -1    0    0  502    0  0.00000000000E+00  0.00000000000E+00  0.27448442540E+02  0.27448442540E+02  0.00000000000E+00 0. -1.
          1   -1    0    0  501    0 -0.00000000000E+00 -0.00000000000E+00 -0.12444971480E+03  0.12444971480E+03  0.00000000000E+00 0.  1.
          2    1    1    2  501    0  0.33687890680E+02  0.19380350315E+02  0.82236154170E+01  0.39725304371E+02  0.00000000000E+00 0. -1.
          1    1    1    2  502    0 -0.33687890680E+02 -0.19380350315E+02 -0.10522488768E+03  0.11217285297E+03  0.00000000000E+00 0.  1.
</event>
<event>
 4    1  0.7416369E+003  0.2483473E+02  0.7546771E-02  0.1470661E+00
          2   -1    0    0  502    0  0.00000000000E+00  0.00000000000E+00  0.55305342789E+03  0.55305342789E+03  0.00000000000E+00 0. -1.
          1   -1    0    0  501    0 -0.00000000000E+00 -0.00000000000E+00 -0.20518508878E+03  0.20518508878E+03  0.00000000000E+00 0. -1.
          2    1    1    2  501    0 -0.15115236585E+02 -0.19705164201E+02  0.55202175218E+03  0.55258011071E+03  0.00000000000E+00 0. -1.
          1    1    1    2  502    0  0.15115236585E+02  0.19705164201E+02 -0.20415341308E+03  0.20565840596E+03  0.00000000000E+00 0. -1.
</event>
<event>
 4    1  0.7416369E+003  0.2294861E+02  0.7546771E-02  0.1493144E+00
          2   -1    0    0  502    0  0.00000000000E+00  0.00000000000E+00  0.22680153592E+02  0.22680153592E+02  0.00000000000E+00 0.  1.
          1   -1    0    0  501    0 -0.00000000000E+00 -0.00000000000E+00 -0.83751315227E+02  0.83751315227E+02  0.00000000000E+00 0.  1.
          2    1    1    2  501    0  0.86196104226E+01 -0.21268313521E+02  0.14705544537E+02  0.27256043073E+02  0.00000000000E+00 0.  1.
          1    1    1    2  502    0 -0.86196104226E+01  0.21268313521E+02 -0.75776706172E+02  0.79175425746E+02  0.00000000000E+00 0.  1.
</event>
<event>
 4    1  0.7416369E+003  0.2207672E+02  0.7546771E-02  0.1504429E+00
          2   -1    0    0  502    0  0.00000000000E+00  0.00000000000E+00  0.13145792518E+02  0.13145792518E+02  0.00000000000E+00 0. -1.
          1   -1    0    0  501    0 -0.00000000000E+00 -0.00000000000E+00 -0.49918287688E+03  0.49918287688E+03  0.00000000000E+00 0. -1.
          2    1    1    2  501    0 -0.97871305665E+00  0.22055013929E+02  0.34494143553E+01  0.22344573795E+02  0.00000000000E+00 0. -1.
          1    1    1    2  502    0  0.97871305665E+00 -0.22055013929E+02 -0.48948649872E+03  0.48998409561E+03  0.00000000000E+00 0. -1.
</event>
<event>
 4    1  0.7416369E+003  0.2041949E+02  0.7546771E-02  0.1527717E+00
          2   -1    0    0  502    0  0.00000000000E+00  0.00000000000E+00  0.23612186757E+02  0.23612186757E+02  0.00000000000E+00 0. -1.
          1   -1    0    0  501    0 -0.00000000000E+00 -0.00000000000E+00 -0.23504976837E+02  0.23504976837E+02  0.00000000000E+00 0. -1.
          2    1    1    2  501    0 -0.18199629221E+02  0.92589957522E+01  0.11803035219E+02  0.23585316332E+02  0.00000000000E+00 0. -1.
          1    1    1    2  502    0  0.18199629221E+02 -0.92589957522E+01 -0.11695825299E+02  0.23531847262E+02  0.00000000000E+00 0. -1.
</event>
<event>
 4    1  0.7416369E+003  0.2834061E+02  0.7546771E-02  0.1434587E+00
          2   -1    0    0  502    0  0.00000000000E+00  0.00000000000E+00  0.83937298077E+03  0.83937298077E+03  0.00000000000E+00 0. -1.
          1   -1    0    0  501    0 -0.00000000000E+00 -0.00000000000E+00 -0.99466225038E+01  0.99466225038E+01  0.00000000000E+00 0.  1.
          2    1    1    2  501    0  0.20917352718E+02 -0.19122100677E+02  0.81842980935E+03  0.81892035218E+03  0.00000000000E+00 0. -1.
          1    1    1    2  502    0 -0.20917352718E+02  0.19122100677E+02  0.10996548915E+02  0.30399251094E+02  0.00000000000E+00 0.  1.
</event>
<event>
 4    1  0.7416369E+003  0.2407234E+02  0.7546771E-02  0.1479454E+00
          2   -1    0    0  502    0  0.00000000000E+00  0.00000000000E+00  0.17638543993E+03  0.17638543993E+03  0.00000000000E+00 0. -1.
          1   -1    0    0  501    0 -0.00000000000E+00 -0.00000000000E+00 -0.42430731358E+01  0.42430731358E+01  0.00000000000E+00 0.  1.
          2    1    1    2  501    0 -0.23987973650E+02  0.20136332328E+01  0.12898027196E+03  0.13120742415E+03  0.00000000000E+00 0. -1.
          1    1    1    2  502    0  0.23987973650E+02 -0.20136332328E+01  0.43162094837E+02  0.49421088913E+02  0.00000000000E+00 0.  1.
</event>
<event>
 4    1  0.7416369E+003  0.2018046E+02  0.7546771E-02  0.1531295E+00
          2   -1    0    0  502    0  0.00000000000E+00  0.00000000000E+00  0.22420648047E+03  0.22420648047E+03  0.00000000000E+00 0. -1.
          1   -1    0    0  501    0 -0.00000000000E+00 -0.00000000000E+00 -0.94430861205E+01  0.94430861205E+01  0.00000000000E+00 0. -1.
          2    1    1    2  501    0 -0.10040145701E+02  0.17505614362E+02  0.21237114209E+03  0.21332780656E+03  0.00000000000E+00 0. -1.
          1    1    1    2  502    0  0.10040145701E+02 -0.17505614362E+02  0.23922522629E+01  0.20321760032E+02  0.00000000000E+00 0. -1.
</event>
<event>
 4    1  0.7416369E+003  0.3131829E+02  0.7546771E-02  0.1408476E+00
          2   -1    0    0  502    0  0.00000000000E+00  0.00000000000E+00  0.13557314062E+03  0.13557314062E+03  0.00000000000E+00 0. -1.
          1   -1    0    0  501    0 -0.00000000000E+00 -0.00000000000E+00 -0.30985479445E+02  0.30985479445E+02  0.00000000000E+00 0. -1.
          2    1    1    2  501    0 -0.31306122011E+02 -0.87291530359E+00  0.12520543493E+03  0.12906291563E+03  0.00000000000E+00 0. -1.
          1    1    1    2  502    0  0.31306122011E+02  0.87291530359E+00 -0.20617773751E+02  0.37495704433E+02  0.00000000000E+00 0. -1.
</event>
<event>
 4    1  0.7416369E+003  0.2476176E+02  0.7546771E-02  0.1471486E+00
          2   -1    0    0  502    0  0.00000000000E+00  0.00000000000E+00  0.11192389521E+02  0.11192389521E+02  0.00000000000E+00 0.  1.
          1   -1    0    0  501    0 -0.00000000000E+00 -0.00000000000E+00 -0.72995040895E+03  0.72995040895E+03  0.00000000000E+00 0.  1.
          2    1    1    2  501    0  0.22865992531E+02 -0.95021587556E+01 -0.29843520164E+01  0.24940950110E+02  0.00000000000E+00 0.  1.
          1    1    1    2  502    0 -0.22865992531E+02  0.95021587556E+01 -0.71577366742E+03  0.71620184837E+03  0.00000000000E+00 0.  1.
</event>
<event>
 4    1  0.7416369E+003  0.3411130E+02  0.7546771E-02  0.1386921E+00
          2   -1    0    0  502    0  0.00000000000E+00  0.00000000000E+00  0.10259774543E+04  0.10259774543E+04  0.00000000000E+00 0.  1.
          1   -1    0    0  501    0 -0.00000000000E+00 -0.00000000000E+00 -0.11947495495E+01  0.11947495495E+01  0.00000000000E+00 0.  1.
          2    1    1    2  501    0  0.31358280708E+02 -0.13425258256E+02  0.39669364501E+03  0.39815754083E+03  0.00000000000E+00 0.  1.
          1    1    1    2  502    0 -0.31358280708E+02  0.13425258256E+02  0.62808905973E+03  0.62901466301E+03  0.00000000000E+00 0.  1.
</event>
<event>
 4    1  0.7416369E+003  0.2242725E+02  0.7546771E-02  0.1499818E+00
          2   -1    0    0  502    0  0.00000000000E+00  0.00000000000E+00  0.13360261412E+03  0.13360261412E+03  0.00000000000E+00 0. -1.
          1   -1    0    0  501    0 -0.00000000000E+00 -0.00000000000E+00 -0.65742385846E+01  0.65742385846E+01  0.00000000000E+00 0.  1.
          2    1    1    2  501    0 -0.22115755814E+02  0.37249079173E+01  0.10933223206E+03  0.11160877457E+03  0.00000000000E+00 0. -1.
          1    1    1    2  502    0  0.22115755814E+02 -0.37249079173E+01  0.17696143473E+02  0.28568078130E+02  0.00000000000E+00 0.  1.
</event>
<event>
 4    1  0.7416369E+003  0.6925391E+02  0.7546771E-02  0.1231266E+00
          2   -1    0    0  502    0  0.00000000000E+00  0.00000000000E+00  0.10557558659E+03  0.10557558659E+03  0.00000000000E+00 0.  1.
          1   -1    0    0  501    0 -0.00000000000E+00 -0.00000000000E+00 -0.16031188813E+03  0.16031188813E+03  0.00000000000E+00 0. -1.
          2    1    1    2  501    0  0.25015069241E+02 -0.64578254944E+02  0.85173758387E+02  0.10977556112E+03  0.00000000000E+00 0.  1.
          1    1    1    2  502    0 -0.25015069241E+02  0.64578254944E+02 -0.13991005993E+03  0.15611191360E+03  0.00000000000E+00 0. -1.
</event>
<event>
 4    1  0.7416369E+003  0.2022237E+02  0.7546771E-02  0.1530663E+00
          2   -1    0    0  502    0  0.00000000000E+00  0.00000000000E+00  0.16575292377E+02  0.16575292377E+02  0.00000000000E+00 0. -1.
          1   -1    0    0  501    0 -0.00000000000E+00 -0.00000000000E+00 -0.30696821057E+03  0.30696821057E+03  0.00000000000E+00 0. -1.
          2    1    1    2  501    0  0.17740064931E+02  0.97074319467E+01  0.99381082792E+01  0.22532424080E+02  0.00000000000E+00 0. -1.
          1    1    1    2  502    0 -0.17740064931E+02 -0.97074319467E+01 -0.30033102647E+03  0.30101107887E+03  0.00000000000E+00 0. -1.
</event>
<event>
 4    1  0.7416369E+003  0.2287953E+02  0.7546771E-02  0.1494016E+00
          2   -1    0    0  502    0  0.00000000000E+00  0.00000000000E+00  0.17145627565E+02  0.17145627565E+02  0.00000000000E+00 0. -1.
          1   -1    0    0  501    0 -0.00000000000E+00 -0.00000000000E+00 -0.28164509402E+03  0.28164509402E+03  0.00000000000E+00 0. -1.
          2    1    1    2  501    0 -0.15090740271E+02  0.17197169583E+02  0.88160108670E+01  0.24519280805E+02  0.00000000000E+00 0. -1.
          1    1    1    2  502    0  0.15090740271E+02 -0.17197169583E+02 -0.27331547733E+03  0.27427144078E+03  0.00000000000E+00 0. -1.
</event>
<event>
 4    1  0.7416369E+003  0.3753512E+02  0.7546771E-02  0.1363568E+00
          2   -1    0    0  502    0  0.00000000000E+00  0.00000000000E+00  0.30758072084E+01  0.30758072084E+01  0.00000000000E+00 0. -1.
          1   -1    0    0  501    0 -0.00000000000E+00 -0.00000000000E+00 -0.52767711275E+03  0.52767711275E+03  0.00000000000E+00 0. -1.
          2    1    1    2  501    0  0.14237843227E+01  0.37508107865E+02 -0.16590543918E+03  0.17009850107E+03  0.00000000000E+00 0. -1.
          1    1    1    2  502    0 -0.14237843227E+01 -0.37508107865E+02 -0.35869586636E+03  0.36065441889E+03  0.00000000000E+00 0. -1.
</event>
<event>
 4    1  0.7416369E+003  0.3705898E+02  0.7546771E-02  0.1366639E+00
          2   -1    0    0  502    0  0.00000000000E+00  0.00000000000E+00  0.48923873174E+01  0.48923873174E+01  0.00000000000E+00 0. -1.
          1   -1    0    0  501    0 -0.00000000000E+00 -0.00000000000E+00 -0.15382938186E+04  0.15382938186E+04  0.00000000000E+00 0.  1.
          2    1    1    2  501    0 -0.36320072813E+01 -0.36880569377E+02 -0.69052884908E+02  0.78368799842E+02  0.00000000000E+00 0. -1.
          1    1    1    2  502    0  0.36320072813E+01  0.36880569377E+02 -0.14643485464E+04  0.14648174061E+04  0.00000000000E+00 0.  1.
</event>
<event>
 4    1  0.7416369E+003  0.2271032E+02  0.7546771E-02  0.1496168E+00
          2   -1    0    0  502    0  0.00000000000E+00  0.00000000000E+00  0.31945554987E+03  0.31945554987E+03  0.00000000000E+00 0. -1.
          1   -1    0    0  501    0 -0.00000000000E+00 -0.00000000000E+00 -0.18809724642E+01  0.18809724642E+01  0.00000000000E+00 0. -1.
          2    1    1    2  501    0 -0.11605238846E+02 -0.19521197804E+02  0.21926158040E+03  0.22043456937E+03  0.00000000000E+00 0. -1.
          1    1    1    2  502    0  0.11605238846E+02  0.19521197804E+02  0.98312997000E+02  0.10090195296E+03  0.00000000000E+00 0. -1.
</event>
<event>
 4    1  0.7416369E+003  0.3950421E+02  0.7546771E-02  0.1351416E+00
          2   -1    0    0  502    0  0.00000000000E+00  0.00000000000E+00  0.52151544156E+01  0.52151544156E+01  0.00000000000E+00 0.  1.
          1   -1    0    0  501    0 -0.00000000000E+00 -0.00000000000E+00 -0.10906873311E+04  0.10906873311E+04  0.00000000000E+00 0.  1.
          2    1    1    2  501    0 -0.23337345821E+02  0.31873984035E+02 -0.75966229713E+02  0.85623890504E+02  0.00000000000E+00 0.  1.
          1    1    1    2  502    0  0.23337345821E+02 -0.31873984035E+02 -0.10095059469E+04  0.10102785950E+04  0.00000000000E+00 0.  1.
</event>
<event>
 4    1  0.7416369E+003  0.1053649E+03  0.7546771E-02  0.1154823E+00
          2   -1    0    0  502    0  0.00000000000E+00  0.00000000000E+00  0.82134256295E+03  0.82134256295E+03  0.00000000000E+00 0. -1.
          1   -1    0    0  501    0 -0.00000000000E+00 -0.00000000000E+00 -0.22251460293E+02  0.22251460293E+02  0.00000000000E+00 0. -1.
          2    1    1    2  501    0  0.10500673031E+03  0.86803002401E+01  0.66381816297E+03  0.67212819797E+03  0.00000000000E+00 0. -1.
          1    1    1    2  502    0 -0.10500673031E+03 -0.86803002401E+01  0.13527293969E+03  0.17146582527E+03  0.00000000000E+00 0. -1.
</event>
<event>
 4    1  0.7416369E+003  0.2254794E+02  0.7546771E-02  0.1498254E+00
          2   -1    0    0  502    0  0.00000000000E+00  0.00000000000E+00  0.58970248358E+02  0.58970248358E+02  0.00000000000E+00 0. -1.
          1   -1    0    0  501    0 -0.00000000000E+00 -0.00000000000E+00 -0.43682284035E+03  0.43682284035E+03  0.00000000000E+00 0.  1.
          2    1    1    2  501    0 -0.13913715355E+02  0.17743114048E+02  0.56511722246E+02  0.60843934146E+02  0.00000000000E+00 0. -1.
          1    1    1    2  502    0  0.13913715355E+02 -0.17743114048E+02 -0.43436431424E+03  0.43494915456E+03  0.00000000000E+00 0.  1.
</event>
<event>
 4    1  0.7416369E+003  0.4071514E+02  0.7546771E-02  0.1344345E+00
          2   -1    0    0  502    0  0.00000000000E+00  0.00000000000E+00  0.28387976166E+03  0.28387976166E+03  0.00000000000E+00 0. -1.
          1   -1    0    0  501    0 -0.00000000000E+00 -0.00000000000E+00 -0.17677349912E+02  0.17677349912E+02  0.00000000000E+00 0.  1.
          2    1    1    2  501    0 -0.38468418310E+02 -0.13338035837E+02  0.25648752032E+03  0.25969899978E+03  0.00000000000E+00 0. -1.
          1    1    1    2  502    0  0.38468418310E+02  0.13338035837E+02  0.97148914274E+01  0.41858111791E+02  0.00000000000E+00 0.  1.
</event>
<event>
 4    1  0.7416369E+003  0.3515003E+02  0.7546771E-02  0.1379512E+00
          2   -1    0    0  502    0  0.00000000000E+00  0.00000000000E+00  0.17556468597E+01  0.17556468597E+01  0.00000000000E+00 0.  1.
          1   -1    0    0  501    0 -0.00000000000E+00 -0.00000000000E+00 -0.90516598909E+03  0.90516598909E+03  0.00000000000E+00 0.  1.
          2    1    1    2  501    0 -0.51206574814E+01  0.34775036141E+02 -0.23779564759E+03  0.24037947975E+03  0.00000000000E+00 0.  1.
          1    1    1    2  502    0  0.51206574814E+01 -0.34775036141E+02 -0.66561469464E+03  0.66654215620E+03  0.00000000000E+00 0.  1.
</event>
<event>
 4    1  0.7416369E+003  0.2162644E+02  0.7546771E-02  0.1510506E+00
          2   -1    0    0  502    0  0.00000000000E+00  0.00000000000E+00  0.59557178984E+03  0.59557178984E+03  0.00000000000E+00 0. -1.
          1   -1    0    0  501    0 -0.00000000000E+00 -0.00000000000E+00 -0.78634859936E+00  0.78634859936E+00  0.00000000000E+00 0.  1.
          2    1    1    2  501    0  0.44597756376E+01  0.21161596228E+02  0.30827939960E+03  0.30903703819E+03  0.00000000000E+00 0. -1.
          1    1    1    2  502    0 -0.44597756376E+01 -0.21161596228E+02  0.28650604164E+03  0.28732110025E+03  0.00000000000E+00 0.  1.
</event>
<event>
 4    1  0.7516179E+003  0.2262228E+02  0.7546771E-02  0.1497296E+00
          2   -1    0    0  502    0  0.00000000000E+00  0.00000000000E+00  0.10662587568E+04  0.10662587568E+04  0.00000000000E+00 0.  1.
          1   -1    0    0  501    0 -0.00000000000E+00 -0.00000000000E+00 -0.12121910973E+03  0.12121910973E+03  0.00000000000E+00 0.  1.
          2    1    1    2  501    0  0.22610443135E+02  0.73162987971E+00  0.10650821401E+04  0.10653223609E+04  0.00000000000E+00 0.  1.
          1    1    1    2  502    0 -0.22610443135E+02 -0.73162987971E+00 -0.12004249305E+03  0.12215550564E+03  0.00000000000E+00 0.  1.
</event>
<event>
 4    1  0.7416369E+003  0.2899997E+02  0.7546771E-02  0.1428490E+00
          2   -1    0    0  502    0  0.00000000000E+00  0.00000000000E+00  0.92319050814E+03  0.92319050814E+03  0.00000000000E+00 0. -1.
          1   -1    0    0  501    0 -0.00000000000E+00 -0.00000000000E+00 -0.44877788617E+01  0.44877788617E+01  0.00000000000E+00 0.  1.
          2    1    1    2  501    0 -0.25924406564E+02 -0.12997054135E+02  0.87344597374E+03  0.87392726660E+03  0.00000000000E+00 0. -1.
          1    1    1    2  502    0  0.25924406564E+02  0.12997054135E+02  0.45256755538E+02  0.53751020397E+02  0.00000000000E+00 0.  1.
</event>
<event>
 4    1  0.7416369E+003  0.2251597E+02  0.7546771E-02  0.1498667E+00
          2   -1    0    0  502    0  0.00000000000E+00  0.00000000000E+00  0.13921024219E+01  0.13921024219E+01  0.00000000000E+00 0. -1.
          1   -1    0    0  501    0 -0.00000000000E+00 -0.00000000000E+00 -0.47678279606E+03  0.47678279606E+03  0.00000000000E+00 0. -1.
          2    1    1    2  501    0 -0.52448647517E+01  0.21896578543E+02 -0.12150209246E+03  0.12357073776E+03  0.00000000000E+00 0. -1.
          1    1    1    2  502    0  0.52448647517E+01 -0.21896578543E+02 -0.35388860118E+03  0.35460416072E+03  0.00000000000E+00 0. -1.
</event>
<event>
 4    1  0.7416369E+003  0.6032525E+02  0.7546771E-02  0.1258732E+00
          2   -1    0    0  502    0  0.00000000000E+00  0.00000000000E+00  0.23026996897E+03  0.23026996897E+03  0.00000000000E+00 0.  1.
          1   -1    0    0  501    0 -0.00000000000E+00 -0.00000000000E+00 -0.16036174304E+02  0.16036174304E+02  0.00000000000E+00 0. -1.
          2    1    1    2  501    0 -0.41100889466E+02  0.44157132933E+02  0.12194239683E+03  0.13604809315E+03  0.00000000000E+00 0.  1.
          1    1    1    2  502    0  0.41100889466E+02 -0.44157132933E+02  0.92291397834E+02  0.11025805013E+03  0.00000000000E+00 0. -1.
</event>
<event>
 4    1  0.1781402E+004  0.2550242E+02  0.7546771E-02  0.1463261E+00
          2   -1    0    0  502    0  0.00000000000E+00  0.00000000000E+00  0.96363007749E+03  0.96363007749E+03  0.00000000000E+00 0.  1.
          1   -1    0    0  501    0 -0.00000000000E+00 -0.00000000000E+00 -0.66482369624E+03  0.66482369624E+03  0.00000000000E+00 0.  1.
          2    1    1    2  501    0  0.22720623846E+02 -0.11582169849E+02  0.96321667637E+03  0.96355422216E+03  0.00000000000E+00 0.  1.
          1    1    1    2  502    0 -0.22720623846E+02  0.11582169849E+02 -0.66441029513E+03  0.66489955157E+03  0.00000000000E+00 0.  1.
</event>
<event>
 4    1  0.7416369E+003  0.2077397E+02  0.7546771E-02  0.1522517E+00
          2   -1    0    0  502    0  0.00000000000E+00  0.00000000000E+00  0.54139061635E+03  0.54139061635E+03  0.00000000000E+00 0.  1.
          1   -1    0    0  501    0 -0.00000000000E+00 -0.00000000000E+00 -0.15255254327E+01  0.15255254327E+01  0.00000000000E+00 0. -1.
          2    1    1    2  501    0  0.10846065789E+02 -0.17717802706E+02  0.45750851691E+03  0.45797991301E+03  0.00000000000E+00 0.  1.
          1    1    1    2  502    0 -0.10846065789E+02  0.17717802706E+02  0.82356574006E+02  0.84936228771E+02  0.00000000000E+00 0. -1.
</event>
<event>
 4    1  0.7416369E+003  0.1446487E+03  0.7546771E-02  0.1103231E+00
          2   -1    0    0  502    0  0.00000000000E+00  0.00000000000E+00  0.16793497841E+03  0.16793497841E+03  0.00000000000E+00 0.  1.
          1   -1    0    0  501    0 -0.00000000000E+00 -0.00000000000E+00 -0.16848820537E+03  0.16848820537E+03  0.00000000000E+00 0.  1.
          2    1    1    2  501    0 -0.14085821513E+03  0.32896782141E+02  0.85582853210E+02  0.16807040135E+03  0.00000000000E+00 0.  1.
          1    1    1    2  502    0  0.14085821513E+03 -0.32896782141E+02 -0.86136080177E+02  0.16835278243E+03  0.00000000000E+00 0.  1.
</event>
<event>
 4    1  0.7416369E+003  0.2271442E+02  0.7546771E-02  0.1496116E+00
          2   -1    0    0  502    0  0.00000000000E+00  0.00000000000E+00  0.24414788981E+02  0.24414788981E+02  0.00000000000E+00 0. -1.
          1   -1    0    0  501    0 -0.00000000000E+00 -0.00000000000E+00 -0.53979260538E+02  0.53979260538E+02  0.00000000000E+00 0. -1.
          2    1    1    2  501    0  0.14383644953E+02  0.17579980826E+02  0.15794143841E+02  0.27665862495E+02  0.00000000000E+00 0. -1.
          1    1    1    2  502    0 -0.14383644953E+02 -0.17579980826E+02 -0.45358615397E+02  0.50728187024E+02  0.00000000000E+00 0. -1.
</event>
<event>
 4    1  0.7416369E+003  0.2124265E+02  0.7546771E-02  0.1515829E+00
          2   -1    0    0  502    0  0.00000000000E+00  0.00000000000E+00  0.19440264233E+02  0.19440264233E+02  0.00000000000E+00 0.  1.
          1   -1    0    0  501    0 -0.00000000000E+00 -0.00000000000E+00 -0.25473805611E+02  0.25473805611E+02  0.00000000000E+00 0.  1.
          2    1    1    2  501    0 -0.20483356555E+02  0.56286441742E+01 -0.97082583205E+01  0.23355937374E+02  0.00000000000E+00 0.  1.
          1    1    1    2  502    0  0.20483356555E+02 -0.56286441742E+01  0.36747169435E+01  0.21558132470E+02  0.00000000000E+00 0.  1.
</event>
<event>
 4    1  0.7416369E+003  0.2530168E+02  0.7546771E-02  0.1465457E+00
          2   -1    0    0  502    0  0.00000000000E+00  0.00000000000E+00  0.18422574809E+02  0.18422574809E+02  0.00000000000E+00 0.  1.
          1   -1    0    0  501    0 -0.00000000000E+00 -0.00000000000E+00 -0.37441867063E+02  0.37441867063E+02  0.00000000000E+00 0.  1.
          2    1    1    2  501    0 -0.14401890797E+01 -0.25260659050E+02 -0.20194216888E+01  0.25382141442E+02  0.00000000000E+00 0.  1.
          1    1    1    2  502    0  0.14401890797E+01  0.25260659050E+02 -0.16999870565E+02  0.30482300429E+02  0.00000000000E+00 0.  1.
</event>
<event>
 4    1  0.7416369E+003  0.2313039E+02  0.7546771E-02  0.1490867E+00
          2   -1    0    0  502    0  0.00000000000E+00  0.00000000000E+00  0.43166856006E+03  0.43166856006E+03  0.00000000000E+00 0.  1.
          1   -1    0    0  501    0 -0.00000000000E+00 -0.00000000000E+00 -0.34313817673E+02  0.34313817673E+02  0.00000000000E+00 0.  1.
          2    1    1    2  501    0  0.23118177791E+02 -0.75150212442E+00  0.42742205350E+03  0.42804745849E+03  0.00000000000E+00 0.  1.
          1    1    1    2  502    0 -0.23118177791E+02  0.75150212442E+00 -0.30067311118E+02  0.37934919239E+02  0.00000000000E+00 0.  1.
</event>
<event>
 4    1  0.7416369E+003  0.2065002E+02  0.7546771E-02  0.1524321E+00
          2   -1    0    0  502    0  0.00000000000E+00  0.00000000000E+00  0.26718259876E+03  0.26718259876E+03  0.00000000000E+00 0.  1.
          1   -1    0    0  501    0 -0.00000000000E+00 -0.00000000000E+00 -0.30369584573E+03  0.30369584573E+03  0.00000000000E+00 0.  1.
          2    1    1    2  501    0  0.14731598622E+02  0.14470772477E+02  0.26643158270E+03  0.26723063356E+03  0.00000000000E+00 0.  1.
          1    1    1    2  502    0 -0.14731598622E+02 -0.14470772477E+02 -0.30294482968E+03  0.30364781093E+03  0.00000000000E+00 0.  1.
</event>
<event>
 4    1  0.7416369E+003  0.3088787E+02  0.7546771E-02  0.1412034E+00
          2   -1    0    0  502    0  0.00000000000E+00  0.00000000000E+00  0.18005707835E+04  0.18005707835E+04  0.00000000000E+00 0. -1.
          1   -1    0    0  501    0 -0.00000000000E+00 -0.00000000000E+00 -0.10154293661E+01  0.10154293661E+01  0.00000000000E+00 0.  1.
          2    1    1    2  501    0 -0.17859901345E+02  0.25200877589E+02  0.15226849226E+04  0.15229981727E+04  0.00000000000E+00 0. -1.
          1    1    1    2  502    0  0.17859901345E+02 -0.25200877589E+02  0.27687043154E+03  0.27858804025E+03  0.00000000000E+00 0.  1.
</event>
<event>
 4    1  0.7416369E+003  0.6804296E+02  0.7546771E-02  0.1234709E+00
          2   -1    0    0  502    0  0.00000000000E+00  0.00000000000E+00  0.94632157973E+03  0.94632157973E+03  0.00000000000E+00 0.  1.
          1   -1    0    0  501    0 -0.00000000000E+00 -0.00000000000E+00 -0.82901627593E+03  0.82901627593E+03  0.00000000000E+00 0.  1.
          2    1    1    2  501    0 -0.50576933495E+02 -0.45517232163E+02  0.94369840142E+03  0.94614825343E+03  0.00000000000E+00 0.  1.
          1    1    1    2  502    0  0.50576933495E+02  0.45517232163E+02 -0.82639309763E+03  0.82918960222E+03  0.00000000000E+00 0.  1.
</event>
<event>
 4    1  0.7416369E+003  0.2395545E+02  0.7546771E-02  0.1480837E+00
          2   -1    0    0  502    0  0.00000000000E+00  0.00000000000E+00  0.10524351871E+02  0.10524351871E+02  0.00000000000E+00 0.  1.
          1   -1    0    0  501    0 -0.00000000000E+00 -0.00000000000E+00 -0.86358111815E+02  0.86358111815E+02  0.00000000000E+00 0.  1.
          2    1    1    2  501    0 -0.23709694308E+02  0.34225499630E+01 -0.85073461305E+01  0.25421219298E+02  0.00000000000E+00 0.  1.
          1    1    1    2  502    0  0.23709694308E+02 -0.34225499630E+01 -0.67326413814E+02  0.71461244388E+02  0.00000000000E+00 0.  1.
</event>
<event>
 4    1  0.7416369E+003  0.2370848E+02  0.7546771E-02  0.1483788E+00
          2   -1    0    0  502    0  0.00000000000E+00  0.00000000000E+00  0.34096355411E+03  0.34096355411E+03  0.00000000000E+00 0. -1.
          1   -1    0    0  501    0 -0.00000000000E+00 -0.00000000000E+00 -0.36038378324E+01  0.36038378324E+01  0.00000000000E+00 0.  1.
          2    1    1    2  501    0  0.22578863267E+02  0.72309813225E+01  0.29558171793E+03  0.29653101715E+03  0.00000000000E+00 0. -1.
          1    1    1    2  502    0 -0.22578863267E+02 -0.72309813225E+01  0.41777998348E+02  0.48036374794E+02  0.00000000000E+00 0.  1.
</event>
<event>
 4    1  0.7416369E+003  0.2188333E+02  0.7546771E-02  0.1507017E+00
          2   -1    0    0  502    0  0.00000000000E+00  0.00000000000E+00  0.28849337931E+03  0.28849337931E+03  0.00000000000E+00 0. -1.
          1   -1    0    0  501    0 -0.00000000000E+00 -0.00000000000E+00 -0.38581983070E+03  0.38581983070E+03  0.00000000000E+00 0.  1.
          2    1    1    2  501    0 -0.21883097498E+02  0.10041021088E+00  0.28776731366E+03  0.28859817541E+03  0.00000000000E+00 0. -1.
          1    1    1    2  502    0  0.21883097498E+02 -0.10041021088E+00 -0.38509376505E+03  0.38571503461E+03  0.00000000000E+00 0.  1.
</event>
<event>
 4    1  0.7416369E+003  0.5359127E+02  0.7546771E-02  0.1283310E+00
          2   -1    0    0  502    0  0.00000000000E+00  0.00000000000E+00  0.51926136615E+03  0.51926136615E+03  0.00000000000E+00 0.  1.
          1   -1    0    0  501    0 -0.00000000000E+00 -0.00000000000E+00 -0.26781021346E+04  0.26781021346E+04  0.00000000000E+00 0. -1.
          2    1    1    2  501    0  0.36912360491E+02  0.38852313153E+02  0.51760966514E+03  0.52037658483E+03  0.00000000000E+00 0.  1.
          1    1    1    2  502    0 -0.36912360491E+02 -0.38852313153E+02 -0.26764504336E+04  0.26769869159E+04  0.00000000000E+00 0. -1.
</event>
<event>
 4    1  0.7416369E+003  0.2037399E+02  0.7546771E-02  0.1528393E+00
          2   -1    0    0  502    0  0.00000000000E+00  0.00000000000E+00  0.98277549138E+03  0.98277549138E+03  0.00000000000E+00 0. -1.
          1   -1    0    0  501    0 -0.00000000000E+00 -0.00000000000E+00 -0.24905311814E+03  0.24905311814E+03  0.00000000000E+00 0. -1.
          2    1    1    2  501    0  0.14997778093E+02 -0.13790076647E+02  0.98225299833E+03  0.98246427533E+03  0.00000000000E+00 0. -1.
          1    1    1    2  502    0 -0.14997778093E+02  0.13790076647E+02 -0.24853062509E+03  0.24936433419E+03  0.00000000000E+00 0. -1.
</event>
<event>
 4    1  0.7416369E+003  0.2292135E+02  0.7546771E-02  0.1493488E+00
          2   -1    0    0  502    0  0.00000000000E+00  0.00000000000E+00  0.24503911611E+01  0.24503911611E+01  0.00000000000E+00 0. -1.
          1   -1    0    0  501    0 -0.00000000000E+00 -0.00000000000E+00 -0.74562485915E+03  0.74562485915E+03  0.00000000000E+00 0. -1.
          2    1    1    2  501    0  0.79377387752E+01  0.21503033248E+02 -0.55875845964E+02  0.60394522086E+02  0.00000000000E+00 0. -1.
          1    1    1    2  502    0 -0.79377387752E+01 -0.21503033248E+02 -0.68729862202E+03  0.68768072822E+03  0.00000000000E+00 0. -1.
</event>
<event>
 4    1  0.7416369E+003  0.2428175E+02  0.7546771E-02  0.1477001E+00
          2   -1    0    0  502    0  0.00000000000E+00  0.00000000000E+00  0.30030759556E+03  0.30030759556E+03  0.00000000000E+00 0.  1.
          1   -1    0    0  501    0 -0.00000000000E+00 -0.00000000000E+00 -0.31364527526E+01  0.31364527526E+01  0.00000000000E+00 0. -1.
          2    1    1    2  501    0 -0.18424204768E+02  0.15816193445E+02  0.24137547959E+03  0.24259374568E+03  0.00000000000E+00 0.  1.
          1    1    1    2  502    0  0.18424204768E+02 -0.15816193445E+02  0.55795663217E+02  0.60850302631E+02  0.00000000000E+00 0. -1.
</event>
<event>
 4    1  0.7416369E+003  0.2662248E+02  0.7546771E-02  0.1451438E+00
          2   -1    0    0  502    0  0.00000000000E+00  0.00000000000E+00  0.10892477935E+03  0.10892477935E+03  0.00000000000E+00 0.  1.
          1   -1    0    0  501    0 -0.00000000000E+00 -0.00000000000E+00 -0.40932681624E+02  0.40932681624E+02  0.00000000000E+00 0.  1.
          2    1    1    2  501    0  0.14043772196E+02  0.22617006441E+02  0.10271167931E+03  0.10610582257E+03  0.00000000000E+00 0.  1.
          1    1    1    2  502    0 -0.14043772196E+02 -0.22617006441E+02 -0.34719581579E+02  0.43751638402E+02  0.00000000000E+00 0.  1.
</event>
<event>
 4    1  0.7416369E+003  0.3589250E+02  0.7546771E-02  0.1374395E+00
          2   -1    0    0  502    0  0.00000000000E+00  0.00000000000E+00  0.14385241186E+02  0.14385241186E+02  0.00000000000E+00 0.  1.
          1   -1    0    0  501    0 -0.00000000000E+00 -0.00000000000E+00 -0.13953777627E+04  0.13953777627E+04  0.00000000000E+00 0.  1.
          2    1    1    2  501    0  0.11977074839E+02 -0.33835204473E+02 -0.86094042717E+01  0.36910611284E+02  0.00000000000E+00 0.  1.
          1    1    1    2  502    0 -0.11977074839E+02  0.33835204473E+02 -0.13723831172E+04  0.13728523926E+04  0.00000000000E+00 0.  1.
</event>
<event>
 4    1  0.7416369E+003  0.2270806E+02  0.7546771E-02  0.1496197E+00
          2   -1    0    0  502    0  0.00000000000E+00  0.00000000000E+00  0.17488487967E+03  0.17488487967E+03  0.00000000000E+00 0.  1.
          1   -1    0    0  501    0 -0.00000000000E+00 -0.00000000000E+00 -0.42025411791E+01  0.42025411791E+01  0.00000000000E+00 0.  1.
          2    1    1    2  501    0 -0.10355950599E+02 -0.20209163639E+02  0.13425448844E+03  0.13616138834E+03  0.00000000000E+00 0.  1.
          1    1    1    2  502    0  0.10355950599E+02  0.20209163639E+02  0.36427850049E+02  0.42926032510E+02  0.00000000000E+00 0.  1.
</event>
<event>
 4    1  0.7416369E+003  0.4670605E+02  0.7546771E-02  0.1313122E+00
          2   -1    0    0  502    0  0.00000000000E+00  0.00000000000E+00  0.57901714691E+03  0.57901714691E+03  0.00000000000E+00 0.  1.
          1   -1    0    0  501    0 -0.00000000000E+00 -0.00000000000E+00 -0.96729521490E+01  0.96729521490E+01  0.00000000000E+00 0.  1.
          2    1    1    2  501    0 -0.41578492380E+02 -0.21276372738E+02  0.51465909722E+03  0.51677407193E+03  0.00000000000E+00 0.  1.
          1    1    1    2  502    0  0.41578492380E+02  0.21276372738E+02  0.54685097547E+02  0.71916027137E+02  0.00000000000E+00 0.  1.
</event>
<event>
 4    1  0.7416369E+003  0.2842420E+02  0.7546771E-02  0.1433803E+00
          2   -1    0    0  502    0  0.00000000000E+00  0.00000000000E+00  0.35812200557E+03  0.35812200557E+03  0.00000000000E+00 0. -1.
          1   -1    0    0  501    0 -0.00000000000E+00 -0.00000000000E+00 -0.34886374702E+02  0.34886374702E+02  0.00000000000E+00 0.  1.
          2    1    1    2  501    0  0.55695725704E+01  0.27873199554E+02  0.35166205036E+03  0.35280891862E+03  0.00000000000E+00 0. -1.
          1    1    1    2  502    0 -0.55695725704E+01 -0.27873199554E+02 -0.28426419494E+02  0.40199461654E+02  0.00000000000E+00 0.  1.
</event>
<event>
 4    1  0.7416369E+003  0.3364085E+02  0.7546771E-02  0.1390379E+00
          2   -1    0    0  502    0  0.00000000000E+00  0.00000000000E+00  0.35761921307E+03  0.35761921307E+03  0.00000000000E+00 0.  1.
          1   -1    0    0  501    0 -0.00000000000E+00 -0.00000000000E+00 -0.34416828097E+01  0.34416828097E+01  0.00000000000E+00 0.  1.
          2    1    1    2  501    0  0.14478352887E+02 -0.30365842836E+02  0.22831611953E+03  0.23078118977E+03  0.00000000000E+00 0.  1.
          1    1    1    2  502    0 -0.14478352887E+02  0.30365842836E+02  0.12586141073E+03  0.13027970611E+03  0.00000000000E+00 0.  1.
</event>
<event>
 4    1  0.7416369E+003  0.4723625E+02  0.7546771E-02  0.1310621E+00
          2   -1    0    0  502    0  0.00000000000E+00  0.00000000000E+00  0.26247482197E+03  0.26247482197E+03  0.00000000000E+00 0. -1.
          1   -1    0    0  501    0 -0.00000000000E+00 -0.00000000000E+00 -0.58624872455E+02  0.58624872455E+02  0.00000000000E+00 0.  1.
          2    1    1    2  501    0 -0.66928455031E+01 -0.46759697930E+02  0.25037894807E+03  0.25479576364E+03  0.00000000000E+00 0. -1.
          1    1    1    2  502    0  0.66928455031E+01  0.46759697930E+02 -0.46528998554E+02  0.66303930787E+02  0.00000000000E+00 0.  1.
</event>
<event>
 4    1  0.7416369E+003  0.2647563E+02  0.7546771E-02  0.1452948E+00
          2   -1    0    0  502    0  0.00000000000E+00  0.00000000000E+00  0.55133969608E+02  0.55133969608E+02  0.00000000000E+00 0. -1.
          1   -1    0    0  501    0 -0.00000000000E+00 -0.00000000000E+00 -0.12795013354E+02  0.12795013354E+02  0.00000000000E+00 0. -1.
          2    1    1    2  501    0 -0.22512681323E+02  0.13933326625E+02  0.18462372670E+02  0.32277199628E+02  0.00000000000E+00 0. -1.
          1    1    1    2  502    0  0.22512681323E+02 -0.13933326625E+02  0.23876583584E+02  0.35651783333E+02  0.00000000000E+00 0. -1.
</event>
<event>
 4    1  0.7416369E+003  0.2404249E+02  0.7546771E-02  0.1479807E+00
          2   -1    0    0  502    0  0.00000000000E+00  0.00000000000E+00  0.43557922281E+03  0.43557922281E+03  0.00000000000E+00 0. -1.
          1   -1    0    0  501    0 -0.00000000000E+00 -0.00000000000E+00 -0.38662568461E+01  0.38662568461E+01  0.00000000000E+00 0. -1.
          2    1    1    2  501    0 -0.13939418333E+02  0.19589130689E+02  0.39392105230E+03  0.39465407241E+03  0.00000000000E+00 0. -1.
          1    1    1    2  502    0  0.13939418333E+02 -0.19589130689E+02  0.37791913658E+02  0.44791407241E+02  0.00000000000E+00 0. -1.
</event>
<event>
 4    1  0.7416369E+003  0.2663722E+02  0.7546771E-02  0.1451287E+00
          2   -1    0    0  502    0  0.00000000000E+00  0.00000000000E+00  0.11364845718E+02  0.11364845718E+02  0.00000000000E+00 0. -1.
          1   -1    0    0  501    0 -0.00000000000E+00 -0.00000000000E+00 -0.17947236647E+04  0.17947236647E+04  0.00000000000E+00 0.  1.
          2    1    1    2  501    0 -0.15024975091E+02 -0.21995259651E+02 -0.44812688168E+01  0.27011536310E+02  0.00000000000E+00 0. -1.
          1    1    1    2  502    0  0.15024975091E+02  0.21995259651E+02 -0.17788775502E+04  0.17790769741E+04  0.00000000000E+00 0.  1.
</event>
<event>
 4    1  0.7416369E+003  0.5487501E+02  0.7546771E-02  0.1278315E+00
          2   -1    0    0  502    0  0.00000000000E+00  0.00000000000E+00  0.54993707514E+03  0.54993707514E+03  0.00000000000E+00 0.  1.
          1   -1    0    0  501    0 -0.00000000000E+00 -0.00000000000E+00 -0.74306306596E+01  0.74306306596E+01  0.00000000000E+00 0. -1.
          2    1    1    2  501    0 -0.49002293066E+02  0.24699017551E+02  0.41419841190E+03  0.41781765234E+03  0.00000000000E+00 0.  1.
          1    1    1    2  502    0  0.49002293066E+02 -0.24699017551E+02  0.12830803259E+03  0.13955005346E+03  0.00000000000E+00 0. -1.
</event>
<event>
 4    1  0.7416369E+003  0.2782613E+02  0.7546771E-02  0.1439481E+00
          2   -1    0    0  502    0  0.00000000000E+00  0.00000000000E+00  0.15324194087E+01  0.15324194087E+01  0.00000000000E+00 0. -1.
          1   -1    0    0  501    0 -0.00000000000E+00 -0.00000000000E+00 -0.52799790314E+03  0.52799790314E+03  0.00000000000E+00 0. -1.
          2    1    1    2  501    0 -0.47739152363E+01 -0.27413557471E+02 -0.20830705381E+03  0.21015737453E+03  0.00000000000E+00 0. -1.
          1    1    1    2  502    0  0.47739152363E+01  0.27413557471E+02 -0.31815842992E+03  0.31937294802E+03  0.00000000000E+00 0. -1.
</event>
<event>
 4    1  0.7416369E+003  0.2164288E+02  0.7546771E-02  0.1510281E+00
          2   -1    0    0  502    0  0.00000000000E+00  0.00000000000E+00  0.44255089441E+01  0.44255089441E+01  0.00000000000E+00 0. -1.
          1   -1    0    0  501    0 -0.00000000000E+00 -0.00000000000E+00 -0.15405726734E+03  0.15405726734E+03  0.00000000000E+00 0. -1.
          2    1    1    2  501    0  0.41675956489E+01  0.21237831618E+02 -0.30486314022E+02  0.37387560605E+02  0.00000000000E+00 0. -1.
          1    1    1    2  502    0 -0.41675956489E+01 -0.21237831618E+02 -0.11914544438E+03  0.12109521568E+03  0.00000000000E+00 0. -1.
</event>
<event>
 4    1  0.7416369E+003  0.1136024E+03  0.7546771E-02  0.1142121E+00
          2   -1    0    0  502    0  0.00000000000E+00  0.00000000000E+00  0.28237440862E+04  0.28237440862E+04  0.00000000000E+00 0.  1.
          1   -1    0    0  501    0 -0.00000000000E+00 -0.00000000000E+00 -0.35830988474E+02  0.35830988474E+02  0.00000000000E+00 0.  1.
          2    1    1    2  501    0  0.10922948742E+03 -0.31215762071E+02  0.27294477159E+04  0.27318108168E+04  0.00000000000E+00 0.  1.
          1    1    1    2  502    0 -0.10922948742E+03  0.31215762071E+02  0.58465381788E+02  0.12776425788E+03  0.00000000000E+00 0.  1.
</event>
<event>
 4    1  0.7416369E+003  0.2085884E+02  0.7546771E-02  0.1521290E+00
          2   -1    0    0  502    0  0.00000000000E+00  0.00000000000E+00  0.49133579386E+03  0.49133579386E+03  0.00000000000E+00 0. -1.
          1   -1    0    0  501    0 -0.00000000000E+00 -0.00000000000E+00 -0.26764793323E+02  0.26764793323E+02  0.00000000000E+00 0. -1.
          2    1    1    2  501    0  0.81751209852E+01  0.19190068404E+02  0.48701434035E+03  0.48746082821E+03  0.00000000000E+00 0. -1.
          1    1    1    2  502    0 -0.81751209852E+01 -0.19190068404E+02 -0.22443339810E+02  0.30639758979E+02  0.00000000000E+00 0. -1.
</event>
<event>
 4    1  0.7416369E+003  0.3575873E+02  0.7546771E-02  0.1375306E+00
          2   -1    0    0  502    0  0.00000000000E+00  0.00000000000E+00  0.11434631708E+03  0.11434631708E+03  0.00000000000E+00 0.  1.
          1   -1    0    0  501    0 -0.00000000000E+00 -0.00000000000E+00 -0.27887309982E+02  0.27887309982E+02  0.00000000000E+00 0.  1.
          2    1    1    2  501    0  0.17342466797E+02  0.31271805748E+02  0.98270804480E+02  0.10457455715E+03  0.00000000000E+00 0.  1.
          1    1    1    2  502    0 -0.17342466797E+02 -0.31271805748E+02 -0.11811797383E+02  0.37659069914E+02  0.00000000000E+00 0.  1.
</event>
<event>
 4    1  0.7416369E+003  0.5779609E+02  0.7546771E-02  0.1267510E+00
          2   -1    0    0  502    0  0.00000000000E+00  0.00000000000E+00  0.48562109690E+03  0.48562109690E+03  0.00000000000E+00 0. -1.
          1   -1    0    0  501    0 -0.00000000000E+00 -0.00000000000E+00 -0.48710311362E+03  0.48710311362E+03  0.00000000000E+00 0.  1.
          2    1    1    2  501    0 -0.57791149674E+02  0.75550408193E+00  0.48217482479E+03  0.48562634755E+03  0.00000000000E+00 0. -1.
          1    1    1    2  502    0  0.57791149674E+02 -0.75550408193E+00 -0.48365684151E+03  0.48709786297E+03  0.00000000000E+00 0.  1.
</event>
<event>
 4    1  0.7416369E+003  0.2076462E+02  0.7546771E-02  0.1522652E+00
          2   -1    0    0  502    0  0.00000000000E+00  0.00000000000E+00  0.86361554534E+01  0.86361554534E+01  0.00000000000E+00 0.  1.
          1   -1    0    0  501    0 -0.00000000000E+00 -0.00000000000E+00 -0.45644360288E+03  0.45644360288E+03  0.00000000000E+00 0. -1.
          2    1    1    2  501    0 -0.20755891992E+02  0.60199153810E+00 -0.44497183627E+01  0.21236041056E+02  0.00000000000E+00 0.  1.
          1    1    1    2  502    0  0.20755891992E+02 -0.60199153810E+00 -0.44335772906E+03  0.44384371727E+03  0.00000000000E+00 0. -1.
</event>
<event>
 4    1  0.7416369E+003  0.2828276E+02  0.7546771E-02  0.1435131E+00
          2   -1    0    0  502    0  0.00000000000E+00  0.00000000000E+00  0.11096825578E+01  0.11096825578E+01  0.00000000000E+00 0. -1.
          1   -1    0    0  501    0 -0.00000000000E+00 -0.00000000000E+00 -0.12409570571E+04  0.12409570571E+04  0.00000000000E+00 0. -1.
          2    1    1    2  501    0  0.19882110829E+02  0.20115073248E+02 -0.21787097437E+03  0.21969905775E+03  0.00000000000E+00 0. -1.
          1    1    1    2  502    0 -0.19882110829E+02 -0.20115073248E+02 -0.10219764002E+04  0.10223676819E+04  0.00000000000E+00 0. -1.
</event>
<event>
 4    1  0.7416369E+003  0.3654090E+02  0.7546771E-02  0.1370042E+00
          2   -1    0    0  502    0  0.00000000000E+00  0.00000000000E+00  0.93940948293E+01  0.93940948293E+01  0.00000000000E+00 0. -1.
          1   -1    0    0  501    0 -0.00000000000E+00 -0.00000000000E+00 -0.73674926719E+03  0.73674926719E+03  0.00000000000E+00 0.  1.
          2    1    1    2  501    0  0.35926497779E+02 -0.66726472627E+01 -0.28519433952E+02  0.46352945723E+02  0.00000000000E+00 0. -1.
          1    1    1    2  502    0 -0.35926497779E+02  0.66726472627E+01 -0.69883573841E+03  0.69979041630E+03  0.00000000000E+00 0.  1.
</event>
<event>
 4    1  0.7416369E+003  0.2499072E+02  0.7546771E-02  0.1468907E+00
          2   -1    0    0  502    0  0.00000000000E+00  0.00000000000E+00  0.40810550372E+03  0.40810550372E+03  0.00000000000E+00 0.  1.
          1   -1    0    0  501    0 -0.00000000000E+00 -0.00000000000E+00 -0.86012250696E+01  0.86012250696E+01  0.00000000000E+00 0. -1.
          2    1    1    2  501    0  0.82197461849E+01  0.23600255412E+02  0.38866326842E+03  0.38946588105E+03  0.00000000000E+00 0.  1.
          1    1    1    2  502    0 -0.82197461849E+01 -0.23600255412E+02  0.10841010233E+02  0.27240847742E+02  0.00000000000E+00 0. -1.
</event>
<event>
 4    1  0.7416369E+003  0.2034430E+02  0.7546771E-02  0.1528836E+00
          2   -1    0    0  502    0  0.00000000000E+00  0.00000000000E+00  0.11502467648E+01  0.11502467648E+01  0.00000000000E+00 0.  1.
          1   -1    0    0  501    0 -0.00000000000E+00 -0.00000000000E+00 -0.37465933773E+03  0.37465933773E+03  0.00000000000E+00 0.  1.
          2    1    1    2  501    0 -0.69005761652E+01 -0.19138250638E+02 -0.14936803939E+03  0.15074714518E+03  0.00000000000E+00 0.  1.
          1    1    1    2  502    0  0.69005761652E+01  0.19138250638E+02 -0.22414105157E+03  0.22506243931E+03  0.00000000000E+00 0.  1.
</event>
<event>
 4    1  0.7416369E+003  0.2115654E+02  0.7546771E-02  0.1517041E+00
          2   -1    0    0  502    0  0.00000000000E+00  0.00000000000E+00  0.74736478846E+03  0.74736478846E+03  0.00000000000E+00 0. -1.
          1   -1    0    0  501    0 -0.00000000000E+00 -0.00000000000E+00 -0.89569959676E+02  0.89569959676E+02  0.00000000000E+00 0. -1.
          2    1    1    2  501    0  0.20798379628E+02  0.38764338218E+01  0.74596341520E+03  0.74626336916E+03  0.00000000000E+00 0. -1.
          1    1    1    2  502    0 -0.20798379628E+02 -0.38764338218E+01 -0.88168586417E+02  0.90671378974E+02  0.00000000000E+00 0. -1.
</event>
<event>
 4    1  0.7416369E+003  0.2345828E+02  0.7546771E-02  0.1486822E+00
          2   -1    0    0  502    0  0.00000000000E+00  0.00000000000E+00  0.46594131902E+02  0.46594131902E+02  0.00000000000E+00 0.  1.
          1   -1    0    0  501    0 -0.00000000000E+00 -0.00000000000E+00 -0.15095226489E+02  0.15095226489E+02  0.00000000000E+00 0.  1.
          2    1    1    2  501    0  0.17133178614E+02 -0.16023267639E+02  0.30138198141E+02  0.38191647024E+02  0.00000000000E+00 0.  1.
          1    1    1    2  502    0 -0.17133178614E+02  0.16023267639E+02  0.13607072725E+01  0.23497711368E+02  0.00000000000E+00 0.  1.
</event>
<event>
 4    1  0.7416369E+003  0.2237944E+02  0.7546771E-02  0.1500441E+00
          2   -1    0    0  502    0  0.00000000000E+00  0.00000000000E+00  0.81815680213E+01  0.81815680213E+01  0.00000000000E+00 0. -1.
          1   -1    0    0  501    0 -0.00000000000E+00 -0.00000000000E+00 -0.83122250848E+03  0.83122250848E+03  0.00000000000E+00 0. -1.
          2    1    1    2  501    0 -0.22287623483E+02  0.20251287532E+01 -0.75684804844E+01  0.23624588966E+02  0.00000000000E+00 0. -1.
          1    1    1    2  502    0  0.22287623483E+02 -0.20251287532E+01 -0.81547245998E+03  0.81577948754E+03  0.00000000000E+00 0. -1.
</event>
<event>
 4    1  0.7416369E+003  0.3174447E+02  0.7546771E-02  0.1405019E+00
          2   -1    0    0  502    0  0.00000000000E+00  0.00000000000E+00  0.34272920367E+03  0.34272920367E+03  0.00000000000E+00 0. -1.
          1   -1    0    0  501    0 -0.00000000000E+00 -0.00000000000E+00 -0.32011937921E+01  0.32011937921E+01  0.00000000000E+00 0. -1.
          2    1    1    2  501    0 -0.11182278242E+01 -0.31724768875E+02  0.21914635273E+03  0.22143359119E+03  0.00000000000E+00 0. -1.
          1    1    1    2  502    0  0.11182278242E+01  0.31724768875E+02  0.12038165716E+03  0.12449680628E+03  0.00000000000E+00 0. -1.
</event>
<event>
 4    1  0.7416369E+003  0.2312603E+02  0.7546771E-02  0.1490922E+00
          2   -1    0    0  502    0  0.00000000000E+00  0.00000000000E+00  0.10756421650E+01  0.10756421650E+01  0.00000000000E+00 0.  1.
          1   -1    0    0  501    0 -0.00000000000E+00 -0.00000000000E+00 -0.12475904030E+04  0.12475904030E+04  0.00000000000E+00 0.  1.
          2    1    1    2  501    0 -0.10244943446E+02 -0.20732926809E+02 -0.13905948502E+03  0.14096933530E+03  0.00000000000E+00 0.  1.
          1    1    1    2  502    0  0.10244943446E+02  0.20732926809E+02 -0.11074552759E+04  0.11076967099E+04  0.00000000000E+00 0.  1.
</event>
<event>
 4    1  0.7416369E+003  0.3727715E+02  0.7546771E-02  0.1365225E+00
          2   -1    0    0  502    0  0.00000000000E+00  0.00000000000E+00  0.62076491051E+01  0.62076491051E+01  0.00000000000E+00 0. -1.
          1   -1    0    0  501    0 -0.00000000000E+00 -0.00000000000E+00 -0.33788832616E+03  0.33788832616E+03  0.00000000000E+00 0.  1.
          2    1    1    2  501    0  0.77068668177E+01 -0.36471775593E+02 -0.65889324097E+02  0.75703297425E+02  0.00000000000E+00 0. -1.
          1    1    1    2  502    0 -0.77068668177E+01  0.36471775593E+02 -0.26579135295E+03  0.26839267784E+03  0.00000000000E+00 0.  1.
</event>
<event>
 4    1  0.7416369E+003  0.3911009E+02  0.7546771E-02  0.1353781E+00
          2   -1    0    0  502    0  0.00000000000E+00  0.00000000000E+00  0.18678102551E+03  0.18678102551E+03  0.00000000000E+00 0.  1.
          1   -1    0    0  501    0 -0.00000000000E+00 -0.00000000000E+00 -0.11743278222E+04  0.11743278222E+04  0.00000000000E+00 0. -1.
          2    1    1    2  501    0 -0.18499887489E+02  0.34457994230E+02  0.18440392502E+03  0.18850572078E+03  0.00000000000E+00 0.  1.
          1    1    1    2  502    0  0.18499887489E+02 -0.34457994230E+02 -0.11719507218E+04  0.11726031270E+04  0.00000000000E+00 0. -1.
</event>
<event>
 4    1  0.7416369E+003  0.2457193E+02  0.7546771E-02  0.1473650E+00
          2   -1    0    0  502    0  0.00000000000E+00  0.00000000000E+00  0.16625969695E+04  0.16625969695E+04  0.00000000000E+00 0.  1.
          1   -1    0    0  501    0 -0.00000000000E+00 -0.00000000000E+00 -0.51189309243E+00  0.51189309243E+00  0.00000000000E+00 0.  1.
          2    1    1    2  501    0  0.82609515359E+01  0.23141645895E+02  0.38279976189E+03  0.38358758687E+03  0.00000000000E+00 0.  1.
          1    1    1    2  502    0 -0.82609515359E+01 -0.23141645895E+02  0.12792853145E+04  0.12795212757E+04  0.00000000000E+00 0.  1.
</event>
<event>
 4    1  0.7416369E+003  0.2014880E+02  0.7546771E-02  0.1531773E+00
          2   -1    0    0  502    0  0.00000000000E+00  0.00000000000E+00  0.60664716939E+01  0.60664716939E+01  0.00000000000E+00 0.  1.
          1   -1    0    0  501    0 -0.00000000000E+00 -0.00000000000E+00 -0.51725404750E+03  0.51725404750E+03  0.00000000000E+00 0.  1.
          2    1    1    2  501    0  0.12986373186E+02 -0.15405461996E+02 -0.11446027586E+02  0.23172951804E+02  0.00000000000E+00 0.  1.
          1    1    1    2  502    0 -0.12986373186E+02  0.15405461996E+02 -0.49974154822E+03  0.50014756739E+03  0.00000000000E+00 0.  1.
</event>
<event>
 4    1  0.7416369E+003  0.2600471E+02  0.7546771E-02  0.1457871E+00
          2   -1    0    0  502    0  0.00000000000E+00  0.00000000000E+00  0.71354111385E+01  0.71354111385E+01  0.00000000000E+00 0.  1.
          1   -1    0    0  501    0 -0.00000000000E+00 -0.00000000000E+00 -0.11963595082E+03  0.11963595082E+03  0.00000000000E+00 0. -1.
          2    1    1    2  501    0  0.18951618451E+02  0.17806764119E+02 -0.27354372234E+02  0.37742633329E+02  0.00000000000E+00 0.  1.
          1    1    1    2  502    0 -0.18951618451E+02 -0.17806764119E+02 -0.85146167443E+02  0.89028728625E+02  0.00000000000E+00 0. -1.
</event>
<event>
 4    1  0.7416369E+003  0.2020523E+02  0.7546771E-02  0.1530921E+00
          2   -1    0    0  502    0  0.00000000000E+00  0.00000000000E+00  0.15039153091E+04  0.15039153091E+04  0.00000000000E+00 0.  1.
          1   -1    0    0  501    0 -0.00000000000E+00 -0.00000000000E+00 -0.15031198367E+01  0.15031198367E+01  0.00000000000E+00 0. -1.
          2    1    1    2  501    0 -0.12013732975E+01 -0.20169480257E+02  0.14325651137E+04  0.14327075963E+04  0.00000000000E+00 0.  1.
          1    1    1    2  502    0  0.12013732975E+01  0.20169480257E+02  0.69847075522E+02  0.72710832691E+02  0.00000000000E+00 0. -1.
</event>
<event>
 4    1  0.7416369E+003  0.3213776E+02  0.7546771E-02  0.1401886E+00
          2   -1    0    0  502    0  0.00000000000E+00  0.00000000000E+00  0.27177145592E+03  0.27177145592E+03  0.00000000000E+00 0.  1.
          1   -1    0    0  501    0 -0.00000000000E+00 -0.00000000000E+00 -0.85742745798E+01  0.85742745798E+01  0.00000000000E+00 0. -1.
          2    1    1    2  501    0  0.31911248276E+02 -0.38089505327E+01  0.23619131884E+03  0.23836773054E+03  0.00000000000E+00 0.  1.
          1    1    1    2  502    0 -0.31911248276E+02  0.38089505327E+01  0.27005862500E+02  0.41977999953E+02  0.00000000000E+00 0. -1.
</event>
<event>
 4    1  0.7416369E+003  0.2520881E+02  0.7546771E-02  0.1466481E+00
          2   -1    0    0  502    0  0.00000000000E+00  0.00000000000E+00  0.53658895299E+02  0.53658895299E+02  0.00000000000E+00 0. -1.
          1   -1    0    0  501    0 -0.00000000000E+00 -0.00000000000E+00 -0.11090299960E+03  0.11090299960E+03  0.00000000000E+00 0. -1.
          2    1    1    2  501    0 -0.11426497917E+02 -0.22470412606E+02  0.49141612145E+02  0.55230266535E+02  0.00000000000E+00 0. -1.
          1    1    1    2  502    0  0.11426497917E+02  0.22470412606E+02 -0.10638571644E+03  0.10933162836E+03  0.00000000000E+00 0. -1.
</event>
<event>
 4    1  0.7416369E+003  0.4407430E+02  0.7546771E-02  0.1326133E+00
          2   -1    0    0  502    0  0.00000000000E+00  0.00000000000E+00  0.16827706130E+01  0.16827706130E+01  0.00000000000E+00 0. -1.
          1   -1    0    0  501    0 -0.00000000000E+00 -0.00000000000E+00 -0.17930849403E+04  0.17930849403E+04  0.00000000000E+00 0. -1.
          2    1    1    2  501    0  0.43584432182E+02 -0.65528324254E+01 -0.14312891209E+04  0.14319675590E+04  0.00000000000E+00 0. -1.
          1    1    1    2  502    0 -0.43584432182E+02  0.65528324254E+01 -0.36011304873E+03  0.36280015188E+03  0.00000000000E+00 0. -1.
</event>
<event>
 4    1  0.7416369E+003  0.2470815E+02  0.7546771E-02  0.1472095E+00
          2   -1    0    0  502    0  0.00000000000E+00  0.00000000000E+00  0.87423576901E+03  0.87423576901E+03  0.00000000000E+00 0.  1.
          1   -1    0    0  501    0 -0.00000000000E+00 -0.00000000000E+00 -0.98268641263E+01  0.98268641263E+01  0.00000000000E+00 0. -1.
          2    1    1    2  501    0  0.79890859878E+01 -0.23380914624E+02  0.85824057403E+03  0.85859616559E+03  0.00000000000E+00 0.  1.
          1    1    1    2  502    0 -0.79890859878E+01  0.23380914624E+02  0.61683308554E+01  0.25466467543E+02  0.00000000000E+00 0. -1.
</event>
<event>
 4    1  0.7416369E+003  0.2050681E+02  0.7546771E-02  0.1526424E+00
          2   -1    0    0  502    0  0.00000000000E+00  0.00000000000E+00  0.65208607631E+02  0.65208607631E+02  0.00000000000E+00 0. -1.
          1   -1    0    0  501    0 -0.00000000000E+00 -0.00000000000E+00 -0.14511961931E+03  0.14511961931E+03  0.00000000000E+00 0.  1.
          2    1    1    2  501    0  0.19536593725E+02 -0.62330363364E+01  0.62845355438E+02  0.66106489367E+02  0.00000000000E+00 0. -1.
          1    1    1    2  502    0 -0.19536593725E+02  0.62330363364E+01 -0.14275636712E+03  0.14422173757E+03  0.00000000000E+00 0.  1.
</event>
<event>
 4    1  0.7416369E+003  0.2332078E+02  0.7546771E-02  0.1488509E+00
          2   -1    0    0  502    0  0.00000000000E+00  0.00000000000E+00  0.12533395298E+04  0.12533395298E+04  0.00000000000E+00 0. -1.
          1   -1    0    0  501    0 -0.00000000000E+00 -0.00000000000E+00 -0.45128430996E+00  0.45128430996E+00  0.00000000000E+00 0. -1.
          2    1    1    2  501    0 -0.14309176083E+01  0.23276832465E+02  0.50350070997E+03  0.50404049777E+03  0.00000000000E+00 0. -1.
          1    1    1    2  502    0  0.14309176083E+01 -0.23276832465E+02  0.74938753553E+03  0.74975031635E+03  0.00000000000E+00 0. -1.
</event>
<event>
 4    1  0.7416369E+003  0.2062682E+02  0.7546771E-02  0.1524660E+00
          2   -1    0    0  502    0  0.00000000000E+00  0.00000000000E+00  0.12481867512E+02  0.12481867512E+02  0.00000000000E+00 0. -1.
          1   -1    0    0  501    0 -0.00000000000E+00 -0.00000000000E+00 -0.13948775491E+04  0.13948775491E+04  0.00000000000E+00 0. -1.
          2    1    1    2  501    0  0.94140820143E+01 -0.18353224886E+02  0.38307560199E+01  0.20979525628E+02  0.00000000000E+00 0. -1.
          1    1    1    2  502    0 -0.94140820143E+01  0.18353224886E+02 -0.13862264376E+04  0.13863798910E+04  0.00000000000E+00 0. -1.
</event>
<event>
 4    1  0.7416369E+003  0.2998081E+02  0.7546771E-02  0.1419763E+00
          2   -1    0    0  502    0  0.00000000000E+00  0.00000000000E+00  0.50574961611E+03  0.50574961611E+03  0.00000000000E+00 0. -1.
          1   -1    0    0  501    0 -0.00000000000E+00 -0.00000000000E+00 -0.18729872038E+01  0.18729872038E+01  0.00000000000E+00 0.  1.
          2    1    1    2  501    0 -0.14502175188E+02  0.26239945936E+02  0.19455779914E+03  0.19685422286E+03  0.00000000000E+00 0. -1.
          1    1    1    2  502    0  0.14502175188E+02 -0.26239945936E+02  0.30931882976E+03  0.31076838046E+03  0.00000000000E+00 0.  1.
</event>
<event>
 4    1  0.7416369E+003  0.2078302E+02  0.7546771E-02  0.1522386E+00
          2   -1    0    0  502    0  0.00000000000E+00  0.00000000000E+00  0.13105097630E+03  0.13105097630E+03  0.00000000000E+00 0.  1.
          1   -1    0    0  501    0 -0.00000000000E+00 -0.00000000000E+00 -0.13497310013E+03  0.13497310013E+03  0.00000000000E+00 0.  1.
          2    1    1    2  501    0  0.20437983406E+02 -0.37712794127E+01  0.12941692211E+03  0.13107506797E+03  0.00000000000E+00 0.  1.
          1    1    1    2  502    0 -0.20437983406E+02  0.37712794127E+01 -0.13333904593E+03  0.13494900846E+03  0.00000000000E+00 0.  1.
</event>
<event>
 4    1  0.7416369E+003  0.2054641E+02  0.7546771E-02  0.1525840E+00
          2   -1    0    0  502    0  0.00000000000E+00  0.00000000000E+00  0.10219366234E+04  0.10219366234E+04  0.00000000000E+00 0. -1.
          1   -1    0    0  501    0 -0.00000000000E+00 -0.00000000000E+00 -0.49376295851E+00  0.49376295851E+00  0.00000000000E+00 0. -1.
          2    1    1    2  501    0  0.15182737786E+02 -0.13843391179E+02  0.71735460386E+03  0.71764878783E+03  0.00000000000E+00 0. -1.
          1    1    1    2  502    0 -0.15182737786E+02  0.13843391179E+02  0.30408825656E+03  0.30478159850E+03  0.00000000000E+00 0. -1.
</event>
<event>
 4    1  0.7416369E+003  0.2395631E+02  0.7546771E-02  0.1480827E+00
          2   -1    0    0  502    0  0.00000000000E+00  0.00000000000E+00  0.81720997322E+03  0.81720997322E+03  0.00000000000E+00 0.  1.
          1   -1    0    0  501    0 -0.00000000000E+00 -0.00000000000E+00 -0.60917259164E+02  0.60917259164E+02  0.00000000000E+00 0.  1.
          2    1    1    2  501    0 -0.14316540329E+01 -0.23913488622E+02  0.81467180594E+03  0.81502396036E+03  0.00000000000E+00 0.  1.
          1    1    1    2  502    0  0.14316540329E+01  0.23913488622E+02 -0.58379091881E+02  0.63103272025E+02  0.00000000000E+00 0.  1.
</event>
<event>
 4    1  0.7416369E+003  0.3662120E+02  0.7546771E-02  0.1369510E+00
          2   -1    0    0  502    0  0.00000000000E+00  0.00000000000E+00  0.58546180273E+03  0.58546180273E+03  0.00000000000E+00 0. -1.
          1   -1    0    0  501    0 -0.00000000000E+00 -0.00000000000E+00 -0.10616477381E+02  0.10616477381E+02  0.00000000000E+00 0.  1.
          2    1    1    2  501    0 -0.33195261730E+02  0.15465675291E+02  0.55135687857E+03  0.55257173295E+03  0.00000000000E+00 0. -1.
          1    1    1    2  502    0  0.33195261730E+02 -0.15465675291E+02  0.23488446782E+02  0.43506547159E+02  0.00000000000E+00 0.  1.
</event>
<event>
 4    1  0.7416369E+003  0.2143310E+02  0.7546771E-02  0.1513170E+00
          2   -1    0    0  502    0  0.00000000000E+00  0.00000000000E+00  0.10943332867E+04  0.10943332867E+04  0.00000000000E+00 0. -1.
          1   -1    0    0  501    0 -0.00000000000E+00 -0.00000000000E+00 -0.31250600629E+01  0.31250600629E+01  0.00000000000E+00 0.  1.
          2    1    1    2  501    0 -0.56891807998E+01  0.20664248873E+02  0.10561503447E+04  0.10563677998E+04  0.00000000000E+00 0. -1.
          1    1    1    2  502    0  0.56891807998E+01 -0.20664248873E+02  0.35057881966E+02  0.41090546937E+02  0.00000000000E+00 0.  1.
</event>
<event>
 4    1  0.7416369E+003  0.3098352E+02  0.7546771E-02  0.1411238E+00
          2   -1    0    0  502    0  0.00000000000E+00  0.00000000000E+00  0.76672293209E+03  0.76672293209E+03  0.00000000000E+00 0.  1.
          1   -1    0    0  501    0 -0.00000000000E+00 -0.00000000000E+00 -0.73994140506E+01  0.73994140506E+01  0.00000000000E+00 0. -1.
          2    1    1    2  501    0  0.29909480876E+02  0.80871357039E+01  0.73245906095E+03  0.73311408033E+03  0.00000000000E+00 0.  1.
          1    1    1    2  502    0 -0.29909480876E+02 -0.80871357039E+01  0.26864457092E+02  0.41008265814E+02  0.00000000000E+00 0. -1.
</event>
<event>
 4    1  0.7416369E+003  0.5619545E+02  0.7546771E-02  0.1273337E+00
          2   -1    0    0  502    0  0.00000000000E+00  0.00000000000E+00  0.10960862567E+04  0.10960862567E+04  0.00000000000E+00 0. -1.
          1   -1    0    0  501    0 -0.00000000000E+00 -0.00000000000E+00 -0.25257582258E+03  0.25257582258E+03  0.00000000000E+00 0. -1.
          2    1    1    2  501    0  0.28860238852E+02 -0.48218407410E+02  0.10922292294E+04  0.10936739083E+04  0.00000000000E+00 0. -1.
          1    1    1    2  502    0 -0.28860238852E+02  0.48218407410E+02 -0.24871879528E+03  0.25498817095E+03  0.00000000000E+00 0. -1.
</event>
<event>
 4    1  0.9050902E+003  0.2390307E+02  0.7546771E-02  0.1481459E+00
          2   -1    0    0  502    0  0.00000000000E+00  0.00000000000E+00  0.12666260467E+04  0.12666260467E+04  0.00000000000E+00 0.  1.
          1   -1    0    0  501    0 -0.00000000000E+00 -0.00000000000E+00 -0.22630795065E+03  0.22630795065E+03  0.00000000000E+00 0. -1.
          2    1    1    2  501    0  0.69761511256E+01 -0.22862415789E+02  0.12658817324E+04  0.12661073877E+04  0.00000000000E+00 0.  1.
          1    1    1    2  502    0 -0.69761511256E+01  0.22862415789E+02 -0.22556363643E+03  0.22682660959E+03  0.00000000000E+00 0. -1.
</event>
<event>
 4    1  0.7416369E+003  0.2366595E+02  0.7546771E-02  0.1484301E+00
          2   -1    0    0  502    0  0.00000000000E+00  0.00000000000E+00  0.10068373942E+04  0.10068373942E+04  0.00000000000E+00 0.  1.
          1   -1    0    0  501    0 -0.00000000000E+00 -0.00000000000E+00 -0.77244756966E+00  0.77244756966E+00  0.00000000000E+00 0.  1.
          2    1    1    2  501    0 -0.18736833236E+02 -0.14457111136E+02  0.76955239567E+03  0.76991620756E+03  0.00000000000E+00 0.  1.
          1    1    1    2  502    0  0.18736833236E+02  0.14457111136E+02  0.23651255100E+03  0.23769363425E+03  0.00000000000E+00 0.  1.
</event>
<event>
 4    1  0.7416369E+003  0.2369513E+02  0.7546771E-02  0.1483949E+00
          2   -1    0    0  502    0  0.00000000000E+00  0.00000000000E+00  0.25764892617E+03  0.25764892617E+03  0.00000000000E+00 0.  1.
          1   -1    0    0  501    0 -0.00000000000E+00 -0.00000000000E+00 -0.13303352259E+03  0.13303352259E+03  0.00000000000E+00 0.  1.
          2    1    1    2  501    0 -0.16932449927E+02 -0.16575626029E+02  0.25604242059E+03  0.25713650146E+03  0.00000000000E+00 0.  1.
          1    1    1    2  502    0  0.16932449927E+02  0.16575626029E+02 -0.13142701701E+03  0.13354594730E+03  0.00000000000E+00 0.  1.
</event>
<event>
 4    1  0.7416369E+003  0.2590035E+02  0.7546771E-02  0.1458978E+00
          2   -1    0    0  502    0  0.00000000000E+00  0.00000000000E+00  0.13833218918E+04  0.13833218918E+04  0.00000000000E+00 0.  1.
          1   -1    0    0  501    0 -0.00000000000E+00 -0.00000000000E+00 -0.70649730288E+02  0.70649730288E+02  0.00000000000E+00 0.  1.
          2    1    1    2  501    0  0.84261139619E+01 -0.24491398965E+02  0.13808225793E+04  0.13810654668E+04  0.00000000000E+00 0.  1.
          1    1    1    2  502    0 -0.84261139619E+01  0.24491398965E+02 -0.68150417851E+02  0.72906155247E+02  0.00000000000E+00 0.  1.
</event>
<event>
 4    1  0.7416369E+003  0.2545478E+02  0.7546771E-02  0.1463780E+00
          2   -1    0    0  502    0  0.00000000000E+00  0.00000000000E+00  0.51069992101E+01  0.51069992101E+01  0.00000000000E+00 0.  1.
          1   -1    0    0  501    0 -0.00000000000E+00 -0.00000000000E+00 -0.42300093024E+03  0.42300093024E+03  0.00000000000E+00 0. -1.
          2    1    1    2  501    0  0.93071033182E-01  0.25454605686E+02 -0.29848634258E+02  0.39228644890E+02  0.00000000000E+00 0.  1.
          1    1    1    2  502    0 -0.93071033182E-01 -0.25454605686E+02 -0.38804529677E+03  0.38887928456E+03  0.00000000000E+00 0. -1.
</event>
<event>
 4    1  0.7416369E+003  0.5325247E+02  0.7546771E-02  0.1284655E+00
          2   -1    0    0  502    0  0.00000000000E+00  0.00000000000E+00  0.82209360501E+01  0.82209360501E+01  0.00000000000E+00 0. -1.
          1   -1    0    0  501    0 -0.00000000000E+00 -0.00000000000E+00 -0.35727241994E+04  0.35727241994E+04  0.00000000000E+00 0.  1.
          2    1    1    2  501    0 -0.21253769183E+02  0.48827274445E+02 -0.80409042861E+02  0.96443971341E+02  0.00000000000E+00 0. -1.
          1    1    1    2  502    0  0.21253769183E+02 -0.48827274445E+02 -0.34840942205E+04  0.34845011641E+04  0.00000000000E+00 0.  1.
</event>
<event>
 4    1  0.7416369E+003  0.2151264E+02  0.7546771E-02  0.1512070E+00
          2   -1    0    0  502    0  0.00000000000E+00  0.00000000000E+00  0.33216572230E+03  0.33216572230E+03  0.00000000000E+00 0.  1.
          1   -1    0    0  501    0 -0.00000000000E+00 -0.00000000000E+00 -0.12719902401E+02  0.12719902401E+02  0.00000000000E+00 0. -1.
          2    1    1    2  501    0 -0.19589931983E+02  0.88897806454E+01  0.32244772178E+03  0.32316455083E+03  0.00000000000E+00 0.  1.
          1    1    1    2  502    0  0.19589931983E+02 -0.88897806454E+01 -0.30019018812E+01  0.21721073867E+02  0.00000000000E+00 0. -1.
</event>
<event>
 4    1  0.7416369E+003  0.2386866E+02  0.7546771E-02  0.1481869E+00
          2   -1    0    0  502    0  0.00000000000E+00  0.00000000000E+00  0.80008036170E+03  0.80008036170E+03  0.00000000000E+00 0. -1.
          1   -1    0    0  501    0 -0.00000000000E+00 -0.00000000000E+00 -0.75546327864E+00  0.75546327864E+00  0.00000000000E+00 0.  1.
          2    1    1    2  501    0  0.78031268959E+01 -0.22557126254E+02  0.49562927018E+03  0.49620367410E+03  0.00000000000E+00 0. -1.
          1    1    1    2  502    0 -0.78031268959E+01  0.22557126254E+02  0.30369562824E+03  0.30463215088E+03  0.00000000000E+00 0.  1.
</event>
<event>
 4    1  0.7416369E+003  0.2352448E+02  0.7546771E-02  0.1486015E+00
          2   -1    0    0  502    0  0.00000000000E+00  0.00000000000E+00  0.34154283111E+03  0.34154283111E+03  0.00000000000E+00 0.  1.
          1   -1    0    0  501    0 -0.00000000000E+00 -0.00000000000E+00 -0.34448426305E+03  0.34448426305E+03  0.00000000000E+00 0.  1.
          2    1    1    2  501    0  0.67127317980E+01 -0.22546405243E+02  0.34073519010E+03  0.34154629397E+03  0.00000000000E+00 0.  1.
          1    1    1    2  502    0 -0.67127317980E+01  0.22546405243E+02 -0.34367662204E+03  0.34448080018E+03  0.00000000000E+00 0.  1.
</event>
<event>
 4    1  0.7416369E+003  0.2474887E+02  0.7546771E-02  0.1471632E+00
          2   -1    0    0  502    0  0.00000000000E+00  0.00000000000E+00  0.16020594062E+04  0.16020594062E+04  0.00000000000E+00 0. -1.
          1   -1    0    0  501    0 -0.00000000000E+00 -0.00000000000E+00 -0.65765296724E+00  0.65765296724E+00  0.00000000000E+00 0. -1.
          2    1    1    2  501    0 -0.22716545090E+02  0.98216644499E+01  0.13192071963E+04  0.13194393254E+04  0.00000000000E+00 0. -1.
          1    1    1    2  502    0  0.22716545090E+02 -0.98216644499E+01  0.28219455688E+03  0.28327773377E+03  0.00000000000E+00 0. -1.
</event>
<event>
 4    1  0.7416369E+003  0.2450081E+02  0.7546771E-02  0.1474466E+00
          2   -1    0    0  502    0  0.00000000000E+00  0.00000000000E+00  0.11320132698E+04  0.11320132698E+04  0.00000000000E+00 0.  1.
          1   -1    0    0  501    0 -0.00000000000E+00 -0.00000000000E+00 -0.18878068213E+01  0.18878068213E+01  0.00000000000E+00 0.  1.
          2    1    1    2  501    0  0.22710210126E+01 -0.24395326520E+02  0.10458354653E+04  0.10461224163E+04  0.00000000000E+00 0.  1.
          1    1    1    2  502    0 -0.22710210126E+01  0.24395326520E+02  0.84289997767E+02  0.87778660368E+02  0.00000000000E+00 0.  1.
</event>
<event>
 4    1  0.7416369E+003  0.2040589E+02  0.7546771E-02  0.1527919E+00
          2   -1    0    0  502    0  0.00000000000E+00  0.00000000000E+00  0.10482999920E+03  0.10482999920E+03  0.00000000000E+00 0.  1.
          1   -1    0    0  501    0 -0.00000000000E+00 -0.00000000000E+00 -0.10861798481E+02  0.10861798481E+02  0.00000000000E+00 0. -1.
          2    1    1    2  501    0  0.20390544697E+02 -0.79112642937E+00  0.93054324133E+02  0.95265457716E+02  0.00000000000E+00 0.  1.
          1    1    1    2  502    0 -0.20390544697E+02  0.79112642937E+00  0.91387658804E+00  0.20426339968E+02  0.00000000000E+00 0. -1.
</event>
<event>
 4    1  0.7416369E+003  0.3557001E+02  0.7546771E-02  0.1376600E+00
          2   -1    0    0  502    0  0.00000000000E+00  0.00000000000E+00  0.38524400098E+03  0.38524400098E+03  0.00000000000E+00 0.  1.
          1   -1    0    0  501    0 -0.00000000000E+00 -0.00000000000E+00 -0.55923515644E+02  0.55923515644E+02  0.00000000000E+00 0. -1.
          2    1    1    2  501    0 -0.19879286343E+02  0.29496433115E+02  0.37866889829E+03  0.38033585174E+03  0.00000000000E+00 0.  1.
          1    1    1    2  502    0  0.19879286343E+02 -0.29496433115E+02 -0.49348412948E+02  0.60831664884E+02  0.00000000000E+00 0. -1.
</event>
<event>
 4    1  0.7416369E+003  0.2851744E+02  0.7546771E-02  0.1432933E+00
          2   -1    0    0  502    0  0.00000000000E+00  0.00000000000E+00  0.48440695775E+02  0.48440695775E+02  0.00000000000E+00 0.  1.
          1   -1    0    0  501    0 -0.00000000000E+00 -0.00000000000E+00 -0.37076391311E+02  0.37076391311E+02  0.00000000000E+00 0.  1.
          2    1    1    2  501    0  0.14952506619E+02  0.24283058698E+02  0.37311710157E+02  0.46961772845E+02  0.00000000000E+00 0.  1.
          1    1    1    2  502    0 -0.14952506619E+02 -0.24283058698E+02 -0.25947405693E+02  0.38555314240E+02  0.00000000000E+00 0.  1.
</event>
<event>
 4    1  0.7416369E+003  0.3674612E+02  0.7546771E-02  0.1368686E+00
          2   -1    0    0  502    0  0.00000000000E+00  0.00000000000E+00  0.81244413385E+02  0.81244413385E+02  0.00000000000E+00 0.  1.
          1   -1    0    0  501    0 -0.00000000000E+00 -0.00000000000E+00 -0.14090512811E+04  0.14090512811E+04  0.00000000000E+00 0.  1.
          2    1    1    2  501    0 -0.82302889112E+01  0.35812563478E+02  0.76836820471E+02  0.85171440862E+02  0.00000000000E+00 0.  1.
          1    1    1    2  502    0  0.82302889112E+01 -0.35812563478E+02 -0.14046436882E+04  0.14051242536E+04  0.00000000000E+00 0.  1.
</event>
<event>
 4    1  0.7416369E+003  0.2002971E+02  0.7546771E-02  0.1533582E+00
          2   -1    0    0  502    0  0.00000000000E+00  0.00000000000E+00  0.11503297116E+04  0.11503297116E+04  0.00000000000E+00 0. -1.
          1   -1    0    0  501    0 -0.00000000000E+00 -0.00000000000E+00 -0.24773025695E+02  0.24773025695E+02  0.00000000000E+00 0.  1.
          2    1    1    2  501    0 -0.57233883205E+01 -0.19194585276E+02  0.11461792114E+04  0.11463542097E+04  0.00000000000E+00 0. -1.
          1    1    1    2  502    0  0.57233883205E+01  0.19194585276E+02 -0.20622525572E+02  0.28748527593E+02  0.00000000000E+00 0.  1.
</event>
<event>
 4    1  0.7416369E+003  0.2202973E+02  0.7546771E-02  0.1505055E+00
          2   -1    0    0  502    0  0.00000000000E+00  0.00000000000E+00  0.48506727087E+01  0.48506727087E+01  0.00000000000E+00 0. -1.
          1   -1    0    0  501    0 -0.00000000000E+00 -0.00000000000E+00 -0.44447490488E+03  0.44447490488E+03  0.00000000000E+00 0.  1.
          2    1    1    2  501    0 -0.17138181445E+02 -0.13841668531E+02 -0.22044629449E+02  0.31165280979E+02  0.00000000000E+00 0. -1.
          1    1    1    2  502    0  0.17138181445E+02  0.13841668531E+02 -0.41757960272E+03  0.41816029661E+03  0.00000000000E+00 0.  1.
</event>
<event>
 4    1  0.7416369E+003  0.2131471E+02  0.7546771E-02  0.1514819E+00
          2   -1    0    0  502    0  0.00000000000E+00  0.00000000000E+00  0.14529675025E+02  0.14529675025E+02  0.00000000000E+00 0.  1.
          1   -1    0    0  501    0 -0.00000000000E+00 -0.00000000000E+00 -0.52495667781E+02  0.52495667781E+02  0.00000000000E+00 0.  1.
          2    1    1    2  501    0 -0.52837124548E+01 -0.20649438035E+02  0.23276353439E+01  0.21441427069E+02  0.00000000000E+00 0.  1.
          1    1    1    2  502    0  0.52837124548E+01  0.20649438035E+02 -0.40293628100E+02  0.45583915737E+02  0.00000000000E+00 0.  1.
</event>
<event>
 4    1  0.7416369E+003  0.3862005E+02  0.7546771E-02  0.1356768E+00
          2   -1    0    0  502    0  0.00000000000E+00  0.00000000000E+00  0.10779146678E+03  0.10779146678E+03  0.00000000000E+00 0.  1.
          1   -1    0    0  501    0 -0.00000000000E+00 -0.00000000000E+00 -0.47903340611E+02  0.47903340611E+02  0.00000000000E+00 0. -1.
          2    1    1    2  501    0  0.94253733247E+01 -0.37452239507E+02  0.95592460645E+02  0.10309910979E+03  0.00000000000E+00 0.  1.
          1    1    1    2  502    0 -0.94253733247E+01  0.37452239507E+02 -0.35704334476E+02  0.52595697607E+02  0.00000000000E+00 0. -1.
</event>
<event>
 4    1  0.7416369E+003  0.2522819E+02  0.7546771E-02  0.1466267E+00
          2   -1    0    0  502    0  0.00000000000E+00  0.00000000000E+00  0.99080440279E+02  0.99080440279E+02  0.00000000000E+00 0. -1.
          1   -1    0    0  501    0 -0.00000000000E+00 -0.00000000000E+00 -0.39711197031E+02  0.39711197031E+02  0.00000000000E+00 0. -1.
          2    1    1    2  501    0 -0.18507109345E+02 -0.17144919464E+02  0.93220274095E+02  0.96573706888E+02  0.00000000000E+00 0. -1.
          1    1    1    2  502    0  0.18507109345E+02  0.17144919464E+02 -0.33851030847E+02  0.42217930422E+02  0.00000000000E+00 0. -1.
</event>
<event>
 4    1  0.1526082E+004  0.3131858E+02  0.7546771E-02  0.1408474E+00
          2   -1    0    0  502    0  0.00000000000E+00  0.00000000000E+00  0.13111891958E+04  0.13111891958E+04  0.00000000000E+00 0.  1.
          1   -1    0    0  501    0 -0.00000000000E+00 -0.00000000000E+00 -0.53594269405E+03  0.53594269405E+03  0.00000000000E+00 0.  1.
          2    1    1    2  501    0 -0.24274428332E+01  0.31224361912E+02  0.13105444183E+04  0.13109185808E+04  0.00000000000E+00 0.  1.
          1    1    1    2  502    0  0.24274428332E+01 -0.31224361912E+02 -0.53529791657E+03  0.53621330899E+03  0.00000000000E+00 0.  1.
</event>
<event>
 4    1  0.7416369E+003  0.2070313E+02  0.7546771E-02  0.1523546E+00
          2   -1    0    0  502    0  0.00000000000E+00  0.00000000000E+00  0.76162123802E+00  0.76162123802E+00  0.00000000000E+00 0.  1.
          1   -1    0    0  501    0 -0.00000000000E+00 -0.00000000000E+00 -0.62562335549E+03  0.62562335549E+03  0.00000000000E+00 0.  1.
          2    1    1    2  501    0 -0.22808157185E+01 -0.20577100685E+02 -0.41169944420E+03  0.41221966419E+03  0.00000000000E+00 0.  1.
          1    1    1    2  502    0  0.22808157185E+01  0.20577100685E+02 -0.21316229005E+03  0.21416531253E+03  0.00000000000E+00 0.  1.
</event>
<event>
 4    1  0.7878844E+003  0.2149752E+02  0.7546771E-02  0.1512279E+00
          2   -1    0    0  502    0  0.00000000000E+00  0.00000000000E+00  0.54937451397E+03  0.54937451397E+03  0.00000000000E+00 0. -1.
          1   -1    0    0  501    0 -0.00000000000E+00 -0.00000000000E+00 -0.37091976875E+03  0.37091976875E+03  0.00000000000E+00 0. -1.
          2    1    1    2  501    0 -0.10531087764E+02  0.18741380489E+02  0.54885242898E+03  0.54927327620E+03  0.00000000000E+00 0. -1.
          1    1    1    2  502    0  0.10531087764E+02 -0.18741380489E+02 -0.37039768375E+03  0.37102100652E+03  0.00000000000E+00 0. -1.
</event>
<event>
 4    1  0.7416369E+003  0.2023655E+02  0.7546771E-02  0.1530450E+00
          2   -1    0    0  502    0  0.00000000000E+00  0.00000000000E+00  0.65719425567E+00  0.65719425567E+00  0.00000000000E+00 0.  1.
          1   -1    0    0  501    0 -0.00000000000E+00 -0.00000000000E+00 -0.16218314261E+04  0.16218314261E+04  0.00000000000E+00 0.  1.
          2    1    1    2  501    0 -0.11010633515E+02 -0.16978924974E+02 -0.17398733924E+03  0.17516024709E+03  0.00000000000E+00 0.  1.
          1    1    1    2  502    0  0.11010633515E+02  0.16978924974E+02 -0.14471868926E+04  0.14473283733E+04  0.00000000000E+00 0.  1.
</event>
<event>
 4    1  0.7416369E+003  0.2351253E+02  0.7546771E-02  0.1486161E+00
          2   -1    0    0  502    0  0.00000000000E+00  0.00000000000E+00  0.50056390059E+01  0.50056390059E+01  0.00000000000E+00 0. -1.
          1   -1    0    0  501    0 -0.00000000000E+00 -0.00000000000E+00 -0.70726385519E+03  0.70726385519E+03  0.00000000000E+00 0. -1.
          2    1    1    2  501    0 -0.23179800940E+02  0.39415309719E+01 -0.23980154339E+02  0.33584023585E+02  0.00000000000E+00 0. -1.
          1    1    1    2  502    0  0.23179800940E+02 -0.39415309719E+01 -0.67827806184E+03  0.67868547061E+03  0.00000000000E+00 0. -1.
</event>
<event>
 4    1  0.7416369E+003  0.3067248E+02  0.7546771E-02  0.1413841E+00
          2   -1    0    0  502    0  0.00000000000E+00  0.00000000000E+00  0.21365248510E+04  0.21365248510E+04  0.00000000000E+00 0.  1.
          1   -1    0    0  501    0 -0.00000000000E+00 -0.00000000000E+00 -0.17176794124E+02  0.17176794124E+02  0.00000000000E+00 0. -1.
          2    1    1    2  501    0 -0.51462438541E+01 -0.30237683533E+02  0.21226322381E+04  0.21228538385E+04  0.00000000000E+00 0.  1.
          1    1    1    2  502    0  0.51462438541E+01  0.30237683533E+02 -0.32841811826E+01  0.30847806686E+02  0.00000000000E+00 0. -1.
</event>
<event>
 4    1  0.7416369E+003  0.2208124E+02  0.7546771E-02  0.1504369E+00
          2   -1    0    0  502    0  0.00000000000E+00  0.00000000000E+00  0.14679887259E+03  0.14679887259E+03  0.00000000000E+00 0. -1.
          1   -1    0    0  501    0 -0.00000000000E+00 -0.00000000000E+00 -0.11381451353E+02  0.11381451353E+02  0.00000000000E+00 0.  1.
          2    1    1    2  501    0 -0.20534706061E+02  0.81183001047E+01  0.13426543865E+03  0.13606905954E+03  0.00000000000E+00 0. -1.
          1    1    1    2  502    0  0.20534706061E+02 -0.81183001047E+01  0.11519825923E+01  0.22111264403E+02  0.00000000000E+00 0.  1.
</event>
<event>
 4    1  0.7416369E+003  0.3028990E+02  0.7546771E-02  0.1417094E+00
          2   -1    0    0  502    0  0.00000000000E+00  0.00000000000E+00  0.14013053174E+02  0.14013053174E+02  0.00000000000E+00 0. -1.
          1   -1    0    0  501    0 -0.00000000000E+00 -0.00000000000E+00 -0.15315246867E+03  0.15315246867E+03  0.00000000000E+00 0.  1.
          2    1    1    2  501    0  0.16390485253E+02  0.25472146196E+02 -0.63280300691E+01  0.30943855661E+02  0.00000000000E+00 0. -1.
          1    1    1    2  502    0 -0.16390485253E+02 -0.25472146196E+02 -0.13281138542E+03  0.13622166618E+03  0.00000000000E+00 0.  1.
</event>
<event>
 4    1  0.7416369E+003  0.2170954E+02  0.7546771E-02  0.1509371E+00
          2   -1    0    0  502    0  0.00000000000E+00  0.00000000000E+00  0.29127739653E+00  0.29127739653E+00  0.00000000000E+00 0. -1.
          1   -1    0    0  501    0 -0.00000000000E+00 -0.00000000000E+00 -0.16551668013E+04  0.16551668013E+04  0.00000000000E+00 0. -1.
          2    1    1    2  501    0  0.58854235156E+01  0.20896541685E+02 -0.95137645823E+03  0.95162412167E+03  0.00000000000E+00 0. -1.
          1    1    1    2  502    0 -0.58854235156E+01 -0.20896541685E+02 -0.70349906570E+03  0.70383395705E+03  0.00000000000E+00 0. -1.
</event>
<event>
 4    1  0.7416369E+003  0.2346975E+02  0.7546771E-02  0.1486682E+00
          2   -1    0    0  502    0  0.00000000000E+00  0.00000000000E+00  0.93011833380E+02  0.93011833380E+02  0.00000000000E+00 0. -1.
          1   -1    0    0  501    0 -0.00000000000E+00 -0.00000000000E+00 -0.13419976903E+02  0.13419976903E+02  0.00000000000E+00 0. -1.
          2    1    1    2  501    0  0.14229778515E+02  0.18663942180E+02  0.79573062436E+02  0.82962049153E+02  0.00000000000E+00 0. -1.
          1    1    1    2  502    0 -0.14229778515E+02 -0.18663942180E+02  0.18794041201E-01  0.23469761130E+02  0.00000000000E+00 0. -1.
</event>
<event>
 4    1  0.7416369E+003  0.2005298E+02  0.7546771E-02  0.1533227E+00
          2   -1    0    0  502    0  0.00000000000E+00  0.00000000000E+00  0.83333339719E+03  0.83333339719E+03  0.00000000000E+00 0. -1.
          1   -1    0    0  501    0 -0.00000000000E+00 -0.00000000000E+00 -0.14001229861E+03  0.14001229861E+03  0.00000000000E+00 0.  1.
          2    1    1    2  501    0  0.19904643253E+02  0.24346154809E+01  0.83249402447E+03  0.83273550600E+03  0.00000000000E+00 0. -1.
          1    1    1    2  502    0 -0.19904643253E+02 -0.24346154809E+01 -0.13917292589E+03  0.14061018980E+03  0.00000000000E+00 0.  1.
</event>
<event>
 4    1  0.7416369E+003  0.2123826E+02  0.7546771E-02  0.1515890E+00
          2   -1    0    0  502    0  0.00000000000E+00  0.00000000000E+00  0.14044069921E+03  0.14044069921E+03  0.00000000000E+00 0. -1.
          1   -1    0    0  501    0 -0.00000000000E+00 -0.00000000000E+00 -0.12039236305E+04  0.12039236305E+04  0.00000000000E+00 0.  1.
          2    1    1    2  501    0 -0.97613825719E+01 -0.18862109712E+02  0.13954349159E+03  0.14115045100E+03  0.00000000000E+00 0. -1.
          1    1    1    2  502    0  0.97613825719E+01  0.18862109712E+02 -0.12030264229E+04  0.12032138787E+04  0.00000000000E+00 0.  1.
</event>
<event>
 4    1  0.7416369E+003  0.2139588E+02  0.7546771E-02  0.1513687E+00
          2   -1    0    0  502    0  0.00000000000E+00  0.00000000000E+00  0.39244051824E+01  0.39244051824E+01  0.00000000000E+00 0. -1.
          1   -1    0    0  501    0 -0.00000000000E+00 -0.00000000000E+00 -0.14569169140E+04  0.14569169140E+04  0.00000000000E+00 0.  1.
          2    1    1    2  501    0  0.76853010937E+01  0.19967968511E+02 -0.25926745010E+02  0.33615171072E+02  0.00000000000E+00 0. -1.
          1    1    1    2  502    0 -0.76853010937E+01 -0.19967968511E+02 -0.14270657638E+04  0.14272261481E+04  0.00000000000E+00 0.  1.
</event>
<event>
 4    1  0.7416369E+003  0.2059090E+02  0.7546771E-02  0.1525187E+00
          2   -1    0    0  502    0  0.00000000000E+00  0.00000000000E+00  0.10347992536E+04  0.10347992536E+04  0.00000000000E+00 0. -1.
          1   -1    0    0  501    0 -0.00000000000E+00 -0.00000000000E+00 -0.30282772818E+01  0.30282772818E+01  0.00000000000E+00 0.  1.
          2    1    1    2  501    0  0.73751533987E+01  0.19224783259E+02  0.99841939112E+03  0.99863169674E+03  0.00000000000E+00 0. -1.
          1    1    1    2  502    0 -0.73751533987E+01 -0.19224783259E+02  0.33351585244E+02  0.39195834182E+02  0.00000000000E+00 0.  1.
</event>
<event>
 4    1  0.7416369E+003  0.3379497E+02  0.7546771E-02  0.1389239E+00
          2   -1    0    0  502    0  0.00000000000E+00  0.00000000000E+00  0.30090463115E+03  0.30090463115E+03  0.00000000000E+00 0. -1.
          1   -1    0    0  501    0 -0.00000000000E+00 -0.00000000000E+00 -0.10197047086E+03  0.10197047086E+03  0.00000000000E+00 0. -1.
          2    1    1    2  501    0 -0.71309681244E+01 -0.33034067015E+02  0.29712011531E+03  0.29903588951E+03  0.00000000000E+00 0. -1.
          1    1    1    2  502    0  0.71309681244E+01  0.33034067015E+02 -0.98185955019E+02  0.10383921250E+03  0.00000000000E+00 0. -1.
</event>
<event>
 4    1  0.7416369E+003  0.2450387E+02  0.7546771E-02  0.1474431E+00
          2   -1    0    0  502    0  0.00000000000E+00  0.00000000000E+00  0.41818658572E+02  0.41818658572E+02  0.00000000000E+00 0. -1.
          1   -1    0    0  501    0 -0.00000000000E+00 -0.00000000000E+00 -0.13050685185E+03  0.13050685185E+03  0.00000000000E+00 0.  1.
          2    1    1    2  501    0  0.23911139254E+02 -0.53569425144E+01  0.36940838517E+02  0.44329053270E+02  0.00000000000E+00 0. -1.
          1    1    1    2  502    0 -0.23911139254E+02  0.53569425144E+01 -0.12562903179E+03  0.12799645715E+03  0.00000000000E+00 0.  1.
</event>
<event>
 4    1  0.7416369E+003  0.2372386E+02  0.7546771E-02  0.1483603E+00
          2   -1    0    0  502    0  0.00000000000E+00  0.00000000000E+00  0.43856735219E+01  0.43856735219E+01  0.00000000000E+00 0.  1.
          1   -1    0    0  501    0 -0.00000000000E+00 -0.00000000000E+00 -0.52802339642E+03  0.52802339642E+03  0.00000000000E+00 0.  1.
          2    1    1    2  501    0 -0.23692033855E+02  0.12285288755E+01 -0.30212049372E+02  0.38413404934E+02  0.00000000000E+00 0.  1.
          1    1    1    2  502    0  0.23692033855E+02 -0.12285288755E+01 -0.49342567353E+03  0.49399566501E+03  0.00000000000E+00 0.  1.
</event>
<event>
 4    1  0.7416369E+003  0.3818090E+02  0.7546771E-02  0.1359488E+00
          2   -1    0    0  502    0  0.00000000000E+00  0.00000000000E+00  0.11439012449E+04  0.11439012449E+04  0.00000000000E+00 0. -1.
          1   -1    0    0  501    0 -0.00000000000E+00 -0.00000000000E+00 -0.79178380157E+01  0.79178380157E+01  0.00000000000E+00 0. -1.
          2    1    1    2  501    0  0.22270546725E+02 -0.31012963714E+02  0.10955222338E+04  0.10961873681E+04  0.00000000000E+00 0. -1.
          1    1    1    2  502    0 -0.22270546725E+02  0.31012963714E+02  0.40461173104E+02  0.55631714864E+02  0.00000000000E+00 0. -1.
</event>
<event>
 4    1  0.7416369E+003  0.3856367E+02  0.7546771E-02  0.1357115E+00
          2   -1    0    0  502    0  0.00000000000E+00  0.00000000000E+00  0.80147784639E+03  0.80147784639E+03  0.00000000000E+00 0.  1.
          1   -1    0    0  501    0 -0.00000000000E+00 -0.00000000000E+00 -0.34130168361E+03  0.34130168361E+03  0.00000000000E+00 0.  1.
          2    1    1    2  501    0  0.61872345006E+01  0.38064083815E+02  0.79992252332E+03  0.80085154658E+03  0.00000000000E+00 0.  1.
          1    1    1    2  502    0 -0.61872345006E+01 -0.38064083815E+02 -0.33974636053E+03  0.34192798342E+03  0.00000000000E+00 0.  1.
</event>
<event>
 4    1  0.7416369E+003  0.2542240E+02  0.7546771E-02  0.1464133E+00
          2   -1    0    0  502    0  0.00000000000E+00  0.00000000000E+00  0.13951879316E+02  0.13951879316E+02  0.00000000000E+00 0. -1.
          1   -1    0    0  501    0 -0.00000000000E+00 -0.00000000000E+00 -0.12829073816E+03  0.12829073816E+03  0.00000000000E+00 0. -1.
          2    1    1    2  501    0 -0.17577756850E+02  0.18366299028E+02 -0.32047183742E+00  0.25424420899E+02  0.00000000000E+00 0. -1.
          1    1    1    2  502    0  0.17577756850E+02 -0.18366299028E+02 -0.11401838701E+03  0.11681819658E+03  0.00000000000E+00 0. -1.
</event>
<event>
 4    1  0.7416369E+003  0.2344340E+02  0.7546771E-02  0.1487004E+00
          2   -1    0    0  502    0  0.00000000000E+00  0.00000000000E+00  0.20169614875E+02  0.20169614875E+02  0.00000000000E+00 0. -1.
          1   -1    0    0  501    0 -0.00000000000E+00 -0.00000000000E+00 -0.34790944628E+03  0.34790944628E+03  0.00000000000E+00 0. -1.
          2    1    1    2  501    0 -0.21896803949E+02 -0.83739598826E+01  0.12815617671E+02  0.26717658647E+02  0.00000000000E+00 0. -1.
          1    1    1    2  502    0  0.21896803949E+02  0.83739598826E+01 -0.34055544907E+03  0.34136140250E+03  0.00000000000E+00 0. -1.
</event>
<event>
 4    1  0.7416369E+003  0.3117225E+02  0.7546771E-02  0.1409676E+00
          2   -1    0    0  502    0  0.00000000000E+00  0.00000000000E+00  0.19358086386E+03  0.19358086386E+03  0.00000000000E+00 0.  1.
          1   -1    0    0  501    0 -0.00000000000E+00 -0.00000000000E+00 -0.24051816619E+03  0.24051816619E+03  0.00000000000E+00 0. -1.
          2    1    1    2  501    0 -0.31094357634E+02  0.22022381535E+01  0.19130399193E+03  0.19382705244E+03  0.00000000000E+00 0.  1.
          1    1    1    2  502    0  0.31094357634E+02 -0.22022381535E+01 -0.23824129427E+03  0.24027197761E+03  0.00000000000E+00 0. -1.
</event>
<event>
 4    1  0.7416369E+003  0.3585284E+02  0.7546771E-02  0.1374665E+00
          2   -1    0    0  502    0  0.00000000000E+00  0.00000000000E+00  0.21331243847E+03  0.21331243847E+03  0.00000000000E+00 0. -1.
          1   -1    0    0  501    0 -0.00000000000E+00 -0.00000000000E+00 -0.48339705197E+02  0.48339705197E+02  0.00000000000E+00 0. -1.
          2    1    1    2  501    0  0.10193116202E+02 -0.34373336003E+02  0.20488673033E+03  0.20799999546E+03  0.00000000000E+00 0. -1.
          1    1    1    2  502    0 -0.10193116202E+02  0.34373336003E+02 -0.39913997059E+02  0.53652148205E+02  0.00000000000E+00 0. -1.
</event>
<event>
 4    1  0.7416369E+003  0.2217243E+02  0.7546771E-02  0.1503160E+00
          2   -1    0    0  502    0  0.00000000000E+00  0.00000000000E+00  0.17669209253E+02  0.17669209253E+02  0.00000000000E+00 0. -1.
          1   -1    0    0  501    0 -0.00000000000E+00 -0.00000000000E+00 -0.65569524597E+02  0.65569524597E+02  0.00000000000E+00 0. -1.
          2    1    1    2  501    0 -0.12259814145E+02 -0.18474677345E+02  0.76275699913E+01  0.23447741253E+02  0.00000000000E+00 0. -1.
          1    1    1    2  502    0  0.12259814145E+02  0.18474677345E+02 -0.55527885336E+02  0.59790992597E+02  0.00000000000E+00 0. -1.
</event>
<event>
 4    1  0.7416369E+003  0.2039210E+02  0.7546771E-02  0.1528124E+00
          2   -1    0    0  502    0  0.00000000000E+00  0.00000000000E+00  0.11424340739E+03  0.11424340739E+03  0.00000000000E+00 0. -1.
          1   -1    0    0  501    0 -0.00000000000E+00 -0.00000000000E+00 -0.44308820005E+02  0.44308820005E+02  0.00000000000E+00 0. -1.
          2    1    1    2  501    0  0.39099412825E-01  0.20392060524E+02  0.11091740861E+03  0.11277636807E+03  0.00000000000E+00 0. -1.
          1    1    1    2  502    0 -0.39099412825E-01 -0.20392060524E+02 -0.40982821229E+02  0.45775859326E+02  0.00000000000E+00 0. -1.
</event>
<event>
 4    1  0.7416369E+003  0.2213952E+02  0.7546771E-02  0.1503595E+00
          2   -1    0    0  502    0  0.00000000000E+00  0.00000000000E+00  0.15499316616E+02  0.15499316616E+02  0.00000000000E+00 0. -1.
          1   -1    0    0  501    0 -0.00000000000E+00 -0.00000000000E+00 -0.48980050952E+02  0.48980050952E+02  0.00000000000E+00 0. -1.
          2    1    1    2  501    0  0.35426761979E+01 -0.21854239595E+02  0.24507472383E+01  0.22274750391E+02  0.00000000000E+00 0. -1.
          1    1    1    2  502    0 -0.35426761979E+01  0.21854239595E+02 -0.35931481575E+02  0.42204617178E+02  0.00000000000E+00 0. -1.
</event>
<event>
 4    1  0.7416369E+003  0.2899003E+02  0.7546771E-02  0.1428581E+00
          2   -1    0    0  502    0  0.00000000000E+00  0.00000000000E+00  0.89358153174E+03  0.89358153174E+03  0.00000000000E+00 0.  1.
          1   -1    0    0  501    0 -0.00000000000E+00 -0.00000000000E+00 -0.13455814673E+02  0.13455814673E+02  0.00000000000E+00 0. -1.
          2    1    1    2  501    0  0.25860527457E+02  0.13101722928E+02  0.87744484720E+03  0.87792361963E+03  0.00000000000E+00 0.  1.
          1    1    1    2  502    0 -0.25860527457E+02 -0.13101722928E+02  0.26808698681E+01  0.29113726785E+02  0.00000000000E+00 0. -1.
</event>
<event>
 4    1  0.7416369E+003  0.2653476E+02  0.7546771E-02  0.1452338E+00
          2   -1    0    0  502    0  0.00000000000E+00  0.00000000000E+00  0.16530859772E+01  0.16530859772E+01  0.00000000000E+00 0.  1.
          1   -1    0    0  501    0 -0.00000000000E+00 -0.00000000000E+00 -0.55483673752E+03  0.55483673752E+03  0.00000000000E+00 0.  1.
          2    1    1    2  501    0  0.89006749212E+01  0.24997426683E+02 -0.14247350845E+03  0.14492340724E+03  0.00000000000E+00 0.  1.
          1    1    1    2  502    0 -0.89006749212E+01 -0.24997426683E+02 -0.41071014309E+03  0.41156641625E+03  0.00000000000E+00 0.  1.
</event>
<event>
 4    1  0.7416369E+003  0.2216670E+02  0.7546771E-02  0.1503236E+00
          2   -1    0    0  502    0  0.00000000000E+00  0.00000000000E+00  0.38703318809E+03  0.38703318809E+03  0.00000000000E+00 0.  1.
          1   -1    0    0  501    0 -0.00000000000E+00 -0.00000000000E+00 -0.11544454149E+03  0.11544454149E+03  0.00000000000E+00 0.  1.
          2    1    1    2  501    0 -0.15389436003E+02 -0.15953930021E+02  0.38564791215E+03  0.38628444801E+03  0.00000000000E+00 0.  1.
          1    1    1    2  502    0  0.15389436003E+02  0.15953930021E+02 -0.11405926556E+03  0.11619328158E+03  0.00000000000E+00 0.  1.
</event>
<event>
 4    1  0.7416369E+003  0.2247963E+02  0.7546771E-02  0.1499138E+00
          2   -1    0    0  502    0  0.00000000000E+00  0.00000000000E+00  0.62493113762E+02  0.62493113762E+02  0.00000000000E+00 0.  1.
          1   -1    0    0  501    0 -0.00000000000E+00 -0.00000000000E+00 -0.31354312658E+02  0.31354312658E+02  0.00000000000E+00 0.  1.
          2    1    1    2  501    0  0.17315988482E+02 -0.14334936230E+02  0.55991978217E+02  0.60336021400E+02  0.00000000000E+00 0.  1.
          1    1    1    2  502    0 -0.17315988482E+02  0.14334936230E+02 -0.24853177112E+02  0.33511405020E+02  0.00000000000E+00 0.  1.
</event>
<event>
 4    1  0.7416369E+003  0.2303926E+02  0.7546771E-02  0.1492006E+00
          2   -1    0    0  502    0  0.00000000000E+00  0.00000000000E+00  0.59675328200E+03  0.59675328200E+03  0.00000000000E+00 0. -1.
          1   -1    0    0  501    0 -0.00000000000E+00 -0.00000000000E+00 -0.93628014071E+01  0.93628014071E+01  0.00000000000E+00 0.  1.
          2    1    1    2  501    0  0.20901513760E+02  0.96919692429E+01  0.58199841684E+03  0.58245425980E+03  0.00000000000E+00 0. -1.
          1    1    1    2  502    0 -0.20901513760E+02 -0.96919692429E+01  0.53920637527E+01  0.23661823615E+02  0.00000000000E+00 0.  1.
</event>
<event>
 4    1  0.7416369E+003  0.3016979E+02  0.7546771E-02  0.1418127E+00
          2   -1    0    0  502    0  0.00000000000E+00  0.00000000000E+00  0.23889459679E+03  0.23889459679E+03  0.00000000000E+00 0.  1.
          1   -1    0    0  501    0 -0.00000000000E+00 -0.00000000000E+00 -0.82294856263E+02  0.82294856263E+02  0.00000000000E+00 0. -1.
          2    1    1    2  501    0 -0.84978535546E+01  0.28948276592E+02  0.23513290497E+03  0.23706053917E+03  0.00000000000E+00 0.  1.
          1    1    1    2  502    0  0.84978535546E+01 -0.28948276592E+02 -0.78533164445E+02  0.84128913879E+02  0.00000000000E+00 0. -1.
</event>
<event>
 4    1  0.7416369E+003  0.7116283E+02  0.7546771E-02  0.1225998E+00
          2   -1    0    0  502    0  0.00000000000E+00  0.00000000000E+00  0.13684977892E+04  0.13684977892E+04  0.00000000000E+00 0.  1.
          1   -1    0    0  501    0 -0.00000000000E+00 -0.00000000000E+00 -0.46038737255E+02  0.46038737255E+02  0.00000000000E+00 0.  1.
          2    1    1    2  501    0  0.66918721949E+02  0.24208117670E+02  0.13394779164E+04  0.13413669285E+04  0.00000000000E+00 0.  1.
          1    1    1    2  502    0 -0.66918721949E+02 -0.24208117670E+02 -0.17018864518E+02  0.73169597907E+02  0.00000000000E+00 0.  1.
</event>
<event>
 4    1  0.7416369E+003  0.1039384E+03  0.7546771E-02  0.1157153E+00
          2   -1    0    0  502    0  0.00000000000E+00  0.00000000000E+00  0.15639807164E+04  0.15639807164E+04  0.00000000000E+00 0. -1.
          1   -1    0    0  501    0 -0.00000000000E+00 -0.00000000000E+00 -0.24506501857E+02  0.24506501857E+02  0.00000000000E+00 0.  1.
          2    1    1    2  501    0  0.75666380801E+02  0.71258623627E+02  0.14428022801E+04  0.14465412584E+04  0.00000000000E+00 0. -1.
          1    1    1    2  502    0 -0.75666380801E+02 -0.71258623627E+02  0.96671934416E+02  0.14194595989E+03  0.00000000000E+00 0.  1.
</event>
<event>
 4    1  0.7416369E+003  0.3237934E+02  0.7546771E-02  0.1399987E+00
          2   -1    0    0  502    0  0.00000000000E+00  0.00000000000E+00  0.24550302578E+02  0.24550302578E+02  0.00000000000E+00 0.  1.
          1   -1    0    0  501    0 -0.00000000000E+00 -0.00000000000E+00 -0.60504719095E+02  0.60504719095E+02  0.00000000000E+00 0.  1.
          2    1    1    2  501    0 -0.26471225247E+02 -0.18646608010E+02  0.50892743701E+01  0.32776858757E+02  0.00000000000E+00 0.  1.
          1    1    1    2  502    0  0.26471225247E+02  0.18646608010E+02 -0.41043690887E+02  0.52278162917E+02  0.00000000000E+00 0.  1.
</event>
<event>
 4    1  0.7416369E+003  0.2248981E+02  0.7546771E-02  0.1499006E+00
          2   -1    0    0  502    0  0.00000000000E+00  0.00000000000E+00  0.72321104484E+01  0.72321104484E+01  0.00000000000E+00 0. -1.
          1   -1    0    0  501    0 -0.00000000000E+00 -0.00000000000E+00 -0.98306902490E+03  0.98306902490E+03  0.00000000000E+00 0.  1.
          2    1    1    2  501    0 -0.22479324500E+02  0.68663270191E+00 -0.10705658830E+02  0.24907882797E+02  0.00000000000E+00 0. -1.
          1    1    1    2  502    0  0.22479324500E+02 -0.68663270191E+00 -0.96513125562E+03  0.96539325255E+03  0.00000000000E+00 0.  1.
</event>
<event>
 4    1  0.7416369E+003  0.2946936E+02  0.7546771E-02  0.1424264E+00
          2   -1    0    0  502    0  0.00000000000E+00  0.00000000000E+00  0.87592929714E+02  0.87592929714E+02  0.00000000000E+00 0. -1.
          1   -1    0    0  501    0 -0.00000000000E+00 -0.00000000000E+00 -0.26437609422E+02  0.26437609422E+02  0.00000000000E+00 0. -1.
          2    1    1    2  501    0  0.29150296487E+02 -0.43247654621E+01  0.75651596619E+02  0.81188715057E+02  0.00000000000E+00 0. -1.
          1    1    1    2  502    0 -0.29150296487E+02  0.43247654621E+01 -0.14496276326E+02  0.32841824080E+02  0.00000000000E+00 0. -1.
</event>
<event>
 4    1  0.7416369E+003  0.3545558E+02  0.7546771E-02  0.1377388E+00
          2   -1    0    0  502    0  0.00000000000E+00  0.00000000000E+00  0.81839036980E+03  0.81839036980E+03  0.00000000000E+00 0.  1.
          1   -1    0    0  501    0 -0.00000000000E+00 -0.00000000000E+00 -0.23122641356E+01  0.23122641356E+01  0.00000000000E+00 0.  1.
          2    1    1    2  501    0 -0.30250402337E+01 -0.35326297387E+02  0.64579127925E+03  0.64676384756E+03  0.00000000000E+00 0.  1.
          1    1    1    2  502    0  0.30250402337E+01  0.35326297387E+02  0.17028682642E+03  0.17393878638E+03  0.00000000000E+00 0.  1.
</event>
<event>
 4    1  0.7416369E+003  0.3757330E+02  0.7546771E-02  0.1363325E+00
          2   -1    0    0  502    0  0.00000000000E+00  0.00000000000E+00  0.11384633519E+04  0.11384633519E+04  0.00000000000E+00 0.  1.
          1   -1    0    0  501    0 -0.00000000000E+00 -0.00000000000E+00 -0.49125934422E+02  0.49125934422E+02  0.00000000000E+00 0.  1.
          2    1    1    2  501    0 -0.10264809110E+02  0.36143965131E+02  0.11309210844E+04  0.11315450728E+04  0.00000000000E+00 0.  1.
          1    1    1    2  502    0  0.10264809110E+02 -0.36143965131E+02 -0.41583666917E+02  0.56044213579E+02  0.00000000000E+00 0.  1.
</event>
<event>
 4    1  0.7416369E+003  0.3206571E+02  0.7546771E-02  0.1402456E+00
          2   -1    0    0  502    0  0.00000000000E+00  0.00000000000E+00  0.49803754182E+02  0.49803754182E+02  0.00000000000E+00 0.  1.
          1   -1    0    0  501    0 -0.00000000000E+00 -0.00000000000E+00 -0.25570060572E+02  0.25570060572E+02  0.00000000000E+00 0.  1.
          2    1    1    2  501    0 -0.29874714216E+02 -0.11649506143E+02  0.28656280610E+02  0.43004557447E+02  0.00000000000E+00 0.  1.
          1    1    1    2  502    0  0.29874714216E+02  0.11649506143E+02 -0.44225869999E+01  0.32369257307E+02  0.00000000000E+00 0.  1.
</event>
<event>
 4    1  0.7416369E+003  0.2205709E+02  0.7546771E-02  0.1504690E+00
          2   -1    0    0  502    0  0.00000000000E+00  0.00000000000E+00  0.28257913086E+03  0.28257913086E+03  0.00000000000E+00 0.  1.
          1   -1    0    0  501    0 -0.00000000000E+00 -0.00000000000E+00 -0.93243890858E+02  0.93243890858E+02  0.00000000000E+00 0. -1.
          2    1    1    2  501    0  0.13184073708E+02 -0.17683198439E+02  0.28083620786E+03  0.28170106665E+03  0.00000000000E+00 0.  1.
          1    1    1    2  502    0 -0.13184073708E+02  0.17683198439E+02 -0.91500967858E+02  0.94121955067E+02  0.00000000000E+00 0. -1.
</event>
<event>
 4    1  0.7416369E+003  0.3017818E+02  0.7546771E-02  0.1418054E+00
          2   -1    0    0  502    0  0.00000000000E+00  0.00000000000E+00  0.80910529349E+02  0.80910529349E+02  0.00000000000E+00 0.  1.
          1   -1    0    0  501    0 -0.00000000000E+00 -0.00000000000E+00 -0.28317456682E+02  0.28317456682E+02  0.00000000000E+00 0.  1.
          2    1    1    2  501    0  0.52560340252E+01  0.29716944155E+02  0.68688725634E+02  0.75025753530E+02  0.00000000000E+00 0.  1.
          1    1    1    2  502    0 -0.52560340252E+01 -0.29716944155E+02 -0.16095652966E+02  0.34202232500E+02  0.00000000000E+00 0.  1.
</event>
<event>
 4    1  0.7416369E+003  0.3140693E+02  0.7546771E-02  0.1407752E+00
          2   -1    0    0  502    0  0.00000000000E+00  0.00000000000E+00  0.25775147905E+03  0.25775147905E+03  0.00000000000E+00 0. -1.
          1   -1    0    0  501    0 -0.00000000000E+00 -0.00000000000E+00 -0.28592155280E+02  0.28592155280E+02  0.00000000000E+00 0. -1.
          2    1    1    2  501    0  0.31262546226E+02 -0.30080819760E+01  0.24782600021E+03  0.24980816987E+03  0.00000000000E+00 0. -1.
          1    1    1    2  502    0 -0.31262546226E+02  0.30080819760E+01 -0.18666676443E+02  0.36535464458E+02  0.00000000000E+00 0. -1.
</event>
<event>
 4    1  0.7416369E+003  0.3299065E+02  0.7546771E-02  0.1395268E+00
          2   -1    0    0  502    0  0.00000000000E+00  0.00000000000E+00  0.20999810688E+04  0.20999810688E+04  0.00000000000E+00 0. -1.
          1   -1    0    0  501    0 -0.00000000000E+00 -0.00000000000E+00 -0.54487185308E+01  0.54487185308E+01  0.00000000000E+00 0. -1.
          2    1    1    2  501    0 -0.17974636054E+02  0.27663975186E+02  0.20486630979E+04  0.20489287132E+04  0.00000000000E+00 0. -1.
          1    1    1    2  502    0  0.17974636054E+02 -0.27663975186E+02  0.45869252321E+02  0.56501074086E+02  0.00000000000E+00 0. -1.
</event>
<event>
 4    1  0.7416369E+003  0.3649338E+02  0.7546771E-02  0.1370358E+00
          2   -1    0    0  502    0  0.00000000000E+00  0.00000000000E+00  0.94103103140E+01  0.94103103140E+01  0.00000000000E+00 0.  1.
          1   -1    0    0  501    0 -0.00000000000E+00 -0.00000000000E+00 -0.73477835726E+03  0.73477835726E+03  0.00000000000E+00 0. -1.
          2    1    1    2  501    0 -0.20409602635E+01 -0.36436266082E+02 -0.28338095997E+02  0.46204054903E+02  0.00000000000E+00 0.  1.
          1    1    1    2  502    0  0.20409602635E+01  0.36436266082E+02 -0.69702995095E+03  0.69798461267E+03  0.00000000000E+00 0. -1.
</event>
<event>
 4    1  0.7416369E+003  0.2605725E+02  0.7546771E-02  0.1457315E+00
          2   -1    0    0  502    0  0.00000000000E+00  0.00000000000E+00  0.52914409023E+03  0.52914409023E+03  0.00000000000E+00 0. -1.
          1   -1    0    0  501    0 -0.00000000000E+00 -0.00000000000E+00 -0.72207132331E+01  0.72207132331E+01  0.00000000000E+00 0. -1.
          2    1    1    2  501    0 -0.21012750746E+02 -0.15409238237E+02  0.50415057462E+03  0.50482351590E+03  0.00000000000E+00 0. -1.
          1    1    1    2  502    0  0.21012750746E+02  0.15409238237E+02  0.17772802384E+02  0.31541287569E+02  0.00000000000E+00 0. -1.
</event>
<event>
 4    1  0.7416369E+003  0.2037896E+02  0.7546771E-02  0.1528319E+00
          2   -1    0    0  502    0  0.00000000000E+00  0.00000000000E+00  0.11741038810E+04  0.11741038810E+04  0.00000000000E+00 0. -1.
          1   -1    0    0  501    0 -0.00000000000E+00 -0.00000000000E+00 -0.19812507986E+02  0.19812507986E+02  0.00000000000E+00 0.  1.
          2    1    1    2  501    0  0.20064454448E+02 -0.35664648654E+01  0.11687510507E+04  0.11689287063E+04  0.00000000000E+00 0. -1.
          1    1    1    2  502    0 -0.20064454448E+02  0.35664648654E+01 -0.14459677700E+02  0.24987682628E+02  0.00000000000E+00 0.  1.
</event>
<event>
 4    1  0.7416369E+003  0.2567915E+02  0.7546771E-02  0.1461347E+00
          2   -1    0    0  502    0  0.00000000000E+00  0.00000000000E+00  0.39557486362E+02  0.39557486362E+02  0.00000000000E+00 0. -1.
          1   -1    0    0  501    0 -0.00000000000E+00 -0.00000000000E+00 -0.36618962086E+02  0.36618962086E+02  0.00000000000E+00 0. -1.
          2    1    1    2  501    0  0.23824885811E+02 -0.95808951846E+01  0.29581739414E+02  0.39172669595E+02  0.00000000000E+00 0. -1.
          1    1    1    2  502    0 -0.23824885811E+02  0.95808951846E+01 -0.26643215138E+02  0.37003778852E+02  0.00000000000E+00 0. -1.
</event>
<event>
 4    1  0.7416369E+003  0.2398546E+02  0.7546771E-02  0.1480481E+00
          2   -1    0    0  502    0  0.00000000000E+00  0.00000000000E+00  0.27897955002E+02  0.27897955002E+02  0.00000000000E+00 0. -1.
          1   -1    0    0  501    0 -0.00000000000E+00 -0.00000000000E+00 -0.21707082191E+03  0.21707082191E+03  0.00000000000E+00 0. -1.
          2    1    1    2  501    0  0.56050126212E+01  0.23321369696E+02  0.21934804708E+02  0.32502893849E+02  0.00000000000E+00 0. -1.
          1    1    1    2  502    0 -0.56050126212E+01 -0.23321369696E+02 -0.21110767162E+03  0.21246588307E+03  0.00000000000E+00 0. -1.
</event>
<event>
 4    1  0.7416369E+003  0.5285346E+02  0.7546771E-02  0.1286253E+00
          2   -1    0    0  502    0  0.00000000000E+00  0.00000000000E+00  0.22429883366E+02  0.22429883366E+02  0.00000000000E+00 0.  1.
          1   -1    0    0  501    0 -0.00000000000E+00 -0.00000000000E+00 -0.37535624464E+03  0.37535624464E+03  0.00000000000E+00 0.  1.
          2    1    1    2  501    0  0.40714964187E+01  0.52696406136E+02 -0.13881009119E+02  0.54645866421E+02  0.00000000000E+00 0.  1.
          1    1    1    2  502    0 -0.40714964187E+01 -0.52696406136E+02 -0.33904535215E+03  0.34314026158E+03  0.00000000000E+00 0.  1.
</event>
<event>
 4    1  0.7416369E+003  0.2322618E+02  0.7546771E-02  0.1489677E+00
          2   -1    0    0  502    0  0.00000000000E+00  0.00000000000E+00  0.20944473693E+01  0.20944473693E+01  0.00000000000E+00 0.  1.
          1   -1    0    0  501    0 -0.00000000000E+00 -0.00000000000E+00 -0.14289291832E+04  0.14289291832E+04  0.00000000000E+00 0. -1.
          2    1    1    2  501    0  0.20802158281E+02 -0.10330806396E+02 -0.65592650505E+02  0.69583411458E+02  0.00000000000E+00 0.  1.
          1    1    1    2  502    0 -0.20802158281E+02  0.10330806396E+02 -0.13612420854E+04  0.13614402192E+04  0.00000000000E+00 0. -1.
</event>
<event>
 4    1  0.7416369E+003  0.2598965E+02  0.7546771E-02  0.1458030E+00
          2   -1    0    0  502    0  0.00000000000E+00  0.00000000000E+00  0.28077438170E+03  0.28077438170E+03  0.00000000000E+00 0. -1.
          1   -1    0    0  501    0 -0.00000000000E+00 -0.00000000000E+00 -0.25124473080E+01  0.25124473080E+01  0.00000000000E+00 0. -1.
          2    1    1    2  501    0 -0.24590195759E+02  0.84133421559E+01  0.16832564860E+03  0.17032024550E+03  0.00000000000E+00 0. -1.
          1    1    1    2  502    0  0.24590195759E+02 -0.84133421559E+01  0.10993628580E+03  0.11296658351E+03  0.00000000000E+00 0. -1.
</event>
<event>
 4    1  0.7416369E+003  0.2362238E+02  0.7546771E-02  0.1484827E+00
          2   -1    0    0  502    0  0.00000000000E+00  0.00000000000E+00  0.58274516330E+01  0.58274516330E+01  0.00000000000E+00 0.  1.
          1   -1    0    0  501    0 -0.00000000000E+00 -0.00000000000E+00 -0.24853336881E+03  0.24853336881E+03  0.00000000000E+00 0.  1.
          2    1    1    2  501    0  0.21323091405E+02 -0.10165755340E+02 -0.21638860795E+02  0.32035247856E+02  0.00000000000E+00 0.  1.
          1    1    1    2  502    0 -0.21323091405E+02  0.10165755340E+02 -0.22106705638E+03  0.22232557258E+03  0.00000000000E+00 0.  1.
</event>
<event>
 4    1  0.7416369E+003  0.2254878E+02  0.7546771E-02  0.1498243E+00
          2   -1    0    0  502    0  0.00000000000E+00  0.00000000000E+00  0.23232934669E+02  0.23232934669E+02  0.00000000000E+00 0.  1.
          1   -1    0    0  501    0 -0.00000000000E+00 -0.00000000000E+00 -0.22233935874E+03  0.22233935874E+03  0.00000000000E+00 0. -1.
          2    1    1    2  501    0  0.19588974392E+02  0.11167796519E+02  0.17033536257E+02  0.28259316238E+02  0.00000000000E+00 0.  1.
          1    1    1    2  502    0 -0.19588974392E+02 -0.11167796519E+02 -0.21613996033E+03  0.21731297717E+03  0.00000000000E+00 0. -1.
</event>
<event>
 4    1  0.7416369E+003  0.2693809E+02  0.7546771E-02  0.1448231E+00
          2   -1    0    0  502    0  0.00000000000E+00  0.00000000000E+00  0.10505953137E+04  0.10505953137E+04  0.00000000000E+00 0. -1.
          1   -1    0    0  501    0 -0.00000000000E+00 -0.00000000000E+00 -0.99011821646E+00  0.99011821646E+00  0.00000000000E+00 0.  1.
          2    1    1    2  501    0  0.23313421102E+02 -0.13496112069E+02  0.81393726491E+03  0.81438291476E+03  0.00000000000E+00 0. -1.
          1    1    1    2  502    0 -0.23313421102E+02  0.13496112069E+02  0.23566793061E+03  0.23720251719E+03  0.00000000000E+00 0.  1.
</event>
<event>
 4    1  0.7416369E+003  0.3329993E+02  0.7546771E-02  0.1392926E+00
          2   -1    0    0  502    0  0.00000000000E+00  0.00000000000E+00  0.38948947890E+02  0.38948947890E+02  0.00000000000E+00 0.  1.
          1   -1    0    0  501    0 -0.00000000000E+00 -0.00000000000E+00 -0.11895420060E+04  0.11895420060E+04  0.00000000000E+00 0. -1.
          2    1    1    2  501    0  0.12220624513E+01 -0.33277501200E+02  0.31553825163E+02  0.45875150192E+02  0.00000000000E+00 0.  1.
          1    1    1    2  502    0 -0.12220624513E+01  0.33277501200E+02 -0.11821468832E+04  0.11826158036E+04  0.00000000000E+00 0. -1.
</event>
<event>
 4    1  0.7416369E+003  0.2104580E+02  0.7546771E-02  0.1518612E+00
          2   -1    0    0  502    0  0.00000000000E+00  0.00000000000E+00  0.94186815982E+03  0.94186815982E+03  0.00000000000E+00 0. -1.
          1   -1    0    0  501    0 -0.00000000000E+00 -0.00000000000E+00 -0.76174261501E+02  0.76174261501E+02  0.00000000000E+00 0. -1.
          2    1    1    2  501    0 -0.21042501086E+02  0.37277822907E+00  0.94029450184E+03  0.94052999740E+03  0.00000000000E+00 0. -1.
          1    1    1    2  502    0  0.21042501086E+02 -0.37277822907E+00 -0.74600603525E+02  0.77512423919E+02  0.00000000000E+00 0. -1.
</event>
<event>
 4    1  0.7416369E+003  0.2899633E+02  0.7546771E-02  0.1428523E+00
          2   -1    0    0  502    0  0.00000000000E+00  0.00000000000E+00  0.17921858047E+04  0.17921858047E+04  0.00000000000E+00 0. -1.
          1   -1    0    0  501    0 -0.00000000000E+00 -0.00000000000E+00 -0.27127280516E+01  0.27127280516E+01  0.00000000000E+00 0.  1.
          2    1    1    2  501    0 -0.24596609669E+02 -0.15355575122E+02  0.17109021481E+04  0.17111478450E+04  0.00000000000E+00 0. -1.
          1    1    1    2  502    0  0.24596609669E+02  0.15355575122E+02  0.78570928530E+02  0.83750687786E+02  0.00000000000E+00 0.  1.
</event>
<event>
 4    1  0.7416369E+003  0.2022671E+02  0.7546771E-02  0.1530598E+00
          2   -1    0    0  502    0  0.00000000000E+00  0.00000000000E+00  0.38620771951E+03  0.38620771951E+03  0.00000000000E+00 0.  1.
          1   -1    0    0  501    0 -0.00000000000E+00 -0.00000000000E+00 -0.28807467284E+01  0.28807467284E+01  0.00000000000E+00 0.  1.
          2    1    1    2  501    0  0.11417167821E+02  0.16696343330E+02  0.34635662310E+03  0.34694672497E+03  0.00000000000E+00 0.  1.
          1    1    1    2  502    0 -0.11417167821E+02 -0.16696343330E+02  0.36970349686E+02  0.42141741273E+02  0.00000000000E+00 0.  1.
</event>
<event>
 4    1  0.7416369E+003  0.4352329E+02  0.7546771E-02  0.1328991E+00
          2   -1    0    0  502    0  0.00000000000E+00  0.00000000000E+00  0.35386499134E+01  0.35386499134E+01  0.00000000000E+00 0.  1.
          1   -1    0    0  501    0 -0.00000000000E+00 -0.00000000000E+00 -0.57806095605E+03  0.57806095605E+03  0.00000000000E+00 0. -1.
          2    1    1    2  501    0  0.40132041068E+02 -0.16843287931E+02 -0.20817930971E+03  0.21268028131E+03  0.00000000000E+00 0.  1.
          1    1    1    2  502    0 -0.40132041068E+02  0.16843287931E+02 -0.36634299643E+03  0.36891932465E+03  0.00000000000E+00 0. -1.
</event>
<event>
 4    1  0.7416369E+003  0.2038001E+02  0.7546771E-02  0.1528304E+00
          2   -1    0    0  502    0  0.00000000000E+00  0.00000000000E+00  0.16028737972E+03  0.16028737972E+03  0.00000000000E+00 0.  1.
          1   -1    0    0  501    0 -0.00000000000E+00 -0.00000000000E+00 -0.19148182843E+02  0.19148182843E+02  0.00000000000E+00 0. -1.
          2    1    1    2  501    0  0.14085676215E+02  0.14728831705E+02  0.15399622421E+03  0.15533892567E+03  0.00000000000E+00 0.  1.
          1    1    1    2  502    0 -0.14085676215E+02 -0.14728831705E+02 -0.12857027331E+02  0.24096636894E+02  0.00000000000E+00 0. -1.
</event>
<event>
 4    1  0.7416369E+003  0.2961927E+02  0.7546771E-02  0.1422934E+00
          2   -1    0    0  502    0  0.00000000000E+00  0.00000000000E+00  0.16025065471E+03  0.16025065471E+03  0.00000000000E+00 0.  1.
          1   -1    0    0  501    0 -0.00000000000E+00 -0.00000000000E+00 -0.14020747608E+02  0.14020747608E+02  0.00000000000E+00 0.  1.
          2    1    1    2  501    0  0.28092305798E+02  0.93874039066E+01  0.14114439210E+03  0.14421872423E+03  0.00000000000E+00 0.  1.
          1    1    1    2  502    0 -0.28092305798E+02 -0.93874039066E+01  0.50855149969E+01  0.30052678083E+02  0.00000000000E+00 0.  1.
</event>
<event>
 4    1  0.7416369E+003  0.2260261E+02  0.7546771E-02  0.1497549E+00
          2   -1    0    0  502    0  0.00000000000E+00  0.00000000000E+00  0.13913167943E+01  0.13913167943E+01  0.00000000000E+00 0.  1.
          1   -1    0    0  501    0 -0.00000000000E+00 -0.00000000000E+00 -0.53620660776E+03  0.53620660776E+03  0.00000000000E+00 0.  1.
          2    1    1    2  501    0  0.19204716602E+02 -0.11918754073E+02 -0.11649487573E+03  0.11866732452E+03  0.00000000000E+00 0.  1.
          1    1    1    2  502    0 -0.19204716602E+02  0.11918754073E+02 -0.41832041524E+03  0.41893060003E+03  0.00000000000E+00 0.  1.
</event>
<event>
 4    1  0.7416369E+003  0.4177187E+02  0.7546771E-02  0.1338404E+00
          2   -1    0    0  502    0  0.00000000000E+00  0.00000000000E+00  0.23505385598E+04  0.23505385598E+04  0.00000000000E+00 0. -1.
          1   -1    0    0  501    0 -0.00000000000E+00 -0.00000000000E+00 -0.73201695418E+01  0.73201695418E+01  0.00000000000E+00 0.  1.
          2    1    1    2  501    0  0.41530172279E+02  0.44870790701E+01  0.22891635598E+04  0.22895446475E+04  0.00000000000E+00 0. -1.
          1    1    1    2  502    0 -0.41530172279E+02 -0.44870790701E+01  0.54054830366E+02  0.68314081813E+02  0.00000000000E+00 0.  1.
</event>
<event>
 4    1  0.7416369E+003  0.2202182E+02  0.7546771E-02  0.1505161E+00
          2   -1    0    0  502    0  0.00000000000E+00  0.00000000000E+00  0.11077930581E+04  0.11077930581E+04  0.00000000000E+00 0. -1.
          1   -1    0    0  501    0 -0.00000000000E+00 -0.00000000000E+00 -0.11955456504E+01  0.11955456504E+01  0.00000000000E+00 0.  1.
          2    1    1    2  501    0  0.17796439940E+02 -0.12971015512E+02  0.99475109710E+03  0.99499482697E+03  0.00000000000E+00 0. -1.
          1    1    1    2  502    0 -0.17796439940E+02  0.12971015512E+02  0.11184641539E+03  0.11399377682E+03  0.00000000000E+00 0.  1.
</event>
<event>
 4    1  0.7416369E+003  0.2541103E+02  0.7546771E-02  0.1464257E+00
          2   -1    0    0  502    0  0.00000000000E+00  0.00000000000E+00  0.44445767436E+02  0.44445767436E+02  0.00000000000E+00 0. -1.
          1   -1    0    0  501    0 -0.00000000000E+00 -0.00000000000E+00 -0.89248094431E+03  0.89248094431E+03  0.00000000000E+00 0. -1.
          2    1    1    2  501    0 -0.15196845256E+02  0.20366053326E+02  0.40617176478E+02  0.47911118322E+02  0.00000000000E+00 0. -1.
          1    1    1    2  502    0  0.15196845256E+02 -0.20366053326E+02 -0.88865235335E+03  0.88901559342E+03  0.00000000000E+00 0. -1.
</event>
<event>
 4    1  0.7416369E+003  0.3962757E+02  0.7546771E-02  0.1350682E+00
          2   -1    0    0  502    0  0.00000000000E+00  0.00000000000E+00  0.49270362612E+03  0.49270362612E+03  0.00000000000E+00 0. -1.
          1   -1    0    0  501    0 -0.00000000000E+00 -0.00000000000E+00 -0.14780331481E+03  0.14780331481E+03  0.00000000000E+00 0.  1.
          2    1    1    2  501    0 -0.32148842670E+02  0.23168856363E+02  0.48923187061E+03  0.49083415449E+03  0.00000000000E+00 0. -1.
          1    1    1    2  502    0  0.32148842670E+02 -0.23168856363E+02 -0.14433155931E+03  0.14967278645E+03  0.00000000000E+00 0.  1.
</event>
<event>
 4    1  0.7416369E+003  0.2193230E+02  0.7546771E-02  0.1506359E+00
          2   -1    0    0  502    0  0.00000000000E+00  0.00000000000E+00  0.22069205496E+02  0.22069205496E+02  0.00000000000E+00 0.  1.
          1   -1    0    0  501    0 -0.00000000000E+00 -0.00000000000E+00 -0.22750214648E+02  0.22750214648E+02  0.00000000000E+00 0.  1.
          2    1    1    2  501    0  0.16022247714E+02  0.14977095250E+02  0.42484190433E+01  0.22339983624E+02  0.00000000000E+00 0.  1.
          1    1    1    2  502    0 -0.16022247714E+02 -0.14977095250E+02 -0.49294281948E+01  0.22479436520E+02  0.00000000000E+00 0.  1.
</event>
<event>
 4    1  0.7416369E+003  0.2277916E+02  0.7546771E-02  0.1495290E+00
          2   -1    0    0  502    0  0.00000000000E+00  0.00000000000E+00  0.61736444791E+03  0.61736444791E+03  0.00000000000E+00 0. -1.
          1   -1    0    0  501    0 -0.00000000000E+00 -0.00000000000E+00 -0.84915300873E+00  0.84915300873E+00  0.00000000000E+00 0. -1.
          2    1    1    2  501    0 -0.97468595618E+00 -0.22758295569E+02  0.33947483079E+03  0.34023822649E+03  0.00000000000E+00 0. -1.
          1    1    1    2  502    0  0.97468595618E+00  0.22758295569E+02  0.27704046412E+03  0.27797537443E+03  0.00000000000E+00 0. -1.
</event>
<event>
 4    1  0.7416369E+003  0.2343828E+02  0.7546771E-02  0.1487067E+00
          2   -1    0    0  502    0  0.00000000000E+00  0.00000000000E+00  0.10933442141E+04  0.10933442141E+04  0.00000000000E+00 0. -1.
          1   -1    0    0  501    0 -0.00000000000E+00 -0.00000000000E+00 -0.52583811154E+01  0.52583811154E+01  0.00000000000E+00 0.  1.
          2    1    1    2  501    0 -0.16560637791E+02 -0.16586092280E+02  0.10664418403E+04  0.10666993728E+04  0.00000000000E+00 0. -1.
          1    1    1    2  502    0  0.16560637791E+02  0.16586092280E+02  0.21643992675E+02  0.31903222409E+02  0.00000000000E+00 0.  1.
</event>
<event>
 4    1  0.7416369E+003  0.6238241E+02  0.7546771E-02  0.1251946E+00
          2   -1    0    0  502    0  0.00000000000E+00  0.00000000000E+00  0.59709924835E+03  0.59709924835E+03  0.00000000000E+00 0. -1.
          1   -1    0    0  501    0 -0.00000000000E+00 -0.00000000000E+00 -0.67450037252E+01  0.67450037252E+01  0.00000000000E+00 0.  1.
          2    1    1    2  501    0 -0.39792789693E+02  0.48042675371E+02  0.35063271916E+03  0.35613883320E+03  0.00000000000E+00 0. -1.
          1    1    1    2  502    0  0.39792789693E+02 -0.48042675371E+02  0.23972152547E+03  0.24770541887E+03  0.00000000000E+00 0.  1.
</event>
<event>
 4    1  0.7416369E+003  0.7333022E+02  0.7546771E-02  0.1220240E+00
          2   -1    0    0  502    0  0.00000000000E+00  0.00000000000E+00  0.30883742675E+03  0.30883742675E+03  0.00000000000E+00 0.  1.
          1   -1    0    0  501    0 -0.00000000000E+00 -0.00000000000E+00 -0.87345116028E+02  0.87345116028E+02  0.00000000000E+00 0. -1.
          2    1    1    2  501    0 -0.17401738428E+02  0.71235531058E+02  0.28799729391E+03  0.29718641067E+03  0.00000000000E+00 0.  1.
          1    1    1    2  502    0  0.17401738428E+02 -0.71235531058E+02 -0.66504983185E+02  0.98996132116E+02  0.00000000000E+00 0. -1.
</event>
<event>
 4    1  0.7416369E+003  0.2218458E+02  0.7546771E-02  0.1502999E+00
          2   -1    0    0  502    0  0.00000000000E+00  0.00000000000E+00  0.54134187783E+02  0.54134187783E+02  0.00000000000E+00 0. -1.
          1   -1    0    0  501    0 -0.00000000000E+00 -0.00000000000E+00 -0.15495447226E+03  0.15495447226E+03  0.00000000000E+00 0.  1.
          2    1    1    2  501    0 -0.22133741170E+02  0.15010914482E+01  0.51020949147E+02  0.55635357692E+02  0.00000000000E+00 0. -1.
          1    1    1    2  502    0  0.22133741170E+02 -0.15010914482E+01 -0.15184123362E+03  0.15345330235E+03  0.00000000000E+00 0.  1.
</event>
<event>
 4    1  0.7416369E+003  0.2066688E+02  0.7546771E-02  0.1524075E+00
          2   -1    0    0  502    0  0.00000000000E+00  0.00000000000E+00  0.56773662420E+03  0.56773662420E+03  0.00000000000E+00 0.  1.
          1   -1    0    0  501    0 -0.00000000000E+00 -0.00000000000E+00 -0.34311483493E+01  0.34311483493E+01  0.00000000000E+00 0.  1.
          2    1    1    2  501    0 -0.10629839541E+02 -0.17723606788E+02  0.53449290078E+03  0.53489230759E+03  0.00000000000E+00 0.  1.
          1    1    1    2  502    0  0.10629839541E+02  0.17723606788E+02  0.29812575070E+02  0.36275464966E+02  0.00000000000E+00 0.  1.
</event>
<event>
 4    1  0.7416369E+003  0.2446603E+02  0.7546771E-02  0.1474866E+00
          2   -1    0    0  502    0  0.00000000000E+00  0.00000000000E+00  0.10210245219E+03  0.10210245219E+03  0.00000000000E+00 0. -1.
          1   -1    0    0  501    0 -0.00000000000E+00 -0.00000000000E+00 -0.61084994012E+03  0.61084994012E+03  0.00000000000E+00 0. -1.
          2    1    1    2  501    0 -0.92044143918E+01  0.22668595589E+02  0.10038769541E+03  0.10332606573E+03  0.00000000000E+00 0. -1.
          1    1    1    2  502    0  0.92044143918E+01 -0.22668595589E+02 -0.60913518334E+03  0.60962632658E+03  0.00000000000E+00 0. -1.
</event>
<event>
 4    1  0.7416369E+003  0.2251548E+02  0.7546771E-02  0.1498674E+00
          2   -1    0    0  502    0  0.00000000000E+00  0.00000000000E+00  0.88347934350E+01  0.88347934350E+01  0.00000000000E+00 0. -1.
          1   -1    0    0  501    0 -0.00000000000E+00 -0.00000000000E+00 -0.96347191046E+03  0.96347191046E+03  0.00000000000E+00 0. -1.
          2    1    1    2  501    0  0.22284695300E+02  0.32154779628E+01 -0.58641446624E+01  0.23266609890E+02  0.00000000000E+00 0. -1.
          1    1    1    2  502    0 -0.22284695300E+02 -0.32154779628E+01 -0.94877297236E+03  0.94904009400E+03  0.00000000000E+00 0. -1.
</event>
<event>
 4    1  0.7416369E+003  0.2454091E+02  0.7546771E-02  0.1474005E+00
          2   -1    0    0  502    0  0.00000000000E+00  0.00000000000E+00  0.70156057989E+02  0.70156057989E+02  0.00000000000E+00 0.  1.
          1   -1    0    0  501    0 -0.00000000000E+00 -0.00000000000E+00 -0.32954968767E+03  0.32954968767E+03  0.00000000000E+00 0.  1.
          2    1    1    2  501    0  0.24529300589E+02  0.75467001982E+00  0.67535873749E+02  0.71856456615E+02  0.00000000000E+00 0.  1.
          1    1    1    2  502    0 -0.24529300589E+02 -0.75467001982E+00 -0.32692950343E+03  0.32784928904E+03  0.00000000000E+00 0.  1.
</event>
<event>
 4    1  0.7416369E+003  0.2967076E+02  0.7546771E-02  0.1422479E+00
          2   -1    0    0  502    0  0.00000000000E+00  0.00000000000E+00  0.79300582816E+00  0.79300582816E+00  0.00000000000E+00 0.  1.
          1   -1    0    0  501    0 -0.00000000000E+00 -0.00000000000E+00 -0.12487817388E+04  0.12487817388E+04  0.00000000000E+00 0.  1.
          2    1    1    2  501    0 -0.29560463176E+02 -0.25560150963E+01 -0.41582216929E+03  0.41687939583E+03  0.00000000000E+00 0.  1.
          1    1    1    2  502    0  0.29560463176E+02  0.25560150963E+01 -0.83216656368E+03  0.83269534880E+03  0.00000000000E+00 0.  1.
</event>
<event>
 4    1  0.1273095E+004  0.2288348E+02  0.7546771E-02  0.1493966E+00
          2   -1    0    0  502    0  0.00000000000E+00  0.00000000000E+00  0.38666115245E+03  0.38666115245E+03  0.00000000000E+00 0. -1.
          1   -1    0    0  501    0 -0.00000000000E+00 -0.00000000000E+00 -0.13019017864E+04  0.13019017864E+04  0.00000000000E+00 0. -1.
          2    1    1    2  501    0  0.18987356491E+02  0.12772392879E+02  0.38622190861E+03  0.38689923289E+03  0.00000000000E+00 0. -1.
          1    1    1    2  502    0 -0.18987356491E+02 -0.12772392879E+02 -0.13014625426E+04  0.13016637060E+04  0.00000000000E+00 0. -1.
</event>
<event>
 4    1  0.7416369E+003  0.3282358E+02  0.7546771E-02  0.1396546E+00
          2   -1    0    0  502    0  0.00000000000E+00  0.00000000000E+00  0.16947036415E+03  0.16947036415E+03  0.00000000000E+00 0. -1.
          1   -1    0    0  501    0 -0.00000000000E+00 -0.00000000000E+00 -0.58827656443E+03  0.58827656443E+03  0.00000000000E+00 0. -1.
          2    1    1    2  501    0 -0.23306052545E+02  0.23113091515E+02  0.16741760137E+03  0.17060492470E+03  0.00000000000E+00 0. -1.
          1    1    1    2  502    0  0.23306052545E+02 -0.23113091515E+02 -0.58622380166E+03  0.58714200387E+03  0.00000000000E+00 0. -1.
</event>
<event>
 4    1  0.7416369E+003  0.2644524E+02  0.7546771E-02  0.1453262E+00
          2   -1    0    0  502    0  0.00000000000E+00  0.00000000000E+00  0.10934561617E+04  0.10934561617E+04  0.00000000000E+00 0. -1.
          1   -1    0    0  501    0 -0.00000000000E+00 -0.00000000000E+00 -0.17850476026E+01  0.17850476026E+01  0.00000000000E+00 0.  1.
          2    1    1    2  501    0  0.21441474488E+02 -0.15479467055E+02  0.98451433508E+03  0.98486944653E+03  0.00000000000E+00 0. -1.
          1    1    1    2  502    0 -0.21441474488E+02  0.15479467055E+02  0.10715677904E+03  0.11037176280E+03  0.00000000000E+00 0.  1.
</event>
<event>
 4    1  0.7416369E+003  0.2162187E+02  0.7546771E-02  0.1510568E+00
          2   -1    0    0  502    0  0.00000000000E+00  0.00000000000E+00  0.89844135645E+03  0.89844135645E+03  0.00000000000E+00 0. -1.
          1   -1    0    0  501    0 -0.00000000000E+00 -0.00000000000E+00 -0.57589364265E+00  0.57589364265E+00  0.00000000000E+00 0.  1.
          2    1    1    2  501    0  0.19939804509E+02 -0.83611467912E+01  0.30933403283E+03  0.31008877510E+03  0.00000000000E+00 0. -1.
          1    1    1    2  502    0 -0.19939804509E+02  0.83611467912E+01  0.58853142997E+03  0.58892847498E+03  0.00000000000E+00 0.  1.
</event>
<event>
 4    1  0.7416369E+003  0.2020042E+02  0.7546771E-02  0.1530994E+00
          2   -1    0    0  502    0  0.00000000000E+00  0.00000000000E+00  0.49873514301E+02  0.49873514301E+02  0.00000000000E+00 0.  1.
          1   -1    0    0  501    0 -0.00000000000E+00 -0.00000000000E+00 -0.19668690492E+03  0.19668690492E+03  0.00000000000E+00 0. -1.
          2    1    1    2  501    0 -0.31610483160E+01 -0.19951561109E+02  0.47282156359E+02  0.51416527762E+02  0.00000000000E+00 0.  1.
          1    1    1    2  502    0  0.31610483160E+01  0.19951561109E+02 -0.19409554698E+03  0.19514389146E+03  0.00000000000E+00 0. -1.
</event>
<event>
 4    1  0.7416369E+003  0.3051082E+02  0.7546771E-02  0.1415208E+00
          2   -1    0    0  502    0  0.00000000000E+00  0.00000000000E+00  0.18352539721E+03  0.18352539721E+03  0.00000000000E+00 0. -1.
          1   -1    0    0  501    0 -0.00000000000E+00 -0.00000000000E+00 -0.30496999082E+02  0.30496999082E+02  0.00000000000E+00 0.  1.
          2    1    1    2  501    0  0.29876476515E+02  0.61892305633E+01  0.17422170030E+03  0.17687315025E+03  0.00000000000E+00 0. -1.
          1    1    1    2  502    0 -0.29876476515E+02 -0.61892305633E+01 -0.21193302177E+02  0.37149246037E+02  0.00000000000E+00 0.  1.
</event>
<event>
 4    1  0.7416369E+003  0.2284761E+02  0.7546771E-02  0.1494421E+00
          2   -1    0    0  502    0  0.00000000000E+00  0.00000000000E+00  0.17884311099E+03  0.17884311099E+03  0.00000000000E+00 0. -1.
          1   -1    0    0  501    0 -0.00000000000E+00 -0.00000000000E+00 -0.36187784398E+03  0.36187784398E+03  0.00000000000E+00 0.  1.
          2    1    1    2  501    0  0.22482112628E+02 -0.40703550406E+01  0.17775056718E+03  0.17921293846E+03  0.00000000000E+00 0. -1.
          1    1    1    2  502    0 -0.22482112628E+02  0.40703550406E+01 -0.36078530017E+03  0.36150801650E+03  0.00000000000E+00 0.  1.
</event>
<event>
 4    1  0.7416369E+003  0.5957277E+02  0.7546771E-02  0.1261291E+00
          2   -1    0    0  502    0  0.00000000000E+00  0.00000000000E+00  0.93657030465E+03  0.93657030465E+03  0.00000000000E+00 0. -1.
          1   -1    0    0  501    0 -0.00000000000E+00 -0.00000000000E+00 -0.37996024769E+01  0.37996024769E+01  0.00000000000E+00 0. -1.
          2    1    1    2  501    0 -0.46493526672E+02 -0.37246038471E+02  0.49090728325E+03  0.49450872202E+03  0.00000000000E+00 0. -1.
          1    1    1    2  502    0  0.46493526672E+02  0.37246038471E+02  0.44186341892E+03  0.44586118511E+03  0.00000000000E+00 0. -1.
</event>
<event>
 4    1  0.7416369E+003  0.2078948E+02  0.7546771E-02  0.1522292E+00
          2   -1    0    0  502    0  0.00000000000E+00  0.00000000000E+00  0.26432844134E+01  0.26432844134E+01  0.00000000000E+00 0.  1.
          1   -1    0    0  501    0 -0.00000000000E+00 -0.00000000000E+00 -0.18874617621E+03  0.18874617621E+03  0.00000000000E+00 0.  1.
          2    1    1    2  501    0 -0.11667293919E+02  0.17206880599E+02 -0.58059845960E+02  0.61669670019E+02  0.00000000000E+00 0.  1.
          1    1    1    2  502    0  0.11667293919E+02 -0.17206880599E+02 -0.12804304584E+03  0.12971979060E+03  0.00000000000E+00 0.  1.
</event>
<event>
 4    1  0.7416369E+003  0.3568788E+02  0.7546771E-02  0.1375791E+00
          2   -1    0    0  502    0  0.00000000000E+00  0.00000000000E+00  0.44984046822E+03  0.44984046822E+03  0.00000000000E+00 0. -1.
          1   -1    0    0  501    0 -0.00000000000E+00 -0.00000000000E+00 -0.12163530504E+03  0.12163530504E+03  0.00000000000E+00 0. -1.
          2    1    1    2  501    0  0.15007003983E+02  0.32379229152E+02  0.44649535583E+03  0.44791933139E+03  0.00000000000E+00 0. -1.
          1    1    1    2  502    0 -0.15007003983E+02 -0.32379229152E+02 -0.11829019265E+03  0.12355644187E+03  0.00000000000E+00 0. -1.
</event>
<event>
 4    1  0.7416369E+003  0.2351556E+02  0.7546771E-02  0.1486124E+00
          2   -1    0    0  502    0  0.00000000000E+00  0.00000000000E+00  0.74315585898E+03  0.74315585898E+03  0.00000000000E+00 0.  1.
          1   -1    0    0  501    0 -0.00000000000E+00 -0.00000000000E+00 -0.50847006191E+02  0.50847006191E+02  0.00000000000E+00 0.  1.
          2    1    1    2  501    0 -0.20873093535E+02 -0.10830305412E+02  0.74024027811E+03  0.74061369883E+03  0.00000000000E+00 0.  1.
          1    1    1    2  502    0  0.20873093535E+02  0.10830305412E+02 -0.47931425325E+02  0.53389166343E+02  0.00000000000E+00 0.  1.
</event>
<event>
 4    1  0.7416369E+003  0.4801567E+02  0.7546771E-02  0.1307013E+00
          2   -1    0    0  502    0  0.00000000000E+00  0.00000000000E+00  0.29855151476E+03  0.29855151476E+03  0.00000000000E+00 0. -1.
          1   -1    0    0  501    0 -0.00000000000E+00 -0.00000000000E+00 -0.21651926597E+02  0.21651926597E+02  0.00000000000E+00 0. -1.
          2    1    1    2  501    0  0.94001480890E+01 -0.47086539956E+02  0.26686528873E+03  0.27115048840E+03  0.00000000000E+00 0. -1.
          1    1    1    2  502    0 -0.94001480890E+01  0.47086539956E+02  0.10034299435E+02  0.49052952962E+02  0.00000000000E+00 0. -1.
</event>
<event>
 4    1  0.7416369E+003  0.2096002E+02  0.7546771E-02  0.1519836E+00
          2   -1    0    0  502    0  0.00000000000E+00  0.00000000000E+00  0.83260083427E+02  0.83260083427E+02  0.00000000000E+00 0. -1.
          1   -1    0    0  501    0 -0.00000000000E+00 -0.00000000000E+00 -0.11823985873E+04  0.11823985873E+04  0.00000000000E+00 0.  1.
          2    1    1    2  501    0  0.81566219665E+01 -0.19307820132E+02  0.81846489930E+02  0.84487693269E+02  0.00000000000E+00 0. -1.
          1    1    1    2  502    0 -0.81566219665E+01  0.19307820132E+02 -0.11809849938E+04  0.11811709774E+04  0.00000000000E+00 0.  1.
</event>
<event>
 4    1  0.7416369E+003  0.6364862E+02  0.7546771E-02  0.1247915E+00
          2   -1    0    0  502    0  0.00000000000E+00  0.00000000000E+00  0.41825133018E+03  0.41825133018E+03  0.00000000000E+00 0. -1.
          1   -1    0    0  501    0 -0.00000000000E+00 -0.00000000000E+00 -0.26089070178E+02  0.26089070178E+02  0.00000000000E+00 0.  1.
          2    1    1    2  501    0 -0.42809595965E+02  0.47100801127E+02  0.37224636119E+03  0.37764864675E+03  0.00000000000E+00 0. -1.
          1    1    1    2  502    0  0.42809595965E+02 -0.47100801127E+02  0.19915898810E+02  0.66691753605E+02  0.00000000000E+00 0.  1.
</event>
<event>
 4    1  0.7416369E+003  0.2398303E+02  0.7546771E-02  0.1480510E+00
          2   -1    0    0  502    0  0.00000000000E+00  0.00000000000E+00  0.42373238661E+03  0.42373238661E+03  0.00000000000E+00 0.  1.
          1   -1    0    0  501    0 -0.00000000000E+00 -0.00000000000E+00 -0.62561576567E+02  0.62561576567E+02  0.00000000000E+00 0.  1.
          2    1    1    2  501    0  0.10327461143E+02  0.21645533797E+02  0.42108008621E+03  0.42176252156E+03  0.00000000000E+00 0.  1.
          1    1    1    2  502    0 -0.10327461143E+02 -0.21645533797E+02 -0.59909276166E+02  0.64531441622E+02  0.00000000000E+00 0.  1.
</event>
<event>
 4    1  0.7416369E+003  0.2911977E+02  0.7546771E-02  0.1427403E+00
          2   -1    0    0  502    0  0.00000000000E+00  0.00000000000E+00  0.75458907447E+02  0.75458907447E+02  0.00000000000E+00 0. -1.
          1   -1    0    0  501    0 -0.00000000000E+00 -0.00000000000E+00 -0.44780772599E+02  0.44780772599E+02  0.00000000000E+00 0. -1.
          2    1    1    2  501    0 -0.28923402284E+02  0.33760708141E+01  0.67371659718E+02  0.73395514761E+02  0.00000000000E+00 0. -1.
          1    1    1    2  502    0  0.28923402284E+02 -0.33760708141E+01 -0.36693524871E+02  0.46844165285E+02  0.00000000000E+00 0. -1.
</event>
<event>
 4    1  0.7416369E+003  0.3341866E+02  0.7546771E-02  0.1392035E+00
          2   -1    0    0  502    0  0.00000000000E+00  0.00000000000E+00  0.86957200801E+02  0.86957200801E+02  0.00000000000E+00 0.  1.
          1   -1    0    0  501    0 -0.00000000000E+00 -0.00000000000E+00 -0.69790935334E+02  0.69790935334E+02  0.00000000000E+00 0.  1.
          2    1    1    2  501    0 -0.27647876882E+02 -0.18772364796E+02  0.79379536043E+02  0.86127333167E+02  0.00000000000E+00 0.  1.
          1    1    1    2  502    0  0.27647876882E+02  0.18772364796E+02 -0.62213270576E+02  0.70620802968E+02  0.00000000000E+00 0.  1.
</event>
<event>
 4    1  0.7416369E+003  0.8578197E+02  0.7546771E-02  0.1191025E+00
          2   -1    0    0  502    0  0.00000000000E+00  0.00000000000E+00  0.12670371843E+04  0.12670371843E+04  0.00000000000E+00 0.  1.
          1   -1    0    0  501    0 -0.00000000000E+00 -0.00000000000E+00 -0.21363997853E+02  0.21363997853E+02  0.00000000000E+00 0.  1.
          2    1    1    2  501    0  0.54179092793E+02 -0.66506934602E+02  0.11725461167E+04  0.11756797788E+04  0.00000000000E+00 0.  1.
          1    1    1    2  502    0 -0.54179092793E+02  0.66506934602E+02  0.73127069719E+02  0.11272140334E+03  0.00000000000E+00 0.  1.
</event>
<event>
 4    1  0.7416369E+003  0.2745832E+02  0.7546771E-02  0.1443058E+00
          2   -1    0    0  502    0  0.00000000000E+00  0.00000000000E+00  0.62650465022E+02  0.62650465022E+02  0.00000000000E+00 0.  1.
          1   -1    0    0  501    0 -0.00000000000E+00 -0.00000000000E+00 -0.32194352622E+02  0.32194352622E+02  0.00000000000E+00 0.  1.
          2    1    1    2  501    0 -0.27217379958E+02  0.36295686698E+01  0.52754613553E+02  0.59472756718E+02  0.00000000000E+00 0.  1.
          1    1    1    2  502    0  0.27217379958E+02 -0.36295686698E+01 -0.22298501153E+02  0.35372060927E+02  0.00000000000E+00 0.  1.
</event>
<event>
 4    1  0.7416369E+003  0.2073753E+02  0.7546771E-02  0.1523045E+00
          2   -1    0    0  502    0  0.00000000000E+00  0.00000000000E+00  0.95506496469E+02  0.95506496469E+02  0.00000000000E+00 0. -1.
          1   -1    0    0  501    0 -0.00000000000E+00 -0.00000000000E+00 -0.69989620286E+01  0.69989620286E+01  0.00000000000E+00 0.  1.
          2    1    1    2  501    0  0.17698564730E+02 -0.10807683958E+02  0.74861972371E+02  0.77681144001E+02  0.00000000000E+00 0. -1.
          1    1    1    2  502    0 -0.17698564730E+02  0.10807683958E+02  0.13645562070E+02  0.24824314497E+02  0.00000000000E+00 0.  1.
</event>
<event>
 4    1  0.7416369E+003  0.4215849E+02  0.7546771E-02  0.1336281E+00
          2   -1    0    0  502    0  0.00000000000E+00  0.00000000000E+00  0.23864807823E+03  0.23864807823E+03  0.00000000000E+00 0. -1.
          1   -1    0    0  501    0 -0.00000000000E+00 -0.00000000000E+00 -0.45880503992E+03  0.45880503992E+03  0.00000000000E+00 0. -1.
          2    1    1    2  501    0 -0.12205015251E+02 -0.40353142619E+02  0.23580615527E+03  0.23954515519E+03  0.00000000000E+00 0. -1.
          1    1    1    2  502    0  0.12205015251E+02  0.40353142619E+02 -0.45596311695E+03  0.45790796295E+03  0.00000000000E+00 0. -1.
</event>
<event>
 4    1  0.7416369E+003  0.2738938E+02  0.7546771E-02  0.1443735E+00
          2   -1    0    0  502    0  0.00000000000E+00  0.00000000000E+00  0.16174233473E+04  0.16174233473E+04  0.00000000000E+00 0. -1.
          1   -1    0    0  501    0 -0.00000000000E+00 -0.00000000000E+00 -0.17053548399E+02  0.17053548399E+02  0.00000000000E+00 0.  1.
          2    1    1    2  501    0 -0.29061048285E+01 -0.27234772417E+02  0.16062333933E+04  0.16064668973E+04  0.00000000000E+00 0. -1.
          1    1    1    2  502    0  0.29061048285E+01  0.27234772417E+02 -0.58635943817E+01  0.28009998447E+02  0.00000000000E+00 0.  1.
</event>
<event>
 4    1  0.7416369E+003  0.2716232E+02  0.7546771E-02  0.1445984E+00
          2   -1    0    0  502    0  0.00000000000E+00  0.00000000000E+00  0.42364774175E+03  0.42364774175E+03  0.00000000000E+00 0. -1.
          1   -1    0    0  501    0 -0.00000000000E+00 -0.00000000000E+00 -0.18458357969E+01  0.18458357969E+01  0.00000000000E+00 0. -1.
          2    1    1    2  501    0  0.26890398535E+02 -0.38338192169E+01  0.26147621496E+03  0.26288324917E+03  0.00000000000E+00 0. -1.
          1    1    1    2  502    0 -0.26890398535E+02  0.38338192169E+01  0.16032569099E+03  0.16261032837E+03  0.00000000000E+00 0. -1.
</event>
<event>
 4    1  0.7416369E+003  0.2184405E+02  0.7546771E-02  0.1507547E+00
          2   -1    0    0  502    0  0.00000000000E+00  0.00000000000E+00  0.61192695277E+01  0.61192695277E+01  0.00000000000E+00 0.  1.
          1   -1    0    0  501    0 -0.00000000000E+00 -0.00000000000E+00 -0.81557608810E+02  0.81557608810E+02  0.00000000000E+00 0. -1.
          2    1    1    2  501    0  0.17070393593E+02 -0.13629536399E+02 -0.28533768901E+02  0.35935199562E+02  0.00000000000E+00 0.  1.
          1    1    1    2  502    0 -0.17070393593E+02  0.13629536399E+02 -0.46904570381E+02  0.51741678776E+02  0.00000000000E+00 0. -1.
</event>
<event>
 4    1  0.7416369E+003  0.2642873E+02  0.7546771E-02  0.1453433E+00
          2   -1    0    0  502    0  0.00000000000E+00  0.00000000000E+00  0.39285250488E+03  0.39285250488E+03  0.00000000000E+00 0.  1.
          1   -1    0    0  501    0 -0.00000000000E+00 -0.00000000000E+00 -0.19536525317E+02  0.19536525317E+02  0.00000000000E+00 0.  1.
          2    1    1    2  501    0 -0.25738371327E+01 -0.26303101243E+02  0.38324613758E+03  0.38415632202E+03  0.00000000000E+00 0.  1.
          1    1    1    2  502    0  0.25738371327E+01  0.26303101243E+02 -0.99301580246E+01  0.28232708176E+02  0.00000000000E+00 0.  1.
</event>
<event>
 4    1  0.7416369E+003  0.6794076E+02  0.7546771E-02  0.1235004E+00
          2   -1    0    0  502    0  0.00000000000E+00  0.00000000000E+00  0.56544282775E+03  0.56544282775E+03  0.00000000000E+00 0. -1.
          1   -1    0    0  501    0 -0.00000000000E+00 -0.00000000000E+00 -0.28711560285E+02  0.28711560285E+02  0.00000000000E+00 0.  1.
          2    1    1    2  501    0 -0.66568624725E+02  0.13585489946E+02  0.51968570621E+03  0.52410798561E+03  0.00000000000E+00 0. -1.
          1    1    1    2  502    0  0.66568624725E+02 -0.13585489946E+02  0.17045561252E+02  0.70046402429E+02  0.00000000000E+00 0.  1.
</event>
<event>
 4    1  0.7416369E+003  0.4540198E+02  0.7546771E-02  0.1319441E+00
          2   -1    0    0  502    0  0.00000000000E+00  0.00000000000E+00  0.43371576238E+02  0.43371576238E+02  0.00000000000E+00 0.  1.
          1   -1    0    0  501    0 -0.00000000000E+00 -0.00000000000E+00 -0.10169980168E+03  0.10169980168E+03  0.00000000000E+00 0.  1.
          2    1    1    2  501    0  0.28016559924E+02  0.35726913485E+02  0.23775477221E+02  0.51250495551E+02  0.00000000000E+00 0.  1.
          1    1    1    2  502    0 -0.28016559924E+02 -0.35726913485E+02 -0.82103702662E+02  0.93820882366E+02  0.00000000000E+00 0.  1.
</event>
<event>
 4    1  0.7416369E+003  0.1113462E+03  0.7546771E-02  0.1145478E+00
          2   -1    0    0  502    0  0.00000000000E+00  0.00000000000E+00  0.10904464518E+04  0.10904464518E+04  0.00000000000E+00 0. -1.
          1   -1    0    0  501    0 -0.00000000000E+00 -0.00000000000E+00 -0.21638941125E+02  0.21638941125E+02  0.00000000000E+00 0.  1.
          2    1    1    2  501    0 -0.10045197979E+03 -0.48035194132E+02  0.91745832699E+03  0.92419032773E+03  0.00000000000E+00 0. -1.
          1    1    1    2  502    0  0.10045197979E+03  0.48035194132E+02  0.15134918367E+03  0.18789506518E+03  0.00000000000E+00 0.  1.
</event>
<event>
 4    1  0.7416369E+003  0.2681469E+02  0.7546771E-02  0.1449478E+00
          2   -1    0    0  502    0  0.00000000000E+00  0.00000000000E+00  0.18613637288E+04  0.18613637288E+04  0.00000000000E+00 0. -1.
          1   -1    0    0  501    0 -0.00000000000E+00 -0.00000000000E+00 -0.11136103198E+01  0.11136103198E+01  0.00000000000E+00 0. -1.
          2    1    1    2  501    0 -0.16928469575E+02  0.20795545579E+02  0.16827125261E+04  0.16829261640E+04  0.00000000000E+00 0. -1.
          1    1    1    2  502    0  0.16928469575E+02 -0.20795545579E+02  0.17753759231E+03  0.17955117510E+03  0.00000000000E+00 0. -1.
</event>
<event>
 4    1  0.7416369E+003  0.2928833E+02  0.7546771E-02  0.1425883E+00
          2   -1    0    0  502    0  0.00000000000E+00  0.00000000000E+00  0.13610729154E+04  0.13610729154E+04  0.00000000000E+00 0. -1.
          1   -1    0    0  501    0 -0.00000000000E+00 -0.00000000000E+00 -0.87667261082E+00  0.87667261082E+00  0.00000000000E+00 0. -1.
          2    1    1    2  501    0  0.26795615284E+02 -0.11823716718E+02  0.31905450472E+03  0.32039597728E+03  0.00000000000E+00 0. -1.
          1    1    1    2  502    0 -0.26795615284E+02  0.11823716718E+02  0.10411417381E+04  0.10415536108E+04  0.00000000000E+00 0. -1.
</event>
<event>
 4    1  0.7416369E+003  0.2102487E+02  0.7546771E-02  0.1518910E+00
          2   -1    0    0  502    0  0.00000000000E+00  0.00000000000E+00  0.34010470153E+03  0.34010470153E+03  0.00000000000E+00 0.  1.
          1   -1    0    0  501    0 -0.00000000000E+00 -0.00000000000E+00 -0.19970029904E+01  0.19970029904E+01  0.00000000000E+00 0. -1.
          2    1    1    2  501    0 -0.15666650390E+02  0.14021455488E+02  0.27012716530E+03  0.27094414661E+03  0.00000000000E+00 0.  1.
          1    1    1    2  502    0  0.15666650390E+02 -0.14021455488E+02  0.67980533241E+02  0.71157557913E+02  0.00000000000E+00 0. -1.
</event>
<event>
 4    1  0.7416369E+003  0.2032783E+02  0.7546771E-02  0.1529082E+00
          2   -1    0    0  502    0  0.00000000000E+00  0.00000000000E+00  0.22871277440E+00  0.22871277440E+00  0.00000000000E+00 0.  1.
          1   -1    0    0  501    0 -0.00000000000E+00 -0.00000000000E+00 -0.18201695180E+04  0.18201695180E+04  0.00000000000E+00 0.  1.
          2    1    1    2  501    0  0.15918301328E+02 -0.12642307389E+02 -0.98820736856E+03  0.98841642212E+03  0.00000000000E+00 0.  1.
          1    1    1    2  502    0 -0.15918301328E+02  0.12642307389E+02 -0.83173343666E+03  0.83198180864E+03  0.00000000000E+00 0.  1.
</event>
<event>
 4    1  0.7416369E+003  0.5394066E+02  0.7546771E-02  0.1281935E+00
          2   -1    0    0  502    0  0.00000000000E+00  0.00000000000E+00  0.17693433560E+03  0.17693433560E+03  0.00000000000E+00 0. -1.
          1   -1    0    0  501    0 -0.00000000000E+00 -0.00000000000E+00 -0.84881491549E+03  0.84881491549E+03  0.00000000000E+00 0. -1.
          2    1    1    2  501    0  0.53934171427E+02 -0.83672910918E+00  0.17194195684E+03  0.18020441583E+03  0.00000000000E+00 0. -1.
          1    1    1    2  502    0 -0.53934171427E+02  0.83672910918E+00 -0.84382253672E+03  0.84554483527E+03  0.00000000000E+00 0. -1.
</event>
<event>
 4    1  0.7416369E+003  0.3641355E+02  0.7546771E-02  0.1370889E+00
          2   -1    0    0  502    0  0.00000000000E+00  0.00000000000E+00  0.61034046814E+03  0.61034046814E+03  0.00000000000E+00 0. -1.
          1   -1    0    0  501    0 -0.00000000000E+00 -0.00000000000E+00 -0.20121256901E+03  0.20121256901E+03  0.00000000000E+00 0. -1.
          2    1    1    2  501    0 -0.42198885513E+01 -0.36168201747E+02  0.60814396108E+03  0.60923314394E+03  0.00000000000E+00 0. -1.
          1    1    1    2  502    0  0.42198885513E+01  0.36168201747E+02 -0.19901606194E+03  0.20231989321E+03  0.00000000000E+00 0. -1.
</event>
<event>
 4    1  0.7416369E+003  0.2715262E+02  0.7546771E-02  0.1446081E+00
          2   -1    0    0  502    0  0.00000000000E+00  0.00000000000E+00  0.59396108008E+02  0.59396108008E+02  0.00000000000E+00 0.  1.
          1   -1    0    0  501    0 -0.00000000000E+00 -0.00000000000E+00 -0.62476371706E+02  0.62476371706E+02  0.00000000000E+00 0. -1.
          2    1    1    2  501    0 -0.12274780272E+02  0.24219716541E+02  0.53007912685E+02  0.59557566331E+02  0.00000000000E+00 0.  1.
          1    1    1    2  502    0  0.12274780272E+02 -0.24219716541E+02 -0.56088176382E+02  0.62314913383E+02  0.00000000000E+00 0. -1.
</event>
<event>
 4    1  0.7416369E+003  0.5261933E+02  0.7546771E-02  0.1287199E+00
          2   -1    0    0  502    0  0.00000000000E+00  0.00000000000E+00  0.10225728572E+04  0.10225728572E+04  0.00000000000E+00 0. -1.
          1   -1    0    0  501    0 -0.00000000000E+00 -0.00000000000E+00 -0.27739698745E+01  0.27739698745E+01  0.00000000000E+00 0. -1.
          2    1    1    2  501    0 -0.40077695090E+02 -0.34096509719E+02  0.58915581826E+03  0.59150094827E+03  0.00000000000E+00 0. -1.
          1    1    1    2  502    0  0.40077695090E+02  0.34096509719E+02  0.43064306911E+03  0.43384587884E+03  0.00000000000E+00 0. -1.
</event>
<event>
 4    1  0.7416369E+003  0.3941336E+02  0.7546771E-02  0.1351958E+00
          2   -1    0    0  502    0  0.00000000000E+00  0.00000000000E+00  0.35530144737E+03  0.35530144737E+03  0.00000000000E+00 0. -1.
          1   -1    0    0  501    0 -0.00000000000E+00 -0.00000000000E+00 -0.32217305721E+02  0.32217305721E+02  0.00000000000E+00 0.  1.
          2    1    1    2  501    0 -0.26852393641E+02  0.28850684422E+02  0.34167509652E+03  0.34394081557E+03  0.00000000000E+00 0. -1.
          1    1    1    2  502    0  0.26852393641E+02 -0.28850684422E+02 -0.18590954866E+02  0.43577937522E+02  0.00000000000E+00 0.  1.
</event>
<event>
 4    1  0.7416369E+003  0.3298139E+02  0.7546771E-02  0.1395338E+00
          2   -1    0    0  502    0  0.00000000000E+00  0.00000000000E+00  0.23193937014E+01  0.23193937014E+01  0.00000000000E+00 0.  1.
          1   -1    0    0  501    0 -0.00000000000E+00 -0.00000000000E+00 -0.47753678184E+03  0.47753678184E+03  0.00000000000E+00 0.  1.
          2    1    1    2  501    0  0.97021304608E+01 -0.31522054721E+02 -0.26970772659E+03  0.27171681775E+03  0.00000000000E+00 0.  1.
          1    1    1    2  502    0 -0.97021304608E+01  0.31522054721E+02 -0.20550966155E+03  0.20813935779E+03  0.00000000000E+00 0.  1.
</event>
<event>
 4    1  0.7416369E+003  0.2078258E+02  0.7546771E-02  0.1522392E+00
          2   -1    0    0  502    0  0.00000000000E+00  0.00000000000E+00  0.38524786723E+02  0.38524786723E+02  0.00000000000E+00 0.  1.
          1   -1    0    0  501    0 -0.00000000000E+00 -0.00000000000E+00 -0.55659555652E+02  0.55659555652E+02  0.00000000000E+00 0.  1.
          2    1    1    2  501    0  0.58577745141E+01  0.19939966061E+02  0.33515533846E+02  0.39436110074E+02  0.00000000000E+00 0.  1.
          1    1    1    2  502    0 -0.58577745141E+01 -0.19939966061E+02 -0.50650302776E+02  0.54748232301E+02  0.00000000000E+00 0.  1.
</event>
<event>
 4    1  0.7416369E+003  0.2673102E+02  0.7546771E-02  0.1450329E+00
          2   -1    0    0  502    0  0.00000000000E+00  0.00000000000E+00  0.15911523137E+03  0.15911523137E+03  0.00000000000E+00 0.  1.
          1   -1    0    0  501    0 -0.00000000000E+00 -0.00000000000E+00 -0.16831906192E+02  0.16831906192E+02  0.00000000000E+00 0. -1.
          2    1    1    2  501    0  0.37963958630E+01  0.26460063219E+02  0.14647086870E+03  0.14889010358E+03  0.00000000000E+00 0.  1.
          1    1    1    2  502    0 -0.37963958630E+01 -0.26460063219E+02 -0.41875435194E+01  0.27057033981E+02  0.00000000000E+00 0. -1.
</event>
<event>
 4    1  0.7416369E+003  0.4336288E+02  0.7546771E-02  0.1329831E+00
          2   -1    0    0  502    0  0.00000000000E+00  0.00000000000E+00  0.20719859827E+02  0.20719859827E+02  0.00000000000E+00 0. -1.
          1   -1    0    0  501    0 -0.00000000000E+00 -0.00000000000E+00 -0.14374380468E+03  0.14374380468E+03  0.00000000000E+00 0.  1.
          2    1    1    2  501    0  0.42548956734E+02 -0.83621642730E+01 -0.11582666293E+02  0.44883155737E+02  0.00000000000E+00 0. -1.
          1    1    1    2  502    0 -0.42548956734E+02  0.83621642730E+01 -0.11144127856E+03  0.11958050877E+03  0.00000000000E+00 0.  1.
</event>
<event>
 4    1  0.7416369E+003  0.2466041E+02  0.7546771E-02  0.1472638E+00
          2   -1    0    0  502    0  0.00000000000E+00  0.00000000000E+00  0.33217465481E+03  0.33217465481E+03  0.00000000000E+00 0.  1.
          1   -1    0    0  501    0 -0.00000000000E+00 -0.00000000000E+00 -0.18934598122E+01  0.18934598122E+01  0.00000000000E+00 0.  1.
          2    1    1    2  501    0  0.38635697620E+01 -0.24355861758E+02  0.13474730445E+03  0.13698529567E+03  0.00000000000E+00 0.  1.
          1    1    1    2  502    0 -0.38635697620E+01  0.24355861758E+02  0.19553389054E+03  0.19708281895E+03  0.00000000000E+00 0.  1.
</event>
<event>
 4    1  0.7416369E+003  0.6476439E+02  0.7546771E-02  0.1244451E+00
          2   -1    0    0  502    0  0.00000000000E+00  0.00000000000E+00  0.11308183055E+04  0.11308183055E+04  0.00000000000E+00 0.  1.
          1   -1    0    0  501    0 -0.00000000000E+00 -0.00000000000E+00 -0.14299995197E+02  0.14299995197E+02  0.00000000000E+00 0. -1.
          2    1    1    2  501    0 -0.63563306533E+02  0.12415011614E+02  0.10509979830E+04  0.10529915416E+04  0.00000000000E+00 0.  1.
          1    1    1    2  502    0  0.63563306533E+02 -0.12415011614E+02  0.65520327352E+02  0.92126759126E+02  0.00000000000E+00 0. -1.
</event>
<event>
 4    1  0.7416369E+003  0.2138631E+02  0.7546771E-02  0.1513820E+00
          2   -1    0    0  502    0  0.00000000000E+00  0.00000000000E+00  0.10472723320E+03  0.10472723320E+03  0.00000000000E+00 0. -1.
          1   -1    0    0  501    0 -0.00000000000E+00 -0.00000000000E+00 -0.93581856187E+02  0.93581856187E+02  0.00000000000E+00 0.  1.
          2    1    1    2  501    0  0.11145291963E+02  0.18252582650E+02  0.10238591154E+03  0.10459564612E+03  0.00000000000E+00 0. -1.
          1    1    1    2  502    0 -0.11145291963E+02 -0.18252582650E+02 -0.91240534530E+02  0.93713443260E+02  0.00000000000E+00 0.  1.
</event>
<event>
 4    1  0.7416369E+003  0.2982738E+02  0.7546771E-02  0.1421103E+00
          2   -1    0    0  502    0  0.00000000000E+00  0.00000000000E+00  0.77257979877E+03  0.77257979877E+03  0.00000000000E+00 0. -1.
          1   -1    0    0  501    0 -0.00000000000E+00 -0.00000000000E+00 -0.66113244364E+01  0.66113244364E+01  0.00000000000E+00 0.  1.
          2    1    1    2  501    0 -0.26368782916E+02  0.13941292759E+02  0.73702779771E+03  0.73763110492E+03  0.00000000000E+00 0. -1.
          1    1    1    2  502    0  0.26368782916E+02 -0.13941292759E+02  0.28940676630E+02  0.41560018287E+02  0.00000000000E+00 0.  1.
</event>
<event>
 4    1  0.7416369E+003  0.4185748E+02  0.7546771E-02  0.1337932E+00
          2   -1    0    0  502    0  0.00000000000E+00  0.00000000000E+00  0.24146159461E+02  0.24146159461E+02  0.00000000000E+00 0. -1.
          1   -1    0    0  501    0 -0.00000000000E+00 -0.00000000000E+00 -0.14811043884E+04  0.14811043884E+04  0.00000000000E+00 0.  1.
          2    1    1    2  501    0  0.39688547212E+02 -0.13299151989E+02  0.54788952653E+01  0.42214529687E+02  0.00000000000E+00 0. -1.
          1    1    1    2  502    0 -0.39688547212E+02  0.13299151989E+02 -0.14624371242E+04  0.14630360181E+04  0.00000000000E+00 0.  1.
</event>
<event>
 4    1  0.7416369E+003  0.2744916E+02  0.7546771E-02  0.1443148E+00
          2   -1    0    0  502    0  0.00000000000E+00  0.00000000000E+00  0.50370545382E+03  0.50370545382E+03  0.00000000000E+00 0. -1.
          1   -1    0    0  501    0 -0.00000000000E+00 -0.00000000000E+00 -0.22887286130E+02  0.22887286130E+02  0.00000000000E+00 0. -1.
          2    1    1    2  501    0 -0.72888084259E+01  0.26463745744E+02  0.49495604671E+03  0.49571659721E+03  0.00000000000E+00 0. -1.
          1    1    1    2  502    0  0.72888084259E+01 -0.26463745744E+02 -0.14137879028E+02  0.30876142739E+02  0.00000000000E+00 0. -1.
</event>
<event>
 4    1  0.7416369E+003  0.2996340E+02  0.7546771E-02  0.1419915E+00
          2   -1    0    0  502    0  0.00000000000E+00  0.00000000000E+00  0.31495295136E+03  0.31495295136E+03  0.00000000000E+00 0. -1.
          1   -1    0    0  501    0 -0.00000000000E+00 -0.00000000000E+00 -0.56373211327E+02  0.56373211327E+02  0.00000000000E+00 0.  1.
          2    1    1    2  501    0  0.22049440591E+02  0.20288598963E+02  0.31019788603E+03  0.31164167496E+03  0.00000000000E+00 0. -1.
          1    1    1    2  502    0 -0.22049440591E+02 -0.20288598963E+02 -0.51618145997E+02  0.59684487720E+02  0.00000000000E+00 0.  1.
</event>
<event>
 4    1  0.7416369E+003  0.2467304E+02  0.7546771E-02  0.1472494E+00
          2   -1    0    0  502    0  0.00000000000E+00  0.00000000000E+00  0.35474751416E+03  0.35474751416E+03  0.00000000000E+00 0.  1.
          1   -1    0    0  501    0 -0.00000000000E+00 -0.00000000000E+00 -0.30047190906E+01  0.30047190906E+01  0.00000000000E+00 0. -1.
          2    1    1    2  501    0 -0.22693539370E+02 -0.96830928866E+01  0.29301638671E+03  0.29405333173E+03  0.00000000000E+00 0.  1.
          1    1    1    2  502    0  0.22693539370E+02  0.96830928866E+01  0.58726408360E+02  0.63698901528E+02  0.00000000000E+00 0. -1.
</event>
<event>
 4    1  0.7416369E+003  0.3239733E+02  0.7546771E-02  0.1399846E+00
          2   -1    0    0  502    0  0.00000000000E+00  0.00000000000E+00  0.11315234279E+02  0.11315234279E+02  0.00000000000E+00 0.  1.
          1   -1    0    0  501    0 -0.00000000000E+00 -0.00000000000E+00 -0.30505488236E+03  0.30505488236E+03  0.00000000000E+00 0.  1.
          2    1    1    2  501    0  0.17798310841E+02  0.27070409313E+02 -0.14908241471E+02  0.35662902194E+02  0.00000000000E+00 0.  1.
          1    1    1    2  502    0 -0.17798310841E+02 -0.27070409313E+02 -0.27883140661E+03  0.28070721444E+03  0.00000000000E+00 0.  1.
</event>
<event>
 4    1  0.7416369E+003  0.2299688E+02  0.7546771E-02  0.1492537E+00
          2   -1    0    0  502    0  0.00000000000E+00  0.00000000000E+00  0.22055089284E+03  0.22055089284E+03  0.00000000000E+00 0. -1.
          1   -1    0    0  501    0 -0.00000000000E+00 -0.00000000000E+00 -0.39631332292E+01  0.39631332292E+01  0.00000000000E+00 0. -1.
          2    1    1    2  501    0  0.11590674120E+02 -0.19862341108E+02  0.17884198471E+03  0.18031448033E+03  0.00000000000E+00 0. -1.
          1    1    1    2  502    0 -0.11590674120E+02  0.19862341108E+02  0.37745774898E+02  0.44199545739E+02  0.00000000000E+00 0. -1.
</event>
<event>
 4    1  0.7416369E+003  0.2477810E+02  0.7546771E-02  0.1471301E+00
          2   -1    0    0  502    0  0.00000000000E+00  0.00000000000E+00  0.75493330642E+03  0.75493330642E+03  0.00000000000E+00 0. -1.
          1   -1    0    0  501    0 -0.00000000000E+00 -0.00000000000E+00 -0.16592530095E+01  0.16592530095E+01  0.00000000000E+00 0. -1.
          2    1    1    2  501    0 -0.13774122261E+02  0.20596785570E+02  0.64675916842E+03  0.64723363321E+03  0.00000000000E+00 0. -1.
          1    1    1    2  502    0  0.13774122261E+02 -0.20596785570E+02  0.10651488499E+03  0.10935892622E+03  0.00000000000E+00 0. -1.
</event>
<event>
 4    1  0.7416369E+003  0.4447248E+02  0.7546771E-02  0.1324098E+00
          2   -1    0    0  502    0  0.00000000000E+00  0.00000000000E+00  0.20947584331E+03  0.20947584331E+03  0.00000000000E+00 0.  1.
          1   -1    0    0  501    0 -0.00000000000E+00 -0.00000000000E+00 -0.10350696080E+02  0.10350696080E+02  0.00000000000E+00 0.  1.
          2    1    1    2  501    0 -0.30389387197E+02  0.32469775409E+02  0.13213530841E+03  0.13941858161E+03  0.00000000000E+00 0.  1.
          1    1    1    2  502    0  0.30389387197E+02 -0.32469775409E+02  0.66989838819E+02  0.80407957780E+02  0.00000000000E+00 0.  1.
</event>
<event>
 4    1  0.7416369E+003  0.6165009E+02  0.7546771E-02  0.1254327E+00
          2   -1    0    0  502    0  0.00000000000E+00  0.00000000000E+00  0.92420547097E+01  0.92420547097E+01  0.00000000000E+00 0.  1.
          1   -1    0    0  501    0 -0.00000000000E+00 -0.00000000000E+00 -0.44199321991E+03  0.44199321991E+03  0.00000000000E+00 0.  1.
          2    1    1    2  501    0  0.15033831199E+02 -0.59788946237E+02 -0.15686606895E+03  0.16854583282E+03  0.00000000000E+00 0.  1.
          1    1    1    2  502    0 -0.15033831199E+02  0.59788946237E+02 -0.27588509625E+03  0.28268944180E+03  0.00000000000E+00 0.  1.
</event>
<event>
 4    1  0.1106143E+004  0.2148924E+02  0.7546771E-02  0.1512393E+00
          2   -1    0    0  502    0  0.00000000000E+00  0.00000000000E+00  0.44851099178E+03  0.44851099178E+03  0.00000000000E+00 0. -1.
          1   -1    0    0  501    0 -0.00000000000E+00 -0.00000000000E+00 -0.75217868081E+03  0.75217868081E+03  0.00000000000E+00 0.  1.
          2    1    1    2  501    0  0.12036881650E+02  0.17801713515E+02  0.44809996742E+03  0.44861494439E+03  0.00000000000E+00 0. -1.
          1    1    1    2  502    0 -0.12036881650E+02 -0.17801713515E+02 -0.75176765645E+03  0.75207472821E+03  0.00000000000E+00 0.  1.
</event>
<event>
 4    1  0.7416369E+003  0.2258566E+02  0.7546771E-02  0.1497768E+00
          2   -1    0    0  502    0  0.00000000000E+00  0.00000000000E+00  0.59275479970E+03  0.59275479970E+03  0.00000000000E+00 0.  1.
          1   -1    0    0  501    0 -0.00000000000E+00 -0.00000000000E+00 -0.87709888556E+01  0.87709888556E+01  0.00000000000E+00 0.  1.
          2    1    1    2  501    0 -0.21649934715E+02  0.64336888563E+01  0.57761905312E+03  0.57806044887E+03  0.00000000000E+00 0.  1.
          1    1    1    2  502    0  0.21649934715E+02 -0.64336888563E+01  0.63647577241E+01  0.23465339681E+02  0.00000000000E+00 0.  1.
</event>
<event>
 4    1  0.7416369E+003  0.5736537E+02  0.7546771E-02  0.1269057E+00
          2   -1    0    0  502    0  0.00000000000E+00  0.00000000000E+00  0.94515657994E+01  0.94515657994E+01  0.00000000000E+00 0.  1.
          1   -1    0    0  501    0 -0.00000000000E+00 -0.00000000000E+00 -0.97233294727E+03  0.97233294727E+03  0.00000000000E+00 0.  1.
          2    1    1    2  501    0 -0.26779551759E+02  0.50731064624E+02 -0.88138438070E+02  0.10516258639E+03  0.00000000000E+00 0.  1.
          1    1    1    2  502    0  0.26779551759E+02 -0.50731064624E+02 -0.87474294340E+03  0.87662192668E+03  0.00000000000E+00 0.  1.
</event>
<event>
 4    1  0.7416369E+003  0.2771429E+02  0.7546771E-02  0.1440562E+00
          2   -1    0    0  502    0  0.00000000000E+00  0.00000000000E+00  0.12520011551E+04  0.12520011551E+04  0.00000000000E+00 0. -1.
          1   -1    0    0  501    0 -0.00000000000E+00 -0.00000000000E+00 -0.63876382071E+00  0.63876382071E+00  0.00000000000E+00 0. -1.
          2    1    1    2  501    0 -0.22257034967E+02  0.16513816350E+02  0.75028162683E+03  0.75079331463E+03  0.00000000000E+00 0. -1.
          1    1    1    2  502    0  0.22257034967E+02 -0.16513816350E+02  0.50108076445E+03  0.50184660429E+03  0.00000000000E+00 0. -1.
</event>
<event>
 4    1  0.7416369E+003  0.2207942E+02  0.7546771E-02  0.1504393E+00
          2   -1    0    0  502    0  0.00000000000E+00  0.00000000000E+00  0.71373176195E+02  0.71373176195E+02  0.00000000000E+00 0.  1.
          1   -1    0    0  501    0 -0.00000000000E+00 -0.00000000000E+00 -0.83378502138E+01  0.83378502138E+01  0.00000000000E+00 0. -1.
          2    1    1    2  501    0 -0.22045281911E+02  0.12272655976E+01  0.48464801803E+02  0.53257277899E+02  0.00000000000E+00 0.  1.
          1    1    1    2  502    0  0.22045281911E+02 -0.12272655976E+01  0.14570524178E+02  0.26453748510E+02  0.00000000000E+00 0. -1.
</event>
<event>
 4    1  0.7416369E+003  0.2737348E+02  0.7546771E-02  0.1443892E+00
          2   -1    0    0  502    0  0.00000000000E+00  0.00000000000E+00  0.23398403792E+02  0.23398403792E+02  0.00000000000E+00 0. -1.
          1   -1    0    0  501    0 -0.00000000000E+00 -0.00000000000E+00 -0.32915462940E+02  0.32915462940E+02  0.00000000000E+00 0. -1.
          2    1    1    2  501    0 -0.10094117115E+02 -0.25444379662E+02 -0.12441852450E+00  0.27373767309E+02  0.00000000000E+00 0. -1.
          1    1    1    2  502    0  0.10094117115E+02  0.25444379662E+02 -0.93926406229E+01  0.28940099423E+02  0.00000000000E+00 0. -1.
</event>
<event>
 4    1  0.7416369E+003  0.2016654E+02  0.7546771E-02  0.1531505E+00
          2   -1    0    0  502    0  0.00000000000E+00  0.00000000000E+00  0.25416750861E+03  0.25416750861E+03  0.00000000000E+00 0.  1.
          1   -1    0    0  501    0 -0.00000000000E+00 -0.00000000000E+00 -0.13921531806E+02  0.13921531806E+02  0.00000000000E+00 0. -1.
          2    1    1    2  501    0 -0.11052584680E+02  0.16868011982E+02  0.24622918197E+03  0.24705363691E+03  0.00000000000E+00 0.  1.
          1    1    1    2  502    0  0.11052584680E+02 -0.16868011982E+02 -0.59832051719E+01  0.21035403501E+02  0.00000000000E+00 0. -1.
</event>
<event>
 4    1  0.7416369E+003  0.2098327E+02  0.7546771E-02  0.1519504E+00
          2   -1    0    0  502    0  0.00000000000E+00  0.00000000000E+00  0.82401065461E+02  0.82401065461E+02  0.00000000000E+00 0.  1.
          1   -1    0    0  501    0 -0.00000000000E+00 -0.00000000000E+00 -0.15530814886E+02  0.15530814886E+02  0.00000000000E+00 0.  1.
          2    1    1    2  501    0 -0.21033972549E+01  0.20877580113E+02  0.73093057372E+02  0.76045332976E+02  0.00000000000E+00 0.  1.
          1    1    1    2  502    0  0.21033972549E+01 -0.20877580113E+02 -0.62228067973E+01  0.21886547371E+02  0.00000000000E+00 0.  1.
</event>
<event>
 4    1  0.7416369E+003  0.2641799E+02  0.7546771E-02  0.1453544E+00
          2   -1    0    0  502    0  0.00000000000E+00  0.00000000000E+00  0.12427253328E+02  0.12427253328E+02  0.00000000000E+00 0. -1.
          1   -1    0    0  501    0 -0.00000000000E+00 -0.00000000000E+00 -0.18023279220E+03  0.18023279220E+03  0.00000000000E+00 0. -1.
          2    1    1    2  501    0 -0.52073008435E+01 -0.25899692868E+02 -0.39775816135E+01  0.26715748693E+02  0.00000000000E+00 0. -1.
          1    1    1    2  502    0  0.52073008435E+01  0.25899692868E+02 -0.16382795725E+03  0.16594429683E+03  0.00000000000E+00 0. -1.
</event>
<event>
 4    1  0.7416369E+003  0.3708776E+02  0.7546771E-02  0.1366452E+00
          2   -1    0    0  502    0  0.00000000000E+00  0.00000000000E+00  0.64305942734E+03  0.64305942734E+03  0.00000000000E+00 0. -1.
          1   -1    0    0  501    0 -0.00000000000E+00 -0.00000000000E+00 -0.37612506405E+02  0.37612506405E+02  0.00000000000E+00 0. -1.
          2    1    1    2  501    0 -0.24191164455E+02  0.28112094789E+02  0.63324044907E+03  0.63432560144E+03  0.00000000000E+00 0. -1.
          1    1    1    2  502    0  0.24191164455E+02 -0.28112094789E+02 -0.27793528136E+02  0.46346332297E+02  0.00000000000E+00 0. -1.
</event>
<event>
 4    1  0.7416369E+003  0.7758066E+02  0.7546771E-02  0.1209578E+00
          2   -1    0    0  502    0  0.00000000000E+00  0.00000000000E+00  0.71559836356E+03  0.71559836356E+03  0.00000000000E+00 0. -1.
          1   -1    0    0  501    0 -0.00000000000E+00 -0.00000000000E+00 -0.17527450887E+02  0.17527450887E+02  0.00000000000E+00 0.  1.
          2    1    1    2  501    0  0.57730307051E+02 -0.51826342824E+02  0.61340211635E+03  0.61828869835E+03  0.00000000000E+00 0. -1.
          1    1    1    2  502    0 -0.57730307051E+02  0.51826342824E+02  0.84668796315E+02  0.11483711609E+03  0.00000000000E+00 0.  1.
</event>
<event>
 4    1  0.7416369E+003  0.2847003E+02  0.7546771E-02  0.1433375E+00
          2   -1    0    0  502    0  0.00000000000E+00  0.00000000000E+00  0.56856614594E+03  0.56856614594E+03  0.00000000000E+00 0.  1.
          1   -1    0    0  501    0 -0.00000000000E+00 -0.00000000000E+00 -0.16145507048E+02  0.16145507048E+02  0.00000000000E+00 0. -1.
          2    1    1    2  501    0  0.28438222626E+02  0.13454247964E+01  0.55536092774E+03  0.55609019299E+03  0.00000000000E+00 0.  1.
          1    1    1    2  502    0 -0.28438222626E+02 -0.13454247964E+01 -0.29402888502E+01  0.28621460000E+02  0.00000000000E+00 0. -1.
</event>
<event>
 4    1  0.7416369E+003  0.2621674E+02  0.7546771E-02  0.1455639E+00
          2   -1    0    0  502    0  0.00000000000E+00  0.00000000000E+00  0.41378452336E+03  0.41378452336E+03  0.00000000000E+00 0.  1.
          1   -1    0    0  501    0 -0.00000000000E+00 -0.00000000000E+00 -0.19656202311E+01  0.19656202311E+01  0.00000000000E+00 0.  1.
          2    1    1    2  501    0 -0.12910338937E+02 -0.22817554327E+02  0.28773611820E+03  0.28892800375E+03  0.00000000000E+00 0.  1.
          1    1    1    2  502    0  0.12910338937E+02  0.22817554327E+02  0.12408278493E+03  0.12682213984E+03  0.00000000000E+00 0.  1.
</event>
<event>
 4    1  0.7416369E+003  0.2249990E+02  0.7546771E-02  0.1498875E+00
          2   -1    0    0  502    0  0.00000000000E+00  0.00000000000E+00  0.78208666177E+02  0.78208666177E+02  0.00000000000E+00 0. -1.
          1   -1    0    0  501    0 -0.00000000000E+00 -0.00000000000E+00 -0.39216589934E+03  0.39216589934E+03  0.00000000000E+00 0. -1.
          2    1    1    2  501    0 -0.17373986114E+02 -0.14296514268E+02  0.76259612581E+02  0.79509585741E+02  0.00000000000E+00 0. -1.
          1    1    1    2  502    0  0.17373986114E+02  0.14296514268E+02 -0.39021684574E+03  0.39086497978E+03  0.00000000000E+00 0. -1.
</event>
<event>
 4    1  0.7416369E+003  0.2992860E+02  0.7546771E-02  0.1420218E+00
          2   -1    0    0  502    0  0.00000000000E+00  0.00000000000E+00  0.24846540422E+04  0.24846540422E+04  0.00000000000E+00 0.  1.
          1   -1    0    0  501    0 -0.00000000000E+00 -0.00000000000E+00 -0.48382394981E+00  0.48382394981E+00  0.00000000000E+00 0.  1.
          2    1    1    2  501    0 -0.12180882059E+02 -0.27337653123E+02  0.18694180963E+04  0.18696576531E+04  0.00000000000E+00 0.  1.
          1    1    1    2  502    0  0.12180882059E+02  0.27337653123E+02  0.61475212197E+03  0.61548021303E+03  0.00000000000E+00 0.  1.
</event>
<event>
 4    1  0.7416369E+003  0.2757125E+02  0.7546771E-02  0.1441953E+00
          2   -1    0    0  502    0  0.00000000000E+00  0.00000000000E+00  0.66409634675E+03  0.66409634675E+03  0.00000000000E+00 0. -1.
          1   -1    0    0  501    0 -0.00000000000E+00 -0.00000000000E+00 -0.63147163200E+01  0.63147163200E+01  0.00000000000E+00 0.  1.
          2    1    1    2  501    0  0.15857857093E+02  0.22554426891E+02  0.63219702657E+03  0.63279795686E+03  0.00000000000E+00 0. -1.
          1    1    1    2  502    0 -0.15857857093E+02 -0.22554426891E+02  0.25584603859E+02  0.37613106207E+02  0.00000000000E+00 0.  1.
</event>
<event>
 4    1  0.7416369E+003  0.2481817E+02  0.7546771E-02  0.1470848E+00
          2   -1    0    0  502    0  0.00000000000E+00  0.00000000000E+00  0.40204285028E+02  0.40204285028E+02  0.00000000000E+00 0.  1.
          1   -1    0    0  501    0 -0.00000000000E+00 -0.00000000000E+00 -0.91349353654E+02  0.91349353654E+02  0.00000000000E+00 0.  1.
          2    1    1    2  501    0  0.81895960659E+01 -0.23428018738E+02  0.34435573636E+02  0.42447029076E+02  0.00000000000E+00 0.  1.
          1    1    1    2  502    0 -0.81895960659E+01  0.23428018738E+02 -0.85580642262E+02  0.89106609607E+02  0.00000000000E+00 0.  1.
</event>
<event>
 4    1  0.7416369E+003  0.2883669E+02  0.7546771E-02  0.1429982E+00
          2   -1    0    0  502    0  0.00000000000E+00  0.00000000000E+00  0.18287728092E+02  0.18287728092E+02  0.00000000000E+00 0. -1.
          1   -1    0    0  501    0 -0.00000000000E+00 -0.00000000000E+00 -0.66711902796E+02  0.66711902796E+02  0.00000000000E+00 0. -1.
          2    1    1    2  501    0  0.28128831539E+02  0.63501004139E+01 -0.23063876972E+00  0.28837616636E+02  0.00000000000E+00 0. -1.
          1    1    1    2  502    0 -0.28128831539E+02 -0.63501004139E+01 -0.48193535934E+02  0.56162014252E+02  0.00000000000E+00 0. -1.
</event>
<event>
 4    1  0.7416369E+003  0.4333264E+02  0.7546771E-02  0.1329990E+00
          2   -1    0    0  502    0  0.00000000000E+00  0.00000000000E+00  0.17547787802E+04  0.17547787802E+04  0.00000000000E+00 0. -1.
          1   -1    0    0  501    0 -0.00000000000E+00 -0.00000000000E+00 -0.20332810016E+01  0.20332810016E+01  0.00000000000E+00 0. -1.
          2    1    1    2  501    0  0.36433210088E+02  0.23459302691E+02  0.14809609888E+04  0.14815948056E+04  0.00000000000E+00 0. -1.
          1    1    1    2  502    0 -0.36433210088E+02 -0.23459302691E+02  0.27178451045E+03  0.27521725563E+03  0.00000000000E+00 0. -1.
</event>
<event>
 4    1  0.7416369E+003  0.2328852E+02  0.7546771E-02  0.1488907E+00
          2   -1    0    0  502    0  0.00000000000E+00  0.00000000000E+00  0.57172655043E+01  0.57172655043E+01  0.00000000000E+00 0.  1.
          1   -1    0    0  501    0 -0.00000000000E+00 -0.00000000000E+00 -0.40919122227E+03  0.40919122227E+03  0.00000000000E+00 0.  1.
          2    1    1    2  501    0  0.16358754815E+02 -0.16575478250E+02 -0.19913043165E+02  0.30641224297E+02  0.00000000000E+00 0.  1.
          1    1    1    2  502    0 -0.16358754815E+02  0.16575478250E+02 -0.38356091360E+03  0.38426726348E+03  0.00000000000E+00 0.  1.
</event>
<event>
 4    1  0.7416369E+003  0.2736369E+02  0.7546771E-02  0.1443989E+00
          2   -1    0    0  502    0  0.00000000000E+00  0.00000000000E+00  0.23304811940E+02  0.23304811940E+02  0.00000000000E+00 0. -1.
          1   -1    0    0  501    0 -0.00000000000E+00 -0.00000000000E+00 -0.13638798354E+03  0.13638798354E+03  0.00000000000E+00 0. -1.
          2    1    1    2  501    0  0.23977446986E+02  0.13185352682E+02  0.13269278848E+02  0.30411268479E+02  0.00000000000E+00 0. -1.
          1    1    1    2  502    0 -0.23977446986E+02 -0.13185352682E+02 -0.12635245045E+03  0.12928152700E+03  0.00000000000E+00 0. -1.
</event>
<event>
 4    1  0.7416369E+003  0.4045229E+02  0.7546771E-02  0.1345856E+00
          2   -1    0    0  502    0  0.00000000000E+00  0.00000000000E+00  0.73712555529E+03  0.73712555529E+03  0.00000000000E+00 0. -1.
          1   -1    0    0  501    0 -0.00000000000E+00 -0.00000000000E+00 -0.32558893645E+02  0.32558893645E+02  0.00000000000E+00 0.  1.
          2    1    1    2  501    0  0.33557346231E+02  0.22589653871E+02  0.72377413298E+03  0.72490370638E+03  0.00000000000E+00 0. -1.
          1    1    1    2  502    0 -0.33557346231E+02 -0.22589653871E+02 -0.19207471342E+02  0.44780742551E+02  0.00000000000E+00 0.  1.
</event>
<event>
 4    1  0.7416369E+003  0.2984639E+02  0.7546771E-02  0.1420936E+00
          2   -1    0    0  502    0  0.00000000000E+00  0.00000000000E+00  0.31412597848E+03  0.31412597848E+03  0.00000000000E+00 0.  1.
          1   -1    0    0  501    0 -0.00000000000E+00 -0.00000000000E+00 -0.15429324000E+02  0.15429324000E+02  0.00000000000E+00 0. -1.
          2    1    1    2  501    0 -0.28858973960E+02 -0.76135918559E+01  0.29821518368E+03  0.29970502655E+03  0.00000000000E+00 0.  1.
          1    1    1    2  502    0  0.28858973960E+02  0.76135918559E+01  0.48147079376E+00  0.29850275930E+02  0.00000000000E+00 0. -1.
</event>
<event>
 4    1  0.7416369E+003  0.2237848E+02  0.7546771E-02  0.1500454E+00
          2   -1    0    0  502    0  0.00000000000E+00  0.00000000000E+00  0.19104157327E+04  0.19104157327E+04  0.00000000000E+00 0. -1.
          1   -1    0    0  501    0 -0.00000000000E+00 -0.00000000000E+00 -0.28944819319E+00  0.28944819319E+00  0.00000000000E+00 0.  1.
          2    1    1    2  501    0 -0.98480986129E+01 -0.20095059664E+02  0.12485065631E+04  0.12487071052E+04  0.00000000000E+00 0. -1.
          1    1    1    2  502    0  0.98480986129E+01  0.20095059664E+02  0.66161972141E+03  0.66199807570E+03  0.00000000000E+00 0.  1.
</event>
<event>
 4    1  0.7416369E+003  0.2438505E+02  0.7546771E-02  0.1475802E+00
          2   -1    0    0  502    0  0.00000000000E+00  0.00000000000E+00  0.44796388412E+03  0.44796388412E+03  0.00000000000E+00 0.  1.
          1   -1    0    0  501    0 -0.00000000000E+00 -0.00000000000E+00 -0.94180991207E+01  0.94180991207E+01  0.00000000000E+00 0.  1.
          2    1    1    2  501    0  0.76787722581E+01 -0.23144480163E+02  0.43123599134E+03  0.43192489015E+03  0.00000000000E+00 0.  1.
          1    1    1    2  502    0 -0.76787722581E+01  0.23144480163E+02  0.73097936643E+01  0.25457093094E+02  0.00000000000E+00 0.  1.
</event>
<event>
 4    1  0.7416369E+003  0.2217447E+02  0.7546771E-02  0.1503133E+00
          2   -1    0    0  502    0  0.00000000000E+00  0.00000000000E+00  0.25518307316E+03  0.25518307316E+03  0.00000000000E+00 0.  1.
          1   -1    0    0  501    0 -0.00000000000E+00 -0.00000000000E+00 -0.57175399948E+03  0.57175399948E+03  0.00000000000E+00 0.  1.
          2    1    1    2  501    0  0.16925851137E+02  0.14325588257E+02  0.25448576607E+03  0.25545001869E+03  0.00000000000E+00 0.  1.
          1    1    1    2  502    0 -0.16925851137E+02 -0.14325588257E+02 -0.57105669239E+03  0.57148705395E+03  0.00000000000E+00 0.  1.
</event>
<event>
 4    1  0.7416369E+003  0.3413795E+02  0.7546771E-02  0.1386727E+00
          2   -1    0    0  502    0  0.00000000000E+00  0.00000000000E+00  0.15982160819E+04  0.15982160819E+04  0.00000000000E+00 0. -1.
          1   -1    0    0  501    0 -0.00000000000E+00 -0.00000000000E+00 -0.28425756225E+01  0.28425756225E+01  0.00000000000E+00 0.  1.
          2    1    1    2  501    0  0.29877306853E+02 -0.16515023908E+02  0.14879437960E+04  0.14883353586E+04  0.00000000000E+00 0. -1.
          1    1    1    2  502    0 -0.29877306853E+02  0.16515023908E+02  0.10742971031E+03  0.11272329899E+03  0.00000000000E+00 0.  1.
</event>
<event>
 4    1  0.7416369E+003  0.2145019E+02  0.7546771E-02  0.1512933E+00
          2   -1    0    0  502    0  0.00000000000E+00  0.00000000000E+00  0.96674663795E+02  0.96674663795E+02  0.00000000000E+00 0.  1.
          1   -1    0    0  501    0 -0.00000000000E+00 -0.00000000000E+00 -0.12434461053E+03  0.12434461053E+03  0.00000000000E+00 0. -1.
          2    1    1    2  501    0 -0.57825979402E+01  0.20656043272E+02  0.94539115490E+02  0.96942018342E+02  0.00000000000E+00 0.  1.
          1    1    1    2  502    0  0.57825979402E+01 -0.20656043272E+02 -0.12220906223E+03  0.12407725599E+03  0.00000000000E+00 0. -1.
</event>
<event>
 4    1  0.7416369E+003  0.3398215E+02  0.7546771E-02  0.1387864E+00
          2   -1    0    0  502    0  0.00000000000E+00  0.00000000000E+00  0.18297839493E+02  0.18297839493E+02  0.00000000000E+00 0.  1.
          1   -1    0    0  501    0 -0.00000000000E+00 -0.00000000000E+00 -0.13499239031E+04  0.13499239031E+04  0.00000000000E+00 0. -1.
          2    1    1    2  501    0 -0.25751007108E+02 -0.22173685717E+02  0.21149342520E+01  0.34047902318E+02  0.00000000000E+00 0.  1.
          1    1    1    2  502    0  0.25751007108E+02  0.22173685717E+02 -0.13337409979E+04  0.13341738403E+04  0.00000000000E+00 0. -1.
</event>
<event>
 4    1  0.7416369E+003  0.4727132E+02  0.7546771E-02  0.1310457E+00
          2   -1    0    0  502    0  0.00000000000E+00  0.00000000000E+00  0.20736427270E+02  0.20736427270E+02  0.00000000000E+00 0.  1.
          1   -1    0    0  501    0 -0.00000000000E+00 -0.00000000000E+00 -0.85811705605E+03  0.85811705605E+03  0.00000000000E+00 0. -1.
          2    1    1    2  501    0 -0.33126981945E+02 -0.33722114416E+02 -0.77801213264E+01  0.47907287768E+02  0.00000000000E+00 0.  1.
          1    1    1    2  502    0  0.33126981945E+02  0.33722114416E+02 -0.82960050746E+03  0.83094619555E+03  0.00000000000E+00 0. -1.
</event>
<event>
 4    1  0.7416369E+003  0.2617842E+02  0.7546771E-02  0.1456040E+00
          2   -1    0    0  502    0  0.00000000000E+00  0.00000000000E+00  0.18639002641E+04  0.18639002641E+04  0.00000000000E+00 0.  1.
          1   -1    0    0  501    0 -0.00000000000E+00 -0.00000000000E+00 -0.74328904551E+00  0.74328904551E+00  0.00000000000E+00 0.  1.
          2    1    1    2  501    0  0.60575783595E+01  0.25467931524E+02  0.15943407818E+04  0.15945556868E+04  0.00000000000E+00 0.  1.
          1    1    1    2  502    0 -0.60575783595E+01 -0.25467931524E+02  0.26881619318E+03  0.27008786627E+03  0.00000000000E+00 0.  1.
</event>
<event>
 4    1  0.7416369E+003  0.2137413E+02  0.7546771E-02  0.1513990E+00
          2   -1    0    0  502    0  0.00000000000E+00  0.00000000000E+00  0.26322969903E+00  0.26322969903E+00  0.00000000000E+00 0. -1.
          1   -1    0    0  501    0 -0.00000000000E+00 -0.00000000000E+00 -0.19794688412E+04  0.19794688412E+04  0.00000000000E+00 0.  1.
          2    1    1    2  501    0  0.13960888614E+02  0.16184777054E+02 -0.64214068809E+03  0.64249631650E+03  0.00000000000E+00 0. -1.
          1    1    1    2  502    0 -0.13960888614E+02 -0.16184777054E+02 -0.13370649234E+04  0.13372357544E+04  0.00000000000E+00 0.  1.
</event>
<event>
 4    1  0.7416369E+003  0.2877669E+02  0.7546771E-02  0.1430533E+00
          2   -1    0    0  502    0  0.00000000000E+00  0.00000000000E+00  0.28008042169E+01  0.28008042169E+01  0.00000000000E+00 0. -1.
          1   -1    0    0  501    0 -0.00000000000E+00 -0.00000000000E+00 -0.32592081466E+03  0.32592081466E+03  0.00000000000E+00 0. -1.
          2    1    1    2  501    0  0.20357085841E+02 -0.20339300814E+02 -0.11148154740E+03  0.11513571779E+03  0.00000000000E+00 0. -1.
          1    1    1    2  502    0 -0.20357085841E+02  0.20339300814E+02 -0.21163846305E+03  0.21358590109E+03  0.00000000000E+00 0. -1.
</event>
<event>
 4    1  0.7416369E+003  0.3026836E+02  0.7546771E-02  0.1417278E+00
          2   -1    0    0  502    0  0.00000000000E+00  0.00000000000E+00  0.26375503132E+03  0.26375503132E+03  0.00000000000E+00 0. -1.
          1   -1    0    0  501    0 -0.00000000000E+00 -0.00000000000E+00 -0.34735923808E+01  0.34735923808E+01  0.00000000000E+00 0. -1.
          2    1    1    2  501    0 -0.14583746431E+02 -0.26523348153E+02  0.13041319267E+03  0.13387970152E+03  0.00000000000E+00 0. -1.
          1    1    1    2  502    0  0.14583746431E+02  0.26523348153E+02  0.12986824627E+03  0.13334892218E+03  0.00000000000E+00 0. -1.
</event>
<event>
 4    1  0.7416369E+003  0.4936527E+02  0.7546771E-02  0.1300948E+00
          2   -1    0    0  502    0  0.00000000000E+00  0.00000000000E+00  0.19499760901E+03  0.19499760901E+03  0.00000000000E+00 0. -1.
          1   -1    0    0  501    0 -0.00000000000E+00 -0.00000000000E+00 -0.11123960448E+03  0.11123960448E+03  0.00000000000E+00 0.  1.
          2    1    1    2  501    0  0.24313848981E+02  0.42962385302E+02  0.18614036684E+03  0.19257509177E+03  0.00000000000E+00 0. -1.
          1    1    1    2  502    0 -0.24313848981E+02 -0.42962385302E+02 -0.10238236231E+03  0.11366212172E+03  0.00000000000E+00 0.  1.
</event>
<event>
 4    1  0.7416369E+003  0.4858185E+02  0.7546771E-02  0.1304441E+00
          2   -1    0    0  502    0  0.00000000000E+00  0.00000000000E+00  0.62156885091E+03  0.62156885091E+03  0.00000000000E+00 0. -1.
          1   -1    0    0  501    0 -0.00000000000E+00 -0.00000000000E+00 -0.91191948445E+02  0.91191948445E+02  0.00000000000E+00 0.  1.
          2    1    1    2  501    0  0.20361445564E+02  0.44109038976E+02  0.61407026628E+03  0.61598903214E+03  0.00000000000E+00 0. -1.
          1    1    1    2  502    0 -0.20361445564E+02 -0.44109038976E+02 -0.83693363812E+02  0.96771767221E+02  0.00000000000E+00 0.  1.
</event>
<event>
 4    1  0.7416369E+003  0.2509581E+02  0.7546771E-02  0.1467734E+00
          2   -1    0    0  502    0  0.00000000000E+00  0.00000000000E+00  0.52137654119E+02  0.52137654119E+02  0.00000000000E+00 0.  1.
          1   -1    0    0  501    0 -0.00000000000E+00 -0.00000000000E+00 -0.68158920636E+03  0.68158920636E+03  0.00000000000E+00 0. -1.
          2    1    1    2  501    0  0.23580594014E+02  0.85880953749E+01  0.48872227880E+02  0.54939006673E+02  0.00000000000E+00 0.  1.
          1    1    1    2  502    0 -0.23580594014E+02 -0.85880953749E+01 -0.67832378012E+03  0.67878785381E+03  0.00000000000E+00 0. -1.
</event>
<event>
 4    1  0.7416369E+003  0.4068831E+02  0.7546771E-02  0.1344499E+00
          2   -1    0    0  502    0  0.00000000000E+00  0.00000000000E+00  0.99798536646E+02  0.99798536646E+02  0.00000000000E+00 0.  1.
          1   -1    0    0  501    0 -0.00000000000E+00 -0.00000000000E+00 -0.13946550431E+04  0.13946550431E+04  0.00000000000E+00 0. -1.
          2    1    1    2  501    0  0.30864247733E+02  0.26512958165E+02  0.95341275854E+02  0.10366049209E+03  0.00000000000E+00 0.  1.
          1    1    1    2  502    0 -0.30864247733E+02 -0.26512958165E+02 -0.13901977824E+04  0.13907930877E+04  0.00000000000E+00 0. -1.
</event>
<event>
 4    1  0.7416369E+003  0.2271035E+02  0.7546771E-02  0.1496168E+00
          2   -1    0    0  502    0  0.00000000000E+00  0.00000000000E+00  0.64693168211E+03  0.64693168211E+03  0.00000000000E+00 0. -1.
          1   -1    0    0  501    0 -0.00000000000E+00 -0.00000000000E+00 -0.91820806666E+02  0.91820806666E+02  0.00000000000E+00 0. -1.
          2    1    1    2  501    0 -0.43877986231E+01  0.22282438252E+02  0.64532461972E+03  0.64572410877E+03  0.00000000000E+00 0. -1.
          1    1    1    2  502    0  0.43877986231E+01 -0.22282438252E+02 -0.90213744273E+02  0.93028380008E+02  0.00000000000E+00 0. -1.
</event>
<event>
 4    1  0.7416369E+003  0.2436399E+02  0.7546771E-02  0.1476046E+00
          2   -1    0    0  502    0  0.00000000000E+00  0.00000000000E+00  0.11866656098E+03  0.11866656098E+03  0.00000000000E+00 0. -1.
          1   -1    0    0  501    0 -0.00000000000E+00 -0.00000000000E+00 -0.15579760554E+02  0.15579760554E+02  0.00000000000E+00 0.  1.
          2    1    1    2  501    0  0.22308814887E+02  0.97939213905E+01  0.10685076891E+03  0.10959329785E+03  0.00000000000E+00 0. -1.
          1    1    1    2  502    0 -0.22308814887E+02 -0.97939213905E+01 -0.37639684826E+01  0.24653023681E+02  0.00000000000E+00 0.  1.
</event>
<event>
 4    1  0.7416369E+003  0.2106648E+02  0.7546771E-02  0.1518318E+00
          2   -1    0    0  502    0  0.00000000000E+00  0.00000000000E+00  0.94104098332E+03  0.94104098332E+03  0.00000000000E+00 0. -1.
          1   -1    0    0  501    0 -0.00000000000E+00 -0.00000000000E+00 -0.50820483671E+01  0.50820483671E+01  0.00000000000E+00 0. -1.
          2    1    1    2  501    0 -0.80619209935E+01  0.19462833706E+02  0.91855720130E+03  0.91879874212E+03  0.00000000000E+00 0. -1.
          1    1    1    2  502    0  0.80619209935E+01 -0.19462833706E+02  0.17401733648E+02  0.27324289559E+02  0.00000000000E+00 0. -1.
</event>
<event>
 4    1  0.7416369E+003  0.2224012E+02  0.7546771E-02  0.1502267E+00
          2   -1    0    0  502    0  0.00000000000E+00  0.00000000000E+00  0.44479132640E+03  0.44479132640E+03  0.00000000000E+00 0.  1.
          1   -1    0    0  501    0 -0.00000000000E+00 -0.00000000000E+00 -0.23894133319E+02  0.23894133319E+02  0.00000000000E+00 0.  1.
          2    1    1    2  501    0 -0.21383776220E+02 -0.61120316966E+01  0.43927320054E+03  0.43983584157E+03  0.00000000000E+00 0.  1.
          1    1    1    2  502    0  0.21383776220E+02  0.61120316966E+01 -0.18376007462E+02  0.28849618145E+02  0.00000000000E+00 0.  1.
</event>
<event>
 4    1  0.7416369E+003  0.3041127E+02  0.7546771E-02  0.1416055E+00
          2   -1    0    0  502    0  0.00000000000E+00  0.00000000000E+00  0.46086330801E+03  0.46086330801E+03  0.00000000000E+00 0. -1.
          1   -1    0    0  501    0 -0.00000000000E+00 -0.00000000000E+00 -0.64784590213E+02  0.64784590213E+02  0.00000000000E+00 0. -1.
          2    1    1    2  501    0 -0.75563914557E+01 -0.29457537408E+02  0.45676066962E+03  0.45777194636E+03  0.00000000000E+00 0. -1.
          1    1    1    2  502    0  0.75563914557E+01  0.29457537408E+02 -0.60681951833E+02  0.67875951855E+02  0.00000000000E+00 0. -1.
</event>
<event>
 4    1  0.7416369E+003  0.3188257E+02  0.7546771E-02  0.1403913E+00
          2   -1    0    0  502    0  0.00000000000E+00  0.00000000000E+00  0.78981564815E+03  0.78981564815E+03  0.00000000000E+00 0.  1.
          1   -1    0    0  501    0 -0.00000000000E+00 -0.00000000000E+00 -0.90692569426E+01  0.90692569426E+01  0.00000000000E+00 0.  1.
          2    1    1    2  501    0 -0.31810447706E+02 -0.21432730361E+01  0.76038958098E+03  0.76105769365E+03  0.00000000000E+00 0.  1.
          1    1    1    2  502    0  0.31810447706E+02  0.21432730361E+01  0.20356810220E+02  0.37827211435E+02  0.00000000000E+00 0.  1.
</event>
<event>
 4    1  0.7416369E+003  0.2468663E+02  0.7546771E-02  0.1472340E+00
          2   -1    0    0  502    0  0.00000000000E+00  0.00000000000E+00  0.88510730905E+03  0.88510730905E+03  0.00000000000E+00 0. -1.
          1   -1    0    0  501    0 -0.00000000000E+00 -0.00000000000E+00 -0.19954620447E+02  0.19954620447E+02  0.00000000000E+00 0. -1.
          2    1    1    2  501    0  0.27735690374E+01  0.24530324098E+02  0.87723144617E+03  0.87757873700E+03  0.00000000000E+00 0. -1.
          1    1    1    2  502    0 -0.27735690374E+01 -0.24530324098E+02 -0.12078757565E+02  0.27483192498E+02  0.00000000000E+00 0. -1.
</event>
<event>
 4    1  0.7416369E+003  0.2188178E+02  0.7546771E-02  0.1507038E+00
          2   -1    0    0  502    0  0.00000000000E+00  0.00000000000E+00  0.67874210192E+01  0.67874210192E+01  0.00000000000E+00 0.  1.
          1   -1    0    0  501    0 -0.00000000000E+00 -0.00000000000E+00 -0.35272425218E+03  0.35272425218E+03  0.00000000000E+00 0. -1.
          2    1    1    2  501    0 -0.72748468496E+01  0.20637075753E+02 -0.12189684780E+02  0.25047968129E+02  0.00000000000E+00 0.  1.
          1    1    1    2  502    0  0.72748468496E+01 -0.20637075753E+02 -0.33374714638E+03  0.33446370507E+03  0.00000000000E+00 0. -1.
</event>
<event>
 4    1  0.7416369E+003  0.2520546E+02  0.7546771E-02  0.1466518E+00
          2   -1    0    0  502    0  0.00000000000E+00  0.00000000000E+00  0.79153637250E+02  0.79153637250E+02  0.00000000000E+00 0. -1.
          1   -1    0    0  501    0 -0.00000000000E+00 -0.00000000000E+00 -0.23559952830E+03  0.23559952830E+03  0.00000000000E+00 0. -1.
          2    1    1    2  501    0  0.24425367122E+02  0.62222547985E+01  0.76449672829E+02  0.80497624124E+02  0.00000000000E+00 0. -1.
          1    1    1    2  502    0 -0.24425367122E+02 -0.62222547985E+01 -0.23289556387E+03  0.23425554142E+03  0.00000000000E+00 0. -1.
</event>
<event>
 4    1  0.7416369E+003  0.2852626E+02  0.7546771E-02  0.1432851E+00
          2   -1    0    0  502    0  0.00000000000E+00  0.00000000000E+00  0.39857802810E+01  0.39857802810E+01  0.00000000000E+00 0.  1.
          1   -1    0    0  501    0 -0.00000000000E+00 -0.00000000000E+00 -0.23285527597E+03  0.23285527597E+03  0.00000000000E+00 0.  1.
          2    1    1    2  501    0  0.21674654900E+01  0.28443782539E+02 -0.15600384634E+03  0.15859050017E+03  0.00000000000E+00 0.  1.
          1    1    1    2  502    0 -0.21674654900E+01 -0.28443782539E+02 -0.72865649355E+02  0.78250556085E+02  0.00000000000E+00 0.  1.
</event>
<event>
 4    1  0.7451978E+003  0.2199864E+02  0.7546771E-02  0.1505470E+00
          2   -1    0    0  502    0  0.00000000000E+00  0.00000000000E+00  0.13585391527E+04  0.13585391527E+04  0.00000000000E+00 0. -1.
          1   -1    0    0  501    0 -0.00000000000E+00 -0.00000000000E+00 -0.17197782329E+03  0.17197782329E+03  0.00000000000E+00 0.  1.
          2    1    1    2  501    0  0.17662955285E+02 -0.13113354857E+02  0.13577461946E+04  0.13579243974E+04  0.00000000000E+00 0. -1.
          1    1    1    2  502    0 -0.17662955285E+02  0.13113354857E+02 -0.17118486527E+03  0.17259257853E+03  0.00000000000E+00 0.  1.
</event>
<event>
 4    1  0.7416369E+003  0.2087192E+02  0.7546771E-02  0.1521101E+00
          2   -1    0    0  502    0  0.00000000000E+00  0.00000000000E+00  0.87122254129E+03  0.87122254129E+03  0.00000000000E+00 0. -1.
          1   -1    0    0  501    0 -0.00000000000E+00 -0.00000000000E+00 -0.64616024146E+02  0.64616024146E+02  0.00000000000E+00 0. -1.
          2    1    1    2  501    0 -0.18417327715E+02  0.98203384887E+01  0.86940853403E+03  0.86965903436E+03  0.00000000000E+00 0. -1.
          1    1    1    2  502    0  0.18417327715E+02 -0.98203384887E+01 -0.62802016885E+02  0.66179531073E+02  0.00000000000E+00 0. -1.
</event>
<event>
 4    1  0.7416369E+003  0.2845615E+02  0.7546771E-02  0.1433505E+00
          2   -1    0    0  502    0  0.00000000000E+00  0.00000000000E+00  0.60854163165E+03  0.60854163165E+03  0.00000000000E+00 0.  1.
          1   -1    0    0  501    0 -0.00000000000E+00 -0.00000000000E+00 -0.20024247646E+01  0.20024247646E+01  0.00000000000E+00 0.  1.
          2    1    1    2  501    0 -0.20484893576E+02 -0.19751500077E+02  0.48008598752E+03  0.48092858933E+03  0.00000000000E+00 0.  1.
          1    1    1    2  502    0  0.20484893576E+02  0.19751500077E+02  0.12645321936E+03  0.12961546708E+03  0.00000000000E+00 0.  1.
</event>
<event>
 4    1  0.7416369E+003  0.4887671E+02  0.7546771E-02  0.1303117E+00
          2   -1    0    0  502    0  0.00000000000E+00  0.00000000000E+00  0.14602207628E+04  0.14602207628E+04  0.00000000000E+00 0. -1.
          1   -1    0    0  501    0 -0.00000000000E+00 -0.00000000000E+00 -0.51035660593E+01  0.51035660593E+01  0.00000000000E+00 0. -1.
          2    1    1    2  501    0  0.38390348754E+02  0.30250849775E+02  0.13314777019E+04  0.13323744982E+04  0.00000000000E+00 0. -1.
          1    1    1    2  502    0 -0.38390348754E+02 -0.30250849775E+02  0.12363949489E+03  0.13294983071E+03  0.00000000000E+00 0. -1.
</event>
<event>
 4    1  0.7416369E+003  0.2923256E+02  0.7546771E-02  0.1426385E+00
          2   -1    0    0  502    0  0.00000000000E+00  0.00000000000E+00  0.52439391158E+01  0.52439391158E+01  0.00000000000E+00 0. -1.
          1   -1    0    0  501    0 -0.00000000000E+00 -0.00000000000E+00 -0.96720457724E+03  0.96720457724E+03  0.00000000000E+00 0.  1.
          2    1    1    2  501    0  0.26913846553E+02 -0.11409964443E+02 -0.37604472330E+02  0.47630229519E+02  0.00000000000E+00 0. -1.
          1    1    1    2  502    0 -0.26913846553E+02  0.11409964443E+02 -0.92435616580E+03  0.92481828684E+03  0.00000000000E+00 0.  1.
</event>
<event>
 4    1  0.7416369E+003  0.5200949E+02  0.7546771E-02  0.1289687E+00
          2   -1    0    0  502    0  0.00000000000E+00  0.00000000000E+00  0.50010019626E+02  0.50010019626E+02  0.00000000000E+00 0.  1.
          1   -1    0    0  501    0 -0.00000000000E+00 -0.00000000000E+00 -0.10963665873E+04  0.10963665873E+04  0.00000000000E+00 0. -1.
          2    1    1    2  501    0 -0.35090073862E+02 -0.38388461455E+02  0.35692160636E+02  0.63078661902E+02  0.00000000000E+00 0.  1.
          1    1    1    2  502    0  0.35090073862E+02  0.38388461455E+02 -0.10820487283E+04  0.10832979451E+04  0.00000000000E+00 0. -1.
</event>
<event>
 4    1  0.7416369E+003  0.2128362E+02  0.7546771E-02  0.1515254E+00
          2   -1    0    0  502    0  0.00000000000E+00  0.00000000000E+00  0.10297576063E+02  0.10297576063E+02  0.00000000000E+00 0. -1.
          1   -1    0    0  501    0 -0.00000000000E+00 -0.00000000000E+00 -0.69535172709E+02  0.69535172709E+02  0.00000000000E+00 0. -1.
          2    1    1    2  501    0 -0.92856496737E+01 -0.19151207804E+02 -0.53812473968E+02  0.57868596015E+02  0.00000000000E+00 0. -1.
          1    1    1    2  502    0  0.92856496737E+01  0.19151207804E+02 -0.54251226782E+01  0.21964152756E+02  0.00000000000E+00 0. -1.
</event>
<event>
 4    1  0.7416369E+003  0.2071568E+02  0.7546771E-02  0.1523363E+00
          2   -1    0    0  502    0  0.00000000000E+00  0.00000000000E+00  0.94276701065E+03  0.94276701065E+03  0.00000000000E+00 0. -1.
          1   -1    0    0  501    0 -0.00000000000E+00 -0.00000000000E+00 -0.41682200703E+01  0.41682200703E+01  0.00000000000E+00 0.  1.
          2    1    1    2  501    0  0.17107906167E+02 -0.11681566654E+02  0.91616724402E+03  0.91640141776E+03  0.00000000000E+00 0. -1.
          1    1    1    2  502    0 -0.17107906167E+02  0.11681566654E+02  0.22431546556E+02  0.30533812959E+02  0.00000000000E+00 0.  1.
</event>
<event>
 4    1  0.7416369E+003  0.3733163E+02  0.7546771E-02  0.1364874E+00
          2   -1    0    0  502    0  0.00000000000E+00  0.00000000000E+00  0.31603284060E+01  0.31603284060E+01  0.00000000000E+00 0. -1.
          1   -1    0    0  501    0 -0.00000000000E+00 -0.00000000000E+00 -0.50727665641E+03  0.50727665641E+03  0.00000000000E+00 0.  1.
          2    1    1    2  501    0  0.37116084254E+02  0.40058239388E+01 -0.15979539592E+03  0.16409819893E+03  0.00000000000E+00 0. -1.
          1    1    1    2  502    0 -0.37116084254E+02 -0.40058239388E+01 -0.34432093208E+03  0.34633878588E+03  0.00000000000E+00 0.  1.
</event>
<event>
 4    1  0.7416369E+003  0.2159730E+02  0.7546771E-02  0.1510905E+00
          2   -1    0    0  502    0  0.00000000000E+00  0.00000000000E+00  0.19296848747E+01  0.19296848747E+01  0.00000000000E+00 0. -1.
          1   -1    0    0  501    0 -0.00000000000E+00 -0.00000000000E+00 -0.70575813760E+03  0.70575813760E+03  0.00000000000E+00 0. -1.
          2    1    1    2  501    0  0.13861630928E+02 -0.16561957236E+02 -0.64994331556E+02  0.68488731730E+02  0.00000000000E+00 0. -1.
          1    1    1    2  502    0 -0.13861630928E+02  0.16561957236E+02 -0.63883412117E+03  0.63919909075E+03  0.00000000000E+00 0. -1.
</event>
<event>
 4    1  0.7416369E+003  0.3195577E+02  0.7546771E-02  0.1403329E+00
          2   -1    0    0  502    0  0.00000000000E+00  0.00000000000E+00  0.20309229577E+04  0.20309229577E+04  0.00000000000E+00 0.  1.
          1   -1    0    0  501    0 -0.00000000000E+00 -0.00000000000E+00 -0.67082099164E+02  0.67082099164E+02  0.00000000000E+00 0. -1.
          2    1    1    2  501    0  0.24600926081E+02 -0.20395243106E+02  0.20269841821E+04  0.20272360608E+04  0.00000000000E+00 0.  1.
          1    1    1    2  502    0 -0.24600926081E+02  0.20395243106E+02 -0.63143323546E+02  0.70768996135E+02  0.00000000000E+00 0. -1.
</event>
<event>
 4    1  0.7416369E+003  0.2835728E+02  0.7546771E-02  0.1434430E+00
          2   -1    0    0  502    0  0.00000000000E+00  0.00000000000E+00  0.27747527804E+03  0.27747527804E+03  0.00000000000E+00 0. -1.
          1   -1    0    0  501    0 -0.00000000000E+00 -0.00000000000E+00 -0.14522789548E+03  0.14522789548E+03  0.00000000000E+00 0.  1.
          2    1    1    2  501    0 -0.27711649704E+02  0.60166503043E+01  0.27535587540E+03  0.27681219939E+03  0.00000000000E+00 0. -1.
          1    1    1    2  502    0  0.27711649704E+02 -0.60166503043E+01 -0.14310849284E+03  0.14589097413E+03  0.00000000000E+00 0.  1.
</event>
<event>
 4    1  0.7416369E+003  0.2215590E+02  0.7546771E-02  0.1503378E+00
          2   -1    0    0  502    0  0.00000000000E+00  0.00000000000E+00  0.57968893352E+03  0.57968893352E+03  0.00000000000E+00 0. -1.
          1   -1    0    0  501    0 -0.00000000000E+00 -0.00000000000E+00 -0.46751695211E+01  0.46751695211E+01  0.00000000000E+00 0.  1.
          2    1    1    2  501    0  0.22149138215E+02  0.54749944109E+00  0.55190687304E+03  0.55235141042E+03  0.00000000000E+00 0. -1.
          1    1    1    2  502    0 -0.22149138215E+02 -0.54749944109E+00  0.23106890957E+02  0.32012692624E+02  0.00000000000E+00 0.  1.
</event>
<event>
 4    1  0.7416369E+003  0.3371852E+02  0.7546771E-02  0.1389803E+00
          2   -1    0    0  502    0  0.00000000000E+00  0.00000000000E+00  0.35397931414E+01  0.35397931414E+01  0.00000000000E+00 0.  1.
          1   -1    0    0  501    0 -0.00000000000E+00 -0.00000000000E+00 -0.10656755558E+04  0.10656755558E+04  0.00000000000E+00 0.  1.
          2    1    1    2  501    0  0.17473388952E+02 -0.28837814533E+02 -0.84228516657E+02  0.90726963394E+02  0.00000000000E+00 0.  1.
          1    1    1    2  502    0 -0.17473388952E+02  0.28837814533E+02 -0.97790724597E+03  0.97848838551E+03  0.00000000000E+00 0.  1.
</event>
<event>
 4    1  0.7416369E+003  0.2557131E+02  0.7546771E-02  0.1462513E+00
          2   -1    0    0  502    0  0.00000000000E+00  0.00000000000E+00  0.72263109805E+03  0.72263109805E+03  0.00000000000E+00 0. -1.
          1   -1    0    0  501    0 -0.00000000000E+00 -0.00000000000E+00 -0.28324803313E+02  0.28324803313E+02  0.00000000000E+00 0.  1.
          2    1    1    2  501    0 -0.78287378433E+01 -0.24343434981E+02  0.71658482523E+03  0.71704093587E+03  0.00000000000E+00 0. -1.
          1    1    1    2  502    0  0.78287378433E+01  0.24343434981E+02 -0.22278530498E+02  0.33914965488E+02  0.00000000000E+00 0.  1.
</event>
<event>
 4    1  0.7416369E+003  0.3094970E+02  0.7546771E-02  0.1411519E+00
          2   -1    0    0  502    0  0.00000000000E+00  0.00000000000E+00  0.21225666288E+04  0.21225666288E+04  0.00000000000E+00 0.  1.
          1   -1    0    0  501    0 -0.00000000000E+00 -0.00000000000E+00 -0.95933287138E+00  0.95933287138E+00  0.00000000000E+00 0. -1.
          2    1    1    2  501    0 -0.23240654319E+02 -0.20439080897E+02  0.18334751955E+04  0.18337363978E+04  0.00000000000E+00 0.  1.
          1    1    1    2  502    0  0.23240654319E+02  0.20439080897E+02  0.28813210043E+03  0.28978956389E+03  0.00000000000E+00 0. -1.
</event>
<event>
 4    1  0.7416369E+003  0.2391374E+02  0.7546771E-02  0.1481332E+00
          2   -1    0    0  502    0  0.00000000000E+00  0.00000000000E+00  0.63242375668E+02  0.63242375668E+02  0.00000000000E+00 0.  1.
          1   -1    0    0  501    0 -0.00000000000E+00 -0.00000000000E+00 -0.21689300100E+03  0.21689300100E+03  0.00000000000E+00 0.  1.
          2    1    1    2  501    0  0.22452132747E+02 -0.82321749233E+01  0.60291518082E+02  0.64860882830E+02  0.00000000000E+00 0.  1.
          1    1    1    2  502    0 -0.22452132747E+02  0.82321749233E+01 -0.21394214341E+03  0.21527449384E+03  0.00000000000E+00 0.  1.
</event>
<event>
 4    1  0.7416369E+003  0.4757859E+02  0.7546771E-02  0.1309027E+00
          2   -1    0    0  502    0  0.00000000000E+00  0.00000000000E+00  0.10779795103E+04  0.10779795103E+04  0.00000000000E+00 0.  1.
          1   -1    0    0  501    0 -0.00000000000E+00 -0.00000000000E+00 -0.17162383497E+02  0.17162383497E+02  0.00000000000E+00 0.  1.
          2    1    1    2  501    0 -0.32842352841E+02 -0.34425310147E+02  0.10433867674E+04  0.10444709993E+04  0.00000000000E+00 0.  1.
          1    1    1    2  502    0  0.32842352841E+02  0.34425310147E+02  0.17430359475E+02  0.50670894508E+02  0.00000000000E+00 0.  1.
</event>
<event>
 4    1  0.7416369E+003  0.5152372E+02  0.7546771E-02  0.1291698E+00
          2   -1    0    0  502    0  0.00000000000E+00  0.00000000000E+00  0.70254338011E+03  0.70254338011E+03  0.00000000000E+00 0.  1.
          1   -1    0    0  501    0 -0.00000000000E+00 -0.00000000000E+00 -0.86056555566E+02  0.86056555566E+02  0.00000000000E+00 0. -1.
          2    1    1    2  501    0 -0.27629704998E+02  0.43489004115E+02  0.69378947177E+03  0.69570002531E+03  0.00000000000E+00 0.  1.
          1    1    1    2  502    0  0.27629704998E+02 -0.43489004115E+02 -0.77302647229E+02  0.92899910364E+02  0.00000000000E+00 0. -1.
</event>
<event>
 4    1  0.7416369E+003  0.2733316E+02  0.7546771E-02  0.1444290E+00
          2   -1    0    0  502    0  0.00000000000E+00  0.00000000000E+00  0.17822397701E+04  0.17822397701E+04  0.00000000000E+00 0.  1.
          1   -1    0    0  501    0 -0.00000000000E+00 -0.00000000000E+00 -0.26275874302E+01  0.26275874302E+01  0.00000000000E+00 0.  1.
          2    1    1    2  501    0 -0.22891317869E+02 -0.14936170854E+02  0.17079613561E+04  0.17081800536E+04  0.00000000000E+00 0.  1.
          1    1    1    2  502    0  0.22891317869E+02  0.14936170854E+02  0.71650826547E+02  0.76687303894E+02  0.00000000000E+00 0.  1.
</event>
<event>
 4    1  0.7416369E+003  0.3316415E+02  0.7546771E-02  0.1393950E+00
          2   -1    0    0  502    0  0.00000000000E+00  0.00000000000E+00  0.95381277884E+02  0.95381277884E+02  0.00000000000E+00 0.  1.
          1   -1    0    0  501    0 -0.00000000000E+00 -0.00000000000E+00 -0.21825107713E+03  0.21825107713E+03  0.00000000000E+00 0. -1.
          2    1    1    2  501    0  0.32900461818E+02 -0.41737505554E+01  0.91182406957E+02  0.97026243461E+02  0.00000000000E+00 0.  1.
          1    1    1    2  502    0 -0.32900461818E+02  0.41737505554E+01 -0.21405220620E+03  0.21660611155E+03  0.00000000000E+00 0. -1.
</event>
<event>
 4    1  0.7416369E+003  0.2432850E+02  0.7546771E-02  0.1476457E+00
          2   -1    0    0  502    0  0.00000000000E+00  0.00000000000E+00  0.32222875012E+03  0.32222875012E+03  0.00000000000E+00 0. -1.
          1   -1    0    0  501    0 -0.00000000000E+00 -0.00000000000E+00 -0.44254420494E+01  0.44254420494E+01  0.00000000000E+00 0.  1.
          2    1    1    2  501    0 -0.86702501367E+01 -0.22731096651E+02  0.28381656762E+03  0.28485736790E+03  0.00000000000E+00 0. -1.
          1    1    1    2  502    0  0.86702501367E+01  0.22731096651E+02  0.33986740450E+02  0.41796824267E+02  0.00000000000E+00 0.  1.
</event>
<event>
 4    1  0.7416369E+003  0.2738049E+02  0.7546771E-02  0.1443823E+00
          2   -1    0    0  502    0  0.00000000000E+00  0.00000000000E+00  0.37409462460E+03  0.37409462460E+03  0.00000000000E+00 0. -1.
          1   -1    0    0  501    0 -0.00000000000E+00 -0.00000000000E+00 -0.30859908899E+02  0.30859908899E+02  0.00000000000E+00 0.  1.
          2    1    1    2  501    0 -0.11036828971E+01 -0.27358239526E+02  0.36740993057E+03  0.36842875630E+03  0.00000000000E+00 0. -1.
          1    1    1    2  502    0  0.11036828971E+01  0.27358239526E+02 -0.24175214871E+02  0.36525777198E+02  0.00000000000E+00 0.  1.
</event>
<event>
 4    1  0.7416369E+003  0.4388453E+02  0.7546771E-02  0.1327112E+00
          2   -1    0    0  502    0  0.00000000000E+00  0.00000000000E+00  0.22185838933E+04  0.22185838933E+04  0.00000000000E+00 0.  1.
          1   -1    0    0  501    0 -0.00000000000E+00 -0.00000000000E+00 -0.21124053903E+03  0.21124053903E+03  0.00000000000E+00 0. -1.
          2    1    1    2  501    0 -0.36758099122E+02  0.23972777103E+02  0.22160850932E+04  0.22165195673E+04  0.00000000000E+00 0.  1.
          1    1    1    2  502    0  0.36758099122E+02 -0.23972777103E+02 -0.20874173891E+03  0.21330486506E+03  0.00000000000E+00 0. -1.
</event>
<event>
 4    1  0.7416369E+003  0.2096590E+02  0.7546771E-02  0.1519752E+00
          2   -1    0    0  502    0  0.00000000000E+00  0.00000000000E+00  0.74136290198E+02  0.74136290198E+02  0.00000000000E+00 0. -1.
          1   -1    0    0  501    0 -0.00000000000E+00 -0.00000000000E+00 -0.27802313644E+02  0.27802313644E+02  0.00000000000E+00 0. -1.
          2    1    1    2  501    0  0.20047267407E+02  0.61380673750E+01  0.68375845904E+02  0.71518005458E+02  0.00000000000E+00 0. -1.
          1    1    1    2  502    0 -0.20047267407E+02 -0.61380673750E+01 -0.22041869350E+02  0.30420598384E+02  0.00000000000E+00 0. -1.
</event>
<event>
 4    1  0.7416369E+003  0.2288870E+02  0.7546771E-02  0.1493901E+00
          2   -1    0    0  502    0  0.00000000000E+00  0.00000000000E+00  0.11679904740E+04  0.11679904740E+04  0.00000000000E+00 0. -1.
          1   -1    0    0  501    0 -0.00000000000E+00 -0.00000000000E+00 -0.20608855469E+01  0.20608855469E+01  0.00000000000E+00 0. -1.
          2    1    1    2  501    0 -0.13701367854E+02  0.18334800397E+02  0.11004248498E+04  0.11006628650E+04  0.00000000000E+00 0. -1.
          1    1    1    2  502    0  0.13701367854E+02 -0.18334800397E+02  0.65504738727E+02  0.69388494596E+02  0.00000000000E+00 0. -1.
</event>
<event>
 4    1  0.7416369E+003  0.2354172E+02  0.7546771E-02  0.1485806E+00
          2   -1    0    0  502    0  0.00000000000E+00  0.00000000000E+00  0.58764473600E+02  0.58764473600E+02  0.00000000000E+00 0.  1.
          1   -1    0    0  501    0 -0.00000000000E+00 -0.00000000000E+00 -0.15232493725E+02  0.15232493725E+02  0.00000000000E+00 0. -1.
          2    1    1    2  501    0  0.78530307845E+01 -0.22193297578E+02  0.44599110927E+02  0.50431074204E+02  0.00000000000E+00 0.  1.
          1    1    1    2  502    0 -0.78530307845E+01  0.22193297578E+02 -0.10671310522E+01  0.23565893121E+02  0.00000000000E+00 0. -1.
</event>
<event>
 4    1  0.7416369E+003  0.2115421E+02  0.7546771E-02  0.1517074E+00
          2   -1    0    0  502    0  0.00000000000E+00  0.00000000000E+00  0.96206503894E+03  0.96206503894E+03  0.00000000000E+00 0.  1.
          1   -1    0    0  501    0 -0.00000000000E+00 -0.00000000000E+00 -0.56944647215E+00  0.56944647215E+00  0.00000000000E+00 0.  1.
          2    1    1    2  501    0 -0.21026031052E+02 -0.23251874487E+01  0.68673896098E+03  0.68706469929E+03  0.00000000000E+00 0.  1.
          1    1    1    2  502    0  0.21026031052E+02  0.23251874487E+01  0.27475663148E+03  0.27556978612E+03  0.00000000000E+00 0.  1.
</event>
<event>
 4    1  0.7416369E+003  0.2504573E+02  0.7546771E-02  0.1468292E+00
          2   -1    0    0  502    0  0.00000000000E+00  0.00000000000E+00  0.35153168258E+02  0.35153168258E+02  0.00000000000E+00 0. -1.
          1   -1    0    0  501    0 -0.00000000000E+00 -0.00000000000E+00 -0.11342348550E+04  0.11342348550E+04  0.00000000000E+00 0.  1.
          2    1    1    2  501    0 -0.22732092553E+02  0.10513825499E+02  0.30535562361E+02  0.39493152915E+02  0.00000000000E+00 0. -1.
          1    1    1    2  502    0  0.22732092553E+02 -0.10513825499E+02 -0.11296172491E+04  0.11298948704E+04  0.00000000000E+00 0.  1.
</event>
<event>
 4    1  0.7416369E+003  0.2586743E+02  0.7546771E-02  0.1459329E+00
          2   -1    0    0  502    0  0.00000000000E+00  0.00000000000E+00  0.47095514816E+01  0.47095514816E+01  0.00000000000E+00 0.  1.
          1   -1    0    0  501    0 -0.00000000000E+00 -0.00000000000E+00 -0.51175339264E+03  0.51175339264E+03  0.00000000000E+00 0.  1.
          2    1    1    2  501    0 -0.10473581758E+01  0.25846217752E+02 -0.34044906694E+02  0.42757216970E+02  0.00000000000E+00 0.  1.
          1    1    1    2  502    0  0.10473581758E+01 -0.25846217752E+02 -0.47299893446E+03  0.47370572715E+03  0.00000000000E+00 0.  1.
</event>
<event>
 4    1  0.7416369E+003  0.2601390E+02  0.7546771E-02  0.1457773E+00
          2   -1    0    0  502    0  0.00000000000E+00  0.00000000000E+00  0.31524735228E+03  0.31524735228E+03  0.00000000000E+00 0.  1.
          1   -1    0    0  501    0 -0.00000000000E+00 -0.00000000000E+00 -0.39948705919E+03  0.39948705919E+03  0.00000000000E+00 0. -1.
          2    1    1    2  501    0 -0.16724009541E+02  0.19925622012E+02  0.31428590381E+03  0.31536067009E+03  0.00000000000E+00 0.  1.
          1    1    1    2  502    0  0.16724009541E+02 -0.19925622012E+02 -0.39852561072E+03  0.39937374138E+03  0.00000000000E+00 0. -1.
</event>
<event>
 4    1  0.7416369E+003  0.5402544E+02  0.7546771E-02  0.1281603E+00
          2   -1    0    0  502    0  0.00000000000E+00  0.00000000000E+00  0.13849682471E+04  0.13849682471E+04  0.00000000000E+00 0. -1.
          1   -1    0    0  501    0 -0.00000000000E+00 -0.00000000000E+00 -0.25368412528E+02  0.25368412528E+02  0.00000000000E+00 0. -1.
          2    1    1    2  501    0  0.11684752247E+02 -0.52746707666E+02  0.13550427961E+04  0.13561193634E+04  0.00000000000E+00 0. -1.
          1    1    1    2  502    0 -0.11684752247E+02  0.52746707666E+02  0.45570384435E+01  0.54217296171E+02  0.00000000000E+00 0. -1.
</event>
<event>
 4    1  0.7416369E+003  0.2601684E+02  0.7546771E-02  0.1457742E+00
          2   -1    0    0  502    0  0.00000000000E+00  0.00000000000E+00  0.71562423012E+01  0.71562423012E+01  0.00000000000E+00 0.  1.
          1   -1    0    0  501    0 -0.00000000000E+00 -0.00000000000E+00 -0.19071462516E+03  0.19071462516E+03  0.00000000000E+00 0.  1.
          2    1    1    2  501    0  0.25889324589E+02  0.25726750123E+01 -0.21538680101E+02  0.33775590667E+02  0.00000000000E+00 0.  1.
          1    1    1    2  502    0 -0.25889324589E+02 -0.25726750123E+01 -0.16201970275E+03  0.16409527679E+03  0.00000000000E+00 0.  1.
</event>
<event>
 4    1  0.7416369E+003  0.2654267E+02  0.7546771E-02  0.1452257E+00
          2   -1    0    0  502    0  0.00000000000E+00  0.00000000000E+00  0.86579377122E+03  0.86579377122E+03  0.00000000000E+00 0.  1.
          1   -1    0    0  501    0 -0.00000000000E+00 -0.00000000000E+00 -0.61273272367E+02  0.61273272367E+02  0.00000000000E+00 0.  1.
          2    1    1    2  501    0 -0.26500424147E+02  0.14969875344E+01  0.86270558116E+03  0.86311380085E+03  0.00000000000E+00 0.  1.
          1    1    1    2  502    0  0.26500424147E+02 -0.14969875344E+01 -0.58185082315E+02  0.63953242730E+02  0.00000000000E+00 0.  1.
</event>
<event>
 4    1  0.1255155E+004  0.2490551E+02  0.7546771E-02  0.1469863E+00
          2   -1    0    0  502    0  0.00000000000E+00  0.00000000000E+00  0.58858727944E+03  0.58858727944E+03  0.00000000000E+00 0. -1.
          1   -1    0    0  501    0 -0.00000000000E+00 -0.00000000000E+00 -0.91471164493E+03  0.91471164493E+03  0.00000000000E+00 0.  1.
          2    1    1    2  501    0 -0.18346620998E+02 -0.16842972174E+02  0.58815416153E+03  0.58868123967E+03  0.00000000000E+00 0. -1.
          1    1    1    2  502    0  0.18346620998E+02  0.16842972174E+02 -0.91427852701E+03  0.91461768470E+03  0.00000000000E+00 0.  1.
</event>
<event>
 4    1  0.7416369E+003  0.3595684E+02  0.7546771E-02  0.1373958E+00
          2   -1    0    0  502    0  0.00000000000E+00  0.00000000000E+00  0.11337277818E+02  0.11337277818E+02  0.00000000000E+00 0.  1.
          1   -1    0    0  501    0 -0.00000000000E+00 -0.00000000000E+00 -0.11408413435E+03  0.11408413435E+03  0.00000000000E+00 0.  1.
          2    1    1    2  501    0 -0.38447818788E+01  0.35750688573E+02 -0.50128847383E+02  0.61691129193E+02  0.00000000000E+00 0.  1.
          1    1    1    2  502    0  0.38447818788E+01 -0.35750688573E+02 -0.52618009148E+02  0.63730282973E+02  0.00000000000E+00 0.  1.
</event>
<event>
 4    1  0.7416369E+003  0.4976742E+02  0.7546771E-02  0.1299184E+00
          2   -1    0    0  502    0  0.00000000000E+00  0.00000000000E+00  0.20299212754E+04  0.20299212754E+04  0.00000000000E+00 0. -1.
          1   -1    0    0  501    0 -0.00000000000E+00 -0.00000000000E+00 -0.23455259144E+02  0.23455259144E+02  0.00000000000E+00 0.  1.
          2    1    1    2  501    0 -0.15754820340E+01 -0.49742476873E+02  0.20028604576E+04  0.20034786769E+04  0.00000000000E+00 0. -1.
          1    1    1    2  502    0  0.15754820340E+01  0.49742476873E+02  0.36055587022E+01  0.49897857696E+02  0.00000000000E+00 0.  1.
</event>
<event>
 4    1  0.7416369E+003  0.2347731E+02  0.7546771E-02  0.1486590E+00
          2   -1    0    0  502    0  0.00000000000E+00  0.00000000000E+00  0.12340206001E+04  0.12340206001E+04  0.00000000000E+00 0. -1.
          1   -1    0    0  501    0 -0.00000000000E+00 -0.00000000000E+00 -0.55052358026E+00  0.55052358026E+00  0.00000000000E+00 0. -1.
          2    1    1    2  501    0 -0.11555085308E+02 -0.20436818802E+02  0.34861040441E+03  0.34940005384E+03  0.00000000000E+00 0. -1.
          1    1    1    2  502    0  0.11555085308E+02  0.20436818802E+02  0.88485967208E+03  0.88517106981E+03  0.00000000000E+00 0. -1.
</event>
<event>
 4    1  0.7416369E+003  0.2561417E+02  0.7546771E-02  0.1462049E+00
          2   -1    0    0  502    0  0.00000000000E+00  0.00000000000E+00  0.50399308677E+01  0.50399308677E+01  0.00000000000E+00 0. -1.
          1   -1    0    0  501    0 -0.00000000000E+00 -0.00000000000E+00 -0.14371220578E+04  0.14371220578E+04  0.00000000000E+00 0.  1.
          2    1    1    2  501    0  0.21536555281E+02 -0.13865882809E+02 -0.28393682675E+02  0.38239863170E+02  0.00000000000E+00 0. -1.
          1    1    1    2  502    0 -0.21536555281E+02  0.13865882809E+02 -0.14036884442E+04  0.14039221255E+04  0.00000000000E+00 0.  1.
</event>
<event>
 4    1  0.7416369E+003  0.2613268E+02  0.7546771E-02  0.1456521E+00
          2   -1    0    0  502    0  0.00000000000E+00  0.00000000000E+00  0.73845692495E+03  0.73845692495E+03  0.00000000000E+00 0. -1.
          1   -1    0    0  501    0 -0.00000000000E+00 -0.00000000000E+00 -0.43135349258E+02  0.43135349258E+02  0.00000000000E+00 0. -1.
          2    1    1    2  501    0 -0.19253628456E+02  0.17669601990E+02  0.73424504088E+03  0.73470994080E+03  0.00000000000E+00 0. -1.
          1    1    1    2  502    0  0.19253628456E+02 -0.17669601990E+02 -0.38923465194E+02  0.46882333409E+02  0.00000000000E+00 0. -1.
</event>
<event>
 4    1  0.7416369E+003  0.2229804E+02  0.7546771E-02  0.1501506E+00
          2   -1    0    0  502    0  0.00000000000E+00  0.00000000000E+00  0.11265655800E+04  0.11265655800E+04  0.00000000000E+00 0.  1.
          1   -1    0    0  501    0 -0.00000000000E+00 -0.00000000000E+00 -0.44550475822E+00  0.44550475822E+00  0.00000000000E+00 0.  1.
          2    1    1    2  501    0 -0.22008480776E+02  0.35818101533E+01  0.61751975275E+03  0.61792220192E+03  0.00000000000E+00 0.  1.
          1    1    1    2  502    0  0.22008480776E+02 -0.35818101533E+01  0.50860032249E+03  0.50908888284E+03  0.00000000000E+00 0.  1.
</event>
<event>
 4    1  0.7416369E+003  0.2956253E+02  0.7546771E-02  0.1423437E+00
          2   -1    0    0  502    0  0.00000000000E+00  0.00000000000E+00  0.14455957162E+03  0.14455957162E+03  0.00000000000E+00 0. -1.
          1   -1    0    0  501    0 -0.00000000000E+00 -0.00000000000E+00 -0.69974603398E+02  0.69974603398E+02  0.00000000000E+00 0. -1.
          2    1    1    2  501    0  0.61381674280E+01 -0.28918267029E+02  0.13982116645E+03  0.14291221730E+03  0.00000000000E+00 0. -1.
          1    1    1    2  502    0 -0.61381674280E+01  0.28918267029E+02 -0.65236198228E+02  0.71621957713E+02  0.00000000000E+00 0. -1.
</event>
<event>
 4    1  0.7416369E+003  0.3213482E+02  0.7546771E-02  0.1401909E+00
          2   -1    0    0  502    0  0.00000000000E+00  0.00000000000E+00  0.88154802734E+01  0.88154802734E+01  0.00000000000E+00 0. -1.
          1   -1    0    0  501    0 -0.00000000000E+00 -0.00000000000E+00 -0.10155536487E+04  0.10155536487E+04  0.00000000000E+00 0.  1.
          2    1    1    2  501    0 -0.20892975421E+02  0.24415776325E+02 -0.21628551559E+02  0.38735523722E+02  0.00000000000E+00 0. -1.
          1    1    1    2  502    0  0.20892975421E+02 -0.24415776325E+02 -0.98510961683E+03  0.98563360522E+03  0.00000000000E+00 0.  1.
</event>
<event>
 4    1  0.7416369E+003  0.2116632E+02  0.7546771E-02  0.1516903E+00
          2   -1    0    0  502    0  0.00000000000E+00  0.00000000000E+00  0.98943742698E+02  0.98943742698E+02  0.00000000000E+00 0.  1.
          1   -1    0    0  501    0 -0.00000000000E+00 -0.00000000000E+00 -0.30769302859E+03  0.30769302859E+03  0.00000000000E+00 0. -1.
          2    1    1    2  501    0 -0.50257430424E+01  0.20561001997E+02  0.97442199532E+02  0.99714568373E+02  0.00000000000E+00 0.  1.
          1    1    1    2  502    0  0.50257430424E+01 -0.20561001997E+02 -0.30619148542E+03  0.30692220291E+03  0.00000000000E+00 0. -1.
</event>
<event>
 4    1  0.7416369E+003  0.2515377E+02  0.7546771E-02  0.1467090E+00
          2   -1    0    0  502    0  0.00000000000E+00  0.00000000000E+00  0.15367177290E+03  0.15367177290E+03  0.00000000000E+00 0. -1.
          1   -1    0    0  501    0 -0.00000000000E+00 -0.00000000000E+00 -0.46808792941E+02  0.46808792941E+02  0.00000000000E+00 0. -1.
          2    1    1    2  501    0 -0.13580243104E+02 -0.21172844043E+02  0.14916175237E+03  0.15126777812E+03  0.00000000000E+00 0. -1.
          1    1    1    2  502    0  0.13580243104E+02  0.21172844043E+02 -0.42298772411E+02  0.49212787719E+02  0.00000000000E+00 0. -1.
</event>
<event>
 4    1  0.7416369E+003  0.8083555E+02  0.7546771E-02  0.1201921E+00
          2   -1    0    0  502    0  0.00000000000E+00  0.00000000000E+00  0.10045659126E+04  0.10045659126E+04  0.00000000000E+00 0. -1.
          1   -1    0    0  501    0 -0.00000000000E+00 -0.00000000000E+00 -0.97889781423E+01  0.97889781423E+01  0.00000000000E+00 0. -1.
          2    1    1    2  501    0  0.79706302400E+02  0.13464448348E+02  0.79116163818E+03  0.79528053147E+03  0.00000000000E+00 0. -1.
          1    1    1    2  502    0 -0.79706302400E+02 -0.13464448348E+02  0.20361529629E+03  0.21907435928E+03  0.00000000000E+00 0. -1.
</event>
<event>
 4    1  0.7416369E+003  0.2781152E+02  0.7546771E-02  0.1439622E+00
          2   -1    0    0  502    0  0.00000000000E+00  0.00000000000E+00  0.13947954650E+03  0.13947954650E+03  0.00000000000E+00 0.  1.
          1   -1    0    0  501    0 -0.00000000000E+00 -0.00000000000E+00 -0.45031656367E+02  0.45031656367E+02  0.00000000000E+00 0.  1.
          2    1    1    2  501    0  0.27147188337E+02 -0.60424345941E+01  0.13361252428E+03  0.13647632577E+03  0.00000000000E+00 0.  1.
          1    1    1    2  502    0 -0.27147188337E+02  0.60424345941E+01 -0.39164634145E+02  0.48034877101E+02  0.00000000000E+00 0.  1.
</event>
<event>
 4    1  0.7416369E+003  0.2126373E+02  0.7546771E-02  0.1515533E+00
          2   -1    0    0  502    0  0.00000000000E+00  0.00000000000E+00  0.96966165681E+03  0.96966165681E+03  0.00000000000E+00 0.  1.
          1   -1    0    0  501    0 -0.00000000000E+00 -0.00000000000E+00 -0.19718026600E+02  0.19718026600E+02  0.00000000000E+00 0. -1.
          2    1    1    2  501    0 -0.16245994634E+02 -0.13719098432E+02  0.96377744026E+03  0.96401198143E+03  0.00000000000E+00 0.  1.
          1    1    1    2  502    0  0.16245994634E+02  0.13719098432E+02 -0.13833810042E+02  0.25367701980E+02  0.00000000000E+00 0. -1.
</event>
<event>
 4    1  0.7416369E+003  0.2052949E+02  0.7546771E-02  0.1526090E+00
          2   -1    0    0  502    0  0.00000000000E+00  0.00000000000E+00  0.10039406273E+03  0.10039406273E+03  0.00000000000E+00 0.  1.
          1   -1    0    0  501    0 -0.00000000000E+00 -0.00000000000E+00 -0.44532007996E+01  0.44532007996E+01  0.00000000000E+00 0.  1.
          2    1    1    2  501    0 -0.15271408791E+02 -0.13720199402E+02  0.60518738888E+02  0.63906005623E+02  0.00000000000E+00 0.  1.
          1    1    1    2  502    0  0.15271408791E+02  0.13720199402E+02  0.35422123040E+02  0.40941257904E+02  0.00000000000E+00 0.  1.
</event>
<event>
 4    1  0.7416369E+003  0.2290822E+02  0.7546771E-02  0.1493654E+00
          2   -1    0    0  502    0  0.00000000000E+00  0.00000000000E+00  0.14811667272E+01  0.14811667272E+01  0.00000000000E+00 0.  1.
          1   -1    0    0  501    0 -0.00000000000E+00 -0.00000000000E+00 -0.35628456218E+03  0.35628456218E+03  0.00000000000E+00 0.  1.
          2    1    1    2  501    0  0.19528604665E+02 -0.11975788563E+02 -0.19073294452E+03  0.19210372729E+03  0.00000000000E+00 0.  1.
          1    1    1    2  502    0 -0.19528604665E+02  0.11975788563E+02 -0.16407045093E+03  0.16566200162E+03  0.00000000000E+00 0.  1.
</event>
<event>
 4    1  0.7416369E+003  0.2585983E+02  0.7546771E-02  0.1459410E+00
          2   -1    0    0  502    0  0.00000000000E+00  0.00000000000E+00  0.14321450233E+02  0.14321450233E+02  0.00000000000E+00 0. -1.
          1   -1    0    0  501    0 -0.00000000000E+00 -0.00000000000E+00 -0.73234172076E+03  0.73234172076E+03  0.00000000000E+00 0. -1.
          2    1    1    2  501    0  0.25272782456E+02  0.54787852336E+01  0.22235637530E+01  0.25955247186E+02  0.00000000000E+00 0. -1.
          1    1    1    2  502    0 -0.25272782456E+02 -0.54787852336E+01 -0.72024383428E+03  0.72070792381E+03  0.00000000000E+00 0. -1.
</event>
<event>
 4    1  0.7416369E+003  0.2047021E+02  0.7546771E-02  0.1526965E+00
          2   -1    0    0  502    0  0.00000000000E+00  0.00000000000E+00  0.10621132732E+04  0.10621132732E+04  0.00000000000E+00 0.  1.
          1   -1    0    0  501    0 -0.00000000000E+00 -0.00000000000E+00 -0.15115992498E+02  0.15115992498E+02  0.00000000000E+00 0. -1.
          2    1    1    2  501    0  0.20311466383E+02 -0.25443808411E+01  0.10550379354E+04  0.10552365017E+04  0.00000000000E+00 0.  1.
          1    1    1    2  502    0 -0.20311466383E+02  0.25443808411E+01 -0.80406546425E+01  0.21992763982E+02  0.00000000000E+00 0. -1.
</event>
<event>
 4    1  0.7416369E+003  0.3705160E+02  0.7546771E-02  0.1366687E+00
          2   -1    0    0  502    0  0.00000000000E+00  0.00000000000E+00  0.24180363583E+03  0.24180363583E+03  0.00000000000E+00 0. -1.
          1   -1    0    0  501    0 -0.00000000000E+00 -0.00000000000E+00 -0.50678406367E+03  0.50678406367E+03  0.00000000000E+00 0. -1.
          2    1    1    2  501    0 -0.36759889420E+02  0.46401892339E+01  0.23970115399E+03  0.24254785930E+03  0.00000000000E+00 0. -1.
          1    1    1    2  502    0  0.36759889420E+02 -0.46401892339E+01 -0.50468158183E+03  0.50603984020E+03  0.00000000000E+00 0. -1.
</event>
<event>
 4    1  0.7416369E+003  0.3963056E+02  0.7546771E-02  0.1350664E+00
          2   -1    0    0  502    0  0.00000000000E+00  0.00000000000E+00  0.32288525692E+03  0.32288525692E+03  0.00000000000E+00 0.  1.
          1   -1    0    0  501    0 -0.00000000000E+00 -0.00000000000E+00 -0.66270023372E+02  0.66270023372E+02  0.00000000000E+00 0. -1.
          2    1    1    2  501    0 -0.39629552573E+02 -0.28225687293E+00  0.31560819611E+03  0.31808664630E+03  0.00000000000E+00 0.  1.
          1    1    1    2  502    0  0.39629552573E+02  0.28225687293E+00 -0.58992962557E+02  0.71068633991E+02  0.00000000000E+00 0. -1.
</event>
<event>
 4    1  0.7416369E+003  0.2026726E+02  0.7546771E-02  0.1529989E+00
          2   -1    0    0  502    0  0.00000000000E+00  0.00000000000E+00  0.93942730753E+03  0.93942730753E+03  0.00000000000E+00 0. -1.
          1   -1    0    0  501    0 -0.00000000000E+00 -0.00000000000E+00 -0.17771012085E+01  0.17771012085E+01  0.00000000000E+00 0.  1.
          2    1    1    2  501    0  0.13361368859E+02  0.15239273338E+02  0.87745173972E+03  0.87768577359E+03  0.00000000000E+00 0. -1.
          1    1    1    2  502    0 -0.13361368859E+02 -0.15239273338E+02  0.60198466606E+02  0.63518635150E+02  0.00000000000E+00 0.  1.
</event>
<event>
 4    1  0.7416369E+003  0.2906228E+02  0.7546771E-02  0.1427924E+00
          2   -1    0    0  502    0  0.00000000000E+00  0.00000000000E+00  0.46395729381E+03  0.46395729381E+03  0.00000000000E+00 0.  1.
          1   -1    0    0  501    0 -0.00000000000E+00 -0.00000000000E+00 -0.11623105177E+02  0.11623105177E+02  0.00000000000E+00 0. -1.
          2    1    1    2  501    0  0.22133701281E+02 -0.18833883378E+02  0.44454288942E+03  0.44549185899E+03  0.00000000000E+00 0.  1.
          1    1    1    2  502    0 -0.22133701281E+02  0.18833883378E+02  0.77912992139E+01  0.30088539994E+02  0.00000000000E+00 0. -1.
</event>
<event>
 4    1  0.7416369E+003  0.2277455E+02  0.7546771E-02  0.1495349E+00
          2   -1    0    0  502    0  0.00000000000E+00  0.00000000000E+00  0.43657347822E+03  0.43657347822E+03  0.00000000000E+00 0. -1.
          1   -1    0    0  501    0 -0.00000000000E+00 -0.00000000000E+00 -0.10290492221E+02  0.10290492221E+02  0.00000000000E+00 0. -1.
          2    1    1    2  501    0 -0.28399895079E+01 -0.22596787233E+02  0.42328004336E+03  0.42389229227E+03  0.00000000000E+00 0. -1.
          1    1    1    2  502    0  0.28399895079E+01  0.22596787233E+02  0.30029426353E+01  0.22971678174E+02  0.00000000000E+00 0. -1.
</event>
<event>
 4    1  0.7416369E+003  0.3699771E+02  0.7546771E-02  0.1367038E+00
          2   -1    0    0  502    0  0.00000000000E+00  0.00000000000E+00  0.28794912116E+04  0.28794912116E+04  0.00000000000E+00 0. -1.
          1   -1    0    0  501    0 -0.00000000000E+00 -0.00000000000E+00 -0.57419440134E+00  0.57419440134E+00  0.00000000000E+00 0. -1.
          2    1    1    2  501    0  0.26360322182E+02 -0.25960816545E+02  0.20368647446E+04  0.20372007310E+04  0.00000000000E+00 0. -1.
          1    1    1    2  502    0 -0.26360322182E+02  0.25960816545E+02  0.84205227258E+03  0.84286467499E+03  0.00000000000E+00 0. -1.
</event>
<event>
 4    1  0.7416369E+003  0.4345261E+02  0.7546771E-02  0.1329361E+00
          2   -1    0    0  502    0  0.00000000000E+00  0.00000000000E+00  0.14000629147E+01  0.14000629147E+01  0.00000000000E+00 0. -1.
          1   -1    0    0  501    0 -0.00000000000E+00 -0.00000000000E+00 -0.13502147817E+04  0.13502147817E+04  0.00000000000E+00 0. -1.
          2    1    1    2  501    0  0.40095448489E+02  0.16747658774E+02 -0.65105810590E+03  0.65250654121E+03  0.00000000000E+00 0. -1.
          1    1    1    2  502    0 -0.40095448489E+02 -0.16747658774E+02 -0.69775661288E+03  0.69910830340E+03  0.00000000000E+00 0. -1.
</event>
<event>
 4    1  0.7416369E+003  0.3568613E+02  0.7546771E-02  0.1375803E+00
          2   -1    0    0  502    0  0.00000000000E+00  0.00000000000E+00  0.19513701207E+01  0.19513701207E+01  0.00000000000E+00 0.  1.
          1   -1    0    0  501    0 -0.00000000000E+00 -0.00000000000E+00 -0.93592589125E+03  0.93592589125E+03  0.00000000000E+00 0. -1.
          2    1    1    2  501    0  0.32125789255E+02  0.15538136490E+02 -0.20898452000E+03  0.21200950361E+03  0.00000000000E+00 0.  1.
          1    1    1    2  502    0 -0.32125789255E+02 -0.15538136490E+02 -0.72499000112E+03  0.72586775776E+03  0.00000000000E+00 0. -1.
</event>
<event>
 4    1  0.7416369E+003  0.2196761E+02  0.7546771E-02  0.1505885E+00
          2   -1    0    0  502    0  0.00000000000E+00  0.00000000000E+00  0.30036295942E+02  0.30036295942E+02  0.00000000000E+00 0.  1.
          1   -1    0    0  501    0 -0.00000000000E+00 -0.00000000000E+00 -0.45616579485E+02  0.45616579485E+02  0.00000000000E+00 0.  1.
          2    1    1    2  501    0  0.84893748819E+01 -0.20260957466E+02  0.22654717169E+02  0.31556490510E+02  0.00000000000E+00 0.  1.
          1    1    1    2  502    0 -0.84893748819E+01  0.20260957466E+02 -0.38235000712E+02  0.44096384917E+02  0.00000000000E+00 0.  1.
</event>
<event>
 4    1  0.7416369E+003  0.8747651E+02  0.7546771E-02  0.1187479E+00
          2   -1    0    0  502    0  0.00000000000E+00  0.00000000000E+00  0.37049838913E+02  0.37049838913E+02  0.00000000000E+00 0.  1.
          1   -1    0    0  501    0 -0.00000000000E+00 -0.00000000000E+00 -0.46595947797E+03  0.46595947797E+03  0.00000000000E+00 0. -1.
          2    1    1    2  501    0 -0.66611470762E+02 -0.56701425342E+02 -0.26792846634E+02  0.91487683890E+02  0.00000000000E+00 0.  1.
          1    1    1    2  502    0  0.66611470762E+02  0.56701425342E+02 -0.40211679242E+03  0.41152163299E+03  0.00000000000E+00 0. -1.
</event>
<event>
 4    1  0.7416369E+003  0.2338034E+02  0.7546771E-02  0.1487777E+00
          2   -1    0    0  502    0  0.00000000000E+00  0.00000000000E+00  0.83725154374E+00  0.83725154374E+00  0.00000000000E+00 0.  1.
          1   -1    0    0  501    0 -0.00000000000E+00 -0.00000000000E+00 -0.11354593151E+04  0.11354593151E+04  0.00000000000E+00 0.  1.
          2    1    1    2  501    0 -0.21389787427E+02 -0.94401845592E+01 -0.19692718588E+03  0.19831025346E+03  0.00000000000E+00 0.  1.
          1    1    1    2  502    0  0.21389787427E+02  0.94401845592E+01 -0.93769487767E+03  0.93798631318E+03  0.00000000000E+00 0.  1.
</event>
<event>
 4    1  0.7416369E+003  0.2225310E+02  0.7546771E-02  0.1502096E+00
          2   -1    0    0  502    0  0.00000000000E+00  0.00000000000E+00  0.80207776431E+03  0.80207776431E+03  0.00000000000E+00 0. -1.
          1   -1    0    0  501    0 -0.00000000000E+00 -0.00000000000E+00 -0.80675776256E+00  0.80675776256E+00  0.00000000000E+00 0.  1.
          2    1    1    2  501    0  0.16266312447E+02  0.15185763338E+02  0.59512520941E+03  0.59554111127E+03  0.00000000000E+00 0. -1.
          1    1    1    2  502    0 -0.16266312447E+02 -0.15185763338E+02  0.20614579713E+03  0.20734341080E+03  0.00000000000E+00 0.  1.
</event>
<event>
 4    1  0.7416369E+003  0.3131794E+02  0.7546771E-02  0.1408479E+00
          2   -1    0    0  502    0  0.00000000000E+00  0.00000000000E+00  0.12362645972E+03  0.12362645972E+03  0.00000000000E+00 0.  1.
          1   -1    0    0  501    0 -0.00000000000E+00 -0.00000000000E+00 -0.19565705552E+03  0.19565705552E+03  0.00000000000E+00 0.  1.
          2    1    1    2  501    0  0.28636045202E+02  0.12680319936E+02  0.12035631421E+03  0.12436420695E+03  0.00000000000E+00 0.  1.
          1    1    1    2  502    0 -0.28636045202E+02 -0.12680319936E+02 -0.19238691002E+03  0.19491930829E+03  0.00000000000E+00 0.  1.
</event>
<event>
 4    1  0.7416369E+003  0.2945185E+02  0.7546771E-02  0.1424421E+00
          2   -1    0    0  502    0  0.00000000000E+00  0.00000000000E+00  0.33463550487E+03  0.33463550487E+03  0.00000000000E+00 0.  1.
          1   -1    0    0  501    0 -0.00000000000E+00 -0.00000000000E+00 -0.12817549549E+03  0.12817549549E+03  0.00000000000E+00 0.  1.
          2    1    1    2  501    0 -0.22745802455E+02  0.18709347458E+02  0.33228368407E+03  0.33358635750E+03  0.00000000000E+00 0.  1.
          1    1    1    2  502    0  0.22745802455E+02 -0.18709347458E+02 -0.12582367469E+03  0.12922464287E+03  0.00000000000E+00 0.  1.
</event>
<event>
 4    1  0.7416369E+003  0.2198509E+02  0.7546771E-02  0.1505651E+00
          2   -1    0    0  502    0  0.00000000000E+00  0.00000000000E+00  0.23311784260E+02  0.23311784260E+02  0.00000000000E+00 0. -1.
          1   -1    0    0  501    0 -0.00000000000E+00 -0.00000000000E+00 -0.72075550655E+02  0.72075550655E+02  0.00000000000E+00 0.  1.
          2    1    1    2  501    0  0.20807415289E+02  0.70990046772E+01  0.15871428208E+02  0.27115431617E+02  0.00000000000E+00 0. -1.
          1    1    1    2  502    0 -0.20807415289E+02 -0.70990046772E+01 -0.64635194604E+02  0.68271903298E+02  0.00000000000E+00 0.  1.
</event>
<event>
 4    1  0.7416369E+003  0.2002407E+02  0.7546771E-02  0.1533668E+00
          2   -1    0    0  502    0  0.00000000000E+00  0.00000000000E+00  0.10695756711E+04  0.10695756711E+04  0.00000000000E+00 0. -1.
          1   -1    0    0  501    0 -0.00000000000E+00 -0.00000000000E+00 -0.37304861342E+01  0.37304861342E+01  0.00000000000E+00 0.  1.
          2    1    1    2  501    0  0.66794906374E+01  0.18877175998E+02  0.10418974729E+04  0.10420898749E+04  0.00000000000E+00 0. -1.
          1    1    1    2  502    0 -0.66794906374E+01 -0.18877175998E+02  0.23947712087E+02  0.31216282339E+02  0.00000000000E+00 0.  1.
</event>
<event>
 4    1  0.7416369E+003  0.2880878E+02  0.7546771E-02  0.1430238E+00
          2   -1    0    0  502    0  0.00000000000E+00  0.00000000000E+00  0.89327357921E+03  0.89327357921E+03  0.00000000000E+00 0.  1.
          1   -1    0    0  501    0 -0.00000000000E+00 -0.00000000000E+00 -0.36630644529E+02  0.36630644529E+02  0.00000000000E+00 0.  1.
          2    1    1    2  501    0 -0.16842155353E+02  0.23372802031E+02  0.88733914248E+03  0.88780667933E+03  0.00000000000E+00 0.  1.
          1    1    1    2  502    0  0.16842155353E+02 -0.23372802031E+02 -0.30696207805E+02  0.42097544410E+02  0.00000000000E+00 0.  1.
</event>
<event>
 4    1  0.7416369E+003  0.3561971E+02  0.7546771E-02  0.1376258E+00
          2   -1    0    0  502    0  0.00000000000E+00  0.00000000000E+00  0.26601963980E+03  0.26601963980E+03  0.00000000000E+00 0.  1.
          1   -1    0    0  501    0 -0.00000000000E+00 -0.00000000000E+00 -0.48703697318E+01  0.48703697318E+01  0.00000000000E+00 0.  1.
          2    1    1    2  501    0 -0.27551352306E+02 -0.22576222053E+02  0.11107587878E+03  0.11664739030E+03  0.00000000000E+00 0.  1.
          1    1    1    2  502    0  0.27551352306E+02  0.22576222053E+02  0.15007339128E+03  0.15424261923E+03  0.00000000000E+00 0.  1.
</event>
<event>
 4    1  0.7416369E+003  0.3783287E+02  0.7546771E-02  0.1361675E+00
          2   -1    0    0  502    0  0.00000000000E+00  0.00000000000E+00  0.31450606729E+02  0.31450606729E+02  0.00000000000E+00 0.  1.
          1   -1    0    0  501    0 -0.00000000000E+00 -0.00000000000E+00 -0.51656359042E+02  0.51656359042E+02  0.00000000000E+00 0. -1.
          2    1    1    2  501    0  0.24368293564E+02  0.28939810867E+02  0.42303542498E+01  0.38068652213E+02  0.00000000000E+00 0.  1.
          1    1    1    2  502    0 -0.24368293564E+02 -0.28939810867E+02 -0.24436106562E+02  0.45038313558E+02  0.00000000000E+00 0. -1.
</event>
<event>
 4    1  0.7416369E+003  0.2285866E+02  0.7546771E-02  0.1494281E+00
          2   -1    0    0  502    0  0.00000000000E+00  0.00000000000E+00  0.30342588185E+03  0.30342588185E+03  0.00000000000E+00 0. -1.
          1   -1    0    0  501    0 -0.00000000000E+00 -0.00000000000E+00 -0.59679788192E+02  0.59679788192E+02  0.00000000000E+00 0. -1.
          2    1    1    2  501    0 -0.22642652357E+02 -0.31350772871E+01  0.30078735150E+03  0.30165468542E+03  0.00000000000E+00 0. -1.
          1    1    1    2  502    0  0.22642652357E+02  0.31350772871E+01 -0.57041257838E+02  0.61450984623E+02  0.00000000000E+00 0. -1.
</event>
<event>
 4    1  0.7416369E+003  0.2398882E+02  0.7546771E-02  0.1480441E+00
          2   -1    0    0  502    0  0.00000000000E+00  0.00000000000E+00  0.50815918992E+02  0.50815918992E+02  0.00000000000E+00 0.  1.
          1   -1    0    0  501    0 -0.00000000000E+00 -0.00000000000E+00 -0.80736121142E+02  0.80736121142E+02  0.00000000000E+00 0.  1.
          2    1    1    2  501    0  0.34123266122E+01 -0.23744883940E+02  0.46028662782E+02  0.51904732768E+02  0.00000000000E+00 0.  1.
          1    1    1    2  502    0 -0.34123266122E+01  0.23744883940E+02 -0.75948864932E+02  0.79647307366E+02  0.00000000000E+00 0.  1.
</event>
<event>
 4    1  0.7416369E+003  0.2269635E+02  0.7546771E-02  0.1496347E+00
          2   -1    0    0  502    0  0.00000000000E+00  0.00000000000E+00  0.18803584801E+03  0.18803584801E+03  0.00000000000E+00 0.  1.
          1   -1    0    0  501    0 -0.00000000000E+00 -0.00000000000E+00 -0.31463124544E+02  0.31463124544E+02  0.00000000000E+00 0.  1.
          2    1    1    2  501    0  0.20038170262E+02  0.10658140319E+02  0.18314909930E+03  0.18455003874E+03  0.00000000000E+00 0.  1.
          1    1    1    2  502    0 -0.20038170262E+02 -0.10658140319E+02 -0.26576375835E+02  0.34948933818E+02  0.00000000000E+00 0.  1.
</event>
<event>
 4    1  0.7416369E+003  0.2335700E+02  0.7546771E-02  0.1488063E+00
          2   -1    0    0  502    0  0.00000000000E+00  0.00000000000E+00  0.44892999881E+02  0.44892999881E+02  0.00000000000E+00 0. -1.
          1   -1    0    0  501    0 -0.00000000000E+00 -0.00000000000E+00 -0.12883992397E+04  0.12883992397E+04  0.00000000000E+00 0.  1.
          2    1    1    2  501    0  0.15527617210E+02 -0.17448279555E+02  0.41741639792E+02  0.47832142417E+02  0.00000000000E+00 0. -1.
          1    1    1    2  502    0 -0.15527617210E+02  0.17448279555E+02 -0.12852478796E+04  0.12854600971E+04  0.00000000000E+00 0.  1.
</event>
<event>
 4    1  0.7416369E+003  0.3644231E+02  0.7546771E-02  0.1370697E+00
          2   -1    0    0  502    0  0.00000000000E+00  0.00000000000E+00  0.57318436091E+01  0.57318436091E+01  0.00000000000E+00 0. -1.
          1   -1    0    0  501    0 -0.00000000000E+00 -0.00000000000E+00 -0.23504030482E+03  0.23504030482E+03  0.00000000000E+00 0.  1.
          2    1    1    2  501    0 -0.35851167731E+02  0.65372357757E+01 -0.10029278009E+03  0.10670840369E+03  0.00000000000E+00 0. -1.
          1    1    1    2  502    0  0.35851167731E+02 -0.65372357757E+01 -0.12901568112E+03  0.13406374474E+03  0.00000000000E+00 0.  1.
</event>
<event>
 4    1  0.7416369E+003  0.2408097E+02  0.7546771E-02  0.1479353E+00
          2   -1    0    0  502    0  0.00000000000E+00  0.00000000000E+00  0.11174370492E+03  0.11174370492E+03  0.00000000000E+00 0. -1.
          1   -1    0    0  501    0 -0.00000000000E+00 -0.00000000000E+00 -0.54467330109E+01  0.54467330109E+01  0.00000000000E+00 0. -1.
          2    1    1    2  501    0 -0.23324644187E+02 -0.59878367913E+01  0.65882434333E+02  0.70145480036E+02  0.00000000000E+00 0. -1.
          1    1    1    2  502    0  0.23324644187E+02  0.59878367913E+01  0.40414537580E+02  0.47044957899E+02  0.00000000000E+00 0. -1.
</event>
<event>
 4    1  0.7416369E+003  0.2028487E+02  0.7546771E-02  0.1529725E+00
          2   -1    0    0  502    0  0.00000000000E+00  0.00000000000E+00  0.51032297257E+01  0.51032297257E+01  0.00000000000E+00 0. -1.
          1   -1    0    0  501    0 -0.00000000000E+00 -0.00000000000E+00 -0.28151994701E+03  0.28151994701E+03  0.00000000000E+00 0. -1.
          2    1    1    2  501    0  0.20187566321E+02  0.19844893458E+01 -0.17147076054E+02  0.26561217011E+02  0.00000000000E+00 0. -1.
          1    1    1    2  502    0 -0.20187566321E+02 -0.19844893458E+01 -0.25926964123E+03  0.26006195972E+03  0.00000000000E+00 0. -1.
</event>
<event>
 4    1  0.7416369E+003  0.3940284E+02  0.7546771E-02  0.1352021E+00
          2   -1    0    0  502    0  0.00000000000E+00  0.00000000000E+00  0.16268715964E+04  0.16268715964E+04  0.00000000000E+00 0. -1.
          1   -1    0    0  501    0 -0.00000000000E+00 -0.00000000000E+00 -0.18172643444E+03  0.18172643444E+03  0.00000000000E+00 0.  1.
          2    1    1    2  501    0 -0.26270768615E+02 -0.29367171819E+02  0.16244940056E+04  0.16249718023E+04  0.00000000000E+00 0. -1.
          1    1    1    2  502    0  0.26270768615E+02  0.29367171819E+02 -0.17934884368E+03  0.18362622850E+03  0.00000000000E+00 0.  1.
</event>
<event>
 4    1  0.7416369E+003  0.2700758E+02  0.7546771E-02  0.1447532E+00
          2   -1    0    0  502    0  0.00000000000E+00  0.00000000000E+00  0.17202142301E+02  0.17202142301E+02  0.00000000000E+00 0.  1.
          1   -1    0    0  501    0 -0.00000000000E+00 -0.00000000000E+00 -0.12126981759E+04  0.12126981759E+04  0.00000000000E+00 0. -1.
          2    1    1    2  501    0 -0.23441671602E+02 -0.13412577649E+02  0.63555587090E+01  0.27745311914E+02  0.00000000000E+00 0.  1.
          1    1    1    2  502    0  0.23441671602E+02  0.13412577649E+02 -0.12018515923E+04  0.12021550063E+04  0.00000000000E+00 0. -1.
</event>
<event>
 4    1  0.7416369E+003  0.2070555E+02  0.7546771E-02  0.1523511E+00
          2   -1    0    0  502    0  0.00000000000E+00  0.00000000000E+00  0.13088431705E+02  0.13088431705E+02  0.00000000000E+00 0. -1.
          1   -1    0    0  501    0 -0.00000000000E+00 -0.00000000000E+00 -0.46598152099E+03  0.46598152099E+03  0.00000000000E+00 0. -1.
          2    1    1    2  501    0  0.12203181359E+02  0.16727284038E+02  0.45161286471E+01  0.21192335513E+02  0.00000000000E+00 0. -1.
          1    1    1    2  502    0 -0.12203181359E+02 -0.16727284038E+02 -0.45740921793E+03  0.45787761718E+03  0.00000000000E+00 0. -1.
</event>
<event>
 4    1  0.7416369E+003  0.2420211E+02  0.7546771E-02  0.1477931E+00
          2   -1    0    0  502    0  0.00000000000E+00  0.00000000000E+00  0.11993395115E+04  0.11993395115E+04  0.00000000000E+00 0.  1.
          1   -1    0    0  501    0 -0.00000000000E+00 -0.00000000000E+00 -0.18343909785E+01  0.18343909785E+01  0.00000000000E+00 0.  1.
          2    1    1    2  501    0  0.34879321988E+01 -0.23949456149E+02  0.11132142873E+04  0.11134773422E+04  0.00000000000E+00 0.  1.
          1    1    1    2  502    0 -0.34879321988E+01  0.23949456149E+02  0.84290833153E+02  0.87696560220E+02  0.00000000000E+00 0.  1.
</event>
<event>
 4    1  0.7416369E+003  0.2280578E+02  0.7546771E-02  0.1494951E+00
          2   -1    0    0  502    0  0.00000000000E+00  0.00000000000E+00  0.65793370386E+01  0.65793370386E+01  0.00000000000E+00 0.  1.
          1   -1    0    0  501    0 -0.00000000000E+00 -0.00000000000E+00 -0.13535776191E+03  0.13535776191E+03  0.00000000000E+00 0.  1.
          2    1    1    2  501    0  0.11767914564E+02 -0.19535089606E+02 -0.18616736224E+02  0.29439538154E+02  0.00000000000E+00 0.  1.
          1    1    1    2  502    0 -0.11767914564E+02  0.19535089606E+02 -0.11016168865E+03  0.11249756079E+03  0.00000000000E+00 0.  1.
</event>
<event>
 4    1  0.7416369E+003  0.2152664E+02  0.7546771E-02  0.1511877E+00
          2   -1    0    0  502    0  0.00000000000E+00  0.00000000000E+00  0.86857371147E+03  0.86857371147E+03  0.00000000000E+00 0. -1.
          1   -1    0    0  501    0 -0.00000000000E+00 -0.00000000000E+00 -0.63712084077E+01  0.63712084077E+01  0.00000000000E+00 0. -1.
          2    1    1    2  501    0 -0.10956750472E+02  0.18529590603E+02  0.84985672462E+03  0.85012931281E+03  0.00000000000E+00 0. -1.
          1    1    1    2  502    0  0.10956750472E+02 -0.18529590603E+02  0.12345778434E+02  0.24815607064E+02  0.00000000000E+00 0. -1.
</event>
<event>
 4    1  0.7416369E+003  0.2267160E+02  0.7546771E-02  0.1496664E+00
          2   -1    0    0  502    0  0.00000000000E+00  0.00000000000E+00  0.68389519256E+03  0.68389519256E+03  0.00000000000E+00 0.  1.
          1   -1    0    0  501    0 -0.00000000000E+00 -0.00000000000E+00 -0.81291801350E+00  0.81291801350E+00  0.00000000000E+00 0.  1.
          2    1    1    2  501    0 -0.19339986488E+02  0.11830737094E+02  0.43558267166E+03  0.43617228851E+03  0.00000000000E+00 0.  1.
          1    1    1    2  502    0  0.19339986488E+02 -0.11830737094E+02  0.24749960288E+03  0.24853582206E+03  0.00000000000E+00 0.  1.
</event>
<event>
 4    1  0.7416369E+003  0.2080916E+02  0.7546771E-02  0.1522007E+00
          2   -1    0    0  502    0  0.00000000000E+00  0.00000000000E+00  0.13752432631E+02  0.13752432631E+02  0.00000000000E+00 0.  1.
          1   -1    0    0  501    0 -0.00000000000E+00 -0.00000000000E+00 -0.11792671351E+03  0.11792671351E+03  0.00000000000E+00 0. -1.
          2    1    1    2  501    0  0.19742180169E+02 -0.65777858941E+01  0.42815460648E+01  0.21245060174E+02  0.00000000000E+00 0.  1.
          1    1    1    2  502    0 -0.19742180169E+02  0.65777858941E+01 -0.10845582694E+03  0.11043408596E+03  0.00000000000E+00 0. -1.
</event>
<event>
 4    1  0.7416369E+003  0.5935564E+02  0.7546771E-02  0.1262038E+00
          2   -1    0    0  502    0  0.00000000000E+00  0.00000000000E+00  0.62458242401E+01  0.62458242401E+01  0.00000000000E+00 0.  1.
          1   -1    0    0  501    0 -0.00000000000E+00 -0.00000000000E+00 -0.56748872356E+03  0.56748872356E+03  0.00000000000E+00 0.  1.
          2    1    1    2  501    0  0.31104258052E+02 -0.50553115101E+02 -0.25836118837E+03  0.26509167465E+03  0.00000000000E+00 0.  1.
          1    1    1    2  502    0 -0.31104258052E+02  0.50553115101E+02 -0.30288171095E+03  0.30864287315E+03  0.00000000000E+00 0.  1.
</event>
<event>
 4    1  0.7416369E+003  0.2376150E+02  0.7546771E-02  0.1483151E+00
          2   -1    0    0  502    0  0.00000000000E+00  0.00000000000E+00  0.10481620926E+04  0.10481620926E+04  0.00000000000E+00 0.  1.
          1   -1    0    0  501    0 -0.00000000000E+00 -0.00000000000E+00 -0.15684498477E+01  0.15684498477E+01  0.00000000000E+00 0.  1.
          2    1    1    2  501    0 -0.92156894550E+01  0.21901593939E+02  0.94858730451E+03  0.94888486289E+03  0.00000000000E+00 0.  1.
          1    1    1    2  502    0  0.92156894550E+01 -0.21901593939E+02  0.98006338230E+02  0.10084567954E+03  0.00000000000E+00 0.  1.
</event>
<event>
 4    1  0.7416369E+003  0.2306353E+02  0.7546771E-02  0.1491702E+00
          2   -1    0    0  502    0  0.00000000000E+00  0.00000000000E+00  0.11093091539E+01  0.11093091539E+01  0.00000000000E+00 0.  1.
          1   -1    0    0  501    0 -0.00000000000E+00 -0.00000000000E+00 -0.15715861932E+04  0.15715861932E+04  0.00000000000E+00 0. -1.
          2    1    1    2  501    0  0.12936562109E+02  0.19093762805E+02 -0.12973989626E+03  0.13177392420E+03  0.00000000000E+00 0.  1.
          1    1    1    2  502    0 -0.12936562109E+02 -0.19093762805E+02 -0.14407369878E+04  0.14409215782E+04  0.00000000000E+00 0. -1.
</event>
<event>
 4    1  0.7416369E+003  0.2890810E+02  0.7546771E-02  0.1429328E+00
          2   -1    0    0  502    0  0.00000000000E+00  0.00000000000E+00  0.10122979347E+03  0.10122979347E+03  0.00000000000E+00 0.  1.
          1   -1    0    0  501    0 -0.00000000000E+00 -0.00000000000E+00 -0.51520629670E+02  0.51520629670E+02  0.00000000000E+00 0.  1.
          2    1    1    2  501    0 -0.22928533017E+02 -0.17605703771E+02  0.94843945780E+02  0.99151664044E+02  0.00000000000E+00 0.  1.
          1    1    1    2  502    0  0.22928533017E+02  0.17605703771E+02 -0.45134781984E+02  0.53598759093E+02  0.00000000000E+00 0.  1.
</event>
<event>
 4    1  0.7416369E+003  0.2576096E+02  0.7546771E-02  0.1460468E+00
          2   -1    0    0  502    0  0.00000000000E+00  0.00000000000E+00  0.33572095720E+03  0.33572095720E+03  0.00000000000E+00 0.  1.
          1   -1    0    0  501    0 -0.00000000000E+00 -0.00000000000E+00 -0.96233263077E+01  0.96233263077E+01  0.00000000000E+00 0. -1.
          2    1    1    2  501    0 -0.11310243898E+02 -0.23145311630E+02  0.31696843202E+03  0.31801354368E+03  0.00000000000E+00 0.  1.
          1    1    1    2  502    0  0.11310243898E+02  0.23145311630E+02  0.91291988748E+01  0.27330739829E+02  0.00000000000E+00 0. -1.
</event>
<event>
 4    1  0.7416369E+003  0.2792256E+02  0.7546771E-02  0.1438555E+00
          2   -1    0    0  502    0  0.00000000000E+00  0.00000000000E+00  0.24106610796E+03  0.24106610796E+03  0.00000000000E+00 0. -1.
          1   -1    0    0  501    0 -0.00000000000E+00 -0.00000000000E+00 -0.83654054542E+02  0.83654054542E+02  0.00000000000E+00 0.  1.
          2    1    1    2  501    0  0.17826876771E+02 -0.21491204302E+02  0.23789656601E+03  0.23952963390E+03  0.00000000000E+00 0. -1.
          1    1    1    2  502    0 -0.17826876771E+02  0.21491204302E+02 -0.80484512587E+02  0.85190528605E+02  0.00000000000E+00 0.  1.
</event>
<event>
 4    1  0.7416369E+003  0.3326876E+02  0.7546771E-02  0.1393161E+00
          2   -1    0    0  502    0  0.00000000000E+00  0.00000000000E+00  0.73170872378E+03  0.73170872378E+03  0.00000000000E+00 0.  1.
          1   -1    0    0  501    0 -0.00000000000E+00 -0.00000000000E+00 -0.38591883766E+01  0.38591883766E+01  0.00000000000E+00 0. -1.
          2    1    1    2  501    0 -0.19180291809E+00  0.33268208594E+02  0.65071194081E+03  0.65156184696E+03  0.00000000000E+00 0.  1.
          1    1    1    2  502    0  0.19180291809E+00 -0.33268208594E+02  0.77137594595E+02  0.84006065206E+02  0.00000000000E+00 0. -1.
</event>
<event>
 4    1  0.7416369E+003  0.2490868E+02  0.7546771E-02  0.1469828E+00
          2   -1    0    0  502    0  0.00000000000E+00  0.00000000000E+00  0.14985812356E+03  0.14985812356E+03  0.00000000000E+00 0. -1.
          1   -1    0    0  501    0 -0.00000000000E+00 -0.00000000000E+00 -0.79079751903E+01  0.79079751903E+01  0.00000000000E+00 0.  1.
          2    1    1    2  501    0  0.16272957186E+02  0.18858237503E+02  0.12542454530E+03  0.12787399588E+03  0.00000000000E+00 0. -1.
          1    1    1    2  502    0 -0.16272957186E+02 -0.18858237503E+02  0.16525603063E+02  0.29892102869E+02  0.00000000000E+00 0.  1.
</event>
<event>
 4    1  0.7416369E+003  0.4226995E+02  0.7546771E-02  0.1335674E+00
          2   -1    0    0  502    0  0.00000000000E+00  0.00000000000E+00  0.40025236044E+02  0.40025236044E+02  0.00000000000E+00 0. -1.
          1   -1    0    0  501    0 -0.00000000000E+00 -0.00000000000E+00 -0.27347080842E+03  0.27347080842E+03  0.00000000000E+00 0.  1.
          2    1    1    2  501    0  0.40868141755E+02  0.10795519755E+02  0.26662079904E+02  0.49976141929E+02  0.00000000000E+00 0. -1.
          1    1    1    2  502    0 -0.40868141755E+02 -0.10795519755E+02 -0.26010765228E+03  0.26351990254E+03  0.00000000000E+00 0.  1.
</event>
<event>
 4    1  0.7416369E+003  0.2076208E+02  0.7546771E-02  0.1522689E+00
          2   -1    0    0  502    0  0.00000000000E+00  0.00000000000E+00  0.41576392777E+01  0.41576392777E+01  0.00000000000E+00 0.  1.
          1   -1    0    0  501    0 -0.00000000000E+00 -0.00000000000E+00 -0.50532273511E+03  0.50532273511E+03  0.00000000000E+00 0.  1.
          2    1    1    2  501    0 -0.76022119093E+01  0.19320200702E+02 -0.23474232352E+02  0.31338528453E+02  0.00000000000E+00 0.  1.
          1    1    1    2  502    0  0.76022119093E+01 -0.19320200702E+02 -0.47769086348E+03  0.47814184593E+03  0.00000000000E+00 0.  1.
</event>
<event>
 4    1  0.7416369E+003  0.2245907E+02  0.7546771E-02  0.1499405E+00
          2   -1    0    0  502    0  0.00000000000E+00  0.00000000000E+00  0.11212621126E+03  0.11212621126E+03  0.00000000000E+00 0. -1.
          1   -1    0    0  501    0 -0.00000000000E+00 -0.00000000000E+00 -0.71346305119E+01  0.71346305119E+01  0.00000000000E+00 0. -1.
          2    1    1    2  501    0 -0.16463176998E+01 -0.22398644799E+02  0.88741642963E+02  0.91539547992E+02  0.00000000000E+00 0. -1.
          1    1    1    2  502    0  0.16463176998E+01  0.22398644799E+02  0.16249937784E+02  0.27721293779E+02  0.00000000000E+00 0. -1.
</event>
<event>
 4    1  0.1050621E+004  0.3090192E+02  0.7546771E-02  0.1411917E+00
          2   -1    0    0  502    0  0.00000000000E+00  0.00000000000E+00  0.77452521770E+03  0.77452521770E+03  0.00000000000E+00 0. -1.
          1   -1    0    0  501    0 -0.00000000000E+00 -0.00000000000E+00 -0.52450811633E+03  0.52450811633E+03  0.00000000000E+00 0.  1.
          2    1    1    2  501    0 -0.78005500412E+00  0.30892072257E+02  0.77376138389E+03  0.77437820722E+03  0.00000000000E+00 0. -1.
          1    1    1    2  502    0  0.78005500412E+00 -0.30892072257E+02 -0.52374428252E+03  0.52465512681E+03  0.00000000000E+00 0.  1.
</event>
<event>
 4    1  0.7416369E+003  0.2198334E+02  0.7546771E-02  0.1505675E+00
          2   -1    0    0  502    0  0.00000000000E+00  0.00000000000E+00  0.52627331350E+01  0.52627331350E+01  0.00000000000E+00 0. -1.
          1   -1    0    0  501    0 -0.00000000000E+00 -0.00000000000E+00 -0.37194435892E+03  0.37194435892E+03  0.00000000000E+00 0.  1.
          2    1    1    2  501    0  0.16333669885E+02  0.14713214101E+02 -0.19666725633E+02  0.29496568244E+02  0.00000000000E+00 0. -1.
          1    1    1    2  502    0 -0.16333669885E+02 -0.14713214101E+02 -0.34701490015E+03  0.34771052381E+03  0.00000000000E+00 0.  1.
</event>
<event>
 4    1  0.7416369E+003  0.2528223E+02  0.7546771E-02  0.1465671E+00
          2   -1    0    0  502    0  0.00000000000E+00  0.00000000000E+00  0.56043458456E+03  0.56043458456E+03  0.00000000000E+00 0. -1.
          1   -1    0    0  501    0 -0.00000000000E+00 -0.00000000000E+00 -0.36717742907E+01  0.36717742907E+01  0.00000000000E+00 0. -1.
          2    1    1    2  501    0 -0.13677146247E+02  0.21263273011E+02  0.51256703817E+03  0.51319017891E+03  0.00000000000E+00 0. -1.
          1    1    1    2  502    0  0.13677146247E+02 -0.21263273011E+02  0.44195772101E+02  0.50916179945E+02  0.00000000000E+00 0. -1.
</event>
<event>
 4    1  0.7416369E+003  0.3317496E+02  0.7546771E-02  0.1393869E+00
          2   -1    0    0  502    0  0.00000000000E+00  0.00000000000E+00  0.17313070713E+02  0.17313070713E+02  0.00000000000E+00 0.  1.
          1   -1    0    0  501    0 -0.00000000000E+00 -0.00000000000E+00 -0.34808306249E+03  0.34808306249E+03  0.00000000000E+00 0.  1.
          2    1    1    2  501    0  0.25013867483E+02  0.21791842812E+02 -0.21003033390E+00  0.33175624973E+02  0.00000000000E+00 0.  1.
          1    1    1    2  502    0 -0.25013867483E+02 -0.21791842812E+02 -0.33055996144E+03  0.33222050823E+03  0.00000000000E+00 0.  1.
</event>
<event>
 4    1  0.7416369E+003  0.3141224E+02  0.7546771E-02  0.1407709E+00
          2   -1    0    0  502    0  0.00000000000E+00  0.00000000000E+00  0.26615268287E+01  0.26615268287E+01  0.00000000000E+00 0.  1.
          1   -1    0    0  501    0 -0.00000000000E+00 -0.00000000000E+00 -0.14613373889E+04  0.14613373889E+04  0.00000000000E+00 0.  1.
          2    1    1    2  501    0  0.77512561428E+01 -0.30440876265E+02 -0.96972453875E+02  0.10193324154E+03  0.00000000000E+00 0.  1.
          1    1    1    2  502    0 -0.77512561428E+01  0.30440876265E+02 -0.13617034082E+04  0.13620656742E+04  0.00000000000E+00 0.  1.
</event>
<event>
 4    1  0.7416369E+003  0.4084543E+02  0.7546771E-02  0.1343602E+00
          2   -1    0    0  502    0  0.00000000000E+00  0.00000000000E+00  0.10513383241E+04  0.10513383241E+04  0.00000000000E+00 0. -1.
          1   -1    0    0  501    0 -0.00000000000E+00 -0.00000000000E+00 -0.20239513339E+01  0.20239513339E+01  0.00000000000E+00 0. -1.
          2    1    1    2  501    0 -0.37050083003E+02 -0.17194188097E+02  0.76940759401E+03  0.77049100869E+03  0.00000000000E+00 0. -1.
          1    1    1    2  502    0  0.37050083003E+02  0.17194188097E+02  0.27990677880E+03  0.28287126679E+03  0.00000000000E+00 0. -1.
</event>
<event>
 4    1  0.7416369E+003  0.2855354E+02  0.7546771E-02  0.1432597E+00
          2   -1    0    0  502    0  0.00000000000E+00  0.00000000000E+00  0.94079624023E+01  0.94079624023E+01  0.00000000000E+00 0.  1.
          1   -1    0    0  501    0 -0.00000000000E+00 -0.00000000000E+00 -0.14958433848E+03  0.14958433848E+03  0.00000000000E+00 0. -1.
          2    1    1    2  501    0 -0.24664016301E+02  0.14387171202E+02 -0.18528704288E+02  0.34038467619E+02  0.00000000000E+00 0.  1.
          1    1    1    2  502    0  0.24664016301E+02 -0.14387171202E+02 -0.12164767179E+03  0.12495383327E+03  0.00000000000E+00 0. -1.
</event>
<event>
 4    1  0.7416369E+003  0.2058760E+02  0.7546771E-02  0.1525235E+00
          2   -1    0    0  502    0  0.00000000000E+00  0.00000000000E+00  0.21110936923E+01  0.21110936923E+01  0.00000000000E+00 0. -1.
          1   -1    0    0  501    0 -0.00000000000E+00 -0.00000000000E+00 -0.23421903776E+03  0.23421903776E+03  0.00000000000E+00 0. -1.
          2    1    1    2  501    0 -0.20568766609E+02  0.88046016118E+00 -0.71400609488E+02  0.74309463766E+02  0.00000000000E+00 0. -1.
          1    1    1    2  502    0  0.20568766609E+02 -0.88046016118E+00 -0.16070733458E+03  0.16202066769E+03  0.00000000000E+00 0. -1.
</event>
<event>
 4    1  0.7416369E+003  0.3534170E+02  0.7546771E-02  0.1378177E+00
          2   -1    0    0  502    0  0.00000000000E+00  0.00000000000E+00  0.52637829493E+03  0.52637829493E+03  0.00000000000E+00 0. -1.
          1   -1    0    0  501    0 -0.00000000000E+00 -0.00000000000E+00 -0.39219100128E+01  0.39219100128E+01  0.00000000000E+00 0.  1.
          2    1    1    2  501    0 -0.25514485382E+02 -0.24454991959E+02  0.42786544106E+03  0.42932257249E+03  0.00000000000E+00 0. -1.
          1    1    1    2  502    0  0.25514485382E+02  0.24454991959E+02  0.94590943859E+02  0.10097763245E+03  0.00000000000E+00 0.  1.
</event>
<event>
 4    1  0.7416369E+003  0.2388300E+02  0.7546771E-02  0.1481698E+00
          2   -1    0    0  502    0  0.00000000000E+00  0.00000000000E+00  0.18099834581E+04  0.18099834581E+04  0.00000000000E+00 0.  1.
          1   -1    0    0  501    0 -0.00000000000E+00 -0.00000000000E+00 -0.29259199390E+01  0.29259199390E+01  0.00000000000E+00 0. -1.
          2    1    1    2  501    0  0.49449040635E+01 -0.23365480108E+02  0.17597776853E+04  0.17599397432E+04  0.00000000000E+00 0.  1.
          1    1    1    2  502    0 -0.49449040635E+01  0.23365480108E+02  0.47279852868E+02  0.52969634925E+02  0.00000000000E+00 0. -1.
</event>
<event>
 4    1  0.7416369E+003  0.2716040E+02  0.7546771E-02  0.1446004E+00
          2   -1    0    0  502    0  0.00000000000E+00  0.00000000000E+00  0.69941382036E+02  0.69941382036E+02  0.00000000000E+00 0.  1.
          1   -1    0    0  501    0 -0.00000000000E+00 -0.00000000000E+00 -0.34669037366E+03  0.34669037366E+03  0.00000000000E+00 0. -1.
          2    1    1    2  501    0  0.46004459329E+01  0.26767949622E+02  0.66748152963E+02  0.72062494779E+02  0.00000000000E+00 0.  1.
          1    1    1    2  502    0 -0.46004459329E+01 -0.26767949622E+02 -0.34349714459E+03  0.34456926092E+03  0.00000000000E+00 0. -1.
</event>
<event>
 4    1  0.7416369E+003  0.6231826E+02  0.7546771E-02  0.1252153E+00
          2   -1    0    0  502    0  0.00000000000E+00  0.00000000000E+00  0.15571854200E+02  0.15571854200E+02  0.00000000000E+00 0. -1.
          1   -1    0    0  501    0 -0.00000000000E+00 -0.00000000000E+00 -0.29417141309E+03  0.29417141309E+03  0.00000000000E+00 0.  1.
          2    1    1    2  501    0 -0.61169737217E+02  0.11909196763E+02 -0.78878615173E+02  0.10052562683E+03  0.00000000000E+00 0. -1.
          1    1    1    2  502    0  0.61169737217E+02 -0.11909196763E+02 -0.19972094371E+03  0.20921764045E+03  0.00000000000E+00 0.  1.
</event>
<event>
 4    1  0.7416369E+003  0.2042468E+02  0.7546771E-02  0.1527640E+00
          2   -1    0    0  502    0  0.00000000000E+00  0.00000000000E+00  0.77415707079E+02  0.77415707079E+02  0.00000000000E+00 0. -1.
          1   -1    0    0  501    0 -0.00000000000E+00 -0.00000000000E+00 -0.48340210988E+02  0.48340210988E+02  0.00000000000E+00 0.  1.
          2    1    1    2  501    0 -0.10193897819E+02 -0.17698927323E+02  0.73807559836E+02  0.76581482553E+02  0.00000000000E+00 0. -1.
          1    1    1    2  502    0  0.10193897819E+02  0.17698927323E+02 -0.44732063745E+02  0.49174435513E+02  0.00000000000E+00 0.  1.
</event>
<event>
 4    1  0.7416369E+003  0.3268150E+02  0.7546771E-02  0.1397639E+00
          2   -1    0    0  502    0  0.00000000000E+00  0.00000000000E+00  0.64275108701E+01  0.64275108701E+01  0.00000000000E+00 0.  1.
          1   -1    0    0  501    0 -0.00000000000E+00 -0.00000000000E+00 -0.19896716562E+03  0.19896716562E+03  0.00000000000E+00 0.  1.
          2    1    1    2  501    0  0.21503283171E+02  0.24610749751E+02 -0.54576620167E+02  0.63613580777E+02  0.00000000000E+00 0.  1.
          1    1    1    2  502    0 -0.21503283171E+02 -0.24610749751E+02 -0.13796303459E+03  0.14178109572E+03  0.00000000000E+00 0.  1.
</event>
<event>
 4    1  0.7416369E+003  0.2746076E+02  0.7546771E-02  0.1443034E+00
          2   -1    0    0  502    0  0.00000000000E+00  0.00000000000E+00  0.41248909219E+01  0.41248909219E+01  0.00000000000E+00 0.  1.
          1   -1    0    0  501    0 -0.00000000000E+00 -0.00000000000E+00 -0.19219345645E+04  0.19219345645E+04  0.00000000000E+00 0. -1.
          2    1    1    2  501    0  0.22003878364E+02  0.16429315666E+02 -0.42821295086E+02  0.50869994978E+02  0.00000000000E+00 0.  1.
          1    1    1    2  502    0 -0.22003878364E+02 -0.16429315666E+02 -0.18749883785E+04  0.18751894605E+04  0.00000000000E+00 0. -1.
</event>
<event>
 4    1  0.9834433E+003  0.2575860E+02  0.7546771E-02  0.1460493E+00
          2   -1    0    0  502    0  0.00000000000E+00  0.00000000000E+00  0.71115616742E+03  0.71115616742E+03  0.00000000000E+00 0.  1.
          1   -1    0    0  501    0 -0.00000000000E+00 -0.00000000000E+00 -0.37880122824E+03  0.37880122824E+03  0.00000000000E+00 0. -1.
          2    1    1    2  501    0  0.11891238032E+02  0.22849593971E+02  0.71048460659E+03  0.71095139193E+03  0.00000000000E+00 0.  1.
          1    1    1    2  502    0 -0.11891238032E+02 -0.22849593971E+02 -0.37812966741E+03  0.37900600373E+03  0.00000000000E+00 0. -1.
</event>
<event>
 4    1  0.7416369E+003  0.3294860E+02  0.7546771E-02  0.1395589E+00
          2   -1    0    0  502    0  0.00000000000E+00  0.00000000000E+00  0.80597482776E+03  0.80597482776E+03  0.00000000000E+00 0. -1.
          1   -1    0    0  501    0 -0.00000000000E+00 -0.00000000000E+00 -0.64453790314E+02  0.64453790314E+02  0.00000000000E+00 0. -1.
          2    1    1    2  501    0  0.99888105827E+01  0.31397990494E+02  0.80140327138E+03  0.80208030366E+03  0.00000000000E+00 0. -1.
          1    1    1    2  502    0 -0.99888105827E+01 -0.31397990494E+02 -0.59882233927E+02  0.68348314419E+02  0.00000000000E+00 0. -1.
</event>
<event>
 4    1  0.7416369E+003  0.2335636E+02  0.7546771E-02  0.1488071E+00
          2   -1    0    0  502    0  0.00000000000E+00  0.00000000000E+00  0.37152135272E+03  0.37152135272E+03  0.00000000000E+00 0.  1.
          1   -1    0    0  501    0 -0.00000000000E+00 -0.00000000000E+00 -0.27768599833E+03  0.27768599833E+03  0.00000000000E+00 0.  1.
          2    1    1    2  501    0 -0.23099838989E+02  0.34520959306E+01  0.37066200045E+03  0.37139714337E+03  0.00000000000E+00 0.  1.
          1    1    1    2  502    0  0.23099838989E+02 -0.34520959306E+01 -0.27682664606E+03  0.27781020768E+03  0.00000000000E+00 0.  1.
</event>
<event>
 4    1  0.7416369E+003  0.2282890E+02  0.7546771E-02  0.1494658E+00
          2   -1    0    0  502    0  0.00000000000E+00  0.00000000000E+00  0.32746786669E+03  0.32746786669E+03  0.00000000000E+00 0.  1.
          1   -1    0    0  501    0 -0.00000000000E+00 -0.00000000000E+00 -0.16302602421E+03  0.16302602421E+03  0.00000000000E+00 0.  1.
          2    1    1    2  501    0  0.17556927244E+02  0.14591539889E+02  0.32626786513E+03  0.32706555696E+03  0.00000000000E+00 0.  1.
          1    1    1    2  502    0 -0.17556927244E+02 -0.14591539889E+02 -0.16182602264E+03  0.16342833394E+03  0.00000000000E+00 0.  1.
</event>
<event>
 4    1  0.7416369E+003  0.2323918E+02  0.7546771E-02  0.1489516E+00
          2   -1    0    0  502    0  0.00000000000E+00  0.00000000000E+00  0.93281400944E+01  0.93281400944E+01  0.00000000000E+00 0.  1.
          1   -1    0    0  501    0 -0.00000000000E+00 -0.00000000000E+00 -0.12078450245E+03  0.12078450245E+03  0.00000000000E+00 0. -1.
          2    1    1    2  501    0  0.18085257227E+02  0.14593929895E+02 -0.87852166056E+01  0.24844302155E+02  0.00000000000E+00 0.  1.
          1    1    1    2  502    0 -0.18085257227E+02 -0.14593929895E+02 -0.10267114575E+03  0.10526834039E+03  0.00000000000E+00 0. -1.
</event>
<event>
 4    1  0.7416369E+003  0.2275652E+02  0.7546771E-02  0.1495578E+00
          2   -1    0    0  502    0  0.00000000000E+00  0.00000000000E+00  0.48366789786E+01  0.48366789786E+01  0.00000000000E+00 0.  1.
          1   -1    0    0  501    0 -0.00000000000E+00 -0.00000000000E+00 -0.75806700109E+03  0.75806700109E+03  0.00000000000E+00 0. -1.
          2    1    1    2  501    0  0.14775418244E+02  0.17307402192E+02 -0.23126333185E+02  0.32445129704E+02  0.00000000000E+00 0.  1.
          1    1    1    2  502    0 -0.14775418244E+02 -0.17307402192E+02 -0.73010398893E+03  0.73045855037E+03  0.00000000000E+00 0. -1.
</event>
<event>
 4    1  0.7416369E+003  0.4053126E+02  0.7546771E-02  0.1345400E+00
          2   -1    0    0  502    0  0.00000000000E+00  0.00000000000E+00  0.13212896903E+04  0.13212896903E+04  0.00000000000E+00 0. -1.
          1   -1    0    0  501    0 -0.00000000000E+00 -0.00000000000E+00 -0.25347969773E+01  0.25347969773E+01  0.00000000000E+00 0. -1.
          2    1    1    2  501    0 -0.17200584199E+02 -0.36700444063E+02  0.11318456286E+04  0.11325711058E+04  0.00000000000E+00 0. -1.
          1    1    1    2  502    0  0.17200584199E+02  0.36700444063E+02  0.18690926477E+03  0.19125338153E+03  0.00000000000E+00 0. -1.
</event>
<event>
 4    1  0.7416369E+003  0.2313260E+02  0.7546771E-02  0.1490840E+00
          2   -1    0    0  502    0  0.00000000000E+00  0.00000000000E+00  0.21308787617E+04  0.21308787617E+04  0.00000000000E+00 0.  1.
          1   -1    0    0  501    0 -0.00000000000E+00 -0.00000000000E+00 -0.38750377628E+00  0.38750377628E+00  0.00000000000E+00 0.  1.
          2    1    1    2  501    0  0.21670934832E+02 -0.80924442202E+01  0.16974289519E+04  0.16975865703E+04  0.00000000000E+00 0.  1.
          1    1    1    2  502    0 -0.21670934832E+02  0.80924442202E+01  0.43306230606E+03  0.43367969517E+03  0.00000000000E+00 0.  1.
</event>
<event>
 4    1  0.7416369E+003  0.2034282E+02  0.7546771E-02  0.1528858E+00
          2   -1    0    0  502    0  0.00000000000E+00  0.00000000000E+00  0.14433171893E+01  0.14433171893E+01  0.00000000000E+00 0.  1.
          1   -1    0    0  501    0 -0.00000000000E+00 -0.00000000000E+00 -0.41042504983E+03  0.41042504983E+03  0.00000000000E+00 0.  1.
          2    1    1    2  501    0 -0.19824037311E+02 -0.45648538050E+01 -0.91432616583E+02  0.93668317593E+02  0.00000000000E+00 0.  1.
          1    1    1    2  502    0  0.19824037311E+02  0.45648538050E+01 -0.31754911606E+03  0.31820004943E+03  0.00000000000E+00 0.  1.
</event>
<event>
 4    1  0.7416369E+003  0.3966268E+02  0.7546771E-02  0.1350474E+00
          2   -1    0    0  502    0  0.00000000000E+00  0.00000000000E+00  0.55761998212E+03  0.55761998212E+03  0.00000000000E+00 0.  1.
          1   -1    0    0  501    0 -0.00000000000E+00 -0.00000000000E+00 -0.30901019225E+01  0.30901019225E+01  0.00000000000E+00 0. -1.
          2    1    1    2  501    0  0.38586146556E+01 -0.39474535878E+02  0.35997565789E+03  0.36215411383E+03  0.00000000000E+00 0.  1.
          1    1    1    2  502    0 -0.38586146556E+01  0.39474535878E+02  0.19455422231E+03  0.19855597021E+03  0.00000000000E+00 0. -1.
</event>
<event>
 4    1  0.7416369E+003  0.3205347E+02  0.7546771E-02  0.1402553E+00
          2   -1    0    0  502    0  0.00000000000E+00  0.00000000000E+00  0.15379290575E+04  0.15379290575E+04  0.00000000000E+00 0.  1.
          1   -1    0    0  501    0 -0.00000000000E+00 -0.00000000000E+00 -0.27086457019E+02  0.27086457019E+02  0.00000000000E+00 0.  1.
          2    1    1    2  501    0 -0.27577786472E+02  0.16336781914E+02  0.15282189702E+04  0.15285550842E+04  0.00000000000E+00 0.  1.
          1    1    1    2  502    0  0.27577786472E+02 -0.16336781914E+02 -0.17376369718E+02  0.36460430257E+02  0.00000000000E+00 0.  1.
</event>
<event>
 4    1  0.7416369E+003  0.2589952E+02  0.7546771E-02  0.1458987E+00
          2   -1    0    0  502    0  0.00000000000E+00  0.00000000000E+00  0.11399566596E+03  0.11399566596E+03  0.00000000000E+00 0.  1.
          1   -1    0    0  501    0 -0.00000000000E+00 -0.00000000000E+00 -0.11521325987E+02  0.11521325987E+02  0.00000000000E+00 0.  1.
          2    1    1    2  501    0 -0.25872524923E+02  0.11821743089E+01  0.95135316438E+02  0.98597735855E+02  0.00000000000E+00 0.  1.
          1    1    1    2  502    0  0.25872524923E+02 -0.11821743089E+01  0.73390235316E+01  0.26919256089E+02  0.00000000000E+00 0.  1.
</event>
<event>
 4    1  0.7416369E+003  0.2100753E+02  0.7546771E-02  0.1519157E+00
          2   -1    0    0  502    0  0.00000000000E+00  0.00000000000E+00  0.77733058640E+02  0.77733058640E+02  0.00000000000E+00 0.  1.
          1   -1    0    0  501    0 -0.00000000000E+00 -0.00000000000E+00 -0.70659295495E+01  0.70659295495E+01  0.00000000000E+00 0. -1.
          2    1    1    2  501    0  0.17097745416E+02  0.12205878100E+02  0.54129513903E+02  0.58063074616E+02  0.00000000000E+00 0.  1.
          1    1    1    2  502    0 -0.17097745416E+02 -0.12205878100E+02  0.16537615187E+02  0.26735913573E+02  0.00000000000E+00 0. -1.
</event>
<event>
 4    1  0.7416369E+003  0.2140714E+02  0.7546771E-02  0.1513531E+00
          2   -1    0    0  502    0  0.00000000000E+00  0.00000000000E+00  0.56659683302E+01  0.56659683302E+01  0.00000000000E+00 0.  1.
          1   -1    0    0  501    0 -0.00000000000E+00 -0.00000000000E+00 -0.23440936771E+03  0.23440936771E+03  0.00000000000E+00 0.  1.
          2    1    1    2  501    0 -0.16853487199E+02  0.13199457641E+02 -0.17225626361E+02  0.27477043442E+02  0.00000000000E+00 0.  1.
          1    1    1    2  502    0  0.16853487199E+02 -0.13199457641E+02 -0.21151777302E+03  0.21259829260E+03  0.00000000000E+00 0.  1.
</event>
<event>
 4    1  0.7416369E+003  0.3675483E+02  0.7546771E-02  0.1368629E+00
          2   -1    0    0  502    0  0.00000000000E+00  0.00000000000E+00  0.21969221505E+02  0.21969221505E+02  0.00000000000E+00 0.  1.
          1   -1    0    0  501    0 -0.00000000000E+00 -0.00000000000E+00 -0.32163436944E+03  0.32163436944E+03  0.00000000000E+00 0. -1.
          2    1    1    2  501    0 -0.36247721436E+02  0.60844251441E+01  0.46759857480E+01  0.37051078005E+02  0.00000000000E+00 0.  1.
          1    1    1    2  502    0  0.36247721436E+02 -0.60844251441E+01 -0.30434113368E+03  0.30655251294E+03  0.00000000000E+00 0. -1.
</event>
<event>
 4    1  0.7416369E+003  0.2582814E+02  0.7546771E-02  0.1459748E+00
          2   -1    0    0  502    0  0.00000000000E+00  0.00000000000E+00  0.11413091427E+04  0.11413091427E+04  0.00000000000E+00 0. -1.
          1   -1    0    0  501    0 -0.00000000000E+00 -0.00000000000E+00 -0.77835824106E+01  0.77835824106E+01  0.00000000000E+00 0. -1.
          2    1    1    2  501    0 -0.25823508559E+02  0.48929982795E+00  0.11193157860E+04  0.11196137378E+04  0.00000000000E+00 0. -1.
          1    1    1    2  502    0  0.25823508559E+02 -0.48929982795E+00  0.14209774263E+02  0.29478987317E+02  0.00000000000E+00 0. -1.
</event>
<event>
 4    1  0.7416369E+003  0.4338784E+02  0.7546771E-02  0.1329700E+00
          2   -1    0    0  502    0  0.00000000000E+00  0.00000000000E+00  0.25783297958E+04  0.25783297958E+04  0.00000000000E+00 0.  1.
          1   -1    0    0  501    0 -0.00000000000E+00 -0.00000000000E+00 -0.12766286719E+01  0.12766286719E+01  0.00000000000E+00 0. -1.
          2    1    1    2  501    0 -0.29005667886E+02  0.32267251892E+02  0.21324198145E+04  0.21328611698E+04  0.00000000000E+00 0.  1.
          1    1    1    2  502    0  0.29005667886E+02 -0.32267251892E+02  0.44463335269E+03  0.44674525474E+03  0.00000000000E+00 0. -1.
</event>
<event>
 4    1  0.7416369E+003  0.2055996E+02  0.7546771E-02  0.1525641E+00
          2   -1    0    0  502    0  0.00000000000E+00  0.00000000000E+00  0.13702339830E+04  0.13702339830E+04  0.00000000000E+00 0. -1.
          1   -1    0    0  501    0 -0.00000000000E+00 -0.00000000000E+00 -0.31794828885E+00  0.31794828885E+00  0.00000000000E+00 0. -1.
          2    1    1    2  501    0 -0.20474374762E+02  0.18739337977E+01  0.56680178452E+03  0.56717455390E+03  0.00000000000E+00 0. -1.
          1    1    1    2  502    0  0.20474374762E+02 -0.18739337977E+01  0.80311425017E+03  0.80337737738E+03  0.00000000000E+00 0. -1.
</event>
<event>
 4    1  0.7416369E+003  0.2467181E+02  0.7546771E-02  0.1472509E+00
          2   -1    0    0  502    0  0.00000000000E+00  0.00000000000E+00  0.18067929764E+02  0.18067929764E+02  0.00000000000E+00 0. -1.
          1   -1    0    0  501    0 -0.00000000000E+00 -0.00000000000E+00 -0.11102077519E+03  0.11102077519E+03  0.00000000000E+00 0.  1.
          2    1    1    2  501    0  0.22828894200E+02  0.93562596765E+01  0.73919605923E+01  0.25755370060E+02  0.00000000000E+00 0. -1.
          1    1    1    2  502    0 -0.22828894200E+02 -0.93562596765E+01 -0.10034480602E+03  0.10333333489E+03  0.00000000000E+00 0.  1.
</event>
<event>
 4    1  0.7416369E+003  0.2284277E+02  0.7546771E-02  0.1494482E+00
          2   -1    0    0  502    0  0.00000000000E+00  0.00000000000E+00  0.51451828753E+01  0.51451828753E+01  0.00000000000E+00 0.  1.
          1   -1    0    0  501    0 -0.00000000000E+00 -0.00000000000E+00 -0.33021586569E+03  0.33021586569E+03  0.00000000000E+00 0.  1.
          2    1    1    2  501    0 -0.40709256187E+01 -0.22477095131E+02 -0.22958398366E+02  0.32386421483E+02  0.00000000000E+00 0.  1.
          1    1    1    2  502    0  0.40709256187E+01  0.22477095131E+02 -0.30211228444E+03  0.30297462708E+03  0.00000000000E+00 0.  1.
</event>
<event>
 4    1  0.7416369E+003  0.4074630E+02  0.7546771E-02  0.1344167E+00
          2   -1    0    0  502    0  0.00000000000E+00  0.00000000000E+00  0.62904612294E+03  0.62904612294E+03  0.00000000000E+00 0. -1.
          1   -1    0    0  501    0 -0.00000000000E+00 -0.00000000000E+00 -0.80113107266E+01  0.80113107266E+01  0.00000000000E+00 0. -1.
          2    1    1    2  501    0  0.36722589902E+02  0.17655388552E+02  0.57135126059E+03  0.57280234316E+03  0.00000000000E+00 0. -1.
          1    1    1    2  502    0 -0.36722589902E+02 -0.17655388552E+02  0.49683551628E+02  0.64255090509E+02  0.00000000000E+00 0. -1.
</event>
<event>
 4    1  0.7416369E+003  0.7952235E+02  0.7546771E-02  0.1204961E+00
          2   -1    0    0  502    0  0.00000000000E+00  0.00000000000E+00  0.16315371583E+04  0.16315371583E+04  0.00000000000E+00 0.  1.
          1   -1    0    0  501    0 -0.00000000000E+00 -0.00000000000E+00 -0.55011403799E+01  0.55011403799E+01  0.00000000000E+00 0. -1.
          2    1    1    2  501    0  0.11202559022E+02 -0.78729321695E+02  0.12579060739E+04  0.12604171905E+04  0.00000000000E+00 0.  1.
          1    1    1    2  502    0 -0.11202559022E+02  0.78729321695E+02  0.36812994411E+03  0.37662110825E+03  0.00000000000E+00 0. -1.
</event>
<event>
 4    1  0.7416369E+003  0.2053001E+02  0.7546771E-02  0.1526082E+00
          2   -1    0    0  502    0  0.00000000000E+00  0.00000000000E+00  0.14608766827E+02  0.14608766827E+02  0.00000000000E+00 0. -1.
          1   -1    0    0  501    0 -0.00000000000E+00 -0.00000000000E+00 -0.31013684316E+02  0.31013684316E+02  0.00000000000E+00 0. -1.
          2    1    1    2  501    0 -0.14702178753E+01  0.20477300206E+02 -0.21790524262E+01  0.20645329588E+02  0.00000000000E+00 0. -1.
          1    1    1    2  502    0  0.14702178753E+01 -0.20477300206E+02 -0.14225865063E+02  0.24977121554E+02  0.00000000000E+00 0. -1.
</event>
<event>
 4    1  0.7416369E+003  0.2505416E+02  0.7546771E-02  0.1468198E+00
          2   -1    0    0  502    0  0.00000000000E+00  0.00000000000E+00  0.40733829670E+02  0.40733829670E+02  0.00000000000E+00 0.  1.
          1   -1    0    0  501    0 -0.00000000000E+00 -0.00000000000E+00 -0.36731583206E+02  0.36731583206E+02  0.00000000000E+00 0.  1.
          2    1    1    2  501    0  0.23263371402E+02  0.93019697775E+01  0.31510976578E+02  0.40257331452E+02  0.00000000000E+00 0.  1.
          1    1    1    2  502    0 -0.23263371402E+02 -0.93019697775E+01 -0.27508730115E+02  0.37208081424E+02  0.00000000000E+00 0.  1.
</event>
<event>
 4    1  0.7416369E+003  0.2587774E+02  0.7546771E-02  0.1459219E+00
          2   -1    0    0  502    0  0.00000000000E+00  0.00000000000E+00  0.24931611325E+03  0.24931611325E+03  0.00000000000E+00 0.  1.
          1   -1    0    0  501    0 -0.00000000000E+00 -0.00000000000E+00 -0.27862949502E+02  0.27862949502E+02  0.00000000000E+00 0. -1.
          2    1    1    2  501    0 -0.21002720194E+02 -0.15117651117E+02  0.24246687495E+03  0.24384389079E+03  0.00000000000E+00 0.  1.
          1    1    1    2  502    0  0.21002720194E+02  0.15117651117E+02 -0.21013711201E+02  0.33335171955E+02  0.00000000000E+00 0. -1.
</event>
<event>
 4    1  0.7416369E+003  0.3004545E+02  0.7546771E-02  0.1419202E+00
          2   -1    0    0  502    0  0.00000000000E+00  0.00000000000E+00  0.25063624745E+01  0.25063624745E+01  0.00000000000E+00 0.  1.
          1   -1    0    0  501    0 -0.00000000000E+00 -0.00000000000E+00 -0.86230872091E+03  0.86230872091E+03  0.00000000000E+00 0.  1.
          2    1    1    2  501    0  0.89073297396E+01  0.28694744707E+02 -0.99933349500E+02  0.10435230347E+03  0.00000000000E+00 0.  1.
          1    1    1    2  502    0 -0.89073297396E+01 -0.28694744707E+02 -0.75986900893E+03  0.76046277991E+03  0.00000000000E+00 0.  1.
</event>
<event>
 4    1  0.7416369E+003  0.2533258E+02  0.7546771E-02  0.1465117E+00
          2   -1    0    0  502    0  0.00000000000E+00  0.00000000000E+00  0.48823958178E+02  0.48823958178E+02  0.00000000000E+00 0.  1.
          1   -1    0    0  501    0 -0.00000000000E+00 -0.00000000000E+00 -0.39252313463E+02  0.39252313463E+02  0.00000000000E+00 0. -1.
          2    1    1    2  501    0  0.15262893313E+02  0.20218395650E+02  0.40701673390E+02  0.47941272946E+02  0.00000000000E+00 0.  1.
          1    1    1    2  502    0 -0.15262893313E+02 -0.20218395650E+02 -0.31130028675E+02  0.40134998695E+02  0.00000000000E+00 0. -1.
</event>
<event>
 4    1  0.7416369E+003  0.7871800E+02  0.7546771E-02  0.1206855E+00
          2   -1    0    0  502    0  0.00000000000E+00  0.00000000000E+00  0.62573433660E+03  0.62573433660E+03  0.00000000000E+00 0. -1.
          1   -1    0    0  501    0 -0.00000000000E+00 -0.00000000000E+00 -0.16597751038E+03  0.16597751038E+03  0.00000000000E+00 0.  1.
          2    1    1    2  501    0 -0.38568712949E+02  0.68621991947E+02  0.61374365604E+03  0.61877120063E+03  0.00000000000E+00 0. -1.
          1    1    1    2  502    0  0.38568712949E+02 -0.68621991947E+02 -0.15398682983E+03  0.17294064634E+03  0.00000000000E+00 0.  1.
</event>
<event>
 4    1  0.7416369E+003  0.2889178E+02  0.7546771E-02  0.1429477E+00
          2   -1    0    0  502    0  0.00000000000E+00  0.00000000000E+00  0.12828857185E+03  0.12828857185E+03  0.00000000000E+00 0. -1.
          1   -1    0    0  501    0 -0.00000000000E+00 -0.00000000000E+00 -0.20851208061E+03  0.20851208061E+03  0.00000000000E+00 0.  1.
          2    1    1    2  501    0 -0.28501296675E+02 -0.47340592934E+01  0.12564024908E+03  0.12891938341E+03  0.00000000000E+00 0. -1.
          1    1    1    2  502    0  0.28501296675E+02  0.47340592934E+01 -0.20586375785E+03  0.20788126906E+03  0.00000000000E+00 0.  1.
</event>
<event>
 4    1  0.7416369E+003  0.2331419E+02  0.7546771E-02  0.1488590E+00
          2   -1    0    0  502    0  0.00000000000E+00  0.00000000000E+00  0.10460335013E+04  0.10460335013E+04  0.00000000000E+00 0.  1.
          1   -1    0    0  501    0 -0.00000000000E+00 -0.00000000000E+00 -0.82053703391E+01  0.82053703391E+01  0.00000000000E+00 0. -1.
          2    1    1    2  501    0  0.13792183315E+02 -0.18796999867E+02  0.10290697842E+04  0.10293338488E+04  0.00000000000E+00 0.  1.
          1    1    1    2  502    0 -0.13792183315E+02  0.18796999867E+02  0.87583467542E+01  0.24905022836E+02  0.00000000000E+00 0. -1.
</event>
<event>
 4    1  0.7416369E+003  0.3755100E+02  0.7546771E-02  0.1363467E+00
          2   -1    0    0  502    0  0.00000000000E+00  0.00000000000E+00  0.80067557564E+02  0.80067557564E+02  0.00000000000E+00 0. -1.
          1   -1    0    0  501    0 -0.00000000000E+00 -0.00000000000E+00 -0.16048516043E+03  0.16048516043E+03  0.00000000000E+00 0. -1.
          2    1    1    2  501    0  0.30232201954E+02 -0.22273120748E+02  0.73276475715E+02  0.82337839636E+02  0.00000000000E+00 0. -1.
          1    1    1    2  502    0 -0.30232201954E+02  0.22273120748E+02 -0.15369407858E+03  0.15821487835E+03  0.00000000000E+00 0. -1.
</event>
<event>
 4    1  0.7416369E+003  0.2015639E+02  0.7546771E-02  0.1531658E+00
          2   -1    0    0  502    0  0.00000000000E+00  0.00000000000E+00  0.27187579305E+03  0.27187579305E+03  0.00000000000E+00 0. -1.
          1   -1    0    0  501    0 -0.00000000000E+00 -0.00000000000E+00 -0.94923004253E+02  0.94923004253E+02  0.00000000000E+00 0. -1.
          2    1    1    2  501    0  0.14447111933E+02  0.14055638623E+02  0.27042645131E+03  0.27117659484E+03  0.00000000000E+00 0. -1.
          1    1    1    2  502    0 -0.14447111933E+02 -0.14055638623E+02 -0.93473662514E+02  0.95622202464E+02  0.00000000000E+00 0. -1.
</event>
<event>
 4    1  0.7416369E+003  0.2099116E+02  0.7546771E-02  0.1519391E+00
          2   -1    0    0  502    0  0.00000000000E+00  0.00000000000E+00  0.17842236910E+02  0.17842236910E+02  0.00000000000E+00 0.  1.
          1   -1    0    0  501    0 -0.00000000000E+00 -0.00000000000E+00 -0.39218459178E+03  0.39218459178E+03  0.00000000000E+00 0.  1.
          2    1    1    2  501    0  0.24132684340E+01  0.20851976058E+02  0.11282453337E+02  0.23831125097E+02  0.00000000000E+00 0.  1.
          1    1    1    2  502    0 -0.24132684340E+01 -0.20851976058E+02 -0.38562480821E+03  0.38619570360E+03  0.00000000000E+00 0.  1.
</event>
<event>
 4    1  0.7416369E+003  0.3263681E+02  0.7546771E-02  0.1397984E+00
          2   -1    0    0  502    0  0.00000000000E+00  0.00000000000E+00  0.45956825480E+03  0.45956825480E+03  0.00000000000E+00 0. -1.
          1   -1    0    0  501    0 -0.00000000000E+00 -0.00000000000E+00 -0.12094605396E+03  0.12094605396E+03  0.00000000000E+00 0.  1.
          2    1    1    2  501    0 -0.32611720853E+02  0.12793960928E+01  0.45677363774E+03  0.45793811517E+03  0.00000000000E+00 0. -1.
          1    1    1    2  502    0  0.32611720853E+02 -0.12793960928E+01 -0.11815143690E+03  0.12257619358E+03  0.00000000000E+00 0.  1.
</event>
<event>
 4    1  0.2066025E+004  0.2421508E+02  0.7546771E-02  0.1477779E+00
          2   -1    0    0  502    0  0.00000000000E+00  0.00000000000E+00  0.14073811016E+04  0.14073811016E+04  0.00000000000E+00 0.  1.
          1   -1    0    0  501    0 -0.00000000000E+00 -0.00000000000E+00 -0.12078761656E+04  0.12078761656E+04  0.00000000000E+00 0. -1.
          2    1    1    2  501    0  0.22234284504E+02  0.95920178070E+01  0.14071555584E+04  0.14073638960E+04  0.00000000000E+00 0.  1.
          1    1    1    2  502    0 -0.22234284504E+02 -0.95920178070E+01 -0.12076506225E+04  0.12078933712E+04  0.00000000000E+00 0. -1.
</event>
<event>
 4    1  0.7416369E+003  0.2497455E+02  0.7546771E-02  0.1469088E+00
          2   -1    0    0  502    0  0.00000000000E+00  0.00000000000E+00  0.11965237481E+03  0.11965237481E+03  0.00000000000E+00 0.  1.
          1   -1    0    0  501    0 -0.00000000000E+00 -0.00000000000E+00 -0.74377065720E+02  0.74377065720E+02  0.00000000000E+00 0. -1.
          2    1    1    2  501    0  0.22884244808E+02 -0.10001969812E+02  0.11619090717E+03  0.11884466740E+03  0.00000000000E+00 0.  1.
          1    1    1    2  502    0 -0.22884244808E+02  0.10001969812E+02 -0.70915598077E+02  0.75184773133E+02  0.00000000000E+00 0. -1.
</event>
<event>
 4    1  0.7416369E+003  0.2012804E+02  0.7546771E-02  0.1532087E+00
          2   -1    0    0  502    0  0.00000000000E+00  0.00000000000E+00  0.59571053198E+03  0.59571053198E+03  0.00000000000E+00 0.  1.
          1   -1    0    0  501    0 -0.00000000000E+00 -0.00000000000E+00 -0.97206036576E+01  0.97206036576E+01  0.00000000000E+00 0. -1.
          2    1    1    2  501    0 -0.20127512744E+02 -0.14623293183E+00  0.58492893596E+03  0.58527514750E+03  0.00000000000E+00 0.  1.
          1    1    1    2  502    0  0.20127512744E+02  0.14623293183E+00  0.10609923662E+01  0.20155988145E+02  0.00000000000E+00 0. -1.
</event>
<event>
 4    1  0.7416369E+003  0.2312171E+02  0.7546771E-02  0.1490975E+00
          2   -1    0    0  502    0  0.00000000000E+00  0.00000000000E+00  0.64930246945E+01  0.64930246945E+01  0.00000000000E+00 0. -1.
          1   -1    0    0  501    0 -0.00000000000E+00 -0.00000000000E+00 -0.27143506011E+03  0.27143506011E+03  0.00000000000E+00 0. -1.
          2    1    1    2  501    0  0.10487385983E+02  0.20606507821E+02 -0.16482902875E+02  0.28395413652E+02  0.00000000000E+00 0. -1.
          1    1    1    2  502    0 -0.10487385983E+02 -0.20606507821E+02 -0.24845913254E+03  0.24953267115E+03  0.00000000000E+00 0. -1.
</event>
<event>
 4    1  0.7416369E+003  0.2066659E+02  0.7546771E-02  0.1524079E+00
          2   -1    0    0  502    0  0.00000000000E+00  0.00000000000E+00  0.61560968221E+03  0.61560968221E+03  0.00000000000E+00 0.  1.
          1   -1    0    0  501    0 -0.00000000000E+00 -0.00000000000E+00 -0.87530886207E+00  0.87530886207E+00  0.00000000000E+00 0.  1.
          2    1    1    2  501    0 -0.20193770732E+02  0.43953865696E+01  0.44773419309E+03  0.44821090512E+03  0.00000000000E+00 0.  1.
          1    1    1    2  502    0  0.20193770732E+02 -0.43953865696E+01  0.16700018026E+03  0.16827408596E+03  0.00000000000E+00 0.  1.
</event>
<event>
 4    1  0.7416369E+003  0.2371179E+02  0.7546771E-02  0.1483748E+00
          2   -1    0    0  502    0  0.00000000000E+00  0.00000000000E+00  0.46527295359E+02  0.46527295359E+02  0.00000000000E+00 0.  1.
          1   -1    0    0  501    0 -0.00000000000E+00 -0.00000000000E+00 -0.24018458294E+03  0.24018458294E+03  0.00000000000E+00 0.  1.
          2    1    1    2  501    0 -0.54644708141E+01  0.23073546366E+02  0.42874460067E+02  0.48994574283E+02  0.00000000000E+00 0.  1.
          1    1    1    2  502    0  0.54644708141E+01 -0.23073546366E+02 -0.23653174764E+03  0.23771730401E+03  0.00000000000E+00 0.  1.
</event>
<event>
 4    1  0.7416369E+003  0.2017169E+02  0.7546771E-02  0.1531427E+00
          2   -1    0    0  502    0  0.00000000000E+00  0.00000000000E+00  0.95204740327E+02  0.95204740327E+02  0.00000000000E+00 0.  1.
          1   -1    0    0  501    0 -0.00000000000E+00 -0.00000000000E+00 -0.14715984943E+03  0.14715984943E+03  0.00000000000E+00 0.  1.
          2    1    1    2  501    0 -0.38885197091E+01 -0.19793341592E+02  0.93432045873E+02  0.95584748537E+02  0.00000000000E+00 0.  1.
          1    1    1    2  502    0  0.38885197091E+01  0.19793341592E+02 -0.14538715498E+03  0.14677984122E+03  0.00000000000E+00 0.  1.
</event>
<event>
 4    1  0.7416369E+003  0.3465008E+02  0.7546771E-02  0.1383040E+00
          2   -1    0    0  502    0  0.00000000000E+00  0.00000000000E+00  0.19205571253E+04  0.19205571253E+04  0.00000000000E+00 0.  1.
          1   -1    0    0  501    0 -0.00000000000E+00 -0.00000000000E+00 -0.91137092080E+00  0.91137092080E+00  0.00000000000E+00 0.  1.
          2    1    1    2  501    0 -0.69128129348E+01 -0.33953517902E+02  0.14982284015E+04  0.14986290306E+04  0.00000000000E+00 0.  1.
          1    1    1    2  502    0  0.69128129348E+01  0.33953517902E+02  0.42141735290E+03  0.42283946562E+03  0.00000000000E+00 0.  1.
</event>
<event>
 4    1  0.7416369E+003  0.2656169E+02  0.7546771E-02  0.1452061E+00
          2   -1    0    0  502    0  0.00000000000E+00  0.00000000000E+00  0.14907769833E+01  0.14907769833E+01  0.00000000000E+00 0. -1.
          1   -1    0    0  501    0 -0.00000000000E+00 -0.00000000000E+00 -0.10305500672E+04  0.10305500672E+04  0.00000000000E+00 0. -1.
          2    1    1    2  501    0 -0.86301094839E+01 -0.25120600509E+02 -0.13506313623E+03  0.13765018753E+03  0.00000000000E+00 0. -1.
          1    1    1    2  502    0  0.86301094839E+01  0.25120600509E+02 -0.89399615395E+03  0.89439065662E+03  0.00000000000E+00 0. -1.
</event>
<event>
 4    1  0.7416369E+003  0.2219734E+02  0.7546771E-02  0.1502831E+00
          2   -1    0    0  502    0  0.00000000000E+00  0.00000000000E+00  0.96163785239E+03  0.96163785239E+03  0.00000000000E+00 0.  1.
          1   -1    0    0  501    0 -0.00000000000E+00 -0.00000000000E+00 -0.25942377302E+01  0.25942377302E+01  0.00000000000E+00 0. -1.
          2    1    1    2  501    0 -0.13130206558E+02 -0.17897473512E+02  0.91141111597E+03  0.91168138305E+03  0.00000000000E+00 0.  1.
          1    1    1    2  502    0  0.13130206558E+02  0.17897473512E+02  0.47632498689E+02  0.52550707072E+02  0.00000000000E+00 0. -1.
</event>
<event>
 4    1  0.7416369E+003  0.3770638E+02  0.7546771E-02  0.1362477E+00
          2   -1    0    0  502    0  0.00000000000E+00  0.00000000000E+00  0.34842373465E+03  0.34842373465E+03  0.00000000000E+00 0.  1.
          1   -1    0    0  501    0 -0.00000000000E+00 -0.00000000000E+00 -0.13575947626E+03  0.13575947626E+03  0.00000000000E+00 0.  1.
          2    1    1    2  501    0 -0.13551427990E+02 -0.35187075246E+02  0.34475764992E+03  0.34681350701E+03  0.00000000000E+00 0.  1.
          1    1    1    2  502    0  0.13551427990E+02  0.35187075246E+02 -0.13209339152E+03  0.13736970390E+03  0.00000000000E+00 0.  1.
</event>
<event>
 4    1  0.7416369E+003  0.2082627E+02  0.7546771E-02  0.1521760E+00
          2   -1    0    0  502    0  0.00000000000E+00  0.00000000000E+00  0.36397784438E+03  0.36397784438E+03  0.00000000000E+00 0.  1.
          1   -1    0    0  501    0 -0.00000000000E+00 -0.00000000000E+00 -0.31118177978E+02  0.31118177978E+02  0.00000000000E+00 0.  1.
          2    1    1    2  501    0 -0.36252914467E+01 -0.20508313935E+02  0.36015844158E+03  0.36076008194E+03  0.00000000000E+00 0.  1.
          1    1    1    2  502    0  0.36252914467E+01  0.20508313935E+02 -0.27298775177E+02  0.34335940422E+02  0.00000000000E+00 0.  1.
</event>
<event>
 4    1  0.7416369E+003  0.2392475E+02  0.7546771E-02  0.1481201E+00
          2   -1    0    0  502    0  0.00000000000E+00  0.00000000000E+00  0.57223906180E+02  0.57223906180E+02  0.00000000000E+00 0.  1.
          1   -1    0    0  501    0 -0.00000000000E+00 -0.00000000000E+00 -0.10516281448E+02  0.10516281448E+02  0.00000000000E+00 0.  1.
          2    1    1    2  501    0  0.65543128209E+01  0.23009444941E+02  0.30838779770E+02  0.39031063408E+02  0.00000000000E+00 0.  1.
          1    1    1    2  502    0 -0.65543128209E+01 -0.23009444941E+02  0.15868844962E+02  0.28709124220E+02  0.00000000000E+00 0.  1.
</event>
<event>
 4    1  0.7416369E+003  0.2153457E+02  0.7546771E-02  0.1511768E+00
          2   -1    0    0  502    0  0.00000000000E+00  0.00000000000E+00  0.30572621570E+03  0.30572621570E+03  0.00000000000E+00 0.  1.
          1   -1    0    0  501    0 -0.00000000000E+00 -0.00000000000E+00 -0.39642456609E+01  0.39642456609E+01  0.00000000000E+00 0.  1.
          2    1    1    2  501    0 -0.21534210625E+02 -0.12378230681E+00  0.27254736682E+03  0.27339678986E+03  0.00000000000E+00 0.  1.
          1    1    1    2  502    0  0.21534210625E+02  0.12378230681E+00  0.29214603226E+02  0.36293671501E+02  0.00000000000E+00 0.  1.
</event>
<event>
 4    1  0.7416369E+003  0.2082967E+02  0.7546771E-02  0.1521711E+00
          2   -1    0    0  502    0  0.00000000000E+00  0.00000000000E+00  0.43967198219E+00  0.43967198219E+00  0.00000000000E+00 0.  1.
          1   -1    0    0  501    0 -0.00000000000E+00 -0.00000000000E+00 -0.99011060385E+03  0.99011060385E+03  0.00000000000E+00 0. -1.
          2    1    1    2  501    0 -0.47064330341E+00 -0.20824351849E+02 -0.46626363922E+03  0.46672867535E+03  0.00000000000E+00 0.  1.
          1    1    1    2  502    0  0.47064330341E+00  0.20824351849E+02 -0.52340729264E+03  0.52382160047E+03  0.00000000000E+00 0. -1.
</event>
<event>
 4    1  0.7416369E+003  0.3017972E+02  0.7546771E-02  0.1418041E+00
          2   -1    0    0  502    0  0.00000000000E+00  0.00000000000E+00  0.25524273239E+03  0.25524273239E+03  0.00000000000E+00 0. -1.
          1   -1    0    0  501    0 -0.00000000000E+00 -0.00000000000E+00 -0.92363036630E+01  0.92363036630E+01  0.00000000000E+00 0.  1.
          2    1    1    2  501    0  0.29836879976E+02  0.45361120479E+01  0.22659426853E+03  0.22859522797E+03  0.00000000000E+00 0. -1.
          1    1    1    2  502    0 -0.29836879976E+02 -0.45361120479E+01  0.19412160199E+02  0.35883808087E+02  0.00000000000E+00 0.  1.
</event>
<event>
 4    1  0.7416369E+003  0.2121787E+02  0.7546771E-02  0.1516177E+00
          2   -1    0    0  502    0  0.00000000000E+00  0.00000000000E+00  0.19361299644E+02  0.19361299644E+02  0.00000000000E+00 0. -1.
          1   -1    0    0  501    0 -0.00000000000E+00 -0.00000000000E+00 -0.26859770181E+02  0.26859770181E+02  0.00000000000E+00 0.  1.
          2    1    1    2  501    0  0.19381775529E+02 -0.86339304459E+01  0.47201167580E+01  0.21736547100E+02  0.00000000000E+00 0. -1.
          1    1    1    2  502    0 -0.19381775529E+02  0.86339304459E+01 -0.12218587295E+02  0.24484522726E+02  0.00000000000E+00 0.  1.
</event>
<event>
 4    1  0.7416369E+003  0.3228662E+02  0.7546771E-02  0.1400713E+00
          2   -1    0    0  502    0  0.00000000000E+00  0.00000000000E+00  0.91709929062E+02  0.91709929062E+02  0.00000000000E+00 0.  1.
          1   -1    0    0  501    0 -0.00000000000E+00 -0.00000000000E+00 -0.27658456813E+03  0.27658456813E+03  0.00000000000E+00 0.  1.
          2    1    1    2  501    0  0.30483662360E+02 -0.10638227576E+02  0.87886365476E+02  0.93629262485E+02  0.00000000000E+00 0.  1.
          1    1    1    2  502    0 -0.30483662360E+02  0.10638227576E+02 -0.27276100455E+03  0.27466523471E+03  0.00000000000E+00 0.  1.
</event>
<event>
 4    1  0.7416369E+003  0.8284775E+02  0.7546771E-02  0.1197386E+00
          2   -1    0    0  502    0  0.00000000000E+00  0.00000000000E+00  0.20808983785E+04  0.20808983785E+04  0.00000000000E+00 0.  1.
          1   -1    0    0  501    0 -0.00000000000E+00 -0.00000000000E+00 -0.19319892782E+02  0.19319892782E+02  0.00000000000E+00 0.  1.
          2    1    1    2  501    0 -0.80621192927E+02 -0.19078073320E+02  0.19870642927E+04  0.19887906509E+04  0.00000000000E+00 0.  1.
          1    1    1    2  502    0  0.80621192927E+02  0.19078073320E+02  0.74514193008E+02  0.11142762041E+03  0.00000000000E+00 0.  1.
</event>
<event>
 4    1  0.7416369E+003  0.2543451E+02  0.7546771E-02  0.1464001E+00
          2   -1    0    0  502    0  0.00000000000E+00  0.00000000000E+00  0.85365126018E+03  0.85365126018E+03  0.00000000000E+00 0. -1.
          1   -1    0    0  501    0 -0.00000000000E+00 -0.00000000000E+00 -0.94333236735E+01  0.94333236735E+01  0.00000000000E+00 0. -1.
          2    1    1    2  501    0  0.12963022748E+02  0.21883198443E+02  0.83595456138E+03  0.83634140339E+03  0.00000000000E+00 0. -1.
          1    1    1    2  502    0 -0.12963022748E+02 -0.21883198443E+02  0.82633751274E+01  0.26743180464E+02  0.00000000000E+00 0. -1.
</event>
<event>
 4    1  0.7416369E+003  0.2415969E+02  0.7546771E-02  0.1478428E+00
          2   -1    0    0  502    0  0.00000000000E+00  0.00000000000E+00  0.53099913998E+03  0.53099913998E+03  0.00000000000E+00 0.  1.
          1   -1    0    0  501    0 -0.00000000000E+00 -0.00000000000E+00 -0.24343252526E+01  0.24343252526E+01  0.00000000000E+00 0.  1.
          2    1    1    2  501    0  0.16673217620E+02 -0.17484113999E+02  0.46180510638E+03  0.46243664075E+03  0.00000000000E+00 0.  1.
          1    1    1    2  502    0 -0.16673217620E+02  0.17484113999E+02  0.66759708339E+02  0.70996824475E+02  0.00000000000E+00 0.  1.
</event>
<event>
 4    1  0.7416369E+003  0.2544404E+02  0.7546771E-02  0.1463897E+00
          2   -1    0    0  502    0  0.00000000000E+00  0.00000000000E+00  0.32194646529E+01  0.32194646529E+01  0.00000000000E+00 0.  1.
          1   -1    0    0  501    0 -0.00000000000E+00 -0.00000000000E+00 -0.34336335298E+03  0.34336335298E+03  0.00000000000E+00 0. -1.
          2    1    1    2  501    0  0.25437290276E+02  0.58586297027E+00 -0.58523542866E+02  0.63815390319E+02  0.00000000000E+00 0.  1.
          1    1    1    2  502    0 -0.25437290276E+02 -0.58586297027E+00 -0.28162034546E+03  0.28276742732E+03  0.00000000000E+00 0. -1.
</event>
<event>
 4    1  0.7416369E+003  0.2451944E+02  0.7546771E-02  0.1474252E+00
          2   -1    0    0  502    0  0.00000000000E+00  0.00000000000E+00  0.71561100389E+03  0.71561100389E+03  0.00000000000E+00 0.  1.
          1   -1    0    0  501    0 -0.00000000000E+00 -0.00000000000E+00 -0.11644260071E+01  0.11644260071E+01  0.00000000000E+00 0.  1.
          2    1    1    2  501    0  0.16492957559E+02  0.18143464949E+02  0.54635792037E+03  0.54690783512E+03  0.00000000000E+00 0.  1.
          1    1    1    2  502    0 -0.16492957559E+02 -0.18143464949E+02  0.16808865752E+03  0.16986759478E+03  0.00000000000E+00 0.  1.
</event>
<event>
 4    1  0.7416369E+003  0.2499557E+02  0.7546771E-02  0.1468853E+00
          2   -1    0    0  502    0  0.00000000000E+00  0.00000000000E+00  0.20864917736E+03  0.20864917736E+03  0.00000000000E+00 0.  1.
          1   -1    0    0  501    0 -0.00000000000E+00 -0.00000000000E+00 -0.17679463183E+04  0.17679463183E+04  0.00000000000E+00 0. -1.
          2    1    1    2  501    0  0.23316017958E+02 -0.90078628251E+01  0.20781187561E+03  0.20930970816E+03  0.00000000000E+00 0.  1.
          1    1    1    2  502    0 -0.23316017958E+02  0.90078628251E+01 -0.17671090165E+04  0.17672857875E+04  0.00000000000E+00 0. -1.
</event>
<event>
 4    1  0.7416369E+003  0.2039329E+02  0.7546771E-02  0.1528106E+00
          2   -1    0    0  502    0  0.00000000000E+00  0.00000000000E+00  0.14294532004E+03  0.14294532004E+03  0.00000000000E+00 0. -1.
          1   -1    0    0  501    0 -0.00000000000E+00 -0.00000000000E+00 -0.24012362094E+03  0.24012362094E+03  0.00000000000E+00 0.  1.
          2    1    1    2  501    0 -0.10898891403E+02  0.17236598994E+02  0.14178144022E+03  0.14324057724E+03  0.00000000000E+00 0. -1.
          1    1    1    2  502    0  0.10898891403E+02 -0.17236598994E+02 -0.23895974112E+03  0.23982836374E+03  0.00000000000E+00 0.  1.
</event>
<event>
 4    1  0.7416369E+003  0.2541792E+02  0.7546771E-02  0.1464182E+00
          2   -1    0    0  502    0  0.00000000000E+00  0.00000000000E+00  0.12216859826E+01  0.12216859826E+01  0.00000000000E+00 0. -1.
          1   -1    0    0  501    0 -0.00000000000E+00 -0.00000000000E+00 -0.15455964649E+04  0.15455964649E+04  0.00000000000E+00 0. -1.
          2    1    1    2  501    0 -0.22894231546E+02  0.11041945866E+02 -0.14489397577E+03  0.14710654174E+03  0.00000000000E+00 0. -1.
          1    1    1    2  502    0  0.22894231546E+02 -0.11041945866E+02 -0.13994808031E+04  0.13997116091E+04  0.00000000000E+00 0. -1.
</event>
<event>
 4    1  0.7416369E+003  0.2536110E+02  0.7546771E-02  0.1464804E+00
          2   -1    0    0  502    0  0.00000000000E+00  0.00000000000E+00  0.17265434455E+04  0.17265434455E+04  0.00000000000E+00 0.  1.
          1   -1    0    0  501    0 -0.00000000000E+00 -0.00000000000E+00 -0.46980797085E+00  0.46980797085E+00  0.00000000000E+00 0.  1.
          2    1    1    2  501    0 -0.28091354950E+01 -0.25205046111E+02  0.12559688556E+04  0.12562248811E+04  0.00000000000E+00 0.  1.
          1    1    1    2  502    0  0.28091354950E+01  0.25205046111E+02  0.47010478196E+03  0.47078837243E+03  0.00000000000E+00 0.  1.
</event>
<event>
 4    1  0.7416369E+003  0.2040182E+02  0.7546771E-02  0.1527979E+00
          2   -1    0    0  502    0  0.00000000000E+00  0.00000000000E+00  0.32197696598E+02  0.32197696598E+02  0.00000000000E+00 0.  1.
          1   -1    0    0  501    0 -0.00000000000E+00 -0.00000000000E+00 -0.93479197130E+03  0.93479197130E+03  0.00000000000E+00 0. -1.
          2    1    1    2  501    0  0.88386418049E+01  0.18387845805E+02  0.28842874944E+02  0.35329108358E+02  0.00000000000E+00 0.  1.
          1    1    1    2  502    0 -0.88386418049E+01 -0.18387845805E+02 -0.93143714964E+03  0.93166055954E+03  0.00000000000E+00 0. -1.
</event>
<event>
 4    1  0.7416369E+003  0.8687895E+02  0.7546771E-02  0.1188719E+00
          2   -1    0    0  502    0  0.00000000000E+00  0.00000000000E+00  0.68619468864E+03  0.68619468864E+03  0.00000000000E+00 0. -1.
          1   -1    0    0  501    0 -0.00000000000E+00 -0.00000000000E+00 -0.89045580977E+02  0.89045580977E+02  0.00000000000E+00 0.  1.
          2    1    1    2  501    0 -0.78892173069E+01  0.86520009093E+02  0.66146461264E+03  0.66714570035E+03  0.00000000000E+00 0. -1.
          1    1    1    2  502    0  0.78892173069E+01 -0.86520009093E+02 -0.64315504980E+02  0.10809456926E+03  0.00000000000E+00 0.  1.
</event>
<event>
 4    1  0.7416369E+003  0.2849497E+02  0.7546771E-02  0.1433142E+00
          2   -1    0    0  502    0  0.00000000000E+00  0.00000000000E+00  0.10293234729E+03  0.10293234729E+03  0.00000000000E+00 0. -1.
          1   -1    0    0  501    0 -0.00000000000E+00 -0.00000000000E+00 -0.27687358918E+03  0.27687358918E+03  0.00000000000E+00 0. -1.
          2    1    1    2  501    0  0.28484770231E+02  0.76252624534E+00  0.10020756491E+03  0.10418022675E+03  0.00000000000E+00 0. -1.
          1    1    1    2  502    0 -0.28484770231E+02 -0.76252624534E+00 -0.27414880680E+03  0.27562570971E+03  0.00000000000E+00 0. -1.
</event>
<event>
 4    1  0.7416369E+003  0.2032033E+02  0.7546771E-02  0.1529194E+00
          2   -1    0    0  502    0  0.00000000000E+00  0.00000000000E+00  0.34015857513E+03  0.34015857513E+03  0.00000000000E+00 0. -1.
          1   -1    0    0  501    0 -0.00000000000E+00 -0.00000000000E+00 -0.23859005122E+03  0.23859005122E+03  0.00000000000E+00 0. -1.
          2    1    1    2  501    0 -0.13166077722E+02  0.15478053452E+02  0.33942150107E+03  0.34002922100E+03  0.00000000000E+00 0. -1.
          1    1    1    2  502    0  0.13166077722E+02 -0.15478053452E+02 -0.23785297717E+03  0.23871940535E+03  0.00000000000E+00 0. -1.
</event>
<event>
 4    1  0.7416369E+003  0.2112234E+02  0.7546771E-02  0.1517525E+00
          2   -1    0    0  502    0  0.00000000000E+00  0.00000000000E+00  0.12703543253E+02  0.12703543253E+02  0.00000000000E+00 0. -1.
          1   -1    0    0  501    0 -0.00000000000E+00 -0.00000000000E+00 -0.11855535304E+04  0.11855535304E+04  0.00000000000E+00 0.  1.
          2    1    1    2  501    0  0.17342683755E+02  0.12057560948E+02  0.37626500633E+01  0.21454859388E+02  0.00000000000E+00 0. -1.
          1    1    1    2  502    0 -0.17342683755E+02 -0.12057560948E+02 -0.11766126372E+04  0.11768022143E+04  0.00000000000E+00 0.  1.
</event>
<event>
 4    1  0.7416369E+003  0.2339399E+02  0.7546771E-02  0.1487609E+00
          2   -1    0    0  502    0  0.00000000000E+00  0.00000000000E+00  0.84375038539E+03  0.84375038539E+03  0.00000000000E+00 0. -1.
          1   -1    0    0  501    0 -0.00000000000E+00 -0.00000000000E+00 -0.40720261495E+02  0.40720261495E+02  0.00000000000E+00 0. -1.
          2    1    1    2  501    0  0.13117363230E+02 -0.19370430062E+02  0.84021409946E+03  0.84053971453E+03  0.00000000000E+00 0. -1.
          1    1    1    2  502    0 -0.13117363230E+02  0.19370430062E+02 -0.37183975561E+02  0.43930932353E+02  0.00000000000E+00 0. -1.
</event>
<event>
 4    1  0.7416369E+003  0.2152247E+02  0.7546771E-02  0.1511934E+00
          2   -1    0    0  502    0  0.00000000000E+00  0.00000000000E+00  0.21097918640E+04  0.21097918640E+04  0.00000000000E+00 0.  1.
          1   -1    0    0  501    0 -0.00000000000E+00 -0.00000000000E+00 -0.22014642851E+00  0.22014642851E+00  0.00000000000E+00 0.  1.
          2    1    1    2  501    0  0.18581925022E+02 -0.10859483790E+02  0.10001244472E+04  0.10003559997E+04  0.00000000000E+00 0.  1.
          1    1    1    2  502    0 -0.18581925022E+02  0.10859483790E+02  0.11094472703E+04  0.11096560107E+04  0.00000000000E+00 0.  1.
</event>
<event>
 4    1  0.7416369E+003  0.3155639E+02  0.7546771E-02  0.1406537E+00
          2   -1    0    0  502    0  0.00000000000E+00  0.00000000000E+00  0.58778475270E+01  0.58778475270E+01  0.00000000000E+00 0. -1.
          1   -1    0    0  501    0 -0.00000000000E+00 -0.00000000000E+00 -0.92251270502E+03  0.92251270502E+03  0.00000000000E+00 0. -1.
          2    1    1    2  501    0  0.14059976569E+02 -0.28251070428E+02 -0.38906549678E+02  0.50095164730E+02  0.00000000000E+00 0. -1.
          1    1    1    2  502    0 -0.14059976569E+02  0.28251070428E+02 -0.87772830782E+03  0.87829538782E+03  0.00000000000E+00 0. -1.
</event>
<event>
 4    1  0.7416369E+003  0.2558467E+02  0.7546771E-02  0.1462368E+00
          2   -1    0    0  502    0  0.00000000000E+00  0.00000000000E+00  0.38884044148E+02  0.38884044148E+02  0.00000000000E+00 0.  1.
          1   -1    0    0  501    0 -0.00000000000E+00 -0.00000000000E+00 -0.52326682517E+02  0.52326682517E+02  0.00000000000E+00 0.  1.
          2    1    1    2  501    0  0.25564577959E+02 -0.10138440075E+01  0.30838499856E+02  0.40069796596E+02  0.00000000000E+00 0.  1.
          1    1    1    2  502    0 -0.25564577959E+02  0.10138440075E+01 -0.44281138224E+02  0.51140930069E+02  0.00000000000E+00 0.  1.
</event>
<event>
 4    1  0.7416369E+003  0.2123359E+02  0.7546771E-02  0.1515956E+00
          2   -1    0    0  502    0  0.00000000000E+00  0.00000000000E+00  0.73080085259E+01  0.73080085259E+01  0.00000000000E+00 0. -1.
          1   -1    0    0  501    0 -0.00000000000E+00 -0.00000000000E+00 -0.35412359871E+03  0.35412359871E+03  0.00000000000E+00 0. -1.
          2    1    1    2  501    0  0.11768326389E+02  0.17674039660E+02 -0.91867300128E+01  0.23135712486E+02  0.00000000000E+00 0. -1.
          1    1    1    2  502    0 -0.11768326389E+02 -0.17674039660E+02 -0.33762886017E+03  0.33829589474E+03  0.00000000000E+00 0. -1.
</event>
<event>
 4    1  0.7416369E+003  0.2025650E+02  0.7546771E-02  0.1530150E+00
          2   -1    0    0  502    0  0.00000000000E+00  0.00000000000E+00  0.15332677152E+04  0.15332677152E+04  0.00000000000E+00 0.  1.
          1   -1    0    0  501    0 -0.00000000000E+00 -0.00000000000E+00 -0.11534389434E+01  0.11534389434E+01  0.00000000000E+00 0.  1.
          2    1    1    2  501    0  0.75543938205E+01  0.18795130816E+02  0.14384001957E+04  0.14385428214E+04  0.00000000000E+00 0.  1.
          1    1    1    2  502    0 -0.75543938205E+01 -0.18795130816E+02  0.93714080492E+02  0.95878332750E+02  0.00000000000E+00 0.  1.
</event>
